   This run of MOLCAS is using the pymolcas driver

                             OPE
                             OPE          NMOL  CASOP  ENMOLC A   SO
                 OPE        NMOLC        AS  OP EN  MO LC     AS  OP
                OPENM       OL CA        SO  PE NM  OL CA     SOP EN
                OP EN      MO   LC       AS  OP ENMOL  CASO   PENMOL
                OP  EN     MO   LC       AS  OP EN     MO     LC ASO
               OP   E  NMOL  C  AS       OP  EN MO     LC     AS  OP
               OP  E   NMO   LC AS        OPEN  MO     LCASOP EN   M
               O  PEN   MO  LCA  SO
            OPE   NMO   L   CAS    OP
        OPENMOL  CASOP     ENMOL   CASOPE
     OPENMOLCA   SOPENMOLCASOPEN   MOLCASOPE
    OPENMOLCAS   OP           EN   MOL    CAS
    OPENMOLCAS       OP  ENM        O     LCA
    OPENMOLCAS    OPEN  MOLCASO     P  E  NMO
    OPENMOLCAS     OP               E  N  MOL
    OPENMOLCA   SO           PENM   O  L  CAS    OPEN    MO    LCAS
    OPENMOLCA   SOP           ENM   O  L  CAS   OP  EN  MOLC  AS   O
    OPENMOLCA   SOPE           NM      O  LCA   S      OP  EN MO
    OPENMOLC                AS         O  PEN   M      OL  CA  SOPE
    OPENMO        LCASOPE  NMOL        C  ASO   P      ENMOLC     AS
    OPE     NMO      LCA  SO     P     E   NM   OL  CA SO  PE N   MO
          OPENMOLCA            SOPE   NMO        LCAS  O    P  ENMO
     OPENMOLCASOPENMOLCASOPENMOLCASOPENMOLCA
        OPENMOLCASOPENMOLCASOPENMOLCASOPE
            OPENMOLCASOPENMOLCASOPENM
               OPENMOLCASOPENMOLCA        version: 1507f2d28
                   OPENMOLCASO
                       OPE                tag:

 OpenMolcas is free software; you can redistribute it and/or modify it
 under the terms of the GNU Lesser General Public License version 2.1.
 OpenMolcas is distributed in the hope that it will be useful, but it
 is provided "as is" and without any express or implied warranties.
 For more details see the full text of the license in the file
 LICENSE or in <http://www.gnu.org/licenses/>.

                 Copyright (C) The OpenMolcas Authors
           For the author list and the recommended citation,
                   consult the file CONTRIBUTORS.md

           *************************************************
           * pymolcas version py2.28                       *
           *   build c4a6d18ded8cb6cad61d2372a9abd97c      *
           *   (after the EMIL interpreter by V. Veryazov) *
           *************************************************

configuration info
------------------
C Compiler ID: IntelLLVM
C flags: -std=gnu99 -qopenmp
Fortran Compiler ID: IntelLLVM
Fortran flags: -standard-semantics -fltconsistency -fpp -i8 -heap-arrays -qopenmp
Definitions: _MOLCAS_;_I8_;_LINUX_
Parallel: OFF (GA=OFF)


   ----------------------------------------------------------------------------------
  |
  |              Project: H16_0.99
  |       Submitted from: /home/grierjones/DDCASPT2/hydrogen_comps/H16_chain/H16_0.99
  |         Scratch area: /tmp/H16_0.99
  |      Save outputs to: /home/grierjones/DDCASPT2/hydrogen_comps/H16_chain/H16_0.99
  |               Molcas: /home/grierjones/Test/build
  |
  | Scratch area is empty
  |
  |       MOLCAS_DRIVER = /usr/local/pymolcas
  | MOLCAS_KEEP_WORKDIR = NO
  |  MOLCAS_NEW_WORKDIR = YES
  |       MOLCAS_NPROCS = 1
  |        MOLCAS_PRINT = NORMAL
  |       MOLCAS_SOURCE = /home/grierjones/Test
  |    MOLCAS_STRUCTURE = 0
  |
   ----------------------------------------------------------------------------------

++ ---------   Input file   ---------

&GATEWAY
coord=H16_0.99.xyz
Basis = ANO-RCC-VDZP
Group = nosymm
Expert
End of Input

&SEWARD
End of Input

&SCF

>>> COPY $WorkDir/H16_0.99.scf.h5 $CurrDir/

&RASSCF
Title= RASSCF
NACTEL
16 0 0
Inactive
0
RAS2
16
Symmetry
1
Spin
1
orblisting
all
ITERation
300 200

>>> COPY $WorkDir/H16_0.99.rasscf.h5 $CurrDir/

>>> COPY $WorkDir/GMJ_Fock_MO.csv $CurrDir/H16_0.99.GMJ_Fock_MO.csv

>>> COPY $WorkDir/GMJ_PT2_Fock_MO.csv $CurrDir/H16_0.99.GMJ_PT2_Fock_MO.csv

&MOTRA
Frozen=0
LUMORB

>>> COPY $WorkDir/GMJ_one_int_indx.csv $CurrDir/H16_0.99.GMJ_one_int_indx.csv

>>> COPY $WorkDir/GMJ_one_int.csv $CurrDir/H16_0.99.GMJ_one_int.csv

>>> COPY $WorkDir/GMJ_two_int_indx.csv $CurrDir/H16_0.99.GMJ_two_int_indx.csv

>>> COPY $WorkDir/GMJ_two_int.csv $CurrDir/H16_0.99.GMJ_two_int.csv

&CASPT2
Frozen
0
MAXITER
50

>>> FOREACH i IN (B,E,F,G,H)

  >>> FOREACH j IN (P,M)

    >>> IF (-FILE GMJ_e2_${i}_${j}.csv)

      >>> COPY $WorkDir/GMJ_RHS_${i}_${j}.csv $CurrDir/GMJ_RHS_${i}_${j}.csv

      >>> COPY $WorkDir/GMJ_IVECW_${i}_${j}.csv $CurrDir/GMJ_IVECW_${i}_${j}.csv

      >>> COPY $WorkDir/GMJ_IVECX_${i}_${j}.csv $CurrDir/GMJ_IVECX_${i}_${j}.csv

      >>> COPY $WorkDir/GMJ_IVECC2_${i}_${j}.csv $CurrDir/GMJ_IVECC2_${i}_${j}.csv

      >>> COPY $WorkDir/GMJ_e2_${i}_${j}.csv $CurrDir/GMJ_e2_${i}_${j}.csv

    >>> END IF

  >>> END FOREACH

>>> END FOREACH

>>> FOREACH i IN (A,C,D)

  >>> IF (-FILE GMJ_e2_$i.csv)

    >>> COPY $WorkDir/GMJ_RHS_$i.csv $CurrDir/GMJ_RHS_$i.csv

    >>> COPY $WorkDir/GMJ_IVECW_$i.csv $CurrDir/GMJ_IVECW_$i.csv

    >>> COPY $WorkDir/GMJ_IVECX_$i.csv $CurrDir/GMJ_IVECX_$i.csv

    >>> COPY $WorkDir/GMJ_IVECC2_$i.csv $CurrDir/GMJ_IVECC2_$i.csv

    >>> COPY $WorkDir/GMJ_e2_$i.csv $CurrDir/GMJ_e2_$i.csv

  >>> END IF

>>> END FOREACH

-- ----------------------------------

--- Start Module: gateway at Tue Feb 25 12:57:30 2025 ---
 
()()()()()()()()()()()()()()()()()()()()()()()()()()()()()()()()()()()()()()()()()()()()()()()()()()

                                              &GATEWAY

                                   only a single process is used
                       available to each process: 2.0 GB of memory, 1 thread
()()()()()()()()()()()()()()()()()()()()()()()()()()()()()()()()()()()()()()()()()()()()()()()()()()
 
 ###############################################################################
 ###############################################################################
 ###                                                                         ###
 ###                                                                         ###
 ###                                                                         ###
 ###    WARNING: EXPERT option is ON!                                        ###
 ###                                                                         ###
 ###                                                                         ###
 ###############################################################################
 ###############################################################################
 
++    Symmetry information:
      ---------------------
 
                    Character Table for C1 
 
                             E  
                    a        1  x, y, xy, Rz, z, xz, Ry, yz, Rx, I
--
 
 
++    Basis set information:
      ----------------------
 
 
      Basis set label: H.ANO-RCC...2S1P.
 
      Electronic valence basis set:
      ------------------
      Associated Effective Charge   1.000000 au
      Associated Actual Charge      1.000000 au
      Nuclear Model: Point charge
 
      Shell  nPrim  nBasis  Cartesian Spherical Contaminant
         s       8       2        X                  
         p       4       1        X                  
--
 
 
++    Molecular structure info:
      -------------------------
 
                    ************************************************ 
                    **** Cartesian Coordinates / Bohr, Angstrom **** 
                    ************************************************ 
 
     Center  Label                x              y              z                     x              y              z
        1      H1               0.000000       0.000000       0.000000              0.000000       0.000000       0.000000
        2      H2               0.000000       0.000000       1.866821              0.000000       0.000000       0.987879
        3      H3               0.000000       0.000000       3.733642              0.000000       0.000000       1.975758
        4      H4               0.000000       0.000000       5.600460              0.000000       0.000000       2.963636
        5      H5               0.000000       0.000000       7.467281              0.000000       0.000000       3.951515
        6      H6               0.000000       0.000000       9.334102              0.000000       0.000000       4.939394
        7      H7               0.000000       0.000000      11.200923              0.000000       0.000000       5.927273
        8      H8               0.000000       0.000000      13.067743              0.000000       0.000000       6.915152
        9      H9               0.000000       0.000000      14.934562              0.000000       0.000000       7.903030
       10      H10              0.000000       0.000000      16.801383              0.000000       0.000000       8.890909
       11      H11              0.000000       0.000000      18.668204              0.000000       0.000000       9.878788
       12      H12              0.000000       0.000000      20.535025              0.000000       0.000000      10.866667
       13      H13              0.000000       0.000000      22.401843              0.000000       0.000000      11.854545
       14      H14              0.000000       0.000000      24.268664              0.000000       0.000000      12.842424
       15      H15              0.000000       0.000000      26.135485              0.000000       0.000000      13.830303
       16      H16              0.000000       0.000000      28.002306              0.000000       0.000000      14.818182
 
                    ************************************************* 
                    **** InterNuclear Distances / Bohr, Angstrom **** 
                    ************************************************* 
 
     Atom centers         Bohr        Angstrom
    2 H2        1 H1      1.866819        0.987878
    3 H3        2 H2    
    4 H4        3 H3    
    5 H5        4 H4    
    6 H6        5 H5    
    7 H7        6 H6    
    8 H8        7 H7    
    9 H9        8 H8    
   10 H10       9 H9    
   11 H11      10 H10   
   12 H12      11 H11   
   13 H13      12 H12   
   14 H14      13 H13   
   15 H15      14 H14   
   16 H16      15 H15   
    3 H3        1 H1      3.733640        1.975757
    4 H4        2 H2    
    5 H5        3 H3    
    6 H6        4 H4    
    7 H7        5 H5    
    8 H8        6 H6    
    9 H9        7 H7    
   10 H10       8 H8    
   11 H11       9 H9    
   12 H12      10 H10   
   13 H13      11 H11   
   14 H14      12 H12   
   15 H15      13 H13   
   16 H16      14 H14   
    4 H4        1 H1      5.600460        2.963636
    5 H5        2 H2    
    6 H6        3 H3    
    7 H7        4 H4    
    8 H8        5 H5    
    9 H9        6 H6    
   10 H10       7 H7    
   11 H11       8 H8    
   12 H12       9 H9    
   13 H13      10 H10   
   14 H14      11 H11   
   15 H15      12 H12   
   16 H16      13 H13   
--
 
 
            Nuclear Potential Energy             20.40456858 au
 
 ###############################################################################
 ###############################################################################
 ###                                                                         ###
 ###                                                                         ###
 ###    There were warnings during the execution                             ###
 ###    Please, check the output with care!                                  ###
 ###                                                                         ###
 ###                                                                         ###
 ###############################################################################
 ###############################################################################
--- Stop Module: gateway at Tue Feb 25 12:57:30 2025 /rc=_RC_ALL_IS_WELL_ ---
*** files: xmldump
    saved to directory /home/grierjones/DDCASPT2/hydrogen_comps/H16_chain/H16_0.99

--- Start Module: seward at Tue Feb 25 12:57:30 2025 ---
 
()()()()()()()()()()()()()()()()()()()()()()()()()()()()()()()()()()()()()()()()()()()()()()()()()()

                                              &SEWARD

                                   only a single process is used
                       available to each process: 2.0 GB of memory, 1 thread
()()()()()()()()()()()()()()()()()()()()()()()()()()()()()()()()()()()()()()()()()()()()()()()()()()
 
 ###############################################################################
 ###############################################################################
 ###                                                                         ###
 ###                                                                         ###
 ###                                                                         ###
 ###    WARNING: EXPERT option is ON!                                        ###
 ###                                                                         ###
 ###                                                                         ###
 ###############################################################################
 ###############################################################################
               SEWARD will generate:
                  Multipole Moment integrals up to order  2
                  Kinetic Energy integrals
                  Nuclear Attraction integrals (point charge)
                  One-Electron Hamiltonian integrals
                  Velocity integrals
                  Relativistic Douglas-Kroll-Hess integrals:
                    - Parametrization         : EXP
                    - DKH order of Hamiltonian: 2
                    - DKH order of Properties : 0
                         - multipole moment operators
                         - electric potential operators
                         - contact operators
                  Atomic mean-field integrals
                  Two-Electron Repulsion integrals
 
                   Integrals are discarded if absolute value <: 0.10E-13
                   Integral cutoff threshold is set to       <: 0.10E-15
 
            Nuclear Potential Energy             20.40456858 au
 
 
      Basis set specifications :
      Symmetry species         a  
      Basis functions           80
 
 
  Input file to MOLDEN was generated!
 
 ###############################################################################
 ###############################################################################
 ###                                                                         ###
 ###                                                                         ###
 ###    There were warnings during the execution                             ###
 ###    Please, check the output with care!                                  ###
 ###                                                                         ###
 ###                                                                         ###
 ###############################################################################
 ###############################################################################
forrtl: warning (525): IEEE_DIVIDE_BY_ZERO is signaling
forrtl: warning (526): IEEE_INVALID is signaling
forrtl: warning (528): IEEE_UNDERFLOW is signaling
--- Stop Module: seward at Tue Feb 25 12:57:33 2025 /rc=_RC_ALL_IS_WELL_ ---
*** files: H16_0.99.GssOrb H16_0.99.guessorb.h5 H16_0.99.guessorb.molden xmldump
    saved to directory /home/grierjones/DDCASPT2/hydrogen_comps/H16_chain/H16_0.99
--- Module seward spent 3 seconds ---

*** symbolic link created: INPORB -> H16_0.99.GssOrb
--- Start Module: scf at Tue Feb 25 12:57:33 2025 ---
 
()()()()()()()()()()()()()()()()()()()()()()()()()()()()()()()()()()()()()()()()()()()()()()()()()()

                                                &SCF

                                   only a single process is used
                       available to each process: 2.0 GB of memory, 1 thread
()()()()()()()()()()()()()()()()()()()()()()()()()()()()()()()()()()()()()()()()()()()()()()()()()()
 
++    Input section:
      --------------
 
      Header of the integral files:
      
       Integrals generated by seward 4.2.0  , Tue Feb 25 12:57:30 2025
 
 
      Cartesian coordinates in Angstrom:
      -----------------------------------------------------
      No.  Label        X            Y            Z        
      -----------------------------------------------------
       1   H1         0.00000000   0.00000000   0.00000000
       2   H2         0.00000000   0.00000000   0.98787900
       3   H3         0.00000000   0.00000000   1.97575800
       4   H4         0.00000000   0.00000000   2.96363600
       5   H5         0.00000000   0.00000000   3.95151500
       6   H6         0.00000000   0.00000000   4.93939400
       7   H7         0.00000000   0.00000000   5.92727300
       8   H8         0.00000000   0.00000000   6.91515200
       9   H9         0.00000000   0.00000000   7.90303000
      10   H10        0.00000000   0.00000000   8.89090900
      11   H11        0.00000000   0.00000000   9.87878800
      12   H12        0.00000000   0.00000000  10.86666700
      13   H13        0.00000000   0.00000000  11.85454500
      14   H14        0.00000000   0.00000000  12.84242400
      15   H15        0.00000000   0.00000000  13.83030300
      16   H16        0.00000000   0.00000000  14.81818200
      -----------------------------------------------------
      Nuclear repulsion energy =   20.40456858
--
 
++    Orbital specifications:
      -----------------------
 
      Symmetry species               1
                                     a
      Frozen orbitals                0
      Occupied orbitals              8
      Secondary orbitals            72
      Deleted orbitals               0
      Total number of orbitals      80
      Number of basis functions     80
--
 
      Molecular charge                           0.000
 
++    Optimization specifications:
      ----------------------------
 
      SCF Algorithm: Conventional
      Minimized density differences are used
      Number of density matrices in core                5
      Maximum number of NDDO SCF iterations           400
      Maximum number of HF SCF iterations             400
      Threshold for SCF energy change            0.10E-08
      Threshold for density matrix               0.10E-03
      Threshold for Fock matrix                  0.15E-03
      Threshold for linear dependence            0.10E-08
      Threshold at which DIIS is turned on       0.15E+00
      Threshold at which QNR/C2DIIS is turned on 0.75E-01
      Threshold for Norm(delta) (QNR/C2DIIS)     0.20E-04
      DIIS extrapolation of the SCF procedure
      All orbitals punched on: SCFORB
--
 
      Input vectors read from INPORB
      Orbital file label: *Guess orbitals
 
 
++ Convergence information
                                   SCF        iterations: Energy and convergence statistics
 
Iter     Tot. SCF        One-elec.       Two-elec.     Energy      Max Dij or  Max Fij      DNorm      TNorm      AccCon     Time
         Energy          Energy          Energy        Change      Delta Norm                                                in Sec.
   1    -8.421342188   -48.392767545    19.566856781   0.00E+00    0.27E+00*   0.20E+00*    0.54E+01   0.29E+02   None         0.
   2    -8.593750265   -48.943990818    19.945671977  -0.17E+00*   0.97E-01*   0.21E-01*    0.24E+01   0.29E+02   EDIIS        0.
   3    -8.602386415   -48.918967216    19.912012225  -0.86E-02*   0.40E-01*   0.78E-02*    0.56E+00   0.29E+02   EDIIS        0.
   4    -8.603810420   -48.931087135    19.922708139  -0.14E-02*   0.15E-01*   0.57E-02*    0.19E+00   0.29E+02   c2DIIS       0.
   5    -8.604308724   -48.931042772    19.922165473  -0.50E-03*   0.41E-02*   0.11E-02*    0.49E-01   0.29E+02   QNRc2DIIS    0.
   6    -8.604334797   -48.931187906    19.922284533  -0.26E-04*   0.44E-02*   0.49E-03*    0.90E-02   0.29E+02   QNRc2DIIS    0.
   7    -8.604344643   -48.930526509    19.921613290  -0.98E-05*   0.15E-03*   0.51E-04     0.25E-02   0.29E+02   QNRc2DIIS    0.
   8    -8.604344688   -48.930557127    19.921643864  -0.45E-07*   0.41E-04*   0.14E-04     0.47E-03   0.29E+02   QNRc2DIIS    0.
   9    -8.604344690   -48.930581153    19.921667887  -0.23E-08*   0.26E-05    0.74E-06     0.10E-03   0.29E+02   QNRc2DIIS    0.
  10    -8.604344690   -48.930579478    19.921666212  -0.12E-10    0.37E-06    0.75E-07     0.12E-04   0.29E+02   QNRc2DIIS    0.
 
       Convergence after 10 Macro Iterations
--
 
 *****************************************************************************************************************************
 *                                                                                                                           *
 *                                             SCF/KS-DFT Program, Final results                                             *
 *                                                                                                                           *
 *                                                                                                                           *
 *                                                                                                                           *
 *                                                       Final Results                                                       *
 *                                                                                                                           *
 *****************************************************************************************************************************
 
::    Total SCF energy                                 -8.6043446903
      One-electron energy                             -48.9305794779
      Two-electron energy                              19.9216662120
      Nuclear repulsion energy                         20.4045685756
      Kinetic energy (interpolated)                     8.2577678074
      Virial theorem                                    1.0419698024
      Total spin, S(S+1)                                0.0000000000
      Total spin, S                                     0.0000000000
      Max non-diagonal density matrix element           0.0000002590
      Max non-diagonal Fock matrix element              0.0000000058
 
 
      All orbitals with orbital energies smaller than  E(LUMO)+0.5 are printed
 
++    Molecular orbitals:
      -------------------
 
      Title: SCF orbitals

      Molecular orbitals for symmetry species 1: a  
 
          Orbital            1         2         3         4         5         6         7         8         9        10    
          Energy           -0.7423   -0.7205   -0.6849   -0.6351   -0.5708   -0.4919   -0.3991   -0.2990   -0.0075    0.0949
          Occ. No.          2.0000    2.0000    2.0000    2.0000    2.0000    2.0000    2.0000    2.0000    0.0000    0.0000
 
        1 H1     1s         0.0454   -0.0935    0.1425   -0.1875    0.2267   -0.2642    0.2995   -0.2819    0.4802   -0.7607
        2 H1     2s         0.0045   -0.0077    0.0081   -0.0046   -0.0002   -0.0030    0.0238   -0.0510    0.2357   -0.5017
        3 H1     2px        0.0000    0.0000   -0.0000    0.0000    0.0000    0.0000   -0.0000    0.0000   -0.0000    0.0000
        4 H1     2py        0.0000   -0.0000    0.0000   -0.0000    0.0000   -0.0000    0.0000   -0.0000    0.0000   -0.0000
        5 H1     2pz        0.0044   -0.0091    0.0132   -0.0154    0.0148   -0.0121    0.0083   -0.0043    0.0015   -0.0033
        6 H2     1s         0.0589   -0.1204    0.1787   -0.2274    0.2636   -0.2785    0.2475   -0.1442   -0.2176    0.6863
        7 H2     2s        -0.0152    0.0277   -0.0344    0.0293   -0.0050   -0.0351    0.0681   -0.0596   -0.0934    0.3418
        8 H2     2px       -0.0000    0.0000    0.0000   -0.0000    0.0000    0.0000   -0.0000    0.0000   -0.0000    0.0000
        9 H2     2py        0.0000   -0.0000    0.0000   -0.0000   -0.0000   -0.0000    0.0000   -0.0000    0.0000   -0.0000
       10 H2     2pz        0.0028   -0.0055    0.0059   -0.0014   -0.0078    0.0183   -0.0255    0.0232   -0.0154   -0.0009
       11 H3     1s         0.1227   -0.2106    0.2343   -0.1791    0.0506    0.1313   -0.3215    0.3842   -0.4518    0.2817
       12 H3     2s        -0.0037    0.0129   -0.0242    0.0302   -0.0303    0.0395   -0.0736    0.1020   -0.1615    0.0707
       13 H3     2px       -0.0000    0.0000    0.0000   -0.0000    0.0000   -0.0000   -0.0000    0.0000   -0.0000    0.0000
       14 H3     2py       -0.0000    0.0000   -0.0000    0.0000    0.0000   -0.0000    0.0000   -0.0000   -0.0000    0.0000
       15 H3     2pz        0.0038   -0.0055    0.0017    0.0084   -0.0193    0.0240   -0.0194    0.0086    0.0124   -0.0269
       16 H4     1s         0.1366   -0.2239    0.2139   -0.0982   -0.0802    0.2495   -0.3188    0.2152    0.2214   -0.5210
       17 H4     2s        -0.0212    0.0257   -0.0102   -0.0169    0.0305   -0.0025   -0.0535    0.0687    0.0691   -0.2206
       18 H4     2px       -0.0000    0.0000   -0.0000   -0.0000    0.0000   -0.0000    0.0000    0.0000   -0.0000    0.0000
       19 H4     2py        0.0000   -0.0000    0.0000   -0.0000   -0.0000    0.0000   -0.0000    0.0000   -0.0000    0.0000
       20 H4     2pz        0.0016   -0.0000   -0.0078    0.0177   -0.0182    0.0046    0.0150   -0.0238    0.0252   -0.0182
       21 H5     1s         0.1868   -0.2192    0.0678    0.1519   -0.2625    0.1482    0.1638   -0.3959    0.4977   -0.1340
       22 H5     2s        -0.0122    0.0266   -0.0271    0.0088    0.0058   -0.0100    0.0461   -0.1043    0.1964   -0.0694
       23 H5     2px        0.0000    0.0000    0.0000    0.0000   -0.0000   -0.0000    0.0000   -0.0000   -0.0000    0.0000
       24 H5     2py       -0.0000   -0.0000    0.0000   -0.0000    0.0000   -0.0000   -0.0000    0.0000   -0.0000    0.0000
       25 H5     2pz        0.0032    0.0002   -0.0109    0.0161   -0.0039   -0.0163    0.0243   -0.0137   -0.0158    0.0231
       26 H6     1s         0.1966   -0.2027   -0.0024    0.2166   -0.2091   -0.0483    0.3214   -0.2942   -0.3402    0.6171
       27 H6     2s        -0.0242    0.0110    0.0217   -0.0278   -0.0087    0.0208    0.0463   -0.0886   -0.1263    0.2825
       28 H6     2px       -0.0000   -0.0000   -0.0000    0.0000   -0.0000   -0.0000    0.0000   -0.0000   -0.0000    0.0000
       29 H6     2py        0.0000    0.0000   -0.0000    0.0000   -0.0000    0.0000   -0.0000   -0.0000   -0.0000    0.0000
       30 H6     2pz        0.0002    0.0052   -0.0124    0.0044    0.0167   -0.0214   -0.0022    0.0239   -0.0233   -0.0020
       31 H7     1s         0.2242   -0.1062   -0.1761    0.2025    0.0883   -0.2892    0.0290    0.3880   -0.4604   -0.2066
       32 H7     2s        -0.0193    0.0252    0.0021   -0.0277    0.0205   -0.0152   -0.0173    0.1065   -0.1746   -0.1051
       33 H7     2px       -0.0000    0.0000   -0.0000   -0.0000    0.0000   -0.0000   -0.0000   -0.0000   -0.0000   -0.0000
       34 H7     2py        0.0000   -0.0000    0.0000    0.0000    0.0000   -0.0000   -0.0000   -0.0000    0.0000    0.0000
       35 H7     2pz        0.0023    0.0055   -0.0103   -0.0066    0.0217   -0.0041   -0.0217    0.0184    0.0193   -0.0214
       36 H8     1s         0.2278   -0.0672   -0.2149    0.1222    0.2089   -0.2002   -0.2108    0.3510    0.4094   -0.4457
       37 H8     2s        -0.0235   -0.0098    0.0285    0.0105   -0.0197   -0.0299   -0.0177    0.0996    0.1535   -0.2043
       38 H8     2px       -0.0000    0.0000    0.0000   -0.0000   -0.0000    0.0000   -0.0000   -0.0000   -0.0000   -0.0000
       39 H8     2py       -0.0000   -0.0000   -0.0000   -0.0000    0.0000    0.0000   -0.0000   -0.0000   -0.0000    0.0000
       40 H8     2pz       -0.0011    0.0075   -0.0025   -0.0171    0.0086    0.0212   -0.0119   -0.0219    0.0221    0.0107
       41 H9     1s         0.2278    0.0672   -0.2149   -0.1222    0.2089    0.2002   -0.2108   -0.3510    0.4094    0.4457
       42 H9     2s        -0.0235    0.0098    0.0285   -0.0105   -0.0197    0.0299   -0.0177   -0.0996    0.1535    0.2043
       43 H9     2px        0.0000   -0.0000   -0.0000    0.0000   -0.0000   -0.0000    0.0000    0.0000    0.0000   -0.0000
       44 H9     2py       -0.0000    0.0000    0.0000   -0.0000   -0.0000   -0.0000   -0.0000   -0.0000    0.0000   -0.0000
       45 H9     2pz        0.0011    0.0075    0.0025   -0.0171   -0.0086    0.0212    0.0119   -0.0219   -0.0221    0.0107
       46 H10    1s         0.2242    0.1062   -0.1761   -0.2025    0.0883    0.2892    0.0290   -0.3880   -0.4604    0.2066
       47 H10    2s        -0.0193   -0.0252    0.0021    0.0277    0.0205    0.0152   -0.0173   -0.1065   -0.1746    0.1051
       48 H10    2px       -0.0000   -0.0000   -0.0000    0.0000   -0.0000    0.0000   -0.0000   -0.0000    0.0000   -0.0000
       49 H10    2py        0.0000    0.0000   -0.0000    0.0000    0.0000    0.0000   -0.0000    0.0000   -0.0000   -0.0000
       50 H10    2pz       -0.0023    0.0055    0.0103   -0.0066   -0.0217   -0.0041    0.0217    0.0184   -0.0193   -0.0214
       51 H11    1s         0.1966    0.2027   -0.0024   -0.2166   -0.2091    0.0483    0.3213    0.2942   -0.3402   -0.6171
       52 H11    2s        -0.0242   -0.0110    0.0217    0.0278   -0.0087   -0.0208    0.0463    0.0886   -0.1263   -0.2825
       53 H11    2px        0.0000    0.0000    0.0000    0.0000    0.0000   -0.0000   -0.0000    0.0000    0.0000   -0.0000
       54 H11    2py       -0.0000   -0.0000    0.0000    0.0000   -0.0000   -0.0000    0.0000    0.0000    0.0000   -0.0000
       55 H11    2pz       -0.0002    0.0052    0.0124    0.0044   -0.0167   -0.0214    0.0022    0.0239    0.0233   -0.0020
       56 H12    1s         0.1868    0.2192    0.0678   -0.1519   -0.2625   -0.1482    0.1638    0.3959    0.4977    0.1340
       57 H12    2s        -0.0122   -0.0266   -0.0271   -0.0088    0.0058    0.0100    0.0461    0.1043    0.1964    0.0694
       58 H12    2px       -0.0000    0.0000   -0.0000   -0.0000    0.0000    0.0000    0.0000   -0.0000   -0.0000    0.0000
       59 H12    2py        0.0000    0.0000   -0.0000   -0.0000    0.0000   -0.0000    0.0000   -0.0000    0.0000   -0.0000
       60 H12    2pz       -0.0032    0.0002    0.0109    0.0161    0.0039   -0.0163   -0.0243   -0.0137    0.0158    0.0231
       61 H13    1s         0.1366    0.2239    0.2139    0.0982   -0.0802   -0.2495   -0.3188   -0.2152    0.2214    0.5210
       62 H13    2s        -0.0212   -0.0257   -0.0102    0.0169    0.0305    0.0025   -0.0535   -0.0687    0.0691    0.2206
       63 H13    2px       -0.0000   -0.0000    0.0000   -0.0000    0.0000    0.0000    0.0000   -0.0000   -0.0000    0.0000
       64 H13    2py       -0.0000    0.0000    0.0000   -0.0000   -0.0000    0.0000    0.0000    0.0000   -0.0000    0.0000
       65 H13    2pz       -0.0016   -0.0000    0.0078    0.0177    0.0182    0.0046   -0.0150   -0.0238   -0.0252   -0.0182
       66 H14    1s         0.1227    0.2106    0.2343    0.1791    0.0506   -0.1313   -0.3215   -0.3842   -0.4518   -0.2817
       67 H14    2s        -0.0037   -0.0129   -0.0242   -0.0302   -0.0303   -0.0395   -0.0736   -0.1020   -0.1615   -0.0707
       68 H14    2px        0.0000    0.0000   -0.0000    0.0000    0.0000   -0.0000   -0.0000   -0.0000    0.0000    0.0000
       69 H14    2py        0.0000   -0.0000   -0.0000   -0.0000   -0.0000    0.0000    0.0000   -0.0000    0.0000   -0.0000
       70 H14    2pz       -0.0038   -0.0055   -0.0017    0.0084    0.0193    0.0240    0.0194    0.0086   -0.0124   -0.0269
       71 H15    1s         0.0589    0.1204    0.1787    0.2274    0.2636    0.2785    0.2475    0.1442   -0.2176   -0.6863
       72 H15    2s        -0.0152   -0.0277   -0.0344   -0.0293   -0.0050    0.0351    0.0681    0.0596   -0.0934   -0.3418
       73 H15    2px       -0.0000   -0.0000   -0.0000    0.0000    0.0000   -0.0000   -0.0000    0.0000    0.0000   -0.0000
       74 H15    2py       -0.0000   -0.0000   -0.0000    0.0000    0.0000    0.0000    0.0000    0.0000    0.0000   -0.0000
       75 H15    2pz       -0.0028   -0.0055   -0.0059   -0.0014    0.0078    0.0183    0.0255    0.0232    0.0154   -0.0009
       76 H16    1s         0.0454    0.0935    0.1425    0.1875    0.2267    0.2642    0.2995    0.2819    0.4802    0.7607
       77 H16    2s         0.0045    0.0077    0.0081    0.0046   -0.0002    0.0030    0.0238    0.0510    0.2357    0.5017
       78 H16    2px       -0.0000    0.0000   -0.0000   -0.0000   -0.0000   -0.0000    0.0000    0.0000    0.0000    0.0000
       79 H16    2py       -0.0000    0.0000    0.0000   -0.0000    0.0000   -0.0000   -0.0000   -0.0000    0.0000    0.0000
       80 H16    2pz       -0.0044   -0.0091   -0.0132   -0.0154   -0.0148   -0.0121   -0.0083   -0.0043   -0.0015   -0.0033
 
          Orbital           11        12        13        14        15        16        17    
          Energy            0.1764    0.1964    0.2119    0.2792    0.2800    0.3899    0.3902
          Occ. No.          0.0000    0.0000    0.0000    0.0000    0.0000    0.0000    0.0000
 
        1 H1     1s         0.4935   -0.6422    0.0428   -0.4956   -0.6586    0.5544   -0.8034
        2 H1     2s         0.5106   -0.5224   -0.2064   -0.0781   -0.7487    0.7636   -0.3105
        3 H1     2px       -0.0000    0.0000    0.0000   -0.0000    0.0000    0.0000   -0.0000
        4 H1     2py        0.0000   -0.0000   -0.0000    0.0000   -0.0000    0.0000    0.0000
        5 H1     2pz       -0.0002   -0.0136    0.0075   -0.0057   -0.0293    0.0517    0.0046
        6 H2     1s        -0.7770    0.7826    0.2743    0.3469    1.0474   -0.8920    1.0604
        7 H2     2s        -0.3412    0.4629   -0.0054    0.4147    0.6258   -0.6409    0.8975
        8 H2     2px       -0.0000   -0.0000    0.0000   -0.0000   -0.0000    0.0000    0.0000
        9 H2     2py        0.0000   -0.0000    0.0000   -0.0000   -0.0000   -0.0000   -0.0000
       10 H2     2pz        0.0189   -0.0399   -0.0096    0.0125   -0.0938    0.1353    0.0188
       11 H3     1s         0.2367   -0.2698   -0.3048    0.1847   -0.9004    1.1216   -0.3684
       12 H3     2s         0.2746   -0.1396   -0.3738    0.3228   -0.5059    0.5574   -0.0363
       13 H3     2px       -0.0000   -0.0000    0.0000   -0.0000   -0.0000    0.0000    0.0000
       14 H3     2py       -0.0000    0.0000    0.0000   -0.0000    0.0000   -0.0000   -0.0000
       15 H3     2pz        0.0124   -0.0412    0.0063    0.0070   -0.0531    0.0403    0.0425
       16 H4     1s         0.1751   -0.3169    0.2600   -0.5479    0.2627   -1.0370   -0.3875
       17 H4     2s         0.1790   -0.0489   -0.0581   -0.1298    0.3091   -0.8640   -0.1816
       18 H4     2px       -0.0000   -0.0000    0.0000   -0.0000   -0.0000    0.0000    0.0000
       19 H4     2py       -0.0000    0.0000    0.0000   -0.0000    0.0000   -0.0000   -0.0000
       20 H4     2pz       -0.0053   -0.0222    0.0005    0.0470   -0.0247    0.0046    0.0973
       21 H5     1s        -0.3859    0.2999    0.2074    0.3175    0.4575    0.1301    0.8120
       22 H5     2s        -0.0644    0.2657   -0.0843    0.2340    0.4094   -0.1030    0.3213
       23 H5     2px       -0.0000   -0.0000    0.0000    0.0000    0.0000    0.0000    0.0000
       24 H5     2py       -0.0000    0.0000   -0.0000    0.0000    0.0000   -0.0000   -0.0000
       25 H5     2pz       -0.0072   -0.0144   -0.0248    0.0726   -0.0247   -0.0231    0.0617
       26 H6     1s        -0.1045    0.0394   -0.2315    0.2092   -0.5707    0.5909   -0.6678
       27 H6     2s         0.0568    0.1881   -0.2590    0.0545   -0.1103    0.2726   -0.6186
       28 H6     2px       -0.0000    0.0000   -0.0000   -0.0000   -0.0000    0.0000    0.0000
       29 H6     2py        0.0000    0.0000    0.0000    0.0000    0.0000   -0.0000   -0.0000
       30 H6     2pz        0.0150   -0.0338   -0.0306    0.0464    0.0019   -0.0854    0.0018
       31 H7     1s         0.3817   -0.5446    0.0545   -0.5205   -0.0016   -0.8360   -0.2366
       32 H7     2s         0.3075   -0.0931   -0.0686   -0.4352    0.1313   -0.3640   -0.3565
       33 H7     2px       -0.0000    0.0000    0.0000    0.0000   -0.0000    0.0000    0.0000
       34 H7     2py        0.0000   -0.0000    0.0000    0.0000    0.0000   -0.0000    0.0000
       35 H7     2pz       -0.0059   -0.0060   -0.0252    0.0457    0.0568   -0.0695   -0.0138
       36 H8     1s        -0.3142    0.2158    0.2638    0.2852    0.5676    0.4711    0.7731
       37 H8     2s        -0.0362    0.3026    0.1050   -0.0660    0.3560    0.4905    0.3560
       38 H8     2px        0.0000    0.0000    0.0000   -0.0000   -0.0000   -0.0000    0.0000
       39 H8     2py        0.0000    0.0000   -0.0000   -0.0000    0.0000   -0.0000    0.0000
       40 H8     2pz       -0.0128    0.0099   -0.0434    0.0303    0.0414   -0.0051   -0.0815
       41 H9     1s        -0.3142    0.2158   -0.2638    0.2852   -0.5677    0.4711   -0.7731
       42 H9     2s        -0.0362    0.3026   -0.1050   -0.0660   -0.3560    0.4905   -0.3560
       43 H9     2px       -0.0000    0.0000    0.0000    0.0000   -0.0000   -0.0000    0.0000
       44 H9     2py        0.0000    0.0000    0.0000    0.0000   -0.0000    0.0000   -0.0000
       45 H9     2pz        0.0128   -0.0099   -0.0434   -0.0303    0.0414    0.0051   -0.0815
       46 H10    1s         0.3817   -0.5446   -0.0545   -0.5205    0.0017   -0.8361    0.2365
       47 H10    2s         0.3075   -0.0931    0.0686   -0.4352   -0.1313   -0.3640    0.3565
       48 H10    2px       -0.0000   -0.0000    0.0000    0.0000   -0.0000   -0.0000   -0.0000
       49 H10    2py       -0.0000    0.0000    0.0000   -0.0000   -0.0000    0.0000   -0.0000
       50 H10    2pz        0.0059    0.0060   -0.0252   -0.0457    0.0568    0.0695   -0.0138
       51 H11    1s        -0.1045    0.0394    0.2315    0.2093    0.5707    0.5909    0.6679
       52 H11    2s         0.0568    0.1881    0.2590    0.0545    0.1103    0.2725    0.6186
       53 H11    2px        0.0000    0.0000    0.0000    0.0000    0.0000   -0.0000   -0.0000
       54 H11    2py        0.0000    0.0000    0.0000    0.0000   -0.0000   -0.0000   -0.0000
       55 H11    2pz       -0.0150    0.0338   -0.0306   -0.0464    0.0019    0.0854    0.0018
       56 H12    1s        -0.3859    0.2999   -0.2074    0.3174   -0.4575    0.1301   -0.8120
       57 H12    2s        -0.0644    0.2657    0.0843    0.2340   -0.4094   -0.1029   -0.3213
       58 H12    2px       -0.0000    0.0000    0.0000   -0.0000   -0.0000    0.0000    0.0000
       59 H12    2py        0.0000   -0.0000   -0.0000   -0.0000   -0.0000   -0.0000    0.0000
       60 H12    2pz        0.0072    0.0144   -0.0248   -0.0726   -0.0247    0.0231    0.0617
       61 H13    1s         0.1751   -0.3169   -0.2600   -0.5479   -0.2626   -1.0370    0.3874
       62 H13    2s         0.1790   -0.0489    0.0581   -0.1298   -0.3091   -0.8640    0.1815
       63 H13    2px       -0.0000   -0.0000    0.0000    0.0000    0.0000   -0.0000   -0.0000
       64 H13    2py        0.0000   -0.0000    0.0000   -0.0000    0.0000    0.0000    0.0000
       65 H13    2pz        0.0053    0.0222    0.0005   -0.0470   -0.0247   -0.0046    0.0973
       66 H14    1s         0.2367   -0.2698    0.3048    0.1848    0.9004    1.1216    0.3685
       67 H14    2s         0.2746   -0.1396    0.3738    0.3228    0.5059    0.5574    0.0364
       68 H14    2px       -0.0000   -0.0000    0.0000   -0.0000   -0.0000    0.0000    0.0000
       69 H14    2py        0.0000    0.0000    0.0000    0.0000   -0.0000   -0.0000    0.0000
       70 H14    2pz       -0.0124    0.0412    0.0063   -0.0070   -0.0531   -0.0403    0.0425
       71 H15    1s        -0.7770    0.7826   -0.2743    0.3468   -1.0474   -0.8919   -1.0605
       72 H15    2s        -0.3412    0.4629    0.0054    0.4146   -0.6259   -0.6408   -0.8975
       73 H15    2px       -0.0000    0.0000    0.0000   -0.0000    0.0000   -0.0000    0.0000
       74 H15    2py       -0.0000    0.0000   -0.0000    0.0000    0.0000   -0.0000    0.0000
       75 H15    2pz       -0.0189    0.0399   -0.0096   -0.0125   -0.0938   -0.1353    0.0187
       76 H16    1s         0.4935   -0.6422   -0.0428   -0.4956    0.6587    0.5544    0.8035
       77 H16    2s         0.5106   -0.5224    0.2064   -0.0780    0.7487    0.7635    0.3105
       78 H16    2px        0.0000    0.0000   -0.0000    0.0000    0.0000   -0.0000    0.0000
       79 H16    2py        0.0000    0.0000   -0.0000    0.0000    0.0000   -0.0000   -0.0000
       80 H16    2pz        0.0002    0.0136    0.0075    0.0057   -0.0293   -0.0517    0.0045
--
 
 
++    Molecular charges:
      ------------------
 
      Mulliken charges per centre and basis function type
      ---------------------------------------------------
 
                H1      H2      H3      H4      H5      H6      H7      H8      H9      H10     H11     H12   
      1s       1.0223  0.9681  1.0292  0.9681  1.0096  0.9891  1.0016  0.9952  0.9952  1.0016  0.9891  1.0096
      2s      -0.0007 -0.0256 -0.0824 -0.0450 -0.0520 -0.0472 -0.0515 -0.0495 -0.0495 -0.0515 -0.0472 -0.0520
      2px      0.0000  0.0000  0.0000  0.0000  0.0000  0.0000  0.0000  0.0000  0.0000  0.0000  0.0000  0.0000
      2pz      0.0212  0.0517  0.0501  0.0502  0.0486  0.0500  0.0492  0.0496  0.0496  0.0492  0.0500  0.0486
      2py      0.0000  0.0000  0.0000  0.0000  0.0000 -0.0000  0.0000  0.0000  0.0000  0.0000  0.0000  0.0000
      Total    1.0428  0.9941  0.9969  0.9734  1.0062  0.9918  0.9993  0.9953  0.9953  0.9993  0.9918  1.0062
 
      N-E     -0.0428  0.0059  0.0031  0.0266 -0.0062  0.0082  0.0007  0.0047  0.0047  0.0007  0.0082 -0.0062
 
                H13     H14     H15     H16   
      1s       0.9681  1.0292  0.9681  1.0223
      2s      -0.0450 -0.0824 -0.0256 -0.0007
      2px      0.0000  0.0000  0.0000  0.0000
      2pz      0.0502  0.0501  0.0517  0.0212
      2py      0.0000  0.0000  0.0000  0.0000
      Total    0.9734  0.9969  0.9941  1.0428
 
      N-E      0.0266  0.0031  0.0059 -0.0428
 
      Total electronic charge=   16.000000
 
      Total            charge=   -0.000000
--
 
 
  Input file to MOLDEN was generated!
 
 
++    Static properties:
      ------------------
 
 
      LoProp Charges per center
 

                   H1       H2       H3       H4       H5       H6       H7       H8       H9       H10   
      Nuclear      1.0000   1.0000   1.0000   1.0000   1.0000   1.0000   1.0000   1.0000   1.0000   1.0000
      Electronic  -1.0379  -0.9856  -1.0013  -0.9871  -1.0017  -0.9921  -0.9987  -0.9957  -0.9957  -0.9987
 
      Total       -0.0379   0.0144  -0.0013   0.0129  -0.0017   0.0079   0.0013   0.0043   0.0043   0.0013
 

                   H11      H12      H13      H14      H15      H16   
      Nuclear      1.0000   1.0000   1.0000   1.0000   1.0000   1.0000
      Electronic  -0.9921  -1.0017  -0.9871  -1.0013  -0.9856  -1.0379
 
      Total        0.0079  -0.0017   0.0129  -0.0013   0.0144  -0.0379
--
 
 
++    Natural Bond Order analysis
      ---------------------------
      Based on LoProp computed density
      -------------------------------------------------------------------------------------
      Atom A       Atom B       Bond Order | Atom A       Atom B       Bond Order
        H1           H2             0.985  |   H9           H10            0.932
        H3           H4             0.947  |   H11          H12            0.936
        H5           H6             0.936  |   H13          H14            0.947
        H7           H8             0.932  |   H15          H16            0.985
      -------------------------------------------------------------------------------------
      NBO located     15.196 electrons involved in    8 bonds.
      The remaining    0.804 electrons are to be considered as diffuse
--
 
 
++    Molecular properties:
      ---------------------
 
      Charge (e):
                      =   -0.0000
      Dipole Moment (Debye):
      Origin of the operator (Ang)=    0.0000    0.0000    0.0000
                   X=  5.3783E-14               Y= -3.6364E-13               Z= -3.7097E-06           Total=  3.7097E-06
      Quadrupole Moment (Debye*Ang):
      Origin of the operator (Ang)=    0.0000    0.0000    7.4091
                  XX= -1.7657E+01              XY=  1.8802E-27              XZ= -3.3091E-13              YY= -1.7657E+01
                  YZ=  2.5996E-12              ZZ= -2.7949E+01
      In traceless form (Debye*Ang)
                  XX=  5.1457E+00              XY=  2.8202E-27              XZ= -4.9636E-13              YY=  5.1457E+00
                  YZ=  3.8993E-12              ZZ= -1.0291E+01
--
 
 
  Input file to MOLDEN was generated!
 
 ###############################################################################
 ###############################################################################
 ###                                                                         ###
 ###                                                                         ###
 ###    RunFile label nBas                                                   ###
 ###    was used       78 times                                              ###
 ###                                                                         ###
 ###                                                                         ###
 ###############################################################################
 ###############################################################################
forrtl: warning (528): IEEE_UNDERFLOW is signaling
--- Stop Module: scf at Tue Feb 25 12:57:34 2025 /rc=_RC_ALL_IS_WELL_ ---
*** files: H16_0.99.LprOrb H16_0.99.LoProp.molden H16_0.99.scf.molden H16_0.99.ScfOrb H16_0.99.scf.h5 xmldump
    saved to directory /home/grierjones/DDCASPT2/hydrogen_comps/H16_chain/H16_0.99

>>> COPY /tmp/H16_0.99/H16_0.99.scf.h5 /home/grierjones/DDCASPT2/hydrogen_comps/H16_chain/H16_0.99/

*** symbolic link created: INPORB -> H16_0.99.ScfOrb
--- Start Module: rasscf at Tue Feb 25 12:57:34 2025 ---
 
()()()()()()()()()()()()()()()()()()()()()()()()()()()()()()()()()()()()()()()()()()()()()()()()()()

                                              &RASSCF

                                   only a single process is used
                       available to each process: 2.0 GB of memory, 1 thread
()()()()()()()()()()()()()()()()()()()()()()()()()()()()()()()()()()()()()()()()()()()()()()()()()()
 
 
 *************** WARNING ****************
 ###############################################################################
 ###############################################################################
 ###                                                                         ###
 ###                                                                         ###
 ###    Too many macro-iterations.                                           ###
 ###                                                                         ###
 ###                                                                         ###
 ###############################################################################
 ###############################################################################
 Too many macro-iterations requested.
 Reset to maximum, new MAXIT=     200
 ****************************************
 
 *************** WARNING ****************
 ###############################################################################
 ###############################################################################
 ###                                                                         ###
 ###                                                                         ###
 ###    Too many SX-iterations.                                              ###
 ###                                                                         ###
 ###                                                                         ###
 ###############################################################################
 ###############################################################################
 Too many SX-iterations requested.
 Reset to maximum, new ITMAX=     100
 ****************************************
---------------------------------------------------------------------------------------------
  Nr.	 Label		Type		Offset		Length	   Atime	  Address
---------------------------------------------------------------------------------------------
  1	IP_DUM      	REAL	      29876664	           8           2	[0xf232220]
  2	IP_SDUM     	SNGL	      59753272	           4           3	[0xf232140]
  3	IP_IDUM     	INTE	      29876608	           8           4	[0xf232060]
  4	DRT0        	INTE	      29894976	       11400           7	[0xf255e60]
  5	DOWN        	INTE	      29896402	        9120           8	[0xf258af0]
  6	DAW1        	INTE	      29897544	       11400          10	[0xf25aea0]
  7	LUP1        	INTE	      29898970	        9120          11	[0xf25db30]
  8	RAW1        	INTE	      29900112	       11400          12	[0xf25fee0]
  9	NOW1        	INTE	      29891658	         720          14	[0xf24f6b0]
 10	IOW1        	INTE	      29901538	         720          15	[0xf262b70]
 11	NCSF        	INTE	      29890420	         360          16	[0xf24d000]
 12	ICSF        	INTE	      29901630	         360          17	[0xf262e50]
 13	CASE        	INTE	17470000224118	      388960          19	[0x7f1c6a26d010]
 14	IUSG        	INTE	17469999272822	      846720          20	[0x7f1c69b2b010]
 15	ILSG        	INTE	17469999166838	      846720          21	[0x7f1c69a5c010]
 16	INT1        	REAL	      29903132	        2048          22	[0xf265d40]
 17	INT1O       	REAL	      29903390	        2048          23	[0xf266550]
 18	FI          	REAL	      29903648	        2048          24	[0xf266d60]
 19	FIO         	REAL	      29903906	        2048          25	[0xf267570]
 20	FIZ         	REAL	      29904164	        2048          26	[0xf267d80]
 21	PINT1       	INTE	      29876868	           8          27	[0xf232880]
 22	PINT2       	INTE	      29876808	           8          28	[0xf2326a0]
 23	PGINT1      	INTE	      29876780	           8          29	[0xf2325c0]
 24	PGIN1A      	INTE	      29876980	           8          30	[0xf232c00]
 25	LSM1        	INTE	      29877180	           8          31	[0xf233240]
 26	LSM2        	INTE	      29877152	           8          32	[0xf233160]
 27	RHO1        	REAL	      29904422	        2048          33	[0xf268590]
 28	SRHO1       	REAL	      29904680	        2048          34	[0xf268da0]
 29	KINH1       	INTE	      29904938	        2048          35	[0xf2695b0]
 30	KINH1       	INTE	      29905196	        2048          36	[0xf269dc0]
 31	OCSTR       	INTE	-577777000306848033	           0          37	[(nil)]
 32	STREO       	INTE	      29877124	           8          38	[0xf233080]
 33	OCSTR       	INTE	-577777000306848031	           0          39	[(nil)]
 34	STREO       	INTE	      29877096	           8          40	[0xf232fa0]
 35	OCSTR       	INTE	      29891448	         128          41	[0xf24f020]
 36	STREO       	INTE	      29891466	         128          42	[0xf24f0b0]
 37	OCSTR       	INTE	      29905454	        1920          43	[0xf26a5d0]
 38	STREO       	INTE	      29905696	         960          44	[0xf26ad60]
 39	OCSTR       	INTE	      29905818	       13440          45	[0xf26b130]
 40	STREO       	INTE	      29907500	        4480          46	[0xf26e5c0]
 41	OCSTR       	INTE	      29908062	       58240          47	[0xf26f750]
 42	STREO       	INTE	      29915344	       14560          48	[0xf27dae0]
 43	OCSTR       	INTE	17470000202102	      174720          49	[0x7f1c6a242010]
 44	STREO       	INTE	      29917166	       34944          50	[0xf2813d0]
 45	OCSTR       	INTE	17469999118710	      384384          51	[0x7f1c699fe010]
 46	STREO       	INTE	      29921536	       64064          52	[0xf289c60]
 47	OCSTR       	INTE	17469999038326	      640640          53	[0x7f1c69961010]
 48	STREO       	INTE	      29929546	       91520          54	[0xf2996b0]
 49	OCSTR       	INTE	17469998934902	      823680          55	[0x7f1c69897010]
 50	STREO       	INTE	      29940988	      102960          56	[0xf2afc40]
 51	OCSTR       	INTE	-577777000306848013	           0          57	[(nil)]
 52	STREO       	INTE	      29877068	           8          58	[0xf232ec0]
 53	NSTSGP      	INTE	      29889788	          88          59	[0xf24bc40]
 54	ISTSGP      	INTE	      29890264	          88          60	[0xf24cb20]
 55	NSTSO       	INTE	      29877040	           8          61	[0xf232de0]
 56	ISTSO       	INTE	      29877012	           8          62	[0xf232d00]
 57	NSTSO       	INTE	      29877208	           8          63	[0xf233320]
 58	ISTSO       	INTE	      29877404	           8          64	[0xf233940]
 59	NSTSO       	INTE	      29877376	           8          65	[0xf233860]
 60	ISTSO       	INTE	      29877348	           8          66	[0xf233780]
 61	NSTSO       	INTE	      29877320	           8          67	[0xf2336a0]
 62	ISTSO       	INTE	      29877292	           8          68	[0xf2335c0]
 63	NSTSO       	INTE	      29877264	           8          69	[0xf2334e0]
 64	ISTSO       	INTE	      29877236	           8          70	[0xf233400]
 65	NSTSO       	INTE	      29877432	           8          71	[0xf233a20]
 66	ISTSO       	INTE	      29877632	           8          72	[0xf234060]
 67	ZMAT        	INTE	-577777000306847997	           0          73	[(nil)]
 68	ZMAT        	INTE	-577777000306847996	           0          74	[(nil)]
 69	ZMAT        	INTE	      29891750	         128          75	[0xf24f990]
 70	ZMAT        	INTE	      29890158	         256          76	[0xf24c7d0]
 71	ZMAT        	INTE	      29953860	         384          77	[0xf2c8e80]
 72	ZMAT        	INTE	      29891592	         512          78	[0xf24f4a0]
 73	ZMAT        	INTE	      29953910	         640          79	[0xf2c9010]
 74	ZMAT        	INTE	      29953992	         768          80	[0xf2c92a0]
 75	ZMAT        	INTE	      29954090	         896          81	[0xf2c95b0]
 76	ZMAT        	INTE	      29889838	        1024          82	[0xf24bdd0]
 77	ZMAT        	INTE	-577777000306847987	           0          83	[(nil)]
 78	ORBMAP      	INTE	      29954204	         128          84	[0xf2c9940]
 79	STRMAP      	INTE	      29954222	         128          85	[0xf2c99d0]
 80	ORBMAP      	INTE	      29954240	        2048          86	[0xf2c9a60]
 81	STRMAP      	INTE	      29954498	        2048          87	[0xf2ca270]
 82	ORBMAP      	INTE	      29954756	       15360          88	[0xf2caa80]
 83	STRMAP      	INTE	      29956678	       15360          89	[0xf2ce690]
 84	ORBMAP      	INTE	      29958600	       71680          90	[0xf2d22a0]
 85	STRMAP      	INTE	      29967562	       71680          91	[0xf2e3ab0]
 86	ORBMAP      	INTE	17470000172918	      232960          92	[0x7f1c6a209010]
 87	STRMAP      	INTE	17469998905718	      232960          93	[0x7f1c6985e010]
 88	ORBMAP      	INTE	17469998835574	      559104          94	[0x7f1c697d5010]
 89	STRMAP      	INTE	17469998765430	      559104          95	[0x7f1c6974c010]
 90	ORBMAP      	INTE	17469998636918	     1025024          96	[0x7f1c69651010]
 91	STRMAP      	INTE	17469998508406	     1025024          97	[0x7f1c69556010]
 92	ORBMAP      	INTE	17469998325110	     1464320          98	[0x7f1c693f0010]
 93	STRMAP      	INTE	17469998141814	     1464320          99	[0x7f1c6928a010]
 94	ORBMAP      	INTE	17469998038390	      823680         100	[0x7f1c691c0010]
 95	STRMAP      	INTE	17469997934966	      823680         101	[0x7f1c690f6010]
 96	COBSM       	INTE	      29976524	         128         102	[0xf2f52c0]
 97	NIFSJ       	INTE	      29976542	         128         103	[0xf2f5350]
 98	IFSJ        	INTE	      29976560	        2048         104	[0xf2f53e0]
 99	IFSJO       	INTE	      29976818	         128         105	[0xf2f5bf0]
100	STSTX       	INTE	      29877600	           8         106	[0xf233f60]
101	IOCLS       	INTE	      29877572	          24         107	[0xf233e80]
102	SPGPAN      	INTE	      29890254	          72         108	[0xf24cad0]
103	SPGPCR      	INTE	      29890466	          72         109	[0xf24d170]
104	ISMDFGP     	INTE	      29891768	          88         111	[0xf24fa20]
105	NACTSYM     	INTE	      29976836	          88         112	[0xf2f5c80]
8
       31 H7     1s         0.3817   -0.5446    0.0545   -0.5205106	ISMSCR      	INTE	      29976848	          88         113	[0xf2f5ce0]
107	VEC1       MMA failed to allocate a memory block.
 	REAL	17469832285046	  1325198160         116	[0x7f1c1a127010]
---------------------------------------------------------------------------------------------
Maximal available memory for Molcas = 709839188
MEMORY ERROR: Memory is exhausted!
MEMORY ERROR: Available memory = 709839188 ( 709 Mb ) !
MEMORY ERROR: Requested memory = 1325198160 ( 1325 Mb ) !
MEMORY ERROR: The suggested MOLCAS_MEM=2664 !
C_GetMem Calling parameters: ('VEC2   ','ALLO   ','REAL   ',0,165649770)
--- Stop Module: rasscf at Tue Feb 25 12:57:34 2025 /rc=_RC_FLOATING_EXCEPTION_ ---
*** files: xmldump
    saved to directory /home/grierjones/DDCASPT2/hydrogen_comps/H16_chain/H16_0.99

.########################.
.# Non-zero return code #.
.########################.

    Timing: Wall=3.90 User=3.33 System=0.55
****************************************
*** WorkDir at /tmp/H16_0.99 cleaned ***
****************************************
