[Molden Format]
[N_Atoms]
                     2
[Atoms] (AU)
BE1         1      4           0.00000000      0.00000000      0.00000000
N2          2      7           0.00000000      0.00000000      3.77945225
[Charge] (Mulliken)
  0.360610155147794     
 -0.360610155147810     
[GTO] (AU)
   1
   s  14
  2.262859900E+04  8.443999941E-05
  3.372318100E+03  4.601499968E-04
  7.603504000E+02  2.285389984E-03
  2.117404800E+02  9.648129932E-03
  6.722346800E+01  3.494469975E-02
  2.337217700E+01  1.061099893E-01
  8.721373000E+00  2.458240383E-01
  3.468091000E+00  3.862428773E-01
  1.452144000E+00  3.105526078E-01
  6.086150000E-01  6.415933955E-02
  2.576860000E-01 -2.265049984E-03
  1.041760000E-01 -5.217499963E-04
  4.242700000E-02 -8.757499938E-04
  1.484900000E-02  1.242199991E-04
   s  14
  2.262859900E+04 -1.586999994E-05
  3.372318100E+03 -8.656999968E-05
  7.603504000E+02 -4.302199984E-04
  2.117404800E+02 -1.825079993E-03
  6.722346800E+01 -6.682749976E-03
  2.337217700E+01 -2.095119992E-02
  8.721373000E+00 -5.200308981E-02
  3.468091000E+00 -9.849176964E-02
  1.452144000E+00 -1.355800695E-01
  6.086150000E-01 -6.429875976E-02
  2.576860000E-01  3.125414989E-01
  1.041760000E-01  6.270468577E-01
  4.242700000E-02  2.110231492E-01
  1.484900000E-02 -4.104669985E-03
   p   9
  3.371018400E+01  1.069960000E-03
  8.057649500E+00  6.828550001E-03
  2.836471400E+00  2.119065000E-02
  1.099965700E+00  5.843696001E-02
  4.433964000E-01  2.020920800E-01
  1.822264000E-01  4.582953101E-01
  7.572410000E-02  3.691239601E-01
  3.168540000E-02  6.611471001E-02
  1.108990000E-02  1.405160000E-03
 
   2
   s  14
  7.476171500E+04  1.182599996E-04
  1.112365400E+04  5.172899983E-04
  2.512685700E+03  2.266659992E-03
  7.037772900E+02  9.145289970E-03
  2.254787900E+02  3.239342989E-02
  7.961581000E+01  9.770792967E-02
  3.023728300E+01  2.317036792E-01
  1.226362200E+01  3.768898887E-01
  5.265086000E+00  3.177420689E-01
  2.333471000E+00  8.211308973E-02
  9.018560000E-01  3.312089989E-03
  3.583360000E-01  3.720819988E-03
  1.410930000E-01  3.165419989E-03
  4.938300000E-02  4.595799985E-04
   s  14
  7.476171500E+04 -2.707000010E-05
  1.112365400E+04 -1.183700004E-04
  2.512685700E+03 -5.203800020E-04
  7.037772900E+02 -2.102930008E-03
  2.254787900E+02 -7.568200028E-03
  7.961581000E+01 -2.346767009E-02
  3.023728300E+01 -6.042901023E-02
  1.226362200E+01 -1.170549104E-01
  5.265086000E+00 -1.555321506E-01
  2.333471000E+00 -2.468935009E-02
  9.018560000E-01  3.625054514E-01
  3.583360000E-01  5.550845021E-01
  1.410930000E-01  2.148376908E-01
  4.938300000E-02  8.983850034E-03
   p   9
  1.266665700E+02  1.233630000E-03
  2.983738900E+01  9.493409996E-03
  9.394038000E+00  4.293961998E-02
  3.405104000E+00  1.362925399E-01
  1.350000000E+00  2.921362499E-01
  5.576960000E-01  3.887887598E-01
  2.324490000E-01  2.946801399E-01
  9.426400000E-02  8.012875997E-02
  3.299200000E-02  5.405199998E-04
 
[MO]
Sym=     1a  
Ene=   -15.4060
Spin= Alpha
Occup=    1.00000
   1        -0.00015610
   2        -0.00112180
   3        -0.00000000
   4         0.00000000
   5        -0.00118495
   6         1.00007356
   7        -0.00433291
   8        -0.00000000
   9        -0.00000000
  10        -0.00043997
Sym=     1a  
Ene=   -15.4060
Spin= Beta
Occup=    1.00000
   1        -0.00015610
   2        -0.00112180
   3        -0.00000000
   4         0.00000000
   5        -0.00118495
   6         1.00007356
   7        -0.00433291
   8        -0.00000000
   9        -0.00000000
  10        -0.00043997
Sym=     2a  
Ene=    -4.8352
Spin= Alpha
Occup=    1.00000
   1         0.99998802
   2         0.00308087
   3         0.00000000
   4         0.00000000
   5         0.00058802
   6        -0.00006845
   7         0.00017594
   8        -0.00000000
   9        -0.00000000
  10        -0.00011562
Sym=     2a  
Ene=    -4.8352
Spin= Beta
Occup=    1.00000
   1         0.99998802
   2         0.00308087
   3         0.00000000
   4         0.00000000
   5         0.00058802
   6        -0.00006845
   7         0.00017594
   8        -0.00000000
   9        -0.00000000
  10        -0.00011562
Sym=     3a  
Ene=    -0.8630
Spin= Alpha
Occup=    1.00000
   1        -0.01745965
   2         0.08078588
   3        -0.00000000
   4        -0.00000000
   5         0.07704729
   6        -0.00071140
   7         0.94112575
   8        -0.00000000
   9        -0.00000000
  10        -0.04714257
Sym=     3a  
Ene=    -0.8630
Spin= Beta
Occup=    1.00000
   1        -0.01745965
   2         0.08078588
   3        -0.00000000
   4        -0.00000000
   5         0.07704729
   6        -0.00071140
   7         0.94112575
   8        -0.00000000
   9        -0.00000000
  10        -0.04714257
Sym=     4a  
Ene=    -0.3108
Spin= Alpha
Occup=    1.00000
   1         0.00000000
   2        -0.00000000
   3         0.29770408
   4        -0.06793023
   5        -0.00000000
   6         0.00000000
   7         0.00000000
   8         0.88102571
   9        -0.20103279
  10         0.00000000
Sym=     4a  
Ene=    -0.3108
Spin= Beta
Occup=    1.00000
   1         0.00000000
   2        -0.00000000
   3         0.29770408
   4        -0.06793023
   5        -0.00000000
   6         0.00000000
   7         0.00000000
   8         0.88102571
   9        -0.20103279
  10         0.00000000
Sym=     5a  
Ene=    -0.3108
Spin= Alpha
Occup=    1.00000
   1         0.00000000
   2        -0.00000000
   3         0.06793023
   4         0.29770408
   5        -0.00000000
   6         0.00000000
   7         0.00000000
   8         0.20103279
   9         0.88102571
  10         0.00000000
Sym=     5a  
Ene=    -0.3108
Spin= Beta
Occup=    1.00000
   1         0.00000000
   2        -0.00000000
   3         0.06793023
   4         0.29770408
   5        -0.00000000
   6         0.00000000
   7         0.00000000
   8         0.20103279
   9         0.88102571
  10         0.00000000
Sym=     6a  
Ene=    -0.1979
Spin= Alpha
Occup=    1.00000
   1         0.00295874
   2        -0.95173578
   3        -0.00000000
   4        -0.00000000
   5         0.26858558
   6         0.01244642
   7         0.21198900
   8        -0.00000000
   9         0.00000000
  10         0.09929576
Sym=     6a  
Ene=    -0.1979
Spin= Beta
Occup=    0.00000
   1         0.00295874
   2        -0.95173578
   3        -0.00000000
   4        -0.00000000
   5         0.26858558
   6         0.01244642
   7         0.21198900
   8        -0.00000000
   9         0.00000000
  10         0.09929576
Sym=     7a  
Ene=    -0.0000
Spin= Alpha
Occup=    0.00000
   1        -0.00000000
   2         0.00000000
   3        -0.93832265
   4        -0.23176535
   5        -0.00000000
   6        -0.00000000
   7        -0.00000000
   8         0.44571958
   9         0.11009257
  10        -0.00000000
Sym=     7a  
Ene=    -0.0000
Spin= Beta
Occup=    0.00000
   1        -0.00000000
   2         0.00000000
   3        -0.93832265
   4        -0.23176535
   5        -0.00000000
   6        -0.00000000
   7        -0.00000000
   8         0.44571958
   9         0.11009257
  10        -0.00000000
Sym=     8a  
Ene=     0.0607
Spin= Alpha
Occup=    0.00000
   1         0.01345340
   2        -0.09691002
   3        -0.00000000
   4         0.00000000
   5        -0.76400143
   6         0.03927712
   7         0.42644096
   8        -0.00000000
   9        -0.00000000
  10         0.53830875
Sym=     8a  
Ene=     0.0607
Spin= Beta
Occup=    0.00000
   1         0.01345340
   2        -0.09691002
   3        -0.00000000
   4         0.00000000
   5        -0.76400143
   6         0.03927712
   7         0.42644096
   8        -0.00000000
   9        -0.00000000
  10         0.53830875
Sym=     9a  
Ene=     0.0941
Spin= Alpha
Occup=    0.00000
   1         0.00000000
   2        -0.00000000
   3         0.23176535
   4        -0.93832265
   5        -0.00000000
   6         0.00000000
   7         0.00000000
   8        -0.11009257
   9         0.44571958
  10         0.00000000
Sym=     9a  
Ene=     0.0941
Spin= Beta
Occup=    0.00000
   1         0.00000000
   2        -0.00000000
   3         0.23176535
   4        -0.93832265
   5        -0.00000000
   6         0.00000000
   7         0.00000000
   8        -0.11009257
   9         0.44571958
  10         0.00000000
Sym=    10a  
Ene=     0.3805
Spin= Alpha
Occup=    0.00000
   1         0.03909246
   2         0.50619994
   3        -0.00000000
   4        -0.00000000
   5         0.80113613
   6        -0.05142195
   7        -0.46260515
   8        -0.00000000
   9         0.00000000
  10         0.92232379
Sym=    10a  
Ene=     0.3805
Spin= Beta
Occup=    0.00000
   1         0.03909246
   2         0.50619994
   3        -0.00000000
   4        -0.00000000
   5         0.80113613
   6        -0.05142195
   7        -0.46260515
   8        -0.00000000
   9         0.00000000
  10         0.92232379
