[Molden Format]
[N_Atoms]
                     2
[Atoms] (AU)
BE1         1      4           0.00000000      0.00000000      0.00000000
N2          2      7           0.00000000      0.00000000      3.77945225
[Charge] (Mulliken)
  1.106916812955649E-002
 -1.106916812969416E-002
[GTO] (AU)
   1
   s  14
  2.262859900E+04  8.443999941E-05
  3.372318100E+03  4.601499968E-04
  7.603504000E+02  2.285389984E-03
  2.117404800E+02  9.648129932E-03
  6.722346800E+01  3.494469975E-02
  2.337217700E+01  1.061099893E-01
  8.721373000E+00  2.458240383E-01
  3.468091000E+00  3.862428773E-01
  1.452144000E+00  3.105526078E-01
  6.086150000E-01  6.415933955E-02
  2.576860000E-01 -2.265049984E-03
  1.041760000E-01 -5.217499963E-04
  4.242700000E-02 -8.757499938E-04
  1.484900000E-02  1.242199991E-04
   s  14
  2.262859900E+04 -1.586999994E-05
  3.372318100E+03 -8.656999968E-05
  7.603504000E+02 -4.302199984E-04
  2.117404800E+02 -1.825079993E-03
  6.722346800E+01 -6.682749976E-03
  2.337217700E+01 -2.095119992E-02
  8.721373000E+00 -5.200308981E-02
  3.468091000E+00 -9.849176964E-02
  1.452144000E+00 -1.355800695E-01
  6.086150000E-01 -6.429875976E-02
  2.576860000E-01  3.125414989E-01
  1.041760000E-01  6.270468577E-01
  4.242700000E-02  2.110231492E-01
  1.484900000E-02 -4.104669985E-03
   p   9
  3.371018400E+01  1.069960000E-03
  8.057649500E+00  6.828550001E-03
  2.836471400E+00  2.119065000E-02
  1.099965700E+00  5.843696001E-02
  4.433964000E-01  2.020920800E-01
  1.822264000E-01  4.582953101E-01
  7.572410000E-02  3.691239601E-01
  3.168540000E-02  6.611471001E-02
  1.108990000E-02  1.405160000E-03
 
   2
   s  14
  7.476171500E+04  1.182599996E-04
  1.112365400E+04  5.172899983E-04
  2.512685700E+03  2.266659992E-03
  7.037772900E+02  9.145289970E-03
  2.254787900E+02  3.239342989E-02
  7.961581000E+01  9.770792967E-02
  3.023728300E+01  2.317036792E-01
  1.226362200E+01  3.768898887E-01
  5.265086000E+00  3.177420689E-01
  2.333471000E+00  8.211308973E-02
  9.018560000E-01  3.312089989E-03
  3.583360000E-01  3.720819988E-03
  1.410930000E-01  3.165419989E-03
  4.938300000E-02  4.595799985E-04
   s  14
  7.476171500E+04 -2.707000010E-05
  1.112365400E+04 -1.183700004E-04
  2.512685700E+03 -5.203800020E-04
  7.037772900E+02 -2.102930008E-03
  2.254787900E+02 -7.568200028E-03
  7.961581000E+01 -2.346767009E-02
  3.023728300E+01 -6.042901023E-02
  1.226362200E+01 -1.170549104E-01
  5.265086000E+00 -1.555321506E-01
  2.333471000E+00 -2.468935009E-02
  9.018560000E-01  3.625054514E-01
  3.583360000E-01  5.550845021E-01
  1.410930000E-01  2.148376908E-01
  4.938300000E-02  8.983850034E-03
   p   9
  1.266665700E+02  1.233630000E-03
  2.983738900E+01  9.493409996E-03
  9.394038000E+00  4.293961998E-02
  3.405104000E+00  1.362925399E-01
  1.350000000E+00  2.921362499E-01
  5.576960000E-01  3.887887598E-01
  2.324490000E-01  2.946801399E-01
  9.426400000E-02  8.012875997E-02
  3.299200000E-02  5.405199998E-04
 
[MO]
Sym=     1a  
Ene=   -15.6650
Spin= Alpha
Occup=    1.00000
   1        -0.00021584
   2        -0.00157433
   3         0.00000000
   4        -0.00000000
   5        -0.00170020
   6         1.00011931
   7        -0.00150753
   8        -0.00000000
   9         0.00000000
  10        -0.00089397
Sym=     1a  
Ene=   -15.5760
Spin= Beta
Occup=    1.00000
   1        -0.00009726
   2        -0.00051898
   3         0.00000000
   4        -0.00000000
   5        -0.00043669
   6         0.99999606
   7        -0.00850415
   8        -0.00000000
   9         0.00000000
  10        -0.00042706
Sym=     2a  
Ene=    -4.7074
Spin= Alpha
Occup=    1.00000
   1         0.99997485
   2         0.00301434
   3        -0.00000000
   4         0.00000000
   5         0.00078501
   6        -0.00007747
   7         0.00011323
   8        -0.00000000
   9        -0.00000000
  10        -0.00050408
Sym=     2a  
Ene=    -4.7409
Spin= Beta
Occup=    1.00000
   1         0.99999467
   2         0.00436448
   3         0.00000000
   4        -0.00000000
   5         0.00054726
   6        -0.00009233
   7        -0.00007558
   8         0.00000000
   9        -0.00000000
  10         0.00008383
Sym=     3a  
Ene=    -1.1745
Spin= Alpha
Occup=    1.00000
   1         0.01721647
   2        -0.00231527
   3        -0.00000000
   4         0.00000000
   5        -0.00947688
   6        -0.00207524
   7        -0.99544748
   8         0.00000000
   9         0.00000000
  10         0.02383955
Sym=     3a  
Ene=    -0.7904
Spin= Beta
Occup=    1.00000
   1         0.01812013
   2        -0.13814244
   3         0.00000000
   4        -0.00000000
   5        -0.07639646
   6        -0.00131645
   7        -0.91834133
   8        -0.00000000
   9         0.00000000
  10         0.06452930
Sym=     4a  
Ene=    -0.6023
Spin= Alpha
Occup=    1.00000
   1        -0.03391319
   2         0.09379262
   3        -0.00000000
   4        -0.00000000
   5         0.10206330
   6        -0.00744931
   7        -0.09104671
   8        -0.00000000
   9        -0.00000000
  10        -0.94930509
Sym=     4a  
Ene=    -0.3596
Spin= Beta
Occup=    1.00000
   1        -0.00310944
   2         0.96733470
   3         0.00000000
   4        -0.00000000
   5        -0.15902491
   6        -0.01933123
   7        -0.33016718
   8        -0.00000000
   9         0.00000000
  10        -0.12172965
Sym=     5a  
Ene=    -0.5924
Spin= Alpha
Occup=    1.00000
   1        -0.00000000
   2         0.00000000
   3         0.01783656
   4         0.02700495
   5         0.00000000
   6        -0.00000000
   7        -0.00000000
   8         0.54793420
   9         0.82958438
  10        -0.00000000
Sym=     5a  
Ene=    -0.2443
Spin= Beta
Occup=    1.00000
   1        -0.00000000
   2        -0.00000000
   3         0.78049491
   4        -0.51551097
   5        -0.00000000
   6         0.00000000
   7         0.00000000
   8         0.19398220
   9        -0.12812377
  10         0.00000000
Sym=     6a  
Ene=    -0.5833
Spin= Alpha
Occup=    1.00000
   1         0.00000000
   2        -0.00000000
   3        -0.02285329
   4         0.01509443
   5        -0.00000000
   6         0.00000000
   7         0.00000000
   8        -0.83038323
   9         0.54846184
  10         0.00000000
Sym=     6a  
Ene=     0.0485
Spin= Beta
Occup=    0.00000
   1         0.00000000
   2        -0.00000000
   3         0.49927012
   4         0.75590590
   5        -0.00000000
   6         0.00000000
   7         0.00000000
   8         0.16568297
   9         0.25084764
  10         0.00000000
Sym=     7a  
Ene=     0.0773
Spin= Alpha
Occup=    0.00000
   1         0.00749820
   2         0.99089850
   3        -0.00000000
   4         0.00000000
   5        -0.26077771
   6        -0.01329545
   7        -0.15853923
   8        -0.00000000
   9        -0.00000000
  10         0.21083828
Sym=     7a  
Ene=     0.0575
Spin= Beta
Occup=    0.00000
   1         0.01366956
   2         0.02234414
   3        -0.00000000
   4        -0.00000000
   5        -0.76632220
   6         0.03729536
   7         0.40157774
   8        -0.00000000
   9        -0.00000000
  10         0.54754641
Sym=     8a  
Ene=     0.1643
Spin= Alpha
Occup=    0.00000
   1        -0.00000000
   2        -0.00000000
   3         0.55834485
   4         0.84534633
   5        -0.00000000
   6         0.00000000
   7         0.00000000
   8        -0.10878984
   9        -0.16471021
  10        -0.00000000
Sym=     8a  
Ene=     0.2016
Spin= Beta
Occup=    0.00000
   1         0.00000000
   2         0.00000000
   3        -0.32583338
   4         0.21521048
   5         0.00000000
   6        -0.00000000
   7        -0.00000000
   8         0.82323180
   9        -0.54373837
  10         0.00000000
Sym=     9a  
Ene=     0.1998
Spin= Alpha
Occup=    0.00000
   1        -0.00000000
   2        -0.00000000
   3        -0.84546876
   4         0.55842571
   5        -0.00000000
   6         0.00000000
   7         0.00000000
   8         0.16063429
   9        -0.10609773
  10        -0.00000000
Sym=     9a  
Ene=     0.2401
Spin= Beta
Occup=    0.00000
   1         0.00000000
   2         0.00000000
   3         0.25059221
   4         0.37940210
   5         0.00000000
   6        -0.00000000
   7         0.00000000
   8        -0.53349439
   9        -0.80772220
  10         0.00000000
Sym=    10a  
Ene=     0.2805
Spin= Alpha
Occup=    0.00000
   1        -0.02337488
   2        -0.43275190
   3         0.00000000
   4        -0.00000000
   5        -1.10683255
   6         0.06335808
   7         0.54971725
   8        -0.00000000
   9         0.00000000
  10        -0.45424382
Sym=    10a  
Ene=     0.3664
Spin= Beta
Occup=    0.00000
   1         0.03853135
   2         0.47183652
   3         0.00000000
   4        -0.00000000
   5         0.82777896
   6        -0.05225844
   7        -0.46133833
   8        -0.00000000
   9         0.00000000
  10         0.91309932
