[Molden Format]
[N_Atoms]
                     2
[Atoms] (AU)
BE1         1      4           0.00000000      0.00000000      0.00000000
N2          2      7           0.00000000      0.00000000      4.72431531
[Charge] (Mulliken)
  6.909343265891899E-002
 -6.909343265892964E-002
[GTO] (AU)
   1
   s  14
  2.262859900E+04  8.443999941E-05
  3.372318100E+03  4.601499968E-04
  7.603504000E+02  2.285389984E-03
  2.117404800E+02  9.648129932E-03
  6.722346800E+01  3.494469975E-02
  2.337217700E+01  1.061099893E-01
  8.721373000E+00  2.458240383E-01
  3.468091000E+00  3.862428773E-01
  1.452144000E+00  3.105526078E-01
  6.086150000E-01  6.415933955E-02
  2.576860000E-01 -2.265049984E-03
  1.041760000E-01 -5.217499963E-04
  4.242700000E-02 -8.757499938E-04
  1.484900000E-02  1.242199991E-04
   s  14
  2.262859900E+04 -1.586999994E-05
  3.372318100E+03 -8.656999968E-05
  7.603504000E+02 -4.302199984E-04
  2.117404800E+02 -1.825079993E-03
  6.722346800E+01 -6.682749976E-03
  2.337217700E+01 -2.095119992E-02
  8.721373000E+00 -5.200308981E-02
  3.468091000E+00 -9.849176964E-02
  1.452144000E+00 -1.355800695E-01
  6.086150000E-01 -6.429875976E-02
  2.576860000E-01  3.125414989E-01
  1.041760000E-01  6.270468577E-01
  4.242700000E-02  2.110231492E-01
  1.484900000E-02 -4.104669985E-03
   p   9
  3.371018400E+01  1.069960000E-03
  8.057649500E+00  6.828550001E-03
  2.836471400E+00  2.119065000E-02
  1.099965700E+00  5.843696001E-02
  4.433964000E-01  2.020920800E-01
  1.822264000E-01  4.582953101E-01
  7.572410000E-02  3.691239601E-01
  3.168540000E-02  6.611471001E-02
  1.108990000E-02  1.405160000E-03
 
   2
   s  14
  7.476171500E+04  1.182599996E-04
  1.112365400E+04  5.172899983E-04
  2.512685700E+03  2.266659992E-03
  7.037772900E+02  9.145289970E-03
  2.254787900E+02  3.239342989E-02
  7.961581000E+01  9.770792967E-02
  3.023728300E+01  2.317036792E-01
  1.226362200E+01  3.768898887E-01
  5.265086000E+00  3.177420689E-01
  2.333471000E+00  8.211308973E-02
  9.018560000E-01  3.312089989E-03
  3.583360000E-01  3.720819988E-03
  1.410930000E-01  3.165419989E-03
  4.938300000E-02  4.595799985E-04
   s  14
  7.476171500E+04 -2.707000010E-05
  1.112365400E+04 -1.183700004E-04
  2.512685700E+03 -5.203800020E-04
  7.037772900E+02 -2.102930008E-03
  2.254787900E+02 -7.568200028E-03
  7.961581000E+01 -2.346767009E-02
  3.023728300E+01 -6.042901023E-02
  1.226362200E+01 -1.170549104E-01
  5.265086000E+00 -1.555321506E-01
  2.333471000E+00 -2.468935009E-02
  9.018560000E-01  3.625054514E-01
  3.583360000E-01  5.550845021E-01
  1.410930000E-01  2.148376908E-01
  4.938300000E-02  8.983850034E-03
   p   9
  1.266665700E+02  1.233630000E-03
  2.983738900E+01  9.493409996E-03
  9.394038000E+00  4.293961998E-02
  3.405104000E+00  1.362925399E-01
  1.350000000E+00  2.921362499E-01
  5.576960000E-01  3.887887598E-01
  2.324490000E-01  2.946801399E-01
  9.426400000E-02  8.012875997E-02
  3.299200000E-02  5.405199998E-04
 
[MO]
Sym=     1a  
Ene=   -15.5170
Spin= Alpha
Occup=    2.00000
   1        -0.00005655
   2        -0.00152128
   3        -0.00000000
   4         0.00000000
   5        -0.00081406
   6         1.00002620
   7        -0.00491820
   8         0.00000000
   9         0.00000000
  10        -0.00026122
Sym=     2a  
Ene=    -4.7313
Spin= Alpha
Occup=    2.00000
   1         0.99999368
   2         0.00317409
   3         0.00000000
   4         0.00000000
   5        -0.00008071
   6        -0.00001483
   7        -0.00043608
   8         0.00000000
   9         0.00000000
  10        -0.00025307
Sym=     3a  
Ene=    -0.8671
Spin= Alpha
Occup=    2.00000
   1        -0.00543113
   2         0.27196533
   3         0.00000000
   4         0.00000000
   5         0.02292392
   6         0.00127297
   7         0.91234087
   8         0.00000000
   9        -0.00000000
  10        -0.04697681
Sym=     4a  
Ene=    -0.3933
Spin= Alpha
Occup=    2.00000
   1         0.00000000
   2        -0.00000000
   3         0.05374555
   4        -0.03479204
   5         0.00000000
   6        -0.00000000
   7        -0.00000000
   8         0.83303777
   9        -0.53926485
  10         0.00000000
Sym=     5a  
Ene=    -0.1249
Spin= Alpha
Occup=    1.00000
   1        -0.00000000
   2         0.00000000
   3         0.01950711
   4         0.03013391
   5        -0.00000000
   6        -0.00000000
   7         0.00000000
   8         0.54136394
   9         0.83628038
  10         0.00000000
Sym=     6a  
Ene=    -0.0054
Spin= Alpha
Occup=    2.00000
   1         0.00313829
   2        -0.93415309
   3        -0.00000000
   4        -0.00000000
   5        -0.00717768
   6         0.01295927
   7         0.42499779
   8        -0.00000000
   9         0.00000000
  10         0.15697154
Sym=     7a  
Ene=     0.0457
Spin= Alpha
Occup=    0.00000
   1         0.00582651
   2         0.18547020
   3        -0.00000000
   4        -0.00000000
   5        -0.74268148
   6         0.01673814
   7         0.17532921
   8        -0.00000000
   9        -0.00000000
  10         0.55766010
Sym=     8a  
Ene=     0.0980
Spin= Alpha
Occup=    0.00000
   1         0.00000000
   2        -0.00000000
   3         0.84099017
   4        -0.54441281
   5        -0.00000000
   6         0.00000000
   7         0.00000000
   8        -0.12728364
   9         0.08239673
  10         0.00000000
Sym=     9a  
Ene=     0.0983
Spin= Alpha
Occup=    0.00000
   1        -0.00000000
   2         0.00000000
   3        -0.54517453
   4        -0.84216685
   5         0.00000000
   6        -0.00000000
   7        -0.00000000
   8         0.06723747
   9         0.10386613
  10        -0.00000000
Sym=    10a  
Ene=     0.2493
Spin= Alpha
Occup=    0.00000
   1         0.01147787
   2         0.27276702
   3        -0.00000000
   4        -0.00000000
   5         0.75271746
   6        -0.02268116
   7        -0.24091268
   8        -0.00000000
   9         0.00000000
  10         0.85656818
