[Molden Format]
[N_Atoms]
                     2
[Atoms] (AU)
BE1         1      4           0.00000000      0.00000000      0.00000000
N2          2      7           0.00000000      0.00000000      4.72431531
[Charge] (Mulliken)
  3.681992135991097E-002
 -3.681992135996204E-002
[GTO] (AU)
   1
   s  14
  2.262859900E+04  8.443999941E-05
  3.372318100E+03  4.601499968E-04
  7.603504000E+02  2.285389984E-03
  2.117404800E+02  9.648129932E-03
  6.722346800E+01  3.494469975E-02
  2.337217700E+01  1.061099893E-01
  8.721373000E+00  2.458240383E-01
  3.468091000E+00  3.862428773E-01
  1.452144000E+00  3.105526078E-01
  6.086150000E-01  6.415933955E-02
  2.576860000E-01 -2.265049984E-03
  1.041760000E-01 -5.217499963E-04
  4.242700000E-02 -8.757499938E-04
  1.484900000E-02  1.242199991E-04
   s  14
  2.262859900E+04 -1.586999994E-05
  3.372318100E+03 -8.656999968E-05
  7.603504000E+02 -4.302199984E-04
  2.117404800E+02 -1.825079993E-03
  6.722346800E+01 -6.682749976E-03
  2.337217700E+01 -2.095119992E-02
  8.721373000E+00 -5.200308981E-02
  3.468091000E+00 -9.849176964E-02
  1.452144000E+00 -1.355800695E-01
  6.086150000E-01 -6.429875976E-02
  2.576860000E-01  3.125414989E-01
  1.041760000E-01  6.270468577E-01
  4.242700000E-02  2.110231492E-01
  1.484900000E-02 -4.104669985E-03
   p   9
  3.371018400E+01  1.069960000E-03
  8.057649500E+00  6.828550001E-03
  2.836471400E+00  2.119065000E-02
  1.099965700E+00  5.843696001E-02
  4.433964000E-01  2.020920800E-01
  1.822264000E-01  4.582953101E-01
  7.572410000E-02  3.691239601E-01
  3.168540000E-02  6.611471001E-02
  1.108990000E-02  1.405160000E-03
 
   2
   s  14
  7.476171500E+04  1.182599996E-04
  1.112365400E+04  5.172899983E-04
  2.512685700E+03  2.266659992E-03
  7.037772900E+02  9.145289970E-03
  2.254787900E+02  3.239342989E-02
  7.961581000E+01  9.770792967E-02
  3.023728300E+01  2.317036792E-01
  1.226362200E+01  3.768898887E-01
  5.265086000E+00  3.177420689E-01
  2.333471000E+00  8.211308973E-02
  9.018560000E-01  3.312089989E-03
  3.583360000E-01  3.720819988E-03
  1.410930000E-01  3.165419989E-03
  4.938300000E-02  4.595799985E-04
   s  14
  7.476171500E+04 -2.707000010E-05
  1.112365400E+04 -1.183700004E-04
  2.512685700E+03 -5.203800020E-04
  7.037772900E+02 -2.102930008E-03
  2.254787900E+02 -7.568200028E-03
  7.961581000E+01 -2.346767009E-02
  3.023728300E+01 -6.042901023E-02
  1.226362200E+01 -1.170549104E-01
  5.265086000E+00 -1.555321506E-01
  2.333471000E+00 -2.468935009E-02
  9.018560000E-01  3.625054514E-01
  3.583360000E-01  5.550845021E-01
  1.410930000E-01  2.148376908E-01
  4.938300000E-02  8.983850034E-03
   p   9
  1.266665700E+02  1.233630000E-03
  2.983738900E+01  9.493409996E-03
  9.394038000E+00  4.293961998E-02
  3.405104000E+00  1.362925399E-01
  1.350000000E+00  2.921362499E-01
  5.576960000E-01  3.887887598E-01
  2.324490000E-01  2.946801399E-01
  9.426400000E-02  8.012875997E-02
  3.299200000E-02  5.405199998E-04
 
[MO]
Sym=     1a  
Ene=   -15.5660
Spin= Alpha
Occup=    1.00000
   1        -0.00006697
   2        -0.00077173
   3        -0.00000000
   4        -0.00000000
   5        -0.00097077
   6         1.00002525
   7        -0.00408552
   8         0.00000000
   9        -0.00000000
  10        -0.00059273
Sym=     1a  
Ene=   -15.5280
Spin= Beta
Occup=    1.00000
   1        -0.00005222
   2        -0.00052294
   3        -0.00000000
   4        -0.00000000
   5        -0.00056430
   6         0.99999745
   7        -0.00672104
   8         0.00000000
   9        -0.00000000
  10        -0.00045323
Sym=     2a  
Ene=    -4.7153
Spin= Alpha
Occup=    1.00000
   1         0.99999650
   2         0.00240319
   3         0.00000000
   4         0.00000000
   5         0.00081526
   6        -0.00002550
   7        -0.00008920
   8        -0.00000000
   9         0.00000000
  10        -0.00005544
Sym=     2a  
Ene=    -4.7177
Spin= Beta
Occup=    1.00000
   1         0.99999198
   2         0.00248392
   3        -0.00000000
   4        -0.00000000
   5        -0.00050155
   6         0.00000612
   7         0.00023525
   8         0.00000000
   9         0.00000000
  10        -0.00029051
Sym=     3a  
Ene=    -1.0028
Spin= Alpha
Occup=    1.00000
   1        -0.00492988
   2         0.02508192
   3        -0.00000000
   4         0.00000000
   5         0.01436133
   6         0.00375581
   7         0.99207650
   8        -0.00000000
   9         0.00000000
  10        -0.00738879
Sym=     3a  
Ene=    -0.8334
Spin= Beta
Occup=    1.00000
   1        -0.00496748
   2         0.03810237
   3        -0.00000000
   4         0.00000000
   5         0.03654158
   6         0.00548946
   7         0.98344317
   8        -0.00000000
   9         0.00000000
  10        -0.01215069
Sym=     4a  
Ene=    -0.5079
Spin= Alpha
Occup=    1.00000
   1         0.00000000
   2        -0.00000000
   3         0.03037023
   4         0.00761977
   5        -0.00000000
   6         0.00000000
   7         0.00000000
   8         0.96680260
   9         0.24256699
  10         0.00000000
Sym=     4a  
Ene=    -0.4559
Spin= Beta
Occup=    1.00000
   1         0.01212334
   2        -0.22406218
   3         0.00000000
   4         0.00000000
   5        -0.06176761
   6         0.00500361
   7         0.08374359
   8        -0.00000000
   9        -0.00000000
  10         0.92814734
Sym=     5a  
Ene=    -0.5079
Spin= Alpha
Occup=    1.00000
   1         0.00000000
   2        -0.00000000
   3         0.00761977
   4        -0.03037024
   5        -0.00000000
   6         0.00000000
   7         0.00000000
   8         0.24256699
   9        -0.96680260
  10         0.00000000
Sym=     5a  
Ene=    -0.3137
Spin= Beta
Occup=    1.00000
   1         0.00095340
   2         0.90828000
   3        -0.00000000
   4        -0.00000000
   5        -0.38544194
   6        -0.00199320
   7        -0.05691347
   8        -0.00000000
   9        -0.00000000
  10         0.24475931
Sym=     6a  
Ene=    -0.3165
Spin= Alpha
Occup=    1.00000
   1         0.00443728
   2        -0.89142653
   3        -0.00000000
   4        -0.00000000
   5        -0.30037945
   6         0.01932412
   7         0.24223268
   8        -0.00000000
   9        -0.00000000
  10         0.24967831
Sym=     6a  
Ene=     0.0940
Spin= Beta
Occup=    0.00000
   1         0.00000000
   2         0.00000000
   3         0.93105832
   4         0.23362867
   5        -0.00000000
   6         0.00000000
   7         0.00000000
   8         0.20218936
   9         0.05073499
  10         0.00000000
Sym=     7a  
Ene=     0.0837
Spin= Alpha
Occup=    0.00000
   1         0.00602088
   2         0.48465093
   3         0.00000000
   4         0.00000000
   5        -0.64398244
   6         0.01030481
   7         0.09212315
   8        -0.00000000
   9        -0.00000000
  10         0.55068683
Sym=     7a  
Ene=     0.0940
Spin= Beta
Occup=    0.00000
   1        -0.00000000
   2        -0.00000000
   3         0.23362867
   4        -0.93105832
   5        -0.00000000
   6         0.00000000
   7         0.00000000
   8         0.05073499
   9        -0.20218936
  10        -0.00000000
Sym=     8a  
Ene=     0.1114
Spin= Alpha
Occup=    0.00000
   1         0.00000000
   2         0.00000000
   3        -0.24417295
   4         0.97321529
   5         0.00000000
   6        -0.00000000
   7        -0.00000000
   8         0.02900148
   9        -0.11559300
  10         0.00000000
Sym=     8a  
Ene=     0.1811
Spin= Beta
Occup=    0.00000
   1         0.00598970
   2         0.42283085
   3         0.00000000
   4         0.00000000
   5         0.98235455
   6        -0.03102446
   7        -0.35261140
   8        -0.00000000
   9        -0.00000000
  10         0.38733489
Sym=     9a  
Ene=     0.1114
Spin= Alpha
Occup=    0.00000
   1         0.00000000
   2         0.00000000
   3        -0.97321529
   4        -0.24417295
   5        -0.00000000
   6        -0.00000000
   7        -0.00000000
   8         0.11559299
   9         0.02900148
  10         0.00000000
Sym=     9a  
Ene=     0.2394
Spin= Beta
Occup=    0.00000
   1        -0.00000000
   2        -0.00000000
   3         0.07148692
   4        -0.28493248
   5        -0.00000000
   6         0.00000000
   7         0.00000000
   8        -0.23896471
   9         0.95246530
  10         0.00000000
Sym=    10a  
Ene=     0.2563
Spin= Alpha
Occup=    0.00000
   1         0.01091555
   2         0.15892554
   3         0.00000000
   4        -0.00000000
   5         0.78331857
   6        -0.02173313
   7        -0.22449230
   8        -0.00000000
   9        -0.00000000
  10         0.84017299
Sym=    10a  
Ene=     0.2394
Spin= Beta
Occup=    0.00000
   1        -0.00000000
   2        -0.00000000
   3         0.28493248
   4         0.07148692
   5        -0.00000000
   6         0.00000000
   7         0.00000000
   8        -0.95246530
   9        -0.23896471
  10        -0.00000000
