[Molden Format]
[N_Atoms]
                     2
[Atoms] (AU)
C1          1      6           0.00000000      0.00000000      0.00000000
C2          2      6           0.00000000      0.00000000      2.07869874
[Charge] (Mulliken)
  5.426770144367765E-013
 -5.604405828307790E-013
[GTO] (AU)
   1
   s  14
  5.055750100E+04  1.128874000E-04
  7.524785600E+03  5.295373000E-04
  1.694327600E+03  2.450038300E-03
  4.728227900E+02  1.005398470E-02
  1.517107500E+02  3.545398060E-02
  5.391874600E+01  1.044071086E-01
  2.065931100E+01  2.412894918E-01
  8.383976000E+00  3.834225483E-01
  3.577015000E+00  3.078514393E-01
  1.547118000E+00  6.872442990E-02
  6.130130000E-01  2.224445000E-04
  2.460680000E-01  1.976748900E-03
  9.908700000E-02  2.057859400E-03
  3.468000000E-02  4.182020000E-04
   s  14
  5.055750100E+04 -2.507420000E-05
  7.524785600E+03 -1.175945000E-04
  1.694327600E+03 -5.456275000E-04
  4.728227900E+02 -2.245077100E-03
  1.517107500E+02 -8.043471800E-03
  5.391874600E+01 -2.442588710E-02
  2.065931100E+01 -6.136791180E-02
  8.383976000E+00 -1.177767835E-01
  3.577015000E+00 -1.550487783E-01
  1.547118000E+00 -1.933316860E-02
  6.130130000E-01  3.996930678E-01
  2.460680000E-01  5.589420949E-01
  9.908700000E-02  1.711195023E-01
  3.468000000E-02  7.456244600E-03
   p   9
  8.333315500E+01  1.344656000E-03
  1.955761100E+01  1.023555500E-02
  6.080365000E+00  4.520067100E-02
  2.179317000E+00  1.410756198E-01
  8.651500000E-01  3.047388085E-01
  3.619440000E-01  3.995281011E-01
  1.547400000E-01  2.719163432E-01
  6.542900000E-02  5.857669330E-02
  2.290000000E-02 -1.263813000E-04
 
   2
   s  14
  5.055750100E+04  1.128874000E-04
  7.524785600E+03  5.295373000E-04
  1.694327600E+03  2.450038300E-03
  4.728227900E+02  1.005398470E-02
  1.517107500E+02  3.545398060E-02
  5.391874600E+01  1.044071086E-01
  2.065931100E+01  2.412894918E-01
  8.383976000E+00  3.834225483E-01
  3.577015000E+00  3.078514393E-01
  1.547118000E+00  6.872442990E-02
  6.130130000E-01  2.224445000E-04
  2.460680000E-01  1.976748900E-03
  9.908700000E-02  2.057859400E-03
  3.468000000E-02  4.182020000E-04
   s  14
  5.055750100E+04 -2.507420000E-05
  7.524785600E+03 -1.175945000E-04
  1.694327600E+03 -5.456275000E-04
  4.728227900E+02 -2.245077100E-03
  1.517107500E+02 -8.043471800E-03
  5.391874600E+01 -2.442588710E-02
  2.065931100E+01 -6.136791180E-02
  8.383976000E+00 -1.177767835E-01
  3.577015000E+00 -1.550487783E-01
  1.547118000E+00 -1.933316860E-02
  6.130130000E-01  3.996930678E-01
  2.460680000E-01  5.589420949E-01
  9.908700000E-02  1.711195023E-01
  3.468000000E-02  7.456244600E-03
   p   9
  8.333315500E+01  1.344656000E-03
  1.955761100E+01  1.023555500E-02
  6.080365000E+00  4.520067100E-02
  2.179317000E+00  1.410756198E-01
  8.651500000E-01  3.047388085E-01
  3.619440000E-01  3.995281011E-01
  1.547400000E-01  2.719163432E-01
  6.542900000E-02  5.857669330E-02
  2.290000000E-02 -1.263813000E-04
 
[MO]
Sym=     1a  
Ene=   -11.4380
Spin= Alpha
Occup=    2.00000
   1         0.70636401
   2        -0.00167475
   3         0.00000000
   4         0.00000000
   5         0.00248572
   6         0.70636402
   7        -0.00167475
   8        -0.00000000
   9        -0.00000000
  10        -0.00248572
Sym=     2a  
Ene=   -11.4320
Spin= Alpha
Occup=    2.00000
   1        -0.70808392
   2        -0.00075986
   3         0.00000000
   4         0.00000000
   5        -0.00269493
   6         0.70808392
   7         0.00075986
   8        -0.00000000
   9        -0.00000000
  10        -0.00269493
Sym=     3a  
Ene=    -1.1437
Spin= Alpha
Occup=    2.00000
   1        -0.07799758
   2         0.42817847
   3        -0.00000000
   4         0.00000000
   5         0.29110866
   6        -0.07799758
   7         0.42817847
   8        -0.00000000
   9        -0.00000000
  10        -0.29110866
Sym=     4a  
Ene=    -0.5256
Spin= Alpha
Occup=    2.00000
   1        -0.00000000
   2         0.00000000
   3         0.58613363
   4         0.08247206
   5         0.00000000
   6        -0.00000000
   7         0.00000000
   8         0.58613363
   9         0.08247206
  10        -0.00000000
Sym=     5a  
Ene=    -0.5256
Spin= Alpha
Occup=    2.00000
   1         0.00000000
   2        -0.00000000
   3        -0.08247206
   4         0.58613363
   5         0.00000000
   6        -0.00000000
   7         0.00000000
   8        -0.08247206
   9         0.58613363
  10         0.00000000
Sym=     6a  
Ene=    -0.4214
Spin= Alpha
Occup=    1.43750
   1        -0.00233137
   2        -0.60519810
   3        -0.00000000
   4        -0.00000000
   5         0.36813407
   6         0.00233137
   7         0.60519810
   8         0.00000000
   9        -0.00000000
  10         0.36813407
Sym=     7a  
Ene=     0.0000
Spin= Alpha
Occup=    0.56250
   1         0.05623158
   2         0.43688635
   3        -0.00000000
   4        -0.00000000
   5        -0.64850307
   6         0.05623158
   7         0.43688635
   8         0.00000000
   9        -0.00000000
  10         0.64850307
Sym=     8a  
Ene=     0.2698
Spin= Alpha
Occup=    0.00000
   1        -0.00000000
   2        -0.00000000
   3        -0.01550184
   4        -0.93410560
   5         0.00000000
   6         0.00000000
   7         0.00000000
   8         0.01550184
   9         0.93410560
  10         0.00000000
Sym=     9a  
Ene=     0.2698
Spin= Alpha
Occup=    0.00000
   1         0.00000000
   2         0.00000000
   3        -0.93410560
   4         0.01550184
   5         0.00000000
   6        -0.00000000
   7        -0.00000000
   8         0.93410560
   9        -0.01550184
  10         0.00000000
Sym=    10a  
Ene=     1.2516
Spin= Alpha
Occup=    0.00000
   1        -0.36124944
   2        -1.88277048
   3        -0.00000000
   4         0.00000000
   5        -1.40837904
   6         0.36124944
   7         1.88277048
   8         0.00000000
   9         0.00000000
  10        -1.40837904
