[Molden Format]
[N_Atoms]
                     2
[Atoms] (AU)
C1          1      6           0.00000000      0.00000000      0.00000000
C2          2      6           0.00000000      0.00000000      2.07869874
[Charge] (Mulliken)
  0.000000000000000E+000
  0.000000000000000E+000
[GTO] (AU)
   1
   s  14
  5.055750100E+04  1.128874000E-04
  7.524785600E+03  5.295373000E-04
  1.694327600E+03  2.450038300E-03
  4.728227900E+02  1.005398470E-02
  1.517107500E+02  3.545398060E-02
  5.391874600E+01  1.044071086E-01
  2.065931100E+01  2.412894918E-01
  8.383976000E+00  3.834225483E-01
  3.577015000E+00  3.078514393E-01
  1.547118000E+00  6.872442990E-02
  6.130130000E-01  2.224445000E-04
  2.460680000E-01  1.976748900E-03
  9.908700000E-02  2.057859400E-03
  3.468000000E-02  4.182020000E-04
   s  14
  5.055750100E+04 -2.507420000E-05
  7.524785600E+03 -1.175945000E-04
  1.694327600E+03 -5.456275000E-04
  4.728227900E+02 -2.245077100E-03
  1.517107500E+02 -8.043471800E-03
  5.391874600E+01 -2.442588710E-02
  2.065931100E+01 -6.136791180E-02
  8.383976000E+00 -1.177767835E-01
  3.577015000E+00 -1.550487783E-01
  1.547118000E+00 -1.933316860E-02
  6.130130000E-01  3.996930678E-01
  2.460680000E-01  5.589420949E-01
  9.908700000E-02  1.711195023E-01
  3.468000000E-02  7.456244600E-03
   p   9
  8.333315500E+01  1.344656000E-03
  1.955761100E+01  1.023555500E-02
  6.080365000E+00  4.520067100E-02
  2.179317000E+00  1.410756198E-01
  8.651500000E-01  3.047388085E-01
  3.619440000E-01  3.995281011E-01
  1.547400000E-01  2.719163432E-01
  6.542900000E-02  5.857669330E-02
  2.290000000E-02 -1.263813000E-04
 
   2
   s  14
  5.055750100E+04  1.128874000E-04
  7.524785600E+03  5.295373000E-04
  1.694327600E+03  2.450038300E-03
  4.728227900E+02  1.005398470E-02
  1.517107500E+02  3.545398060E-02
  5.391874600E+01  1.044071086E-01
  2.065931100E+01  2.412894918E-01
  8.383976000E+00  3.834225483E-01
  3.577015000E+00  3.078514393E-01
  1.547118000E+00  6.872442990E-02
  6.130130000E-01  2.224445000E-04
  2.460680000E-01  1.976748900E-03
  9.908700000E-02  2.057859400E-03
  3.468000000E-02  4.182020000E-04
   s  14
  5.055750100E+04 -2.507420000E-05
  7.524785600E+03 -1.175945000E-04
  1.694327600E+03 -5.456275000E-04
  4.728227900E+02 -2.245077100E-03
  1.517107500E+02 -8.043471800E-03
  5.391874600E+01 -2.442588710E-02
  2.065931100E+01 -6.136791180E-02
  8.383976000E+00 -1.177767835E-01
  3.577015000E+00 -1.550487783E-01
  1.547118000E+00 -1.933316860E-02
  6.130130000E-01  3.996930678E-01
  2.460680000E-01  5.589420949E-01
  9.908700000E-02  1.711195023E-01
  3.468000000E-02  7.456244600E-03
   p   9
  8.333315500E+01  1.344656000E-03
  1.955761100E+01  1.023555500E-02
  6.080365000E+00  4.520067100E-02
  2.179317000E+00  1.410756198E-01
  8.651500000E-01  3.047388085E-01
  3.619440000E-01  3.995281011E-01
  1.547400000E-01  2.719163432E-01
  6.542900000E-02  5.857669330E-02
  2.290000000E-02 -1.263813000E-04
 
[MO]
Sym=     1a  
Ene=   -11.3600
Spin= Alpha
Occup=    2.00000
   1         0.70557968
   2         0.00433544
   3        -0.00000000
   4        -0.00000000
   5         0.00407667
   6         0.70557968
   7         0.00433544
   8        -0.00000000
   9        -0.00000000
  10        -0.00407667
Sym=     2a  
Ene=   -11.3250
Spin= Alpha
Occup=    2.00000
   1        -0.70676005
   2         0.00379780
   3         0.00000000
   4         0.00000000
   5         0.00388383
   6         0.70676005
   7        -0.00379780
   8        -0.00000000
   9         0.00000000
  10         0.00388383
Sym=     3a  
Ene=    -1.1896
Spin= Alpha
Occup=    2.00000
   1        -0.07322378
   2         0.50771860
   3         0.00000000
   4         0.00000000
   5         0.15380491
   6        -0.07322378
   7         0.50771860
   8         0.00000000
   9         0.00000000
  10        -0.15380491
Sym=     4a  
Ene=    -0.6214
Spin= Alpha
Occup=    2.00000
   1         0.00000000
   2        -0.00000000
   3         0.57934484
   4        -0.12130061
   5         0.00000000
   6        -0.00000000
   7         0.00000000
   8         0.57934484
   9        -0.12130061
  10         0.00000000
Sym=     5a  
Ene=    -0.6214
Spin= Alpha
Occup=    2.00000
   1         0.00000000
   2        -0.00000000
   3         0.12130061
   4         0.57934484
   5         0.00000000
   6        -0.00000000
   7         0.00000000
   8         0.12130061
   9         0.57934484
  10         0.00000000
Sym=     6a  
Ene=    -0.6173
Spin= Alpha
Occup=    2.00000
   1         0.01797469
   2        -0.51355190
   3        -0.00000000
   4        -0.00000000
   5         0.43573267
   6        -0.01797469
   7         0.51355190
   8        -0.00000000
   9        -0.00000000
  10         0.43573267
Sym=     7a  
Ene=    -0.3932
Spin= Alpha
Occup=    0.00000
   1         0.07064933
   2         0.34119251
   3         0.00000000
   4        -0.00000000
   5        -0.69399862
   6         0.07064933
   7         0.34119251
   8        -0.00000000
   9         0.00000000
  10         0.69399862
Sym=     8a  
Ene=    -0.2494
Spin= Alpha
Occup=    0.00000
   1         0.00000000
   2         0.00000000
   3         0.23705215
   4        -0.90365915
   5         0.00000000
   6        -0.00000000
   7        -0.00000000
   8        -0.23705215
   9         0.90365915
  10        -0.00000000
Sym=     9a  
Ene=    -0.2494
Spin= Alpha
Occup=    0.00000
   1         0.00000000
   2         0.00000000
   3        -0.90365915
   4        -0.23705215
   5         0.00000000
   6        -0.00000000
   7        -0.00000000
   8         0.90365915
   9         0.23705215
  10         0.00000000
Sym=    10a  
Ene=    -0.0520
Spin= Alpha
Occup=    0.00000
   1         0.36339589
   2         1.90980104
   3         0.00000000
   4        -0.00000000
   5         1.38895048
   6        -0.36339589
   7        -1.90980104
   8        -0.00000000
   9        -0.00000000
  10         1.38895048
