****************************************************************************************************
*** WorkDir at /lustre/isaac/scratch/gjones39/scpfiles/ANO-RCC-VTZP/ozone_174.75/3256216 cleaned ***
****************************************************************************************************
   This run of MOLCAS is using the pymolcas driver

                             OPE
                             OPE          NMOL  CASOP  ENMOLC A   SO
                 OPE        NMOLC        AS  OP EN  MO LC     AS  OP
                OPENM       OL CA        SO  PE NM  OL CA     SOP EN
                OP EN      MO   LC       AS  OP ENMOL  CASO   PENMOL
                OP  EN     MO   LC       AS  OP EN     MO     LC ASO
               OP   E  NMOL  C  AS       OP  EN MO     LC     AS  OP
               OP  E   NMO   LC AS        OPEN  MO     LCASOP EN   M
               O  PEN   MO  LCA  SO
            OPE   NMO   L   CAS    OP
        OPENMOL  CASOP     ENMOL   CASOPE
     OPENMOLCA   SOPENMOLCASOPEN   MOLCASOPE
    OPENMOLCAS   OP           EN   MOL    CAS
    OPENMOLCAS       OP  ENM        O     LCA
    OPENMOLCAS    OPEN  MOLCASO     P  E  NMO
    OPENMOLCAS     OP               E  N  MOL
    OPENMOLCA   SO           PENM   O  L  CAS    OPEN    MO    LCAS
    OPENMOLCA   SOP           ENM   O  L  CAS   OP  EN  MOLC  AS   O
    OPENMOLCA   SOPE           NM      O  LCA   S      OP  EN MO
    OPENMOLC                AS         O  PEN   M      OL  CA  SOPE
    OPENMO        LCASOPE  NMOL        C  ASO   P      ENMOLC     AS
    OPE     NMO      LCA  SO     P     E   NM   OL  CA SO  PE N   MO
          OPENMOLCA            SOPE   NMO        LCAS  O    P  ENMO
     OPENMOLCASOPENMOLCASOPENMOLCASOPENMOLCA
        OPENMOLCASOPENMOLCASOPENMOLCASOPE
            OPENMOLCASOPENMOLCASOPENM
               OPENMOLCASOPENMOLCA        version: f37762c57-dirty
                   OPENMOLCASO
                       OPE                tag:

 OpenMolcas is free software; you can redistribute it and/or modify it
 under the terms of the GNU Lesser General Public License version 2.1.
 OpenMolcas is distributed in the hope that it will be useful, but it
 is provided "as is" and without any express or implied warranties.
 For more details see the full text of the license in the file
 LICENSE or in <http://www.gnu.org/licenses/>.

                 Copyright (C) The OpenMolcas Authors
           For the author list and the recommended citation,
                   consult the file CONTRIBUTORS.md

           *************************************************
           * pymolcas version py2.05                       *
           *   build c53fbf9a0f911de0c7c16766b0715e61      *
           *   (after the EMIL interpreter by V. Veryazov) *
           *************************************************

configuration info
------------------
C Compiler ID: GNU
C flags: -std=gnu99
Fortran Compiler ID: Intel
Fortran flags: -fpp -i8 -r8 -heap-arrays
Definitions: _MOLCAS_;_I8_;_LINUX_
Parallel: OFF (GA=OFF)


   ------------------------------------------------------------------------------------------------
  |
  |              Project: ozone_174.75
  |       Submitted from: /lustre/isaac/scratch/gjones39/scpfiles/ANO-RCC-VTZP/ozone_174.75
  |         Scratch area: /lustre/isaac/scratch/gjones39/scpfiles/ANO-RCC-VTZP/ozone_174.75/3256216
  |      Save outputs to: /lustre/isaac/scratch/gjones39/scpfiles/ANO-RCC-VTZP/ozone_174.75
  |               Molcas: /lustre/isaac/proj/UTK0022/Grier2025/Test/build
  |
  | Scratch area is empty
  |
  |       MOLCAS_DRIVER = /nfs/home/gjones39/bin/pymolcas
  | MOLCAS_KEEP_WORKDIR = NO
  |      MOLCAS_MAXITER = 100
  |  MOLCAS_NEW_WORKDIR = YES
  |       MOLCAS_NPROCS = 1
  |       MOLCAS_SOURCE = /lustre/isaac/proj/UTK0022/Grier2025/Test
  |    MOLCAS_STRUCTURE = 0
  |
   ------------------------------------------------------------------------------------------------

++ ---------   Input file   ---------

&GATEWAY
coord=ozone_174.75.xyz
Basis = ANO-RCC-VTZP
Group = nosymm
End of Input

&SEWARD
End of Input

&SCF
FileOrb
/lustre/isaac/scratch/gjones39/scpfiles/ANO-RCC-VTZP/ozone_174.50/ozone_174.50.ScfOrb

>>> COPY $WorkDir/ozone_174.75.scf.h5 $CurrDir/

&RASSCF
Title= RASSCF
ITERation
200 100
CIMX
200
SDAV
500
FileOrb
/lustre/isaac/scratch/gjones39/scpfiles/ANO-RCC-VTZP/ozone_174.50/ozone_174.50.RasOrb
CIROOT
3 3 1
NACTEL
12 0 0
Inactive
6
RAS2
9
Symmetry
1
Spin
1
orblisting
all

>>> COPY $WorkDir/ozone_174.75.rasscf.h5 $CurrDir/

>>> COPY $WorkDir/GMJ_Fock_MO.csv $CurrDir/ozone_174.75.GMJ_Fock_MO.csv

&MOTRA
Frozen=0
LUMORB

>>> COPY $WorkDir/GMJ_one_int_indx.csv $CurrDir/ozone_174.75.GMJ_one_int_indx.csv

>>> COPY $WorkDir/GMJ_one_int.csv $CurrDir/ozone_174.75.GMJ_one_int.csv

>>> COPY $WorkDir/GMJ_two_int_indx.csv $CurrDir/ozone_174.75.GMJ_two_int_indx.csv

>>> COPY $WorkDir/GMJ_two_int.csv $CurrDir/ozone_174.75.GMJ_two_int.csv

&CASPT2

Multistate
ALL

Frozen
0

MAXITER
50

>>> FOREACH k IN (1,2,3)

  >>> FOREACH i IN (B,E,F,G,H)

    >>> FOREACH j IN (P,M)

      >>> IF (-FILE GMJ_e2_${i}_${j}_${k}_.csv)

        >>> COPY $WorkDir/GMJ_RHS_${i}_${j}_${k}_.csv $CurrDir/GMJ_RHS_${i}_${j}_${k}_.csv

        >>> COPY $WorkDir/GMJ_IVECW_${i}_${j}_${k}_.csv $CurrDir/GMJ_IVECW_${i}_${j}_${k}_.csv

        >>> COPY $WorkDir/GMJ_IVECX_${i}_${j}_${k}_.csv $CurrDir/GMJ_IVECX_${i}_${j}_${k}_.csv

        >>> COPY $WorkDir/GMJ_IVECC2_${i}_${j}_${k}_.csv $CurrDir/GMJ_IVECC2_${i}_${j}_${k}_.csv

        >>> COPY $WorkDir/GMJ_e2_${i}_${j}_${k}_.csv $CurrDir/GMJ_e2_${i}_${j}_${k}_.csv

      >>> END IF

    >>> END FOREACH

  >>> END FOREACH

>>> END FOREACH

>>> FOREACH j IN (1,2,3)

  >>> FOREACH i IN (A,C,D)

    >>> IF (-FILE GMJ_e2_${i}_${j}_.csv)

      >>> COPY $WorkDir/GMJ_RHS_${i}_${j}_.csv $CurrDir/GMJ_RHS_${i}_${j}_.csv

      >>> COPY $WorkDir/GMJ_IVECW_${i}_${j}_.csv $CurrDir/GMJ_IVECW_${i}_${j}_.csv

      >>> COPY $WorkDir/GMJ_IVECX_${i}_${j}_.csv $CurrDir/GMJ_IVECX_${i}_${j}_.csv

      >>> COPY $WorkDir/GMJ_IVECC2_${i}_${j}_.csv $CurrDir/GMJ_IVECC2_${i}_${j}_.csv

      >>> COPY $WorkDir/GMJ_e2_${i}_${j}_.csv $CurrDir/GMJ_e2_${i}_${j}_.csv

    >>> END IF

  >>> END FOREACH

>>> END FOREACH

-- ----------------------------------

--- Start Module: gateway at Tue May 13 21:01:48 2025 ---
 
()()()()()()()()()()()()()()()()()()()()()()()()()()()()()()()()()()()()()()()()()()()()()()()()()()

                                              &GATEWAY

                                   only a single process is used
                       available to each process: 62 GB of memory, 1 thread?
()()()()()()()()()()()()()()()()()()()()()()()()()()()()()()()()()()()()()()()()()()()()()()()()()()
 
 
++    Symmetry information:
      ---------------------
 
                    Character Table for C1 
 
                             E  
                    a        1  x, y, xy, Rz, z, xz, Ry, yz, Rx, I
--
 
 
++    Basis set information:
      ----------------------
 
 
      Basis set label: O.ANO-RCC...4S3P2D1F.
 
      Electronic valence basis set:
      ------------------
      Associated Effective Charge   8.000000 au
      Associated Actual Charge      8.000000 au
      Nuclear Model: Point charge
 
      Shell  nPrim  nBasis  Cartesian Spherical Contaminant
         s      14       4        X                  
         p       9       3        X                  
         d       4       2                 X         
         f       3       1                 X         
--
 
 
++    Molecular structure info:
      -------------------------
 
                    ************************************************ 
                    **** Cartesian Coordinates / Bohr, Angstrom **** 
                    ************************************************ 
 
     Center  Label                x              y              z                     x              y              z
        1      O1               0.110608       2.412536       0.000000              0.058531       1.276659       0.000000
        2      O2               0.000000       0.000000       0.000000              0.000000       0.000000       0.000000
        3      O3               0.110608      -2.412536       0.000000              0.058531      -1.276659       0.000000
 
                    *************************************** 
                    *    InterNuclear Distances / Bohr    * 
                    *************************************** 
 
               1 O1            2 O2            3 O3    
    1 O1       0.000000
    2 O2       2.415070        0.000000
    3 O3       4.825072        2.415070        0.000000
 
                    ******************************************* 
                    *    InterNuclear Distances / Angstrom    * 
                    ******************************************* 
 
               1 O1            2 O2            3 O3    
    1 O1       0.000000
    2 O2       1.278000        0.000000
    3 O3       2.553318        1.278000        0.000000
 
                    ************************************** 
                    *    Valence Bond Angles / Degree    * 
                    ************************************** 
                          Atom centers                 Phi
                      1 O1       2 O2       3 O3       174.75
--
 
 
            Nuclear Potential Energy             66.26458461 au
 
--- Stop Module: gateway at Tue May 13 21:01:59 2025 /rc=_RC_ALL_IS_WELL_ ---
*** files: xmldump
    saved to directory /lustre/isaac/scratch/gjones39/scpfiles/ANO-RCC-VTZP/ozone_174.75
--- Module gateway spent 10 seconds ---

--- Start Module: seward at Tue May 13 21:01:59 2025 ---
 
()()()()()()()()()()()()()()()()()()()()()()()()()()()()()()()()()()()()()()()()()()()()()()()()()()

                                              &SEWARD

                                   only a single process is used
                       available to each process: 62 GB of memory, 1 thread?
()()()()()()()()()()()()()()()()()()()()()()()()()()()()()()()()()()()()()()()()()()()()()()()()()()
 
               SEWARD will generate:
                  Multipole Moment integrals up to order  2
                  Kinetic Energy integrals
                  Nuclear Attraction integrals (point charge)
                  One-Electron Hamiltonian integrals
                  Velocity integrals
                  Relativistic Douglas-Kroll-Hess integrals:
                    - Parametrization         : EXP
                    - DKH order of Hamiltonian: 2
                    - DKH order of Properties : 0
                         - multipole moment operators
                         - electric potential operators
                         - contact operators
                  Atomic mean-field integrals
                  Two-Electron Repulsion integrals
 
                   Integrals are discarded if absolute value <: 0.10E-13
                   Integral cutoff threshold is set to       <: 0.10E-15
 
            Nuclear Potential Energy             66.26458461 au
 
 
      Basis set specifications :
      Symmetry species         a  
      Basis functions           90
 
 
  Input file to MOLDEN was generated!
 
--- Stop Module: seward at Tue May 13 21:02:21 2025 /rc=_RC_ALL_IS_WELL_ ---
*** files: ozone_174.75.GssOrb ozone_174.75.guessorb.h5 ozone_174.75.guessorb.molden xmldump
    saved to directory /lustre/isaac/scratch/gjones39/scpfiles/ANO-RCC-VTZP/ozone_174.75
--- Module seward spent 21 seconds ---

*** symbolic link created: INPORB -> ozone_174.75.GssOrb
--- Start Module: scf at Tue May 13 21:02:22 2025 ---
 
()()()()()()()()()()()()()()()()()()()()()()()()()()()()()()()()()()()()()()()()()()()()()()()()()()

                                                &SCF

                                   only a single process is used
                       available to each process: 62 GB of memory, 1 thread?
()()()()()()()()()()()()()()()()()()()()()()()()()()()()()()()()()()()()()()()()()()()()()()()()()()
 
++    Input section:
      --------------
 
      Header of the integral files:
      
       Integrals generated by seward 4.2.0  , Tue May 13 21:02:03 2025
 
 
      Cartesian coordinates in Angstrom:
      -----------------------------------------------------
      No.  Label        X            Y            Z        
      -----------------------------------------------------
       1   O1         0.05853100   1.27665900   0.00000000
       2   O2         0.00000000   0.00000000   0.00000000
       3   O3         0.05853100  -1.27665900   0.00000000
      -----------------------------------------------------
      Nuclear repulsion energy =   66.26458461
--
 
++    Orbital specifications:
      -----------------------
 
      Symmetry species               1
                                     a
      Frozen orbitals                0
      Occupied orbitals             12
      Secondary orbitals            78
      Deleted orbitals               0
      Total number of orbitals      90
      Number of basis functions     90
--
 
      Molecular charge                           0.000
 
++    Optimization specifications:
      ----------------------------
 
      SCF Algorithm: Conventional
      Minimized density differences are used
      Number of density matrices in core                5
      Maximum number of NDDO SCF iterations           400
      Maximum number of HF SCF iterations             400
      Threshold for SCF energy change            0.10E-08
      Threshold for density matrix               0.10E-03
      Threshold for Fock matrix                  0.15E-03
      Threshold for linear dependence            0.10E-08
      Threshold at which DIIS is turned on       0.15E+00
      Threshold at which QNR/C2DIIS is turned on 0.75E-01
      Threshold for Norm(delta) (QNR/C2DIIS)     0.20E-04
      DIIS extrapolation of the SCF procedure
      All orbitals punched on: SCFORB
--
 
      Input vectors read from INPORB
      Orbital file label: * SCF orbitals
 
 
++ Convergence information
                                   SCF        iterations: Energy and convergence statistics
 
Iter     Tot. SCF        One-elec.       Two-elec.     Energy      Max Dij or  Max Fij      DNorm      TNorm      AccCon     Time
         Energy          Energy          Energy        Change      Delta Norm                                                in Sec.
   1  -224.403215054  -440.301110829   149.633311161   0.00E+00    0.16E-02*   0.79E-03*    0.75E+01   0.11E+03   None         0.
   2  -224.403222697  -440.301103013   149.633295702  -0.76E-05*   0.87E-03*   0.40E-03*    0.95E-02   0.11E+03   EDIIS        0.
   3  -224.403224098  -440.301345962   149.633537250  -0.14E-05*   0.27E-03*   0.34E-03*    0.13E-02   0.11E+03   c2DIIS       0.
   4  -224.403224589  -440.301399863   149.633590661  -0.49E-06*   0.12E-03*   0.62E-04     0.44E-03   0.11E+03   QNRc2DIIS    0.
   5  -224.403224625  -440.301462050   149.633652812  -0.36E-07*   0.36E-03*   0.48E-04     0.18E-03   0.11E+03   QNRc2DIIS    0.
   6  -224.403224670  -440.301406525   149.633597241  -0.46E-07*   0.18E-04    0.57E-05     0.12E-03   0.11E+03   QNRc2DIIS    0.
   7  -224.403224671  -440.301496153   149.633686869  -0.44E-09    0.94E-05    0.33E-05     0.38E-03   0.11E+03   QNRc2DIIS    0.
 
       Convergence after  7 Macro Iterations
--
 
 *****************************************************************************************************************************
 *                                                                                                                           *
 *                                             SCF/KS-DFT Program, Final results                                             *
 *                                                                                                                           *
 *                                                                                                                           *
 *                                                                                                                           *
 *                                                       Final Results                                                       *
 *                                                                                                                           *
 *****************************************************************************************************************************
 
::    Total SCF energy                               -224.4032246707
      One-electron energy                            -440.3014961534
      Two-electron energy                             149.6336868690
      Nuclear repulsion energy                         66.2645846138
      Kinetic energy (interpolated)                   225.3069886293
      Virial theorem                                    0.9959887442
      Total spin, S(S+1)                                0.0000000000
      Total spin, S                                     0.0000000000
      Max non-diagonal density matrix element           0.0000090236
      Max non-diagonal Fock matrix element              0.0000019518
 
 
      All orbitals with orbital energies smaller than  E(LUMO)+0.5 are printed
 
++    Molecular orbitals:
      -------------------
 
      Title: SCF orbitals

      Molecular orbitals for symmetry species 1: a  
 
          Orbital            1         2         3         4         5         6         7         8         9        10    
          Energy          -20.8527  -20.7408  -20.7408   -1.6976   -1.4627   -1.0554   -0.8373   -0.7791   -0.7470   -0.6209
          Occ. No.          2.0000    2.0000    2.0000    2.0000    2.0000    2.0000    2.0000    2.0000    2.0000    2.0000
 
        1 O1     1s         0.0026   -0.8437    0.5345   -0.0126    0.0126    0.0149   -0.0013   -0.0261   -0.0000    0.0024
        2 O1     2s         0.0006    0.0074   -0.0045    0.3493   -0.5581    0.6581   -0.0287   -0.4514   -0.0000    0.0289
        3 O1     3s         0.0003    0.0052   -0.0030   -0.0097    0.0218    0.0242   -0.0016   -0.0562    0.0000    0.0047
        4 O1     4s         0.0000    0.0011   -0.0006   -0.0003    0.0040    0.0043   -0.0004   -0.0118    0.0000    0.0010
        5 O1     2px       -0.0000   -0.0002    0.0001   -0.0043    0.0067    0.0144    0.3467   -0.0588    0.0000   -0.6990
        6 O1     3px       -0.0001   -0.0002    0.0001    0.0022   -0.0011   -0.0026   -0.0260    0.0045   -0.0000    0.0115
        7 O1     4px       -0.0001    0.0000   -0.0001    0.0005    0.0002    0.0001   -0.0003    0.0001   -0.0000    0.0054
        8 O1     2py       -0.0005   -0.0034    0.0025   -0.1146    0.0870    0.1817   -0.0363   -0.4016   -0.0000    0.0551
        9 O1     3py       -0.0001   -0.0033    0.0023    0.0116   -0.0202   -0.0290    0.0030    0.0484   -0.0000   -0.0018
       10 O1     4py        0.0001    0.0021   -0.0013    0.0010   -0.0031    0.0005    0.0007    0.0041   -0.0000   -0.0006
       11 O1     2pz        0.0000    0.0000    0.0000   -0.0000    0.0000    0.0000   -0.0000   -0.0000    0.4311    0.0000
       12 O1     3pz       -0.0000    0.0000   -0.0000   -0.0000   -0.0000   -0.0000    0.0000   -0.0000   -0.0145    0.0000
       13 O1     4pz        0.0000   -0.0000   -0.0000    0.0000    0.0000   -0.0000   -0.0000   -0.0000   -0.0067    0.0000
       14 O1     3d2-      -0.0000    0.0001   -0.0001    0.0013   -0.0013   -0.0015   -0.0214    0.0028    0.0000    0.0133
       15 O1     4d2-      -0.0000    0.0001   -0.0000   -0.0000   -0.0001   -0.0000   -0.0017    0.0000    0.0000    0.0008
       16 O1     3d1-       0.0000   -0.0000   -0.0000    0.0000   -0.0000   -0.0000    0.0000    0.0000   -0.0321   -0.0000
       17 O1     4d1-       0.0000   -0.0000   -0.0000    0.0000    0.0000   -0.0000    0.0000    0.0000   -0.0057    0.0000
       18 O1     3d0       -0.0000   -0.0007    0.0005   -0.0101    0.0081    0.0076   -0.0014   -0.0155   -0.0000    0.0017
       19 O1     4d0       -0.0000   -0.0005    0.0004   -0.0010    0.0005    0.0005   -0.0003   -0.0010   -0.0000    0.0003
       20 O1     3d1+      -0.0000    0.0000    0.0000   -0.0000   -0.0000   -0.0000    0.0000   -0.0000   -0.0011    0.0000
       21 O1     4d1+       0.0000    0.0000    0.0000    0.0000    0.0000   -0.0000   -0.0000   -0.0000   -0.0002   -0.0000
       22 O1     3d2+      -0.0002   -0.0016    0.0011   -0.0204    0.0149    0.0172   -0.0038   -0.0296   -0.0000    0.0036
       23 O1     4d2+      -0.0000   -0.0007    0.0006   -0.0029    0.0017    0.0017   -0.0004   -0.0021   -0.0000    0.0004
       24 O1     4f3-       0.0001    0.0003   -0.0002    0.0060   -0.0052   -0.0034    0.0011    0.0070    0.0000   -0.0011
       25 O1     4f2-      -0.0000    0.0000    0.0000    0.0000    0.0000   -0.0000    0.0000   -0.0000    0.0004   -0.0000
       26 O1     4f1-       0.0000    0.0002   -0.0001    0.0034   -0.0029   -0.0022    0.0004    0.0042    0.0000   -0.0004
       27 O1     4f0        0.0000   -0.0000    0.0000    0.0000   -0.0000   -0.0000   -0.0000    0.0000   -0.0037   -0.0000
       28 O1     4f1+      -0.0000    0.0000   -0.0000    0.0001   -0.0001   -0.0001   -0.0006    0.0001    0.0000   -0.0005
       29 O1     4f2+       0.0000   -0.0000   -0.0000    0.0000   -0.0000   -0.0000    0.0000    0.0000   -0.0072   -0.0000
       30 O1     4f3+      -0.0000    0.0000   -0.0000    0.0007   -0.0006   -0.0005   -0.0074    0.0011   -0.0000    0.0063
       31 O2     1s         0.9998    0.0004   -0.0016   -0.0286   -0.0000   -0.0147   -0.0009   -0.0000   -0.0000   -0.0000
       32 O2     2s        -0.0009   -0.0027    0.0122    0.6229    0.0000   -0.6286   -0.0085   -0.0000   -0.0000   -0.0000
       33 O2     3s        -0.0013   -0.0016    0.0069   -0.0664   -0.0000   -0.0246   -0.0010   -0.0000   -0.0000   -0.0000
       34 O2     4s        -0.0001   -0.0002    0.0010   -0.0126   -0.0000   -0.0041   -0.0007   -0.0000   -0.0000   -0.0000
       35 O2     2px        0.0002   -0.0001    0.0004    0.0131    0.0000    0.0278    0.7387    0.0000    0.0000    0.0000
       36 O2     3px       -0.0000   -0.0001    0.0002   -0.0059   -0.0000   -0.0032   -0.0783    0.0000   -0.0000    0.0000
       37 O2     4px        0.0003    0.0000   -0.0001   -0.0013   -0.0000    0.0006   -0.0108    0.0000   -0.0000   -0.0000
       38 O2     2py        0.0000   -0.0076   -0.0017    0.0000   -0.3383   -0.0000    0.0000    0.5747    0.0000   -0.0441
       39 O2     3py       -0.0000   -0.0052   -0.0012   -0.0000    0.0636    0.0000   -0.0000   -0.0484    0.0000   -0.0012
       40 O2     4py        0.0000    0.0013    0.0003   -0.0000    0.0003    0.0000   -0.0000   -0.0128    0.0000    0.0007
       41 O2     2pz       -0.0000    0.0000    0.0000   -0.0000   -0.0000    0.0000   -0.0000   -0.0000    0.6174    0.0000
       42 O2     3pz       -0.0000    0.0000    0.0000    0.0000   -0.0000   -0.0000   -0.0000    0.0000   -0.0384   -0.0000
       43 O2     4pz        0.0000    0.0000    0.0000    0.0000    0.0000   -0.0000    0.0000   -0.0000   -0.0194   -0.0000
       44 O2     3d2-       0.0000   -0.0002   -0.0000    0.0000   -0.0058   -0.0000    0.0000    0.0040    0.0000   -0.0395
       45 O2     4d2-      -0.0000   -0.0001   -0.0000    0.0000   -0.0006   -0.0000    0.0000    0.0004    0.0000   -0.0060
       46 O2     3d1-       0.0000   -0.0000   -0.0000   -0.0000   -0.0000    0.0000   -0.0000   -0.0000    0.0000    0.0000
       47 O2     4d1-       0.0000   -0.0000   -0.0000   -0.0000   -0.0000    0.0000   -0.0000   -0.0000    0.0000    0.0000
       48 O2     3d0       -0.0002    0.0003   -0.0011   -0.0146   -0.0000    0.0015   -0.0032    0.0000    0.0000   -0.0000
       49 O2     4d0        0.0002    0.0001   -0.0006    0.0004   -0.0000    0.0012   -0.0004    0.0000    0.0000   -0.0000
       50 O2     3d1+      -0.0000   -0.0000   -0.0000    0.0000    0.0000    0.0000    0.0000   -0.0000    0.0049    0.0000
       51 O2     4d1+      -0.0000   -0.0000   -0.0000    0.0000    0.0000    0.0000    0.0000   -0.0000    0.0008    0.0000
       52 O2     3d2+       0.0004    0.0005   -0.0020   -0.0261   -0.0000   -0.0041    0.0025   -0.0000    0.0000   -0.0000
       53 O2     4d2+       0.0001    0.0002   -0.0010   -0.0010   -0.0000    0.0002   -0.0000   -0.0000    0.0000   -0.0000
       54 O2     4f3-      -0.0000    0.0002    0.0000   -0.0000    0.0110    0.0000    0.0000   -0.0098    0.0000   -0.0009
       55 O2     4f2-       0.0000    0.0000    0.0000   -0.0000   -0.0000   -0.0000   -0.0000    0.0000    0.0000   -0.0000
       56 O2     4f1-       0.0000    0.0001    0.0000   -0.0000    0.0053    0.0000   -0.0000   -0.0047    0.0000    0.0003
       57 O2     4f0       -0.0000    0.0000   -0.0000    0.0000    0.0000   -0.0000    0.0000    0.0000   -0.0051   -0.0000
       58 O2     4f1+       0.0000    0.0000   -0.0000   -0.0003   -0.0000    0.0001    0.0007    0.0000    0.0000    0.0000
       59 O2     4f2+      -0.0000    0.0000    0.0000    0.0000    0.0000   -0.0000    0.0000    0.0000   -0.0121   -0.0000
       60 O2     4f3+       0.0000    0.0000   -0.0000   -0.0018   -0.0000   -0.0002   -0.0128    0.0000   -0.0000   -0.0000
       61 O3     1s         0.0026    0.5345    0.8437   -0.0126   -0.0126    0.0149   -0.0013    0.0261    0.0000   -0.0024
       62 O3     2s         0.0006   -0.0048   -0.0072    0.3493    0.5581    0.6581   -0.0287    0.4514    0.0000   -0.0289
       63 O3     3s         0.0003   -0.0035   -0.0049   -0.0097   -0.0218    0.0242   -0.0016    0.0562    0.0000   -0.0047
       64 O3     4s         0.0000   -0.0008   -0.0010   -0.0003   -0.0040    0.0043   -0.0004    0.0118    0.0000   -0.0010
       65 O3     2px       -0.0000    0.0001    0.0002   -0.0043   -0.0067    0.0144    0.3467    0.0588    0.0000    0.6990
       66 O3     3px       -0.0001    0.0001    0.0001    0.0022    0.0011   -0.0026   -0.0260   -0.0045   -0.0000   -0.0115
       67 O3     4px       -0.0001   -0.0000   -0.0001    0.0005   -0.0002    0.0001   -0.0003   -0.0001   -0.0000   -0.0054
       68 O3     2py        0.0005   -0.0020   -0.0037    0.1146    0.0870   -0.1816    0.0363   -0.4016   -0.0000    0.0551
       69 O3     3py        0.0001   -0.0019   -0.0035   -0.0116   -0.0202    0.0290   -0.0030    0.0484    0.0000   -0.0018
       70 O3     4py       -0.0001    0.0013    0.0020   -0.0010   -0.0031   -0.0005   -0.0007    0.0041   -0.0000   -0.0006
       71 O3     2pz        0.0000   -0.0000   -0.0000   -0.0000   -0.0000    0.0000   -0.0000   -0.0000    0.4311   -0.0000
       72 O3     3pz        0.0000   -0.0000   -0.0000    0.0000    0.0000   -0.0000    0.0000   -0.0000   -0.0145    0.0000
       73 O3     4pz       -0.0000   -0.0000   -0.0000   -0.0000   -0.0000    0.0000   -0.0000    0.0000   -0.0067    0.0000
       74 O3     3d2-       0.0000    0.0001    0.0001   -0.0013   -0.0013    0.0015    0.0214    0.0028    0.0000    0.0133
       75 O3     4d2-       0.0000    0.0000    0.0001    0.0000   -0.0001    0.0000    0.0017    0.0000    0.0000    0.0008
       76 O3     3d1-       0.0000    0.0000   -0.0000   -0.0000   -0.0000    0.0000   -0.0000   -0.0000    0.0321    0.0000
       77 O3     4d1-       0.0000   -0.0000   -0.0000   -0.0000    0.0000    0.0000    0.0000    0.0000    0.0057    0.0000
       78 O3     3d0       -0.0000    0.0004    0.0008   -0.0101   -0.0081    0.0076   -0.0014    0.0155   -0.0000   -0.0017
       79 O3     4d0       -0.0000    0.0003    0.0005   -0.0010   -0.0005    0.0005   -0.0003    0.0010    0.0000   -0.0003
       80 O3     3d1+       0.0000    0.0000   -0.0000    0.0000   -0.0000   -0.0000   -0.0000   -0.0000   -0.0011   -0.0000
       81 O3     4d1+      -0.0000   -0.0000   -0.0000    0.0000    0.0000    0.0000    0.0000   -0.0000   -0.0002    0.0000
       82 O3     3d2+      -0.0002    0.0009    0.0017   -0.0204   -0.0149    0.0172   -0.0038    0.0296   -0.0000   -0.0036
       83 O3     4d2+      -0.0000    0.0004    0.0008   -0.0029   -0.0017    0.0017   -0.0004    0.0021    0.0000   -0.0004
       84 O3     4f3-      -0.0001    0.0002    0.0003   -0.0060   -0.0052    0.0034   -0.0011    0.0070    0.0000   -0.0011
       85 O3     4f2-       0.0000    0.0000   -0.0000    0.0000    0.0000    0.0000   -0.0000   -0.0000   -0.0004   -0.0000
       86 O3     4f1-      -0.0000    0.0001    0.0002   -0.0034   -0.0029    0.0022   -0.0004    0.0042    0.0000   -0.0004
       87 O3     4f0       -0.0000   -0.0000    0.0000    0.0000   -0.0000    0.0000   -0.0000    0.0000   -0.0037   -0.0000
       88 O3     4f1+      -0.0000   -0.0000   -0.0000    0.0001    0.0001   -0.0001   -0.0006   -0.0001   -0.0000    0.0005
       89 O3     4f2+      -0.0000   -0.0000    0.0000    0.0000    0.0000   -0.0000    0.0000    0.0000   -0.0072    0.0000
       90 O3     4f3+      -0.0000   -0.0000   -0.0000    0.0007    0.0006   -0.0005   -0.0074   -0.0011   -0.0000   -0.0063
 
          Orbital           11        12        13        14        15        16        17        18        19        20    
          Energy           -0.5158   -0.4670   -0.0207    0.1202    0.1666    0.2350    0.2354    0.2716    0.3664    0.3674
          Occ. No.          2.0000    2.0000    0.0000    0.0000    0.0000    0.0000    0.0000    0.0000    0.0000    0.0000
 
        1 O1     1s        -0.0000   -0.0000   -0.0000    0.0548   -0.2277    0.0000   -0.0136    0.0997   -0.0030   -0.0000
        2 O1     2s        -0.0000   -0.0052    0.0000    0.5239   -1.6541    0.0000   -0.0926    0.6814   -0.0112   -0.0000
        3 O1     3s        -0.0000    0.0025   -0.0000    0.1173   -0.9968    0.0000   -0.0633    0.5837   -0.0028   -0.0000
        4 O1     4s         0.0000    0.0011   -0.0000    0.0048   -0.2273    0.0000   -0.0142    0.1490    0.0005   -0.0000
        5 O1     2px        0.0000    0.6679    0.0000    0.0145    0.0455    0.0000   -0.0581   -0.0325   -0.1701   -0.0000
        6 O1     3px        0.0000    0.0441    0.0000    0.0043    0.0516   -0.0000    0.4031    0.0186   -0.8707   -0.0000
        7 O1     4px        0.0000    0.0011   -0.0000    0.0023    0.0079   -0.0000    0.2058    0.0182   -0.3438   -0.0000
        8 O1     2py        0.0000    0.0293   -0.0000   -0.8964    0.6569   -0.0000    0.0561   -0.5103   -0.0281   -0.0000
        9 O1     3py        0.0000   -0.0025   -0.0000   -0.3421    0.8145   -0.0000    0.0804   -1.0584   -0.0196   -0.0000
       10 O1     4py        0.0000   -0.0010   -0.0000   -0.0324    0.1029   -0.0000    0.0093   -0.2390   -0.0035   -0.0000
       11 O1     2pz       -0.6940    0.0000    0.6607   -0.0000    0.0000   -0.1101   -0.0000   -0.0000    0.0000   -0.1494
       12 O1     3pz       -0.0234    0.0000    0.1741   -0.0000    0.0000    0.3825    0.0000   -0.0000    0.0000   -0.8711
       13 O1     4pz        0.0070    0.0000    0.0287   -0.0000    0.0000    0.2064    0.0000   -0.0000    0.0000   -0.3494
       14 O1     3d2-      -0.0000    0.0054    0.0000    0.0051   -0.0080   -0.0000    0.0034    0.0050    0.0168    0.0000
       15 O1     4d2-      -0.0000    0.0006   -0.0000    0.0021   -0.0057    0.0000   -0.0028    0.0033    0.0173    0.0000
       16 O1     3d1-       0.0253   -0.0000    0.0157    0.0000    0.0000    0.0074    0.0000   -0.0000   -0.0000    0.0130
       17 O1     4d1-       0.0056   -0.0000    0.0022    0.0000    0.0000   -0.0011   -0.0000   -0.0000   -0.0000    0.0160
       18 O1     3d0        0.0000    0.0009   -0.0000   -0.0104    0.0522   -0.0000    0.0067   -0.0584   -0.0016   -0.0000
       19 O1     4d0        0.0000    0.0001   -0.0000   -0.0063    0.0327   -0.0000    0.0043   -0.0414   -0.0018   -0.0000
       20 O1     3d1+       0.0007   -0.0000    0.0008    0.0000    0.0000    0.0007    0.0000   -0.0000   -0.0000    0.0020
       21 O1     4d1+       0.0001    0.0000    0.0001   -0.0000    0.0000    0.0002    0.0000   -0.0000   -0.0000    0.0016
       22 O1     3d2+       0.0000    0.0024    0.0000   -0.0167    0.0877   -0.0000    0.0130   -0.1063    0.0010    0.0000
       23 O1     4d2+       0.0000    0.0000    0.0000   -0.0098    0.0543   -0.0000    0.0080   -0.0753   -0.0002    0.0000
       24 O1     4f3-      -0.0000   -0.0007    0.0000    0.0051   -0.0062    0.0000   -0.0008    0.0132   -0.0005   -0.0000
       25 O1     4f2-      -0.0003    0.0000   -0.0001    0.0000    0.0000    0.0002    0.0000    0.0000    0.0000   -0.0010
       26 O1     4f1-      -0.0000   -0.0003    0.0000    0.0020   -0.0048    0.0000   -0.0009    0.0108    0.0009    0.0000
       27 O1     4f0        0.0020    0.0000    0.0015    0.0000    0.0000   -0.0018   -0.0000    0.0000   -0.0000    0.0064
       28 O1     4f1+      -0.0000    0.0014    0.0000    0.0002   -0.0001    0.0000   -0.0010    0.0003    0.0029    0.0000
       29 O1     4f2+       0.0060   -0.0000   -0.0003    0.0000    0.0000   -0.0017   -0.0000    0.0000   -0.0000    0.0075
       30 O1     4f3+      -0.0000   -0.0011    0.0000    0.0007   -0.0003    0.0000   -0.0029    0.0015    0.0096    0.0000
       31 O2     1s         0.0000    0.0062   -0.0000   -0.1754   -0.0000   -0.0000    0.0337   -0.3216    0.0000    0.0000
       32 O2     2s         0.0000    0.0728   -0.0000   -1.5197   -0.0000   -0.0000    0.2212   -2.0386    0.0000    0.0000
       33 O2     3s         0.0000    0.0170   -0.0000   -0.6567   -0.0000   -0.0000    0.1389   -1.2036    0.0000    0.0000
       34 O2     4s         0.0000    0.0041   -0.0000   -0.1512   -0.0000   -0.0000    0.0285   -0.2264    0.0000   -0.0000
       35 O2     2px       -0.0000   -0.7434   -0.0000   -0.1166   -0.0000    0.0000   -0.0894   -0.0368    0.0000   -0.0000
       36 O2     3px        0.0000   -0.0470   -0.0000   -0.0324   -0.0000   -0.0000    0.2554   -0.0508    0.0000   -0.0000
       37 O2     4px        0.0000   -0.0032   -0.0000   -0.0002   -0.0000   -0.0000    0.1663    0.0044    0.0000   -0.0000
       38 O2     2py        0.0000   -0.0000   -0.0000   -0.0000    1.6094   -0.0000   -0.0000    0.0000   -0.0090   -0.0000
       39 O2     3py        0.0000   -0.0000    0.0000   -0.0000    1.6812   -0.0000   -0.0000    0.0000    0.0494    0.0000
       40 O2     4py       -0.0000   -0.0000    0.0000   -0.0000    0.1725   -0.0000   -0.0000    0.0000    0.0260    0.0000
       41 O2     2pz        0.0000    0.0000   -0.9259    0.0000   -0.0000   -0.0563   -0.0000    0.0000   -0.0000    0.0000
       42 O2     3pz       -0.0000    0.0000   -0.2208    0.0000   -0.0000    0.2781    0.0000    0.0000   -0.0000    0.0000
       43 O2     4pz       -0.0000    0.0000   -0.0217   -0.0000    0.0000    0.1771    0.0000   -0.0000   -0.0000    0.0000
       44 O2     3d2-      -0.0000   -0.0000    0.0000   -0.0000    0.0192    0.0000   -0.0000    0.0000    0.1092    0.0000
       45 O2     4d2-      -0.0000   -0.0000    0.0000   -0.0000    0.0118    0.0000   -0.0000    0.0000    0.0693    0.0000
       46 O2     3d1-      -0.0625    0.0000   -0.0000    0.0000    0.0000   -0.0000    0.0000    0.0000   -0.0000    0.1208
       47 O2     4d1-      -0.0146    0.0000   -0.0000    0.0000   -0.0000   -0.0000    0.0000    0.0000   -0.0000    0.0734
       48 O2     3d0       -0.0000    0.0048   -0.0000   -0.0224   -0.0000    0.0000   -0.0123    0.1142   -0.0000    0.0000
       49 O2     4d0       -0.0000    0.0005   -0.0000    0.0029   -0.0000    0.0000   -0.0065    0.0504   -0.0000    0.0000
       50 O2     3d1+       0.0000   -0.0000   -0.0018   -0.0000   -0.0000   -0.0029   -0.0000    0.0000    0.0000   -0.0000
       51 O2     4d1+       0.0000   -0.0000   -0.0003   -0.0000   -0.0000   -0.0010   -0.0000    0.0000    0.0000    0.0000
       52 O2     3d2+      -0.0000    0.0070    0.0000   -0.0439   -0.0000    0.0000   -0.0257    0.1854   -0.0000   -0.0000
       53 O2     4d2+      -0.0000    0.0012    0.0000    0.0043   -0.0000    0.0000   -0.0124    0.0776   -0.0000   -0.0000
       54 O2     4f3-      -0.0000   -0.0000   -0.0000    0.0000   -0.0156    0.0000    0.0000   -0.0000   -0.0004   -0.0000
       55 O2     4f2-      -0.0012   -0.0000   -0.0000    0.0000   -0.0000   -0.0000    0.0000   -0.0000   -0.0000    0.0009
       56 O2     4f1-      -0.0000   -0.0000    0.0000    0.0000   -0.0116    0.0000    0.0000   -0.0000   -0.0013   -0.0000
       57 O2     4f0       -0.0000    0.0000   -0.0021    0.0000   -0.0000   -0.0018   -0.0000   -0.0000    0.0000   -0.0000
       58 O2     4f1+       0.0000   -0.0027   -0.0000   -0.0005   -0.0000    0.0000   -0.0010    0.0006   -0.0000    0.0000
       59 O2     4f2+      -0.0000   -0.0000    0.0027    0.0000   -0.0000   -0.0021   -0.0000    0.0000    0.0000   -0.0000
       60 O2     4f3+      -0.0000    0.0008    0.0000   -0.0003   -0.0000    0.0000   -0.0033    0.0015   -0.0000    0.0000
       61 O3     1s         0.0000   -0.0000    0.0000    0.0548    0.2277    0.0000   -0.0136    0.0997    0.0030    0.0000
       62 O3     2s         0.0000   -0.0052    0.0000    0.5239    1.6541    0.0000   -0.0926    0.6814    0.0112    0.0000
       63 O3     3s        -0.0000    0.0025    0.0000    0.1173    0.9968    0.0000   -0.0633    0.5837    0.0028    0.0000
       64 O3     4s        -0.0000    0.0011    0.0000    0.0048    0.2273    0.0000   -0.0142    0.1490   -0.0005   -0.0000
       65 O3     2px        0.0000    0.6679    0.0000    0.0145   -0.0455    0.0000   -0.0581   -0.0325    0.1701    0.0000
       66 O3     3px        0.0000    0.0441    0.0000    0.0043   -0.0516   -0.0000    0.4031    0.0186    0.8707    0.0000
       67 O3     4px        0.0000    0.0011   -0.0000    0.0023   -0.0079   -0.0000    0.2058    0.0182    0.3438    0.0000
       68 O3     2py       -0.0000   -0.0293    0.0000    0.8964    0.6569    0.0000   -0.0561    0.5103   -0.0281   -0.0000
       69 O3     3py       -0.0000    0.0025    0.0000    0.3421    0.8145    0.0000   -0.0804    1.0584   -0.0196   -0.0000
       70 O3     4py       -0.0000    0.0010    0.0000    0.0324    0.1029    0.0000   -0.0093    0.2390   -0.0035   -0.0000
       71 O3     2pz        0.6940   -0.0000    0.6607   -0.0000   -0.0000   -0.1101   -0.0000    0.0000   -0.0000    0.1494
       72 O3     3pz        0.0234   -0.0000    0.1741   -0.0000    0.0000    0.3825    0.0000   -0.0000   -0.0000    0.8711
       73 O3     4pz       -0.0070    0.0000    0.0287   -0.0000    0.0000    0.2064    0.0000   -0.0000   -0.0000    0.3494
       74 O3     3d2-       0.0000   -0.0054   -0.0000   -0.0051   -0.0080    0.0000   -0.0034   -0.0050    0.0168    0.0000
       75 O3     4d2-      -0.0000   -0.0006   -0.0000   -0.0021   -0.0057   -0.0000    0.0028   -0.0033    0.0173    0.0000
       76 O3     3d1-       0.0253   -0.0000   -0.0157    0.0000    0.0000   -0.0074   -0.0000   -0.0000   -0.0000    0.0130
       77 O3     4d1-       0.0056   -0.0000   -0.0022   -0.0000    0.0000    0.0011    0.0000   -0.0000   -0.0000    0.0160
       78 O3     3d0       -0.0000    0.0009   -0.0000   -0.0104   -0.0522   -0.0000    0.0067   -0.0584    0.0016    0.0000
       79 O3     4d0       -0.0000    0.0001   -0.0000   -0.0063   -0.0327   -0.0000    0.0043   -0.0414    0.0018    0.0000
       80 O3     3d1+      -0.0007   -0.0000    0.0008   -0.0000   -0.0000    0.0007    0.0000   -0.0000    0.0000   -0.0020
       81 O3     4d1+      -0.0001    0.0000    0.0001   -0.0000   -0.0000    0.0002    0.0000   -0.0000    0.0000   -0.0016
       82 O3     3d2+      -0.0000    0.0024   -0.0000   -0.0167   -0.0877   -0.0000    0.0130   -0.1063   -0.0010   -0.0000
       83 O3     4d2+       0.0000    0.0000   -0.0000   -0.0098   -0.0543   -0.0000    0.0080   -0.0753    0.0002   -0.0000
       84 O3     4f3-       0.0000    0.0007   -0.0000   -0.0051   -0.0062   -0.0000    0.0008   -0.0132   -0.0005   -0.0000
       85 O3     4f2-      -0.0003    0.0000    0.0001   -0.0000    0.0000   -0.0002   -0.0000    0.0000    0.0000   -0.0010
       86 O3     4f1-       0.0000    0.0003   -0.0000   -0.0020   -0.0048   -0.0000    0.0009   -0.0108    0.0009    0.0000
       87 O3     4f0       -0.0020    0.0000    0.0015   -0.0000   -0.0000   -0.0018   -0.0000    0.0000    0.0000   -0.0064
       88 O3     4f1+       0.0000    0.0014    0.0000    0.0002    0.0001    0.0000   -0.0010    0.0003   -0.0029   -0.0000
       89 O3     4f2+      -0.0060    0.0000   -0.0003   -0.0000    0.0000   -0.0017   -0.0000    0.0000    0.0000   -0.0075
       90 O3     4f3+      -0.0000   -0.0011    0.0000    0.0007    0.0003    0.0000   -0.0029    0.0015   -0.0096   -0.0000
 
          Orbital           21    
          Energy            0.4617
          Occ. No.          0.0000
 
        1 O1     1s        -0.0710
        2 O1     2s        -0.4179
        3 O1     3s         0.1416
        4 O1     4s         0.1301
        5 O1     2px        0.0231
        6 O1     3px        0.0436
        7 O1     4px        0.0072
        8 O1     2py        0.0310
        9 O1     3py        0.4488
       10 O1     4py        0.0722
       11 O1     2pz       -0.0000
       12 O1     3pz       -0.0000
       13 O1     4pz       -0.0000
       14 O1     3d2-      -0.0138
       15 O1     4d2-      -0.0084
       16 O1     3d1-       0.0000
       17 O1     4d1-       0.0000
       18 O1     3d0        0.0723
       19 O1     4d0        0.0416
       20 O1     3d1+      -0.0000
       21 O1     4d1+      -0.0000
       22 O1     3d2+       0.1102
       23 O1     4d2+       0.0614
       24 O1     4f3-      -0.0030
       25 O1     4f2-       0.0000
       26 O1     4f1-      -0.0036
       27 O1     4f0        0.0000
       28 O1     4f1+      -0.0002
       29 O1     4f2+      -0.0000
       30 O1     4f3+      -0.0008
       31 O2     1s         0.0976
       32 O2     2s         0.6127
       33 O2     3s         0.9934
       34 O2     4s         0.3025
       35 O2     2px       -0.0209
       36 O2     3px       -0.0499
       37 O2     4px       -0.0229
       38 O2     2py        0.0000
       39 O2     3py        0.0001
       40 O2     4py        0.0000
       41 O2     2pz        0.0000
       42 O2     3pz        0.0000
       43 O2     4pz       -0.0000
       44 O2     3d2-       0.0000
       45 O2     4d2-       0.0000
       46 O2     3d1-       0.0000
       47 O2     4d1-       0.0000
       48 O2     3d0       -0.0371
       49 O2     4d0       -0.0149
       50 O2     3d1+       0.0000
       51 O2     4d1+       0.0000
       52 O2     3d2+      -0.0921
       53 O2     4d2+      -0.0446
       54 O2     4f3-      -0.0000
       55 O2     4f2-       0.0000
       56 O2     4f1-      -0.0000
       57 O2     4f0       -0.0000
       58 O2     4f1+      -0.0004
       59 O2     4f2+      -0.0000
       60 O2     4f3+      -0.0017
       61 O3     1s        -0.0710
       62 O3     2s        -0.4179
       63 O3     3s         0.1416
       64 O3     4s         0.1301
       65 O3     2px        0.0231
       66 O3     3px        0.0436
       67 O3     4px        0.0072
       68 O3     2py       -0.0311
       69 O3     3py       -0.4488
       70 O3     4py       -0.0722
       71 O3     2pz        0.0000
       72 O3     3pz        0.0000
       73 O3     4pz        0.0000
       74 O3     3d2-       0.0138
       75 O3     4d2-       0.0084
       76 O3     3d1-      -0.0000
       77 O3     4d1-       0.0000
       78 O3     3d0        0.0723
       79 O3     4d0        0.0416
       80 O3     3d1+       0.0000
       81 O3     4d1+       0.0000
       82 O3     3d2+       0.1102
       83 O3     4d2+       0.0614
       84 O3     4f3-       0.0030
       85 O3     4f2-      -0.0000
       86 O3     4f1-       0.0036
       87 O3     4f0       -0.0000
       88 O3     4f1+      -0.0002
       89 O3     4f2+      -0.0000
       90 O3     4f3+      -0.0008
--
 
 
++    Molecular charges:
      ------------------
 
      Mulliken charges per centre and basis function type
      ---------------------------------------------------
 
                O1      O2      O3    
      1s       1.9975  1.9997  1.9975
      2s       1.9626  1.5857  1.9626
      2px      2.0111  1.9712  2.0111
      2pz      1.4510  1.0065  1.4510
      2py      0.7027  1.0620  0.7027
      3s      -0.0104 -0.0406 -0.0104
      3px     -0.0176 -0.0488 -0.0176
      3pz     -0.0065 -0.0145 -0.0065
      3py     -0.0037  0.0049 -0.0037
      4s       0.0029 -0.0022  0.0029
      3d2+     0.0217  0.0156  0.0217
      3d1+     0.0000  0.0002  0.0000
      3d0      0.0060  0.0037  0.0060
      3d1-     0.0144  0.0555  0.0144
      3d2-     0.0115  0.0324  0.0115
      4px      0.0009  0.0008  0.0009
      4pz      0.0011  0.0021  0.0011
      4py      0.0018  0.0059  0.0018
      4d2+     0.0016  0.0006  0.0016
      4d1+     0.0000  0.0000  0.0000
      4d0      0.0003 -0.0005  0.0003
      4d1-     0.0023  0.0141  0.0023
      4d2-     0.0010  0.0055  0.0010
      4f3+     0.0026  0.0044  0.0026
      4f2+     0.0020  0.0046  0.0020
      4f1+     0.0002  0.0004  0.0002
      4f0      0.0008  0.0015  0.0008
      4f1-     0.0013  0.0013  0.0013
      4f2-     0.0000  0.0001  0.0000
      4f3-     0.0030  0.0039  0.0030
      Total    8.1622  7.6757  8.1622
 
      N-E     -0.1622  0.3243 -0.1622
 
      Total electronic charge=   24.000000
 
      Total            charge=   -0.000000
--
 
 
  Input file to MOLDEN was generated!
 
 
++    Static properties:
      ------------------
 
 
      LoProp Charges per center
 

                   O1       O2       O3    
      Nuclear      8.0000   8.0000   8.0000
      Electronic  -8.1691  -7.6618  -8.1691
 
      Total       -0.1691   0.3382  -0.1691
--
 
 
++    Natural Bond Order analysis
      ---------------------------
      Based on LoProp computed density
      -------------------------------------------------------------------------------------
      Atom A       Atom B       Bond Order | Atom A       Atom B       Bond Order
        O1           O2             1.995  |   O2           O3             1.995
      -------------------------------------------------------------------------------------
      NBO located     15.999 core electrons.
      NBO located      7.980 electrons involved in    2 bonds.
      The remaining    0.021 electrons are to be considered as diffuse
--
 
 
++    Molecular properties:
      ---------------------
 
      Charge (e):
                      =   -0.0000
      Dipole Moment (Debye):
      Origin of the operator (Ang)=    0.0000    0.0000    0.0000
                   X= -3.1827E-04               Y= -8.3786E-06               Z= -6.2582E-15           Total=  3.1838E-04
      Quadrupole Moment (Debye*Ang):
      Origin of the operator (Ang)=    0.0390    0.0000    0.0000
                  XX= -1.6066E+01              XY= -6.1217E-08              XZ=  6.6284E-14              YY= -1.6786E+01
                  YZ=  7.7523E-14              ZZ= -1.4875E+01
      In traceless form (Debye*Ang)
                  XX= -2.3528E-01              XY= -9.1825E-08              XZ=  9.9426E-14              YY= -1.3156E+00
                  YZ=  1.1628E-13              ZZ=  1.5509E+00
--
 
 
  Input file to MOLDEN was generated!
 
 ###############################################################################
 ###############################################################################
 ###                                                                         ###
 ###                                                                         ###
 ###    RunFile label nBas                                                   ###
 ###    was used       78 times                                              ###
 ###                                                                         ###
 ###                                                                         ###
 ###############################################################################
 ###############################################################################
--- Stop Module: scf at Tue May 13 21:02:42 2025 /rc=_RC_ALL_IS_WELL_ ---
*** files: ozone_174.75.LprOrb ozone_174.75.LoProp.molden ozone_174.75.scf.molden ozone_174.75.ScfOrb ozone_174.75.scf.h5 xmldump
    saved to directory /lustre/isaac/scratch/gjones39/scpfiles/ANO-RCC-VTZP/ozone_174.75
--- Module scf spent 20 seconds ---

>>> COPY /lustre/isaac/scratch/gjones39/scpfiles/ANO-RCC-VTZP/ozone_174.75/3256216/ozone_174.75.scf.h5 /lustre/isaac/scratch/gjones39/scpfiles/ANO-RCC-VTZP/ozone_174.75/

*** symbolic link created: INPORB -> ozone_174.75.ScfOrb
--- Start Module: rasscf at Tue May 13 21:02:43 2025 ---
 
()()()()()()()()()()()()()()()()()()()()()()()()()()()()()()()()()()()()()()()()()()()()()()()()()()

                                              &RASSCF

                                   only a single process is used
                       available to each process: 62 GB of memory, 1 thread?
()()()()()()()()()()()()()()()()()()()()()()()()()()()()()()()()()()()()()()()()()()()()()()()()()()
 
 
      Header of the ONEINT file:
      --------------------------
      
      Integrals generated by seward 4.2.0  , Tue May 13 21:02:03 2025
 
 
      OrdInt status: non-squared
 
 
      Cartesian coordinates in Angstrom:
      -----------------------------------------------------
      No.  Label        X            Y            Z        
      -----------------------------------------------------
       1   O1         0.05853100   1.27665900   0.00000000
       2   O2         0.00000000   0.00000000   0.00000000
       3   O3         0.05853100  -1.27665900   0.00000000
      -----------------------------------------------------
      Nuclear repulsion energy =   66.26458461
 
++    Wave function specifications:
      -----------------------------
 
      Number of closed shell electrons          12
      Number of electrons in active shells      12
      Max number of holes in RAS1 space          0
      Max nr of electrons in RAS3 space          0
      Number of inactive orbitals                6
      Number of active orbitals                  9
      Number of secondary orbitals              75
      Spin quantum number                      0.0
      State symmetry                             1
--
 
++    Orbital specifications:
      -----------------------
 
      Symmetry species                           1
                                                 a
      Frozen orbitals                            0
      Inactive orbitals                          6
      Active orbitals                            9
      RAS1 orbitals                              0
      RAS2 orbitals                              9
      RAS3 orbitals                              0
      Secondary orbitals                        75
      Deleted orbitals                           0
      Number of basis functions                 90
--
 
++    CI expansion specifications:
      ----------------------------
 
      Number of CSFs                          2520
      Number of determinants                  3570
      Number of root(s) required                 3
      Root chosen for geometry opt.              3
      CI roots used                              1     2     3
      weights                                0.333 0.333 0.333
      highest root included in the CI            3
      max. size of the explicit Hamiltonian    500
--
 
++    Optimization specifications:
      ----------------------------
 
      RASSCF algorithm: Conventional
      Maximum number of macro iterations       200
      Maximum number of SX iterations          100
      Threshold for RASSCF energy            0.100E-07
      Threshold for max MO rotation          0.100E+00
      Threshold for max BLB element          0.100E-03
      Level shift parameter                  0.500E+00
      Make Quasi-Newton update
--
 
      The MO-coefficients are taken from the file:
      /lustre/isaac/scratch/gjones39/scpfiles/ANO-RCC-VTZP/ozone_174.50/ozone_174.50.RasOrb                                           
      Title: RASSCF average (pseudo-natural) orbitals                                      
 
      Total molecular charge    0.00
 
      ************************************************************************************************************************
      *                                                                                                                      *
      *                                            Wave function control section                                             *
      *                                                                                                                      *
      ************************************************************************************************************************
 
 
                                         RASSCF iterations: Energy and convergence statistics
                                         ----------------------------------------------------
 
      Iter CI   SX   CI       RASSCF       Energy    max ROT     max BLB   max BLB  Level Ln srch  Step   QN   Walltime
          iter iter root      energy       change     param      element    value   shift minimum  type update hh:mm:ss
 Nr of preliminary CI iterations:   6
        1   1    6    0  -224.56486097    0.00E+00  -0.79E-03    6  14 1 -0.13E-02*  0.03   0.00    SX    NO    0:00:03
        2   1    6    0  -224.56486532   -0.44E-05* -0.33E-03    6  14 1 -0.31E-03*  0.03   0.00    SX    NO    0:00:01
        3   1    5    0  -224.56486559   -0.27E-06* -0.22E-03    6  14 1 -0.16E-03*  0.03   0.00    SX    NO    0:00:00
        4   8    6    0  -224.56486831   -0.27E-05* -0.69E-03    6  14 1 -0.37E-03*  0.03   0.00    SX    NO    0:00:01
        5   5    5    0  -224.56486868   -0.37E-06* -0.72E-03    6  14 1 -0.18E-03*  0.03   2.04    LS   YES    0:00:01
        6   5    5    0  -224.56486877   -0.93E-07*  0.52E-03    9  48 1  0.10E-03*  0.03   0.82    QN   YES    0:00:01
        7   5    5    0  -224.56486887   -0.99E-07* -0.13E-02    6  50 1  0.68E-04   0.03   1.72    QN   YES    0:00:01
        8   5    5    0  -224.56486892   -0.53E-07* -0.28E-04    6  50 1 -0.94E-04   0.03   0.75    QN   YES    0:00:01
        9   1    4    0  -224.56486894   -0.16E-07*  0.16E-03    6  24 1  0.19E-04   0.03   1.28    QN   YES    0:00:01
       10   3    4    0  -224.56486894   -0.22E-08  -0.81E-05    6  14 1  0.48E-05   0.03   1.03    QN   YES    0:00:01
      Convergence after 10 iterations
 
  Dmat in MO in SXCTL bf call to SXHAM                                                                                    
  mat. size =     9x    9
 
        1.9708889851429225
       -0.0000000000003326      1.9366859811970303
       -0.0000000219944198     -0.0000000000000459      1.9781987622161603
        0.0006321413831108      0.0000000000014876      0.0000008603145048      1.0883667535569046
        0.0000000000006396     -0.0000148946375124     -0.0000000000000044      0.0000000000034940      1.9070050606090363
       -0.0000000000000109      0.0000000955625785      0.0000000000007341      0.0000000000000437      0.0000003384164001
        1.9163779561388212
        0.0000002855473717      0.0000000000000122      0.0003661320858714     -0.0000003547724021     -0.0000000000001354
        0.0000000000029671      1.0948906387188573
        0.0024630749863685      0.0000000000099877      0.0000003083855386     -0.0039197325131616     -0.0000000000004384
        0.0000000000001541      0.0000016499715280      0.0789459015673578
        0.0000000000033536      0.0002060549248403      0.0000000000001007      0.0000000000006759     -0.0023308125375800
       -0.0000003107988670      0.0000000000000058      0.0000000000000714      0.0286399608529007
       11   1    4    0  -224.56486894   -0.11E-09  -0.81E-05    6  47 1  0.27E-05   0.03   1.03    QN   YES    0:00:00
 
      ************************************************************************************************************************
                                                      Wave function printout:
                       occupation of active orbitals, and spin coupling of open shells (u,d: Spin up or down)
      ************************************************************************************************************************
 
      Note: transformation to natural orbitals
      has been made, which may change the order of the CSFs.
 
      printout of CI-coefficients larger than  0.05 for root  1
      energy=    -224.582524
      conf/sym  111111111     Coeff  Weight
             1  222222000   0.90698 0.82262
             4  222220200  -0.23688 0.05611
           205  2u222dud0  -0.10100 0.01020
           207  2u222udd0  -0.11233 0.01262
           351  222022200  -0.16503 0.02723
           355  222022020  -0.05875 0.00345
           551  220222200  -0.09238 0.00853
           611  2ud222u0d  -0.06887 0.00474
           652  u2d222ud0   0.06781 0.00460
           705  202222020  -0.06217 0.00387
           731  202222002  -0.05372 0.00289
           764  ud22220ud   0.05815 0.00338
           992  2uu222d0d  -0.07183 0.00516
 
      printout of CI-coefficients larger than  0.05 for root  2
      energy=    -224.568619
      conf/sym  111111111     Coeff  Weight
             5  2222ud200  -0.24442 0.05974
            51  222u22d00   0.93014 0.86516
           206  2u22d2ud0  -0.07049 0.00497
           208  2u22u2dd0  -0.08362 0.00699
           897  2u2u2d2d0  -0.09790 0.00958
          1285  2udu2220d  -0.05280 0.00279
          1321  u2du222d0   0.05333 0.00284
          1362  202u22d20  -0.06552 0.00429
          1381  202u22d02  -0.05632 0.00317
          1406  ud2u22dud   0.06299 0.00397
          1485  2uud2220d  -0.06257 0.00391
 
      printout of CI-coefficients larger than  0.05 for root  3
      energy=    -224.543463
      conf/sym  111111111     Coeff  Weight
             1  222222000   0.15023 0.02257
             4  222220200  -0.06184 0.00382
             6  222202200  -0.27080 0.07333
           351  222022200   0.91011 0.82829
           355  222022020  -0.09112 0.00830
           454  2u2du22d0  -0.05144 0.00265
           898  2u2ud22d0  -0.12905 0.01665
          1441  022u222d0  -0.06283 0.00395
          1966  202022220  -0.06627 0.00439
          1971  202022202  -0.05709 0.00326
          1982  ud20222ud   0.06656 0.00443
          1996  022022220  -0.05408 0.00293
 
      Natural orbitals and occupation numbers for root  1
      sym 1:   1.978923   1.930993   1.955221   1.923464   1.992612   1.842059   0.260806   0.083411   0.032512
 
      Natural orbitals and occupation numbers for root  2
      sym 1:   1.970702   1.935637   1.982649   1.083608   1.913868   1.918600   1.093708   0.072319   0.028909
 
      Natural orbitals and occupation numbers for root  3
      sym 1:   1.966587   1.942837   1.997112   0.257356   1.815305   1.988475   1.929772   0.078234   0.024321
 
      ************************************************************************************************************************
      *                                                                                                                      *
      *                                                    Final results                                                     *
      *                                                                                                                      *
      ************************************************************************************************************************
 
 
++    Wave function specifications:
      -----------------------------
 
      Number of closed shell electrons          12
      Number of electrons in active shells      12
      Max number of holes in RAS1 space          0
      Max nr of electrons in RAS3 space          0
      Number of inactive orbitals                6
      Number of active orbitals                  9
      Number of secondary orbitals              75
      Spin quantum number                      0.0
      State symmetry                             1
--
 
++    Orbital specifications:
      -----------------------
 
      Symmetry species                           1
                                                 a
      Frozen orbitals                            0
      Inactive orbitals                          6
      Active orbitals                            9
      RAS1 orbitals                              0
      RAS2 orbitals                              9
      RAS3 orbitals                              0
      Secondary orbitals                        75
      Deleted orbitals                           0
      Number of basis functions                 90
--
 
++    CI expansion specifications:
      ----------------------------
 
      Number of CSFs                          2520
      Number of determinants                  3570
      Number of root(s) required                 3
      CI roots used                              1     2     3
      weights                                0.333 0.333 0.333
      highest root included in the CI            3
      Root passed to geometry opt.               3
--
 
++    Final optimization conditions:
      ------------------------------
 
      Average CI energy                            -224.56486894
      RASSCF energy for state  3                   -224.54346347
      Super-CI energy                                -0.00000000
      RASSCF energy change                            0.00000000
      Max change in MO coefficients               0.784E-05
      Max non-diagonal density matrix element    -0.807E-05
      Maximum BLB matrix element                  0.267E-05
      (orbital pair   6,  47 in symmetry   1)
      Norm of electronic gradient            0.138E+00
--
 
 
      Final state energy(ies):
      ------------------------
 
::    RASSCF root number  1 Total energy:   -224.58252445
::    RASSCF root number  2 Total energy:   -224.56861890
::    RASSCF root number  3 Total energy:   -224.54346347
 
++    Molecular orbitals:
      -------------------
 
      Pseudonatural active orbitals and approximate occupation numbers
 
 
 
 
      Molecular orbitals for symmetry species 1: a  
 
 
      Orbital                1         2         3         4         5         6         7         8         9        10
      Energy          -20.7723  -20.7194  -20.7193   -1.5307   -1.3541   -0.9483    0.0000    0.0000    0.0000    0.0000
      Occ. No.          2.0000    2.0000    2.0000    2.0000    2.0000    2.0000    1.9709    1.9367    1.9782    1.0884
 
    1 O1     1s         0.0054   -0.7063    0.7063   -0.0065    0.0016    0.0134   -0.0138   -0.0266    0.0000   -0.0033
    2 O1     2s         0.0012    0.0058   -0.0057    0.5331   -0.6897    0.4869   -0.1891   -0.1838    0.0000   -0.0487
    3 O1     3s         0.0005    0.0042   -0.0038   -0.0018   -0.0018    0.0222   -0.0168   -0.0559    0.0000   -0.0010
    4 O1     4s         0.0001    0.0008   -0.0007    0.0006   -0.0004    0.0032   -0.0022   -0.0110    0.0000    0.0009
    5 O1     2px       -0.0002   -0.0002    0.0005   -0.0909   -0.0037    0.2067    0.2666    0.0110    0.0000    0.6604
    6 O1     3px       -0.0002   -0.0001    0.0000    0.0092    0.0001   -0.0179   -0.0166    0.0031    0.0000    0.0320
    7 O1     4px       -0.0001    0.0000   -0.0000    0.0015    0.0003   -0.0028   -0.0025   -0.0006    0.0000    0.0003
    8 O1     2py       -0.0006   -0.0021    0.0026   -0.0304   -0.0686    0.1223   -0.1938   -0.4403    0.0000    0.1362
    9 O1     3py       -0.0003   -0.0025    0.0028    0.0019   -0.0008   -0.0236    0.0236    0.0565   -0.0000   -0.0030
   10 O1     4py        0.0002    0.0016   -0.0016    0.0003   -0.0013    0.0015    0.0007    0.0041   -0.0000   -0.0030
   11 O1     2pz       -0.0000    0.0000    0.0000    0.0000   -0.0000   -0.0000    0.0000   -0.0000    0.3715    0.0000
   12 O1     3pz        0.0000   -0.0000    0.0000   -0.0000    0.0000    0.0000   -0.0000    0.0000   -0.0247    0.0000
   13 O1     4pz        0.0000    0.0000   -0.0000   -0.0000   -0.0000    0.0000   -0.0000    0.0000   -0.0035   -0.0000
   14 O1     3d2-      -0.0000    0.0001   -0.0001    0.0078   -0.0002   -0.0167   -0.0183    0.0004    0.0000    0.0068
   15 O1     4d2-      -0.0000    0.0001   -0.0001    0.0008   -0.0000   -0.0021   -0.0025   -0.0003    0.0000    0.0013
   16 O1     3d1-       0.0000    0.0000   -0.0000   -0.0000    0.0000    0.0000   -0.0000    0.0000   -0.0253    0.0000
   17 O1     4d1-       0.0000    0.0000    0.0000   -0.0000   -0.0000    0.0000   -0.0000    0.0000   -0.0031    0.0000
   18 O1     3d0       -0.0001   -0.0006    0.0007   -0.0068    0.0018    0.0073   -0.0101   -0.0171    0.0000    0.0006
   19 O1     4d0       -0.0000   -0.0003    0.0004   -0.0010    0.0004    0.0006   -0.0011   -0.0011    0.0000   -0.0005
   20 O1     3d1+      -0.0000   -0.0000    0.0000   -0.0000    0.0000    0.0000    0.0000   -0.0000   -0.0005    0.0000
   21 O1     4d1+      -0.0000    0.0000   -0.0000   -0.0000    0.0000    0.0000    0.0000   -0.0000    0.0000    0.0000
   22 O1     3d2+      -0.0002   -0.0011    0.0012   -0.0115    0.0032    0.0119   -0.0181   -0.0296    0.0000    0.0026
   23 O1     4d2+      -0.0001   -0.0006    0.0007   -0.0017    0.0007    0.0011   -0.0018   -0.0019    0.0000   -0.0005
   24 O1     4f3-       0.0001    0.0002   -0.0002    0.0035   -0.0020   -0.0022    0.0044    0.0072   -0.0000   -0.0013
   25 O1     4f2-       0.0000   -0.0000    0.0000    0.0000   -0.0000    0.0000   -0.0000   -0.0000    0.0002   -0.0000
   26 O1     4f1-       0.0000    0.0002   -0.0002    0.0028   -0.0015   -0.0019    0.0033    0.0056   -0.0000   -0.0005
   27 O1     4f0        0.0000    0.0000   -0.0000   -0.0000   -0.0000    0.0000   -0.0000    0.0000   -0.0045    0.0000
   28 O1     4f1+      -0.0000    0.0000   -0.0000    0.0006   -0.0000   -0.0012   -0.0013    0.0001    0.0000   -0.0001
   29 O1     4f2+       0.0000    0.0000   -0.0000   -0.0000   -0.0000    0.0000   -0.0000    0.0000   -0.0058    0.0000
   30 O1     4f3+      -0.0000    0.0000   -0.0000    0.0023   -0.0001   -0.0045   -0.0049    0.0002    0.0000   -0.0001
   31 O2     1s         0.9997    0.0000   -0.0056   -0.0294   -0.0000   -0.0119   -0.0074    0.0000    0.0000    0.0186
   32 O2     2s        -0.0021   -0.0000    0.0122    0.3675    0.0000   -0.5982    0.5371    0.0000   -0.0000    0.1837
   33 O2     3s        -0.0020   -0.0000    0.0064   -0.0605   -0.0000   -0.0257   -0.0214    0.0000    0.0000    0.0545
   34 O2     4s        -0.0001   -0.0000    0.0010   -0.0116   -0.0000   -0.0044   -0.0044    0.0000    0.0000    0.0112
   35 O2     2px       -0.0002   -0.0000    0.0011   -0.2015   -0.0000    0.4530    0.5294    0.0000   -0.0000   -0.7258
   36 O2     3px       -0.0000   -0.0000    0.0002    0.0072    0.0000   -0.0251   -0.0415    0.0000    0.0000   -0.0622
   37 O2     4px        0.0006    0.0000   -0.0001    0.0029    0.0000   -0.0079   -0.0110   -0.0000    0.0000   -0.0025
   38 O2     2py        0.0000   -0.0076   -0.0000    0.0000   -0.0908   -0.0000   -0.0000    0.6102   -0.0000   -0.0000
   39 O2     3py        0.0000   -0.0048   -0.0000   -0.0000    0.0405   -0.0000    0.0000   -0.0718   -0.0000   -0.0000
   40 O2     4py        0.0000    0.0012    0.0000    0.0000   -0.0041   -0.0000   -0.0000   -0.0065    0.0000   -0.0000
   41 O2     2pz       -0.0000   -0.0000   -0.0000    0.0000   -0.0000   -0.0000    0.0000    0.0000    0.7063   -0.0000
   42 O2     3pz        0.0000   -0.0000    0.0000   -0.0000   -0.0000    0.0000   -0.0000   -0.0000   -0.0535   -0.0000
   43 O2     4pz       -0.0000   -0.0000    0.0000   -0.0000   -0.0000    0.0000   -0.0000   -0.0000   -0.0142    0.0000
   44 O2     3d2-      -0.0000   -0.0002   -0.0000   -0.0000   -0.0035   -0.0000   -0.0000    0.0131   -0.0000   -0.0000
   45 O2     4d2-       0.0000   -0.0001   -0.0000   -0.0000   -0.0004   -0.0000   -0.0000    0.0010    0.0000   -0.0000
   46 O2     3d1-       0.0000    0.0000    0.0000    0.0000    0.0000   -0.0000    0.0000   -0.0000   -0.0000    0.0000
   47 O2     4d1-       0.0000    0.0000    0.0000    0.0000    0.0000    0.0000    0.0000   -0.0000   -0.0000    0.0000
   48 O2     3d0        0.0003    0.0000   -0.0011   -0.0118    0.0000   -0.0037   -0.0097    0.0000    0.0000    0.0120
   49 O2     4d0        0.0002    0.0000   -0.0006    0.0001    0.0000   -0.0002   -0.0008    0.0000    0.0000    0.0014
   50 O2     3d1+       0.0000    0.0000   -0.0000    0.0000   -0.0000   -0.0000    0.0000   -0.0000    0.0072   -0.0000
   51 O2     4d1+      -0.0000   -0.0000    0.0000   -0.0000   -0.0000   -0.0000    0.0000   -0.0000    0.0008   -0.0000
   52 O2     3d2+       0.0005    0.0000   -0.0019   -0.0239    0.0000    0.0018   -0.0059    0.0000    0.0000    0.0137
   53 O2     4d2+       0.0003    0.0000   -0.0009   -0.0002    0.0000    0.0007   -0.0003    0.0000    0.0000    0.0023
   54 O2     4f3-       0.0000    0.0002    0.0000   -0.0000    0.0056    0.0000   -0.0000   -0.0113    0.0000    0.0000
   55 O2     4f2-      -0.0000    0.0000    0.0000   -0.0000    0.0000    0.0000    0.0000    0.0000   -0.0000    0.0000
   56 O2     4f1-       0.0000    0.0002    0.0000   -0.0000    0.0045    0.0000   -0.0000   -0.0091    0.0000    0.0000
   57 O2     4f0        0.0000   -0.0000    0.0000   -0.0000   -0.0000    0.0000   -0.0000   -0.0000   -0.0078    0.0000
   58 O2     4f1+       0.0000    0.0000   -0.0000    0.0005    0.0000   -0.0020   -0.0026   -0.0000    0.0000    0.0003
   59 O2     4f2+       0.0000    0.0000    0.0000   -0.0000   -0.0000    0.0000   -0.0000   -0.0000   -0.0098    0.0000
   60 O2     4f3+       0.0001    0.0000   -0.0001    0.0018    0.0000   -0.0072   -0.0098   -0.0000    0.0000    0.0008
   61 O3     1s         0.0054    0.7063    0.7063   -0.0065   -0.0016    0.0134   -0.0138    0.0266    0.0000   -0.0033
   62 O3     2s         0.0012   -0.0058   -0.0057    0.5331    0.6897    0.4869   -0.1891    0.1838    0.0000   -0.0487
   63 O3     3s         0.0005   -0.0042   -0.0038   -0.0018    0.0018    0.0222   -0.0168    0.0559    0.0000   -0.0010
   64 O3     4s         0.0001   -0.0008   -0.0007    0.0006    0.0004    0.0032   -0.0022    0.0110    0.0000    0.0009
   65 O3     2px       -0.0002    0.0002    0.0005   -0.0909    0.0037    0.2067    0.2666   -0.0110    0.0000    0.6604
   66 O3     3px       -0.0002    0.0001    0.0000    0.0092   -0.0001   -0.0179   -0.0166   -0.0031    0.0000    0.0320
   67 O3     4px       -0.0001   -0.0000   -0.0000    0.0015   -0.0003   -0.0028   -0.0025    0.0006    0.0000    0.0003
   68 O3     2py        0.0006   -0.0021   -0.0026    0.0304   -0.0686   -0.1223    0.1938   -0.4403   -0.0000   -0.1362
   69 O3     3py        0.0003   -0.0025   -0.0028   -0.0019   -0.0008    0.0236   -0.0236    0.0565    0.0000    0.0030
   70 O3     4py       -0.0002    0.0016    0.0016   -0.0003   -0.0013   -0.0015   -0.0007    0.0041    0.0000    0.0030
   71 O3     2pz       -0.0000   -0.0000    0.0000    0.0000    0.0000   -0.0000    0.0000    0.0000    0.3715    0.0000
   72 O3     3pz        0.0000    0.0000    0.0000   -0.0000   -0.0000    0.0000   -0.0000   -0.0000   -0.0247    0.0000
   73 O3     4pz        0.0000   -0.0000   -0.0000   -0.0000    0.0000    0.0000   -0.0000   -0.0000   -0.0035   -0.0000
   74 O3     3d2-       0.0000    0.0001    0.0001   -0.0078   -0.0002    0.0167    0.0183    0.0004   -0.0000   -0.0068
   75 O3     4d2-       0.0000    0.0001    0.0001   -0.0008   -0.0000    0.0021    0.0025   -0.0003   -0.0000   -0.0013
   76 O3     3d1-      -0.0000    0.0000    0.0000    0.0000    0.0000   -0.0000    0.0000    0.0000    0.0253   -0.0000
   77 O3     4d1-      -0.0000    0.0000   -0.0000    0.0000   -0.0000   -0.0000    0.0000    0.0000    0.0031   -0.0000
   78 O3     3d0       -0.0001    0.0006    0.0007   -0.0068   -0.0018    0.0073   -0.0101    0.0171    0.0000    0.0006
   79 O3     4d0       -0.0000    0.0003    0.0004   -0.0010   -0.0004    0.0006   -0.0011    0.0011    0.0000   -0.0005
   80 O3     3d1+      -0.0000    0.0000    0.0000   -0.0000   -0.0000    0.0000    0.0000    0.0000   -0.0005    0.0000
   81 O3     4d1+      -0.0000   -0.0000   -0.0000   -0.0000   -0.0000    0.0000    0.0000    0.0000    0.0000    0.0000
   82 O3     3d2+      -0.0002    0.0011    0.0012   -0.0115   -0.0032    0.0119   -0.0181    0.0296    0.0000    0.0026
   83 O3     4d2+      -0.0001    0.0006    0.0007   -0.0017   -0.0007    0.0011   -0.0018    0.0019    0.0000   -0.0005
   84 O3     4f3-      -0.0001    0.0002    0.0002   -0.0035   -0.0020    0.0022   -0.0044    0.0072    0.0000    0.0013
   85 O3     4f2-      -0.0000   -0.0000   -0.0000   -0.0000   -0.0000   -0.0000    0.0000   -0.0000   -0.0002    0.0000
   86 O3     4f1-      -0.0000    0.0002    0.0002   -0.0028   -0.0015    0.0019   -0.0033    0.0056    0.0000    0.0005
   87 O3     4f0        0.0000   -0.0000   -0.0000   -0.0000    0.0000    0.0000   -0.0000   -0.0000   -0.0045    0.0000
   88 O3     4f1+      -0.0000   -0.0000   -0.0000    0.0006    0.0000   -0.0012   -0.0013   -0.0001    0.0000   -0.0001
   89 O3     4f2+       0.0000   -0.0000   -0.0000   -0.0000    0.0000    0.0000   -0.0000   -0.0000   -0.0058    0.0000
   90 O3     4f3+      -0.0000   -0.0000   -0.0000    0.0023    0.0001   -0.0045   -0.0049   -0.0002    0.0000   -0.0001
 
 
      Orbital               11        12        13        14        15        16        17        18        19        20
      Energy            0.0000    0.0000    0.0000    0.0000    0.0000    0.1698    0.2375    0.2377    0.2631    0.3675
      Occ. No.          1.9070    1.9164    1.0949    0.0789    0.0286    0.0000    0.0000    0.0000    0.0000    0.0000
 
    1 O1     1s        -0.0005    0.0000    0.0000   -0.0120   -0.0480   -0.2283   -0.0189   -0.0000    0.1181   -0.0000
    2 O1     2s        -0.0047    0.0000    0.0000   -0.2297   -0.4771   -1.6450   -0.1363   -0.0000    0.8437   -0.0000
    3 O1     3s        -0.0027    0.0000    0.0000   -0.0438   -0.1298   -1.0095   -0.0733   -0.0000    0.5839   -0.0000
    4 O1     4s        -0.0004    0.0000   -0.0000   -0.0046   -0.0172   -0.2304   -0.0136   -0.0000    0.1336   -0.0000
    5 O1     2px       -0.6999   -0.0000   -0.0000   -0.0455    0.0243    0.0432   -0.0401   -0.0000   -0.0218   -0.0000
    6 O1     3px        0.0018    0.0000   -0.0000    0.0495   -0.0180    0.0577    0.4159    0.0000    0.0364   -0.0000
    7 O1     4px        0.0074    0.0000   -0.0000    0.0063    0.0067    0.0101    0.2116    0.0000    0.0259   -0.0000
    8 O1     2py        0.0144    0.0000   -0.0000    0.7064    0.6907    0.5987    0.1112    0.0000   -0.7460   -0.0000
    9 O1     3py        0.0042   -0.0000    0.0000   -0.0716   -0.0272    0.8075    0.1149    0.0000   -1.1503   -0.0000
   10 O1     4py       -0.0004   -0.0000    0.0000   -0.0068   -0.0227    0.1026    0.0134   -0.0000   -0.2423   -0.0000
   11 O1     2pz        0.0000   -0.7006    0.6521   -0.0000   -0.0000    0.0000    0.0000   -0.0412    0.0000   -0.1657
   12 O1     3pz       -0.0000    0.0028    0.0294    0.0000   -0.0000    0.0000   -0.0000    0.4182   -0.0000   -0.8720
   13 O1     4pz       -0.0000    0.0074   -0.0002   -0.0000    0.0000    0.0000   -0.0000    0.2136   -0.0000   -0.3474
   14 O1     3d2-       0.0168    0.0000   -0.0000    0.0080    0.0098   -0.0093    0.0035    0.0000    0.0077    0.0000
   15 O1     4d2-       0.0021    0.0000   -0.0000    0.0042    0.0048   -0.0063   -0.0032   -0.0000    0.0043    0.0000
   16 O1     3d1-      -0.0000    0.0165    0.0080   -0.0000    0.0000   -0.0000   -0.0000    0.0050   -0.0000    0.0158
   17 O1     4d1-      -0.0000    0.0019    0.0014   -0.0000    0.0000   -0.0000    0.0000   -0.0025    0.0000    0.0167
   18 O1     3d0        0.0005    0.0000   -0.0000    0.0100    0.0002    0.0554    0.0087    0.0000   -0.0659   -0.0000
   19 O1     4d0        0.0004    0.0000    0.0000    0.0031    0.0076    0.0333    0.0054    0.0000   -0.0455   -0.0000
   20 O1     3d1+      -0.0000   -0.0001    0.0007   -0.0000   -0.0000    0.0000   -0.0000    0.0008    0.0000    0.0019
   21 O1     4d1+       0.0000   -0.0002    0.0001    0.0000    0.0000    0.0000   -0.0000    0.0004    0.0000    0.0013
   22 O1     3d2+       0.0005    0.0000   -0.0000    0.0210    0.0044    0.0956    0.0165    0.0000   -0.1133    0.0000
   23 O1     4d2+       0.0003    0.0000    0.0000    0.0057    0.0133    0.0575    0.0101    0.0000   -0.0784    0.0000
   24 O1     4f3-      -0.0002   -0.0000    0.0000   -0.0034   -0.0002   -0.0064   -0.0011    0.0000    0.0146   -0.0000
   25 O1     4f2-       0.0000   -0.0001   -0.0003   -0.0000   -0.0000    0.0000   -0.0000    0.0002   -0.0000   -0.0011
   26 O1     4f1-      -0.0001   -0.0000    0.0000   -0.0015    0.0019   -0.0049   -0.0012    0.0000    0.0114    0.0000
   27 O1     4f0       -0.0000    0.0035    0.0001   -0.0000   -0.0000   -0.0000    0.0000   -0.0019    0.0000    0.0063
   28 O1     4f1+       0.0015    0.0000    0.0000    0.0008    0.0015   -0.0001   -0.0008   -0.0000    0.0004    0.0000
   29 O1     4f2+      -0.0000    0.0043    0.0002    0.0000   -0.0000   -0.0000    0.0000   -0.0025    0.0000    0.0081
   30 O1     4f3+       0.0053    0.0000    0.0000    0.0025    0.0050   -0.0004   -0.0032   -0.0000    0.0015    0.0000
   31 O2     1s         0.0000    0.0000   -0.0000    0.0773    0.0000    0.0000    0.0480    0.0000   -0.3666    0.0000
   32 O2     2s         0.0000    0.0000   -0.0000    0.8516    0.0000    0.0000    0.3381    0.0000   -2.4429    0.0000
   33 O2     3s         0.0000   -0.0000   -0.0000    0.0310    0.0000    0.0000    0.2042    0.0000   -1.4374    0.0000
   34 O2     4s         0.0000   -0.0000   -0.0000    0.0200    0.0000    0.0000    0.0446    0.0000   -0.2886    0.0000
   35 O2     2px       -0.0000    0.0000    0.0000    0.1834    0.0000    0.0000   -0.1220   -0.0000   -0.0816    0.0000
   36 O2     3px        0.0000    0.0000    0.0000   -0.1569   -0.0000    0.0000    0.2296    0.0000   -0.0701   -0.0000
   37 O2     4px       -0.0000   -0.0000    0.0000    0.0143    0.0000    0.0000    0.1619    0.0000    0.0050   -0.0000
   38 O2     2py        0.0230   -0.0000   -0.0000    0.0000    1.1184    1.5512   -0.0000   -0.0000    0.0000   -0.0000
   39 O2     3py       -0.0084   -0.0000   -0.0000    0.0000   -0.1056    1.7353   -0.0000   -0.0000    0.0000    0.0000
   40 O2     4py       -0.0010    0.0000    0.0000   -0.0000    0.0297    0.1868   -0.0000   -0.0000    0.0000    0.0000
   41 O2     2pz        0.0000   -0.0000   -0.7748    0.0000   -0.0000   -0.0000    0.0000   -0.1346    0.0000    0.0000
   42 O2     3pz       -0.0000    0.0000   -0.0488   -0.0000   -0.0000    0.0000   -0.0000    0.2189   -0.0000    0.0000
   43 O2     4pz       -0.0000   -0.0000   -0.0001   -0.0000    0.0000    0.0000   -0.0000    0.1617   -0.0000    0.0000
   44 O2     3d2-      -0.0436   -0.0000   -0.0000    0.0000    0.0619    0.0192   -0.0000    0.0000    0.0000    0.0000
   45 O2     4d2-      -0.0076   -0.0000   -0.0000   -0.0000   -0.0136    0.0121   -0.0000    0.0000    0.0000    0.0000
   46 O2     3d1-       0.0000   -0.0436    0.0000    0.0000   -0.0000    0.0000    0.0000   -0.0000    0.0000    0.1134
   47 O2     4d1-       0.0000   -0.0074    0.0000    0.0000   -0.0000   -0.0000    0.0000   -0.0000    0.0000    0.0711
   48 O2     3d0       -0.0000    0.0000   -0.0000    0.0331    0.0000   -0.0000   -0.0126   -0.0000    0.1013    0.0000
   49 O2     4d0       -0.0000   -0.0000   -0.0000    0.0051   -0.0000   -0.0000   -0.0076   -0.0000    0.0470    0.0000
[...]

>>> EXPORT i = B

>>> EXPORT j = P

>>> IF (-FILE GMJ_e2_${i}_${j}_${k}_.csv)

>>> COPY /lustre/isaac/scratch/gjones39/scpfiles/ANO-RCC-VTZP/ozone_174.75/3256216/GMJ_RHS_B_P_3_.csv /lustre/isaac/scratch/gjones39/scpfiles/ANO-RCC-VTZP/ozone_174.75/GMJ_RHS_B_P_3_.csv

>>> COPY /lustre/isaac/scratch/gjones39/scpfiles/ANO-RCC-VTZP/ozone_174.75/3256216/GMJ_IVECW_B_P_3_.csv /lustre/isaac/scratch/gjones39/scpfiles/ANO-RCC-VTZP/ozone_174.75/GMJ_IVECW_B_P_3_.csv

>>> COPY /lustre/isaac/scratch/gjones39/scpfiles/ANO-RCC-VTZP/ozone_174.75/3256216/GMJ_IVECX_B_P_3_.csv /lustre/isaac/scratch/gjones39/scpfiles/ANO-RCC-VTZP/ozone_174.75/GMJ_IVECX_B_P_3_.csv

>>> COPY /lustre/isaac/scratch/gjones39/scpfiles/ANO-RCC-VTZP/ozone_174.75/3256216/GMJ_IVECC2_B_P_3_.csv /lustre/isaac/scratch/gjones39/scpfiles/ANO-RCC-VTZP/ozone_174.75/GMJ_IVECC2_B_P_3_.csv

>>> COPY /lustre/isaac/scratch/gjones39/scpfiles/ANO-RCC-VTZP/ozone_174.75/3256216/GMJ_e2_B_P_3_.csv /lustre/isaac/scratch/gjones39/scpfiles/ANO-RCC-VTZP/ozone_174.75/GMJ_e2_B_P_3_.csv

>>> END FOREACH

>>> EXPORT j = M

>>> IF (-FILE GMJ_e2_${i}_${j}_${k}_.csv)

>>> COPY /lustre/isaac/scratch/gjones39/scpfiles/ANO-RCC-VTZP/ozone_174.75/3256216/GMJ_RHS_B_M_3_.csv /lustre/isaac/scratch/gjones39/scpfiles/ANO-RCC-VTZP/ozone_174.75/GMJ_RHS_B_M_3_.csv

>>> COPY /lustre/isaac/scratch/gjones39/scpfiles/ANO-RCC-VTZP/ozone_174.75/3256216/GMJ_IVECW_B_M_3_.csv /lustre/isaac/scratch/gjones39/scpfiles/ANO-RCC-VTZP/ozone_174.75/GMJ_IVECW_B_M_3_.csv

>>> COPY /lustre/isaac/scratch/gjones39/scpfiles/ANO-RCC-VTZP/ozone_174.75/3256216/GMJ_IVECX_B_M_3_.csv /lustre/isaac/scratch/gjones39/scpfiles/ANO-RCC-VTZP/ozone_174.75/GMJ_IVECX_B_M_3_.csv

>>> COPY /lustre/isaac/scratch/gjones39/scpfiles/ANO-RCC-VTZP/ozone_174.75/3256216/GMJ_IVECC2_B_M_3_.csv /lustre/isaac/scratch/gjones39/scpfiles/ANO-RCC-VTZP/ozone_174.75/GMJ_IVECC2_B_M_3_.csv

>>> COPY /lustre/isaac/scratch/gjones39/scpfiles/ANO-RCC-VTZP/ozone_174.75/3256216/GMJ_e2_B_M_3_.csv /lustre/isaac/scratch/gjones39/scpfiles/ANO-RCC-VTZP/ozone_174.75/GMJ_e2_B_M_3_.csv

>>> END FOREACH

>>> END FOREACH

>>> EXPORT i = E

>>> EXPORT j = P

>>> IF (-FILE GMJ_e2_${i}_${j}_${k}_.csv)

>>> COPY /lustre/isaac/scratch/gjones39/scpfiles/ANO-RCC-VTZP/ozone_174.75/3256216/GMJ_RHS_E_P_3_.csv /lustre/isaac/scratch/gjones39/scpfiles/ANO-RCC-VTZP/ozone_174.75/GMJ_RHS_E_P_3_.csv

>>> COPY /lustre/isaac/scratch/gjones39/scpfiles/ANO-RCC-VTZP/ozone_174.75/3256216/GMJ_IVECW_E_P_3_.csv /lustre/isaac/scratch/gjones39/scpfiles/ANO-RCC-VTZP/ozone_174.75/GMJ_IVECW_E_P_3_.csv

>>> COPY /lustre/isaac/scratch/gjones39/scpfiles/ANO-RCC-VTZP/ozone_174.75/3256216/GMJ_IVECX_E_P_3_.csv /lustre/isaac/scratch/gjones39/scpfiles/ANO-RCC-VTZP/ozone_174.75/GMJ_IVECX_E_P_3_.csv

>>> COPY /lustre/isaac/scratch/gjones39/scpfiles/ANO-RCC-VTZP/ozone_174.75/3256216/GMJ_IVECC2_E_P_3_.csv /lustre/isaac/scratch/gjones39/scpfiles/ANO-RCC-VTZP/ozone_174.75/GMJ_IVECC2_E_P_3_.csv

>>> COPY /lustre/isaac/scratch/gjones39/scpfiles/ANO-RCC-VTZP/ozone_174.75/3256216/GMJ_e2_E_P_3_.csv /lustre/isaac/scratch/gjones39/scpfiles/ANO-RCC-VTZP/ozone_174.75/GMJ_e2_E_P_3_.csv

>>> END FOREACH

>>> EXPORT j = M

>>> IF (-FILE GMJ_e2_${i}_${j}_${k}_.csv)

>>> COPY /lustre/isaac/scratch/gjones39/scpfiles/ANO-RCC-VTZP/ozone_174.75/3256216/GMJ_RHS_E_M_3_.csv /lustre/isaac/scratch/gjones39/scpfiles/ANO-RCC-VTZP/ozone_174.75/GMJ_RHS_E_M_3_.csv

>>> COPY /lustre/isaac/scratch/gjones39/scpfiles/ANO-RCC-VTZP/ozone_174.75/3256216/GMJ_IVECW_E_M_3_.csv /lustre/isaac/scratch/gjones39/scpfiles/ANO-RCC-VTZP/ozone_174.75/GMJ_IVECW_E_M_3_.csv

>>> COPY /lustre/isaac/scratch/gjones39/scpfiles/ANO-RCC-VTZP/ozone_174.75/3256216/GMJ_IVECX_E_M_3_.csv /lustre/isaac/scratch/gjones39/scpfiles/ANO-RCC-VTZP/ozone_174.75/GMJ_IVECX_E_M_3_.csv

>>> COPY /lustre/isaac/scratch/gjones39/scpfiles/ANO-RCC-VTZP/ozone_174.75/3256216/GMJ_IVECC2_E_M_3_.csv /lustre/isaac/scratch/gjones39/scpfiles/ANO-RCC-VTZP/ozone_174.75/GMJ_IVECC2_E_M_3_.csv

>>> COPY /lustre/isaac/scratch/gjones39/scpfiles/ANO-RCC-VTZP/ozone_174.75/3256216/GMJ_e2_E_M_3_.csv /lustre/isaac/scratch/gjones39/scpfiles/ANO-RCC-VTZP/ozone_174.75/GMJ_e2_E_M_3_.csv

>>> END FOREACH

>>> END FOREACH

>>> EXPORT i = F

>>> EXPORT j = P

>>> IF (-FILE GMJ_e2_${i}_${j}_${k}_.csv)

>>> COPY /lustre/isaac/scratch/gjones39/scpfiles/ANO-RCC-VTZP/ozone_174.75/3256216/GMJ_RHS_F_P_3_.csv /lustre/isaac/scratch/gjones39/scpfiles/ANO-RCC-VTZP/ozone_174.75/GMJ_RHS_F_P_3_.csv

>>> COPY /lustre/isaac/scratch/gjones39/scpfiles/ANO-RCC-VTZP/ozone_174.75/3256216/GMJ_IVECW_F_P_3_.csv /lustre/isaac/scratch/gjones39/scpfiles/ANO-RCC-VTZP/ozone_174.75/GMJ_IVECW_F_P_3_.csv

>>> COPY /lustre/isaac/scratch/gjones39/scpfiles/ANO-RCC-VTZP/ozone_174.75/3256216/GMJ_IVECX_F_P_3_.csv /lustre/isaac/scratch/gjones39/scpfiles/ANO-RCC-VTZP/ozone_174.75/GMJ_IVECX_F_P_3_.csv

>>> COPY /lustre/isaac/scratch/gjones39/scpfiles/ANO-RCC-VTZP/ozone_174.75/3256216/GMJ_IVECC2_F_P_3_.csv /lustre/isaac/scratch/gjones39/scpfiles/ANO-RCC-VTZP/ozone_174.75/GMJ_IVECC2_F_P_3_.csv

>>> COPY /lustre/isaac/scratch/gjones39/scpfiles/ANO-RCC-VTZP/ozone_174.75/3256216/GMJ_e2_F_P_3_.csv /lustre/isaac/scratch/gjones39/scpfiles/ANO-RCC-VTZP/ozone_174.75/GMJ_e2_F_P_3_.csv

>>> END FOREACH

>>> EXPORT j = M

>>> IF (-FILE GMJ_e2_${i}_${j}_${k}_.csv)

>>> COPY /lustre/isaac/scratch/gjones39/scpfiles/ANO-RCC-VTZP/ozone_174.75/3256216/GMJ_RHS_F_M_3_.csv /lustre/isaac/scratch/gjones39/scpfiles/ANO-RCC-VTZP/ozone_174.75/GMJ_RHS_F_M_3_.csv

>>> COPY /lustre/isaac/scratch/gjones39/scpfiles/ANO-RCC-VTZP/ozone_174.75/3256216/GMJ_IVECW_F_M_3_.csv /lustre/isaac/scratch/gjones39/scpfiles/ANO-RCC-VTZP/ozone_174.75/GMJ_IVECW_F_M_3_.csv

>>> COPY /lustre/isaac/scratch/gjones39/scpfiles/ANO-RCC-VTZP/ozone_174.75/3256216/GMJ_IVECX_F_M_3_.csv /lustre/isaac/scratch/gjones39/scpfiles/ANO-RCC-VTZP/ozone_174.75/GMJ_IVECX_F_M_3_.csv

>>> COPY /lustre/isaac/scratch/gjones39/scpfiles/ANO-RCC-VTZP/ozone_174.75/3256216/GMJ_IVECC2_F_M_3_.csv /lustre/isaac/scratch/gjones39/scpfiles/ANO-RCC-VTZP/ozone_174.75/GMJ_IVECC2_F_M_3_.csv

>>> COPY /lustre/isaac/scratch/gjones39/scpfiles/ANO-RCC-VTZP/ozone_174.75/3256216/GMJ_e2_F_M_3_.csv /lustre/isaac/scratch/gjones39/scpfiles/ANO-RCC-VTZP/ozone_174.75/GMJ_e2_F_M_3_.csv

>>> END FOREACH

>>> END FOREACH

>>> EXPORT i = G

>>> EXPORT j = P

>>> IF (-FILE GMJ_e2_${i}_${j}_${k}_.csv)

>>> COPY /lustre/isaac/scratch/gjones39/scpfiles/ANO-RCC-VTZP/ozone_174.75/3256216/GMJ_RHS_G_P_3_.csv /lustre/isaac/scratch/gjones39/scpfiles/ANO-RCC-VTZP/ozone_174.75/GMJ_RHS_G_P_3_.csv

>>> COPY /lustre/isaac/scratch/gjones39/scpfiles/ANO-RCC-VTZP/ozone_174.75/3256216/GMJ_IVECW_G_P_3_.csv /lustre/isaac/scratch/gjones39/scpfiles/ANO-RCC-VTZP/ozone_174.75/GMJ_IVECW_G_P_3_.csv

>>> COPY /lustre/isaac/scratch/gjones39/scpfiles/ANO-RCC-VTZP/ozone_174.75/3256216/GMJ_IVECX_G_P_3_.csv /lustre/isaac/scratch/gjones39/scpfiles/ANO-RCC-VTZP/ozone_174.75/GMJ_IVECX_G_P_3_.csv

>>> COPY /lustre/isaac/scratch/gjones39/scpfiles/ANO-RCC-VTZP/ozone_174.75/3256216/GMJ_IVECC2_G_P_3_.csv /lustre/isaac/scratch/gjones39/scpfiles/ANO-RCC-VTZP/ozone_174.75/GMJ_IVECC2_G_P_3_.csv

>>> COPY /lustre/isaac/scratch/gjones39/scpfiles/ANO-RCC-VTZP/ozone_174.75/3256216/GMJ_e2_G_P_3_.csv /lustre/isaac/scratch/gjones39/scpfiles/ANO-RCC-VTZP/ozone_174.75/GMJ_e2_G_P_3_.csv

>>> END FOREACH

>>> EXPORT j = M

>>> IF (-FILE GMJ_e2_${i}_${j}_${k}_.csv)

>>> COPY /lustre/isaac/scratch/gjones39/scpfiles/ANO-RCC-VTZP/ozone_174.75/3256216/GMJ_RHS_G_M_3_.csv /lustre/isaac/scratch/gjones39/scpfiles/ANO-RCC-VTZP/ozone_174.75/GMJ_RHS_G_M_3_.csv

>>> COPY /lustre/isaac/scratch/gjones39/scpfiles/ANO-RCC-VTZP/ozone_174.75/3256216/GMJ_IVECW_G_M_3_.csv /lustre/isaac/scratch/gjones39/scpfiles/ANO-RCC-VTZP/ozone_174.75/GMJ_IVECW_G_M_3_.csv

>>> COPY /lustre/isaac/scratch/gjones39/scpfiles/ANO-RCC-VTZP/ozone_174.75/3256216/GMJ_IVECX_G_M_3_.csv /lustre/isaac/scratch/gjones39/scpfiles/ANO-RCC-VTZP/ozone_174.75/GMJ_IVECX_G_M_3_.csv

>>> COPY /lustre/isaac/scratch/gjones39/scpfiles/ANO-RCC-VTZP/ozone_174.75/3256216/GMJ_IVECC2_G_M_3_.csv /lustre/isaac/scratch/gjones39/scpfiles/ANO-RCC-VTZP/ozone_174.75/GMJ_IVECC2_G_M_3_.csv

>>> COPY /lustre/isaac/scratch/gjones39/scpfiles/ANO-RCC-VTZP/ozone_174.75/3256216/GMJ_e2_G_M_3_.csv /lustre/isaac/scratch/gjones39/scpfiles/ANO-RCC-VTZP/ozone_174.75/GMJ_e2_G_M_3_.csv

>>> END FOREACH

>>> END FOREACH

>>> EXPORT i = H

>>> EXPORT j = P

>>> IF (-FILE GMJ_e2_${i}_${j}_${k}_.csv)

>>> COPY /lustre/isaac/scratch/gjones39/scpfiles/ANO-RCC-VTZP/ozone_174.75/3256216/GMJ_RHS_H_P_3_.csv /lustre/isaac/scratch/gjones39/scpfiles/ANO-RCC-VTZP/ozone_174.75/GMJ_RHS_H_P_3_.csv

>>> COPY /lustre/isaac/scratch/gjones39/scpfiles/ANO-RCC-VTZP/ozone_174.75/3256216/GMJ_IVECW_H_P_3_.csv /lustre/isaac/scratch/gjones39/scpfiles/ANO-RCC-VTZP/ozone_174.75/GMJ_IVECW_H_P_3_.csv

>>> COPY /lustre/isaac/scratch/gjones39/scpfiles/ANO-RCC-VTZP/ozone_174.75/3256216/GMJ_IVECX_H_P_3_.csv /lustre/isaac/scratch/gjones39/scpfiles/ANO-RCC-VTZP/ozone_174.75/GMJ_IVECX_H_P_3_.csv

>>> COPY /lustre/isaac/scratch/gjones39/scpfiles/ANO-RCC-VTZP/ozone_174.75/3256216/GMJ_IVECC2_H_P_3_.csv /lustre/isaac/scratch/gjones39/scpfiles/ANO-RCC-VTZP/ozone_174.75/GMJ_IVECC2_H_P_3_.csv

>>> COPY /lustre/isaac/scratch/gjones39/scpfiles/ANO-RCC-VTZP/ozone_174.75/3256216/GMJ_e2_H_P_3_.csv /lustre/isaac/scratch/gjones39/scpfiles/ANO-RCC-VTZP/ozone_174.75/GMJ_e2_H_P_3_.csv

>>> END FOREACH

>>> EXPORT j = M

>>> IF (-FILE GMJ_e2_${i}_${j}_${k}_.csv)

>>> COPY /lustre/isaac/scratch/gjones39/scpfiles/ANO-RCC-VTZP/ozone_174.75/3256216/GMJ_RHS_H_M_3_.csv /lustre/isaac/scratch/gjones39/scpfiles/ANO-RCC-VTZP/ozone_174.75/GMJ_RHS_H_M_3_.csv

>>> COPY /lustre/isaac/scratch/gjones39/scpfiles/ANO-RCC-VTZP/ozone_174.75/3256216/GMJ_IVECW_H_M_3_.csv /lustre/isaac/scratch/gjones39/scpfiles/ANO-RCC-VTZP/ozone_174.75/GMJ_IVECW_H_M_3_.csv

>>> COPY /lustre/isaac/scratch/gjones39/scpfiles/ANO-RCC-VTZP/ozone_174.75/3256216/GMJ_IVECX_H_M_3_.csv /lustre/isaac/scratch/gjones39/scpfiles/ANO-RCC-VTZP/ozone_174.75/GMJ_IVECX_H_M_3_.csv

>>> COPY /lustre/isaac/scratch/gjones39/scpfiles/ANO-RCC-VTZP/ozone_174.75/3256216/GMJ_IVECC2_H_M_3_.csv /lustre/isaac/scratch/gjones39/scpfiles/ANO-RCC-VTZP/ozone_174.75/GMJ_IVECC2_H_M_3_.csv

>>> COPY /lustre/isaac/scratch/gjones39/scpfiles/ANO-RCC-VTZP/ozone_174.75/3256216/GMJ_e2_H_M_3_.csv /lustre/isaac/scratch/gjones39/scpfiles/ANO-RCC-VTZP/ozone_174.75/GMJ_e2_H_M_3_.csv

>>> END FOREACH

>>> END FOREACH

>>> END FOREACH

>>> EXPORT j = 1

>>> EXPORT i = A

>>> IF (-FILE GMJ_e2_${i}_${j}_.csv)

>>> COPY /lustre/isaac/scratch/gjones39/scpfiles/ANO-RCC-VTZP/ozone_174.75/3256216/GMJ_RHS_A_1_.csv /lustre/isaac/scratch/gjones39/scpfiles/ANO-RCC-VTZP/ozone_174.75/GMJ_RHS_A_1_.csv

>>> COPY /lustre/isaac/scratch/gjones39/scpfiles/ANO-RCC-VTZP/ozone_174.75/3256216/GMJ_IVECW_A_1_.csv /lustre/isaac/scratch/gjones39/scpfiles/ANO-RCC-VTZP/ozone_174.75/GMJ_IVECW_A_1_.csv

>>> COPY /lustre/isaac/scratch/gjones39/scpfiles/ANO-RCC-VTZP/ozone_174.75/3256216/GMJ_IVECX_A_1_.csv /lustre/isaac/scratch/gjones39/scpfiles/ANO-RCC-VTZP/ozone_174.75/GMJ_IVECX_A_1_.csv

>>> COPY /lustre/isaac/scratch/gjones39/scpfiles/ANO-RCC-VTZP/ozone_174.75/3256216/GMJ_IVECC2_A_1_.csv /lustre/isaac/scratch/gjones39/scpfiles/ANO-RCC-VTZP/ozone_174.75/GMJ_IVECC2_A_1_.csv

>>> COPY /lustre/isaac/scratch/gjones39/scpfiles/ANO-RCC-VTZP/ozone_174.75/3256216/GMJ_e2_A_1_.csv /lustre/isaac/scratch/gjones39/scpfiles/ANO-RCC-VTZP/ozone_174.75/GMJ_e2_A_1_.csv

>>> END FOREACH

>>> EXPORT i = C

>>> IF (-FILE GMJ_e2_${i}_${j}_.csv)

>>> COPY /lustre/isaac/scratch/gjones39/scpfiles/ANO-RCC-VTZP/ozone_174.75/3256216/GMJ_RHS_C_1_.csv /lustre/isaac/scratch/gjones39/scpfiles/ANO-RCC-VTZP/ozone_174.75/GMJ_RHS_C_1_.csv

>>> COPY /lustre/isaac/scratch/gjones39/scpfiles/ANO-RCC-VTZP/ozone_174.75/3256216/GMJ_IVECW_C_1_.csv /lustre/isaac/scratch/gjones39/scpfiles/ANO-RCC-VTZP/ozone_174.75/GMJ_IVECW_C_1_.csv

>>> COPY /lustre/isaac/scratch/gjones39/scpfiles/ANO-RCC-VTZP/ozone_174.75/3256216/GMJ_IVECX_C_1_.csv /lustre/isaac/scratch/gjones39/scpfiles/ANO-RCC-VTZP/ozone_174.75/GMJ_IVECX_C_1_.csv

>>> COPY /lustre/isaac/scratch/gjones39/scpfiles/ANO-RCC-VTZP/ozone_174.75/3256216/GMJ_IVECC2_C_1_.csv /lustre/isaac/scratch/gjones39/scpfiles/ANO-RCC-VTZP/ozone_174.75/GMJ_IVECC2_C_1_.csv

>>> COPY /lustre/isaac/scratch/gjones39/scpfiles/ANO-RCC-VTZP/ozone_174.75/3256216/GMJ_e2_C_1_.csv /lustre/isaac/scratch/gjones39/scpfiles/ANO-RCC-VTZP/ozone_174.75/GMJ_e2_C_1_.csv

>>> END FOREACH

>>> EXPORT i = D

>>> IF (-FILE GMJ_e2_${i}_${j}_.csv)

>>> COPY /lustre/isaac/scratch/gjones39/scpfiles/ANO-RCC-VTZP/ozone_174.75/3256216/GMJ_RHS_D_1_.csv /lustre/isaac/scratch/gjones39/scpfiles/ANO-RCC-VTZP/ozone_174.75/GMJ_RHS_D_1_.csv

>>> COPY /lustre/isaac/scratch/gjones39/scpfiles/ANO-RCC-VTZP/ozone_174.75/3256216/GMJ_IVECW_D_1_.csv /lustre/isaac/scratch/gjones39/scpfiles/ANO-RCC-VTZP/ozone_174.75/GMJ_IVECW_D_1_.csv

>>> COPY /lustre/isaac/scratch/gjones39/scpfiles/ANO-RCC-VTZP/ozone_174.75/3256216/GMJ_IVECX_D_1_.csv /lustre/isaac/scratch/gjones39/scpfiles/ANO-RCC-VTZP/ozone_174.75/GMJ_IVECX_D_1_.csv

>>> COPY /lustre/isaac/scratch/gjones39/scpfiles/ANO-RCC-VTZP/ozone_174.75/3256216/GMJ_IVECC2_D_1_.csv /lustre/isaac/scratch/gjones39/scpfiles/ANO-RCC-VTZP/ozone_174.75/GMJ_IVECC2_D_1_.csv

>>> COPY /lustre/isaac/scratch/gjones39/scpfiles/ANO-RCC-VTZP/ozone_174.75/3256216/GMJ_e2_D_1_.csv /lustre/isaac/scratch/gjones39/scpfiles/ANO-RCC-VTZP/ozone_174.75/GMJ_e2_D_1_.csv

>>> END FOREACH

>>> END FOREACH

>>> EXPORT j = 2

>>> EXPORT i = A

>>> IF (-FILE GMJ_e2_${i}_${j}_.csv)

>>> COPY /lustre/isaac/scratch/gjones39/scpfiles/ANO-RCC-VTZP/ozone_174.75/3256216/GMJ_RHS_A_2_.csv /lustre/isaac/scratch/gjones39/scpfiles/ANO-RCC-VTZP/ozone_174.75/GMJ_RHS_A_2_.csv

>>> COPY /lustre/isaac/scratch/gjones39/scpfiles/ANO-RCC-VTZP/ozone_174.75/3256216/GMJ_IVECW_A_2_.csv /lustre/isaac/scratch/gjones39/scpfiles/ANO-RCC-VTZP/ozone_174.75/GMJ_IVECW_A_2_.csv

>>> COPY /lustre/isaac/scratch/gjones39/scpfiles/ANO-RCC-VTZP/ozone_174.75/3256216/GMJ_IVECX_A_2_.csv /lustre/isaac/scratch/gjones39/scpfiles/ANO-RCC-VTZP/ozone_174.75/GMJ_IVECX_A_2_.csv

>>> COPY /lustre/isaac/scratch/gjones39/scpfiles/ANO-RCC-VTZP/ozone_174.75/3256216/GMJ_IVECC2_A_2_.csv /lustre/isaac/scratch/gjones39/scpfiles/ANO-RCC-VTZP/ozone_174.75/GMJ_IVECC2_A_2_.csv

>>> COPY /lustre/isaac/scratch/gjones39/scpfiles/ANO-RCC-VTZP/ozone_174.75/3256216/GMJ_e2_A_2_.csv /lustre/isaac/scratch/gjones39/scpfiles/ANO-RCC-VTZP/ozone_174.75/GMJ_e2_A_2_.csv

>>> END FOREACH

>>> EXPORT i = C

>>> IF (-FILE GMJ_e2_${i}_${j}_.csv)

>>> COPY /lustre/isaac/scratch/gjones39/scpfiles/ANO-RCC-VTZP/ozone_174.75/3256216/GMJ_RHS_C_2_.csv /lustre/isaac/scratch/gjones39/scpfiles/ANO-RCC-VTZP/ozone_174.75/GMJ_RHS_C_2_.csv

>>> COPY /lustre/isaac/scratch/gjones39/scpfiles/ANO-RCC-VTZP/ozone_174.75/3256216/GMJ_IVECW_C_2_.csv /lustre/isaac/scratch/gjones39/scpfiles/ANO-RCC-VTZP/ozone_174.75/GMJ_IVECW_C_2_.csv

>>> COPY /lustre/isaac/scratch/gjones39/scpfiles/ANO-RCC-VTZP/ozone_174.75/3256216/GMJ_IVECX_C_2_.csv /lustre/isaac/scratch/gjones39/scpfiles/ANO-RCC-VTZP/ozone_174.75/GMJ_IVECX_C_2_.csv

>>> COPY /lustre/isaac/scratch/gjones39/scpfiles/ANO-RCC-VTZP/ozone_174.75/3256216/GMJ_IVECC2_C_2_.csv /lustre/isaac/scratch/gjones39/scpfiles/ANO-RCC-VTZP/ozone_174.75/GMJ_IVECC2_C_2_.csv

>>> COPY /lustre/isaac/scratch/gjones39/scpfiles/ANO-RCC-VTZP/ozone_174.75/3256216/GMJ_e2_C_2_.csv /lustre/isaac/scratch/gjones39/scpfiles/ANO-RCC-VTZP/ozone_174.75/GMJ_e2_C_2_.csv

>>> END FOREACH

>>> EXPORT i = D

>>> IF (-FILE GMJ_e2_${i}_${j}_.csv)

>>> COPY /lustre/isaac/scratch/gjones39/scpfiles/ANO-RCC-VTZP/ozone_174.75/3256216/GMJ_RHS_D_2_.csv /lustre/isaac/scratch/gjones39/scpfiles/ANO-RCC-VTZP/ozone_174.75/GMJ_RHS_D_2_.csv

>>> COPY /lustre/isaac/scratch/gjones39/scpfiles/ANO-RCC-VTZP/ozone_174.75/3256216/GMJ_IVECW_D_2_.csv /lustre/isaac/scratch/gjones39/scpfiles/ANO-RCC-VTZP/ozone_174.75/GMJ_IVECW_D_2_.csv

>>> COPY /lustre/isaac/scratch/gjones39/scpfiles/ANO-RCC-VTZP/ozone_174.75/3256216/GMJ_IVECX_D_2_.csv /lustre/isaac/scratch/gjones39/scpfiles/ANO-RCC-VTZP/ozone_174.75/GMJ_IVECX_D_2_.csv

>>> COPY /lustre/isaac/scratch/gjones39/scpfiles/ANO-RCC-VTZP/ozone_174.75/3256216/GMJ_IVECC2_D_2_.csv /lustre/isaac/scratch/gjones39/scpfiles/ANO-RCC-VTZP/ozone_174.75/GMJ_IVECC2_D_2_.csv

>>> COPY /lustre/isaac/scratch/gjones39/scpfiles/ANO-RCC-VTZP/ozone_174.75/3256216/GMJ_e2_D_2_.csv /lustre/isaac/scratch/gjones39/scpfiles/ANO-RCC-VTZP/ozone_174.75/GMJ_e2_D_2_.csv

>>> END FOREACH

>>> END FOREACH

>>> EXPORT j = 3

>>> EXPORT i = A

>>> IF (-FILE GMJ_e2_${i}_${j}_.csv)

>>> COPY /lustre/isaac/scratch/gjones39/scpfiles/ANO-RCC-VTZP/ozone_174.75/3256216/GMJ_RHS_A_3_.csv /lustre/isaac/scratch/gjones39/scpfiles/ANO-RCC-VTZP/ozone_174.75/GMJ_RHS_A_3_.csv

>>> COPY /lustre/isaac/scratch/gjones39/scpfiles/ANO-RCC-VTZP/ozone_174.75/3256216/GMJ_IVECW_A_3_.csv /lustre/isaac/scratch/gjones39/scpfiles/ANO-RCC-VTZP/ozone_174.75/GMJ_IVECW_A_3_.csv

>>> COPY /lustre/isaac/scratch/gjones39/scpfiles/ANO-RCC-VTZP/ozone_174.75/3256216/GMJ_IVECX_A_3_.csv /lustre/isaac/scratch/gjones39/scpfiles/ANO-RCC-VTZP/ozone_174.75/GMJ_IVECX_A_3_.csv

>>> COPY /lustre/isaac/scratch/gjones39/scpfiles/ANO-RCC-VTZP/ozone_174.75/3256216/GMJ_IVECC2_A_3_.csv /lustre/isaac/scratch/gjones39/scpfiles/ANO-RCC-VTZP/ozone_174.75/GMJ_IVECC2_A_3_.csv

>>> COPY /lustre/isaac/scratch/gjones39/scpfiles/ANO-RCC-VTZP/ozone_174.75/3256216/GMJ_e2_A_3_.csv /lustre/isaac/scratch/gjones39/scpfiles/ANO-RCC-VTZP/ozone_174.75/GMJ_e2_A_3_.csv

>>> END FOREACH

>>> EXPORT i = C

>>> IF (-FILE GMJ_e2_${i}_${j}_.csv)

>>> COPY /lustre/isaac/scratch/gjones39/scpfiles/ANO-RCC-VTZP/ozone_174.75/3256216/GMJ_RHS_C_3_.csv /lustre/isaac/scratch/gjones39/scpfiles/ANO-RCC-VTZP/ozone_174.75/GMJ_RHS_C_3_.csv

>>> COPY /lustre/isaac/scratch/gjones39/scpfiles/ANO-RCC-VTZP/ozone_174.75/3256216/GMJ_IVECW_C_3_.csv /lustre/isaac/scratch/gjones39/scpfiles/ANO-RCC-VTZP/ozone_174.75/GMJ_IVECW_C_3_.csv

>>> COPY /lustre/isaac/scratch/gjones39/scpfiles/ANO-RCC-VTZP/ozone_174.75/3256216/GMJ_IVECX_C_3_.csv /lustre/isaac/scratch/gjones39/scpfiles/ANO-RCC-VTZP/ozone_174.75/GMJ_IVECX_C_3_.csv

>>> COPY /lustre/isaac/scratch/gjones39/scpfiles/ANO-RCC-VTZP/ozone_174.75/3256216/GMJ_IVECC2_C_3_.csv /lustre/isaac/scratch/gjones39/scpfiles/ANO-RCC-VTZP/ozone_174.75/GMJ_IVECC2_C_3_.csv

>>> COPY /lustre/isaac/scratch/gjones39/scpfiles/ANO-RCC-VTZP/ozone_174.75/3256216/GMJ_e2_C_3_.csv /lustre/isaac/scratch/gjones39/scpfiles/ANO-RCC-VTZP/ozone_174.75/GMJ_e2_C_3_.csv

>>> END FOREACH

>>> EXPORT i = D

>>> IF (-FILE GMJ_e2_${i}_${j}_.csv)

>>> COPY /lustre/isaac/scratch/gjones39/scpfiles/ANO-RCC-VTZP/ozone_174.75/3256216/GMJ_RHS_D_3_.csv /lustre/isaac/scratch/gjones39/scpfiles/ANO-RCC-VTZP/ozone_174.75/GMJ_RHS_D_3_.csv

>>> COPY /lustre/isaac/scratch/gjones39/scpfiles/ANO-RCC-VTZP/ozone_174.75/3256216/GMJ_IVECW_D_3_.csv /lustre/isaac/scratch/gjones39/scpfiles/ANO-RCC-VTZP/ozone_174.75/GMJ_IVECW_D_3_.csv

>>> COPY /lustre/isaac/scratch/gjones39/scpfiles/ANO-RCC-VTZP/ozone_174.75/3256216/GMJ_IVECX_D_3_.csv /lustre/isaac/scratch/gjones39/scpfiles/ANO-RCC-VTZP/ozone_174.75/GMJ_IVECX_D_3_.csv

>>> COPY /lustre/isaac/scratch/gjones39/scpfiles/ANO-RCC-VTZP/ozone_174.75/3256216/GMJ_IVECC2_D_3_.csv /lustre/isaac/scratch/gjones39/scpfiles/ANO-RCC-VTZP/ozone_174.75/GMJ_IVECC2_D_3_.csv

>>> COPY /lustre/isaac/scratch/gjones39/scpfiles/ANO-RCC-VTZP/ozone_174.75/3256216/GMJ_e2_D_3_.csv /lustre/isaac/scratch/gjones39/scpfiles/ANO-RCC-VTZP/ozone_174.75/GMJ_e2_D_3_.csv

>>> END FOREACH

>>> END FOREACH

    Timing: Wall=135.02 User=44.43 System=20.26
****************************************************************************************************
*** WorkDir at /lustre/isaac/scratch/gjones39/scpfiles/ANO-RCC-VTZP/ozone_174.75/3256216 cleaned ***
****************************************************************************************************
