[Molden Format]
[N_Atoms]
                     2
[Atoms] (AU)
B1          1      5           0.00000000      0.00000000      0.00000000
BE2         2      4           0.00000000      0.00000000      4.72431531
[Charge] (Mulliken)
 -8.397103681920903E-002
  8.397103681917084E-002
[GTO] (AU)
   1
   s  14
  3.336021700E+04  1.039699991E-04
  4.972095200E+03  5.254399956E-04
  1.125641700E+03  2.509059979E-03
  3.164913600E+02  1.031887991E-02
  1.020072600E+02  3.636632969E-02
  3.629587300E+01  1.064607991E-01
  1.397141000E+01  2.403999880E-01
  5.741156000E+00  3.748581168E-01
  2.494268000E+00  3.100066974E-01
  1.114202000E+00  7.922455933E-02
  4.215490000E-01 -4.947589958E-03
  1.696330000E-01 -7.737119935E-03
  6.853500000E-02 -1.501079987E-03
  2.398700000E-02 -1.333299989E-04
   s  14
  3.336021700E+04 -2.030000008E-05
  4.972095200E+03 -1.025700004E-04
  1.125641700E+03 -4.911300020E-04
  3.164913600E+02 -2.026570008E-03
  1.020072600E+02 -7.261010030E-03
  3.629587300E+01 -2.197722009E-02
  1.397141000E+01 -5.408428022E-02
  5.741156000E+00 -1.022402604E-01
  2.494268000E+00 -1.423595206E-01
  1.114202000E+00 -4.658690019E-02
  4.215490000E-01  3.799402916E-01
  1.696330000E-01  5.890463624E-01
  6.853500000E-02  1.749075107E-01
  2.398700000E-02 -1.142030005E-03
   p   9
  5.500000000E+01  1.229800005E-03
  1.336610100E+01  8.827380035E-03
  4.135394000E+00  3.843340015E-02
  1.481256000E+00  1.150031805E-01
  6.021360000E-01  2.733674011E-01
  2.556360000E-01  4.061972116E-01
  1.111510000E-01  3.014967912E-01
  4.764800000E-02  7.684809030E-02
  1.667700000E-02 -8.170000032E-06
 
   2
   s  14
  2.262859900E+04  8.443999941E-05
  3.372318100E+03  4.601499968E-04
  7.603504000E+02  2.285389984E-03
  2.117404800E+02  9.648129932E-03
  6.722346800E+01  3.494469975E-02
  2.337217700E+01  1.061099893E-01
  8.721373000E+00  2.458240383E-01
  3.468091000E+00  3.862428773E-01
  1.452144000E+00  3.105526078E-01
  6.086150000E-01  6.415933955E-02
  2.576860000E-01 -2.265049984E-03
  1.041760000E-01 -5.217499963E-04
  4.242700000E-02 -8.757499938E-04
  1.484900000E-02  1.242199991E-04
   s  14
  2.262859900E+04 -1.586999994E-05
  3.372318100E+03 -8.656999968E-05
  7.603504000E+02 -4.302199984E-04
  2.117404800E+02 -1.825079993E-03
  6.722346800E+01 -6.682749976E-03
  2.337217700E+01 -2.095119992E-02
  8.721373000E+00 -5.200308981E-02
  3.468091000E+00 -9.849176964E-02
  1.452144000E+00 -1.355800695E-01
  6.086150000E-01 -6.429875976E-02
  2.576860000E-01  3.125414989E-01
  1.041760000E-01  6.270468577E-01
  4.242700000E-02  2.110231492E-01
  1.484900000E-02 -4.104669985E-03
   p   9
  3.371018400E+01  1.069960000E-03
  8.057649500E+00  6.828550001E-03
  2.836471400E+00  2.119065000E-02
  1.099965700E+00  5.843696001E-02
  4.433964000E-01  2.020920800E-01
  1.822264000E-01  4.582953101E-01
  7.572410000E-02  3.691239601E-01
  3.168540000E-02  6.611471001E-02
  1.108990000E-02  1.405160000E-03
 
[MO]
Sym=     1a  
Ene=    -7.6264
Spin= Alpha
Occup=    1.00000
   1         0.99989662
   2         0.01643977
   3        -0.00000000
   4        -0.00000000
   5         0.00011029
   6        -0.00006483
   7        -0.00043169
   8        -0.00000000
   9        -0.00000000
  10         0.00053835
Sym=     1a  
Ene=    -7.6034
Spin= Beta
Occup=    1.00000
   1         0.99992713
   2         0.01325948
   3        -0.00000000
   4        -0.00000000
   5         0.00064107
   6        -0.00004808
   7        -0.00027540
   8        -0.00000000
   9         0.00000000
  10         0.00023149
Sym=     2a  
Ene=    -4.7360
Spin= Alpha
Occup=    1.00000
   1        -0.00005729
   2        -0.00005814
   3         0.00000000
   4         0.00000000
   5         0.00008243
   6         0.99999415
   7         0.00257590
   8         0.00000000
   9         0.00000000
  10        -0.00081526
Sym=     2a  
Ene=    -4.7423
Spin= Beta
Occup=    1.00000
   1         0.00000867
   2         0.00045390
   3         0.00000000
   4        -0.00000000
   5         0.00024442
   6         0.99998143
   7         0.00237459
   8         0.00000000
   9        -0.00000000
  10         0.00061458
Sym=     3a  
Ene=    -0.5524
Spin= Alpha
Occup=    1.00000
   1        -0.02341006
   2         0.89246950
   3        -0.00000000
   4        -0.00000000
   5        -0.12998321
   6        -0.00901106
   7         0.19681454
   8        -0.00000000
   9         0.00000000
  10        -0.11565444
Sym=     3a  
Ene=    -0.4339
Spin= Beta
Occup=    1.00000
   1        -0.01968444
   2         0.77352202
   3        -0.00000000
   4         0.00000000
   5         0.20764918
   6        -0.02002117
   7         0.37772761
   8         0.00000000
   9        -0.00000000
  10        -0.03961322
Sym=     4a  
Ene=    -0.3204
Spin= Alpha
Occup=    1.00000
   1        -0.02114013
   2        -0.37715362
   3        -0.00000000
   4         0.00000000
   5         0.43574005
   6        -0.01270332
   7         0.73636495
   8        -0.00000000
   9         0.00000000
  10        -0.28178250
Sym=     4a  
Ene=    -0.3190
Spin= Beta
Occup=    1.00000
   1        -0.00548350
   2         0.39900574
   3         0.00000000
   4        -0.00000000
   5         0.05692625
   6        -0.00567031
   7        -0.84259359
   8        -0.00000000
   9         0.00000000
  10        -0.43127526
Sym=     5a  
Ene=    -0.2870
Spin= Alpha
Occup=    1.00000
   1         0.00000000
   2         0.00000000
   3         0.87457516
   4         0.42554429
   5        -0.00000000
   6        -0.00000000
   7         0.00000000
   8         0.10771612
   9         0.05241171
  10        -0.00000000
Sym=     5a  
Ene=     0.0702
Spin= Beta
Occup=    0.00000
   1         0.00000000
   2         0.00000000
   3        -0.15862871
   4         0.32601242
   5        -0.00000000
   6         0.00000000
   7         0.00000000
   8        -0.38164069
   9         0.78434483
  10         0.00000000
Sym=     6a  
Ene=     0.0675
Spin= Alpha
Occup=    0.00000
   1         0.00857938
   2        -0.07692436
   3        -0.00000000
   4         0.00000000
   5        -0.53901664
   6         0.01977505
   7         0.68898635
   8        -0.00000000
   9         0.00000000
  10         0.52907391
Sym=     6a  
Ene=     0.0802
Spin= Beta
Occup=    0.00000
   1        -0.00000000
   2        -0.00000000
   3         0.22366038
   4         0.10882701
   5         0.00000000
   6        -0.00000000
   7        -0.00000000
   8         0.83369030
   9         0.40565084
  10        -0.00000000
Sym=     7a  
Ene=     0.0683
Spin= Alpha
Occup=    0.00000
   1        -0.00000000
   2         0.00000000
   3        -0.26266628
   4         0.53982960
   5         0.00000000
   6        -0.00000000
   7        -0.00000000
   8        -0.30802867
   9         0.63305802
  10        -0.00000000
Sym=     7a  
Ene=     0.1005
Spin= Beta
Occup=    0.00000
   1         0.02328104
   2         0.60396736
   3         0.00000000
   4        -0.00000000
   5        -0.50428785
   6         0.00987208
   7        -0.19826774
   8         0.00000000
   9        -0.00000000
  10         0.65565003
Sym=     8a  
Ene=     0.1151
Spin= Alpha
Occup=    0.00000
   1         0.00000000
   2        -0.00000000
   3        -0.26045105
   4        -0.12672834
   5        -0.00000000
   6         0.00000000
   7         0.00000000
   8         0.90615324
   9         0.44090932
  10         0.00000000
Sym=     8a  
Ene=     0.1832
Spin= Beta
Occup=    0.00000
   1        -0.00000000
   2        -0.00000000
   3         0.41471068
   4        -0.85231001
   5        -0.00000000
   6        -0.00000000
   7         0.00000000
   8        -0.22693260
   9         0.46639002
  10        -0.00000000
Sym=     9a  
Ene=     0.1615
Spin= Alpha
Occup=    0.00000
   1        -0.00000000
   2        -0.00000000
   3         0.35798665
   4        -0.73573125
   5        -0.00000000
   6         0.00000000
   7        -0.00000000
   8        -0.31979111
   9         0.65723208
  10        -0.00000000
Sym=     9a  
Ene=     0.2255
Spin= Beta
Occup=    0.00000
   1        -0.00000000
   2        -0.00000000
   3        -0.88469910
   4        -0.43047033
   5        -0.00000000
   6         0.00000000
   7         0.00000000
   8         0.37104843
   9         0.18054199
  10        -0.00000000
Sym=    10a  
Ene=     0.2851
Spin= Alpha
Occup=    0.00000
   1         0.03976295
   2         0.57633153
   3         0.00000000
   4        -0.00000000
   5         0.87084141
   6        -0.03897421
   7        -0.40625164
   8        -0.00000000
   9         0.00000000
  10         0.96935383
Sym=    10a  
Ene=     0.3113
Spin= Beta
Occup=    0.00000
   1         0.04036184
   2         0.39318931
   3        -0.00000000
   4        -0.00000000
   5         0.97724268
   6        -0.04059066
   7        -0.57337664
   8         0.00000000
   9         0.00000000
  10         0.83360625
