[Molden Format]
[N_Atoms]
                     2
[Atoms] (AU)
B1          1      5           0.00000000      0.00000000      0.00000000
BE2         2      4           0.00000000      0.00000000      4.72431531
[Charge] (Mulliken)
 -3.987569029482518E-002
  3.987569029480342E-002
[GTO] (AU)
   1
   s  14
  3.336021700E+04  1.039699991E-04
  4.972095200E+03  5.254399956E-04
  1.125641700E+03  2.509059979E-03
  3.164913600E+02  1.031887991E-02
  1.020072600E+02  3.636632969E-02
  3.629587300E+01  1.064607991E-01
  1.397141000E+01  2.403999880E-01
  5.741156000E+00  3.748581168E-01
  2.494268000E+00  3.100066974E-01
  1.114202000E+00  7.922455933E-02
  4.215490000E-01 -4.947589958E-03
  1.696330000E-01 -7.737119935E-03
  6.853500000E-02 -1.501079987E-03
  2.398700000E-02 -1.333299989E-04
   s  14
  3.336021700E+04 -2.030000008E-05
  4.972095200E+03 -1.025700004E-04
  1.125641700E+03 -4.911300020E-04
  3.164913600E+02 -2.026570008E-03
  1.020072600E+02 -7.261010030E-03
  3.629587300E+01 -2.197722009E-02
  1.397141000E+01 -5.408428022E-02
  5.741156000E+00 -1.022402604E-01
  2.494268000E+00 -1.423595206E-01
  1.114202000E+00 -4.658690019E-02
  4.215490000E-01  3.799402916E-01
  1.696330000E-01  5.890463624E-01
  6.853500000E-02  1.749075107E-01
  2.398700000E-02 -1.142030005E-03
   p   9
  5.500000000E+01  1.229800005E-03
  1.336610100E+01  8.827380035E-03
  4.135394000E+00  3.843340015E-02
  1.481256000E+00  1.150031805E-01
  6.021360000E-01  2.733674011E-01
  2.556360000E-01  4.061972116E-01
  1.111510000E-01  3.014967912E-01
  4.764800000E-02  7.684809030E-02
  1.667700000E-02 -8.170000032E-06
 
   2
   s  14
  2.262859900E+04  8.443999941E-05
  3.372318100E+03  4.601499968E-04
  7.603504000E+02  2.285389984E-03
  2.117404800E+02  9.648129932E-03
  6.722346800E+01  3.494469975E-02
  2.337217700E+01  1.061099893E-01
  8.721373000E+00  2.458240383E-01
  3.468091000E+00  3.862428773E-01
  1.452144000E+00  3.105526078E-01
  6.086150000E-01  6.415933955E-02
  2.576860000E-01 -2.265049984E-03
  1.041760000E-01 -5.217499963E-04
  4.242700000E-02 -8.757499938E-04
  1.484900000E-02  1.242199991E-04
   s  14
  2.262859900E+04 -1.586999994E-05
  3.372318100E+03 -8.656999968E-05
  7.603504000E+02 -4.302199984E-04
  2.117404800E+02 -1.825079993E-03
  6.722346800E+01 -6.682749976E-03
  2.337217700E+01 -2.095119992E-02
  8.721373000E+00 -5.200308981E-02
  3.468091000E+00 -9.849176964E-02
  1.452144000E+00 -1.355800695E-01
  6.086150000E-01 -6.429875976E-02
  2.576860000E-01  3.125414989E-01
  1.041760000E-01  6.270468577E-01
  4.242700000E-02  2.110231492E-01
  1.484900000E-02 -4.104669985E-03
   p   9
  3.371018400E+01  1.069960000E-03
  8.057649500E+00  6.828550001E-03
  2.836471400E+00  2.119065000E-02
  1.099965700E+00  5.843696001E-02
  4.433964000E-01  2.020920800E-01
  1.822264000E-01  4.582953101E-01
  7.572410000E-02  3.691239601E-01
  3.168540000E-02  6.611471001E-02
  1.108990000E-02  1.405160000E-03
 
[MO]
Sym=     1a  
Ene=    -7.6275
Spin= Alpha
Occup=    2.00000
   1         0.99992225
   2         0.01456496
   3        -0.00000021
   4         0.00000013
   5         0.00062761
   6        -0.00006762
   7        -0.00041751
   8        -0.00000027
   9         0.00000016
  10         0.00047651
Sym=     2a  
Ene=    -4.7237
Spin= Alpha
Occup=    2.00000
   1        -0.00001429
   2         0.00014286
   3         0.00000017
   4        -0.00000010
   5         0.00004384
   6         0.99999401
   7         0.00213177
   8        -0.00000134
   9         0.00000078
  10        -0.00020084
Sym=     3a  
Ene=    -0.4987
Spin= Alpha
Occup=    2.00000
   1        -0.02122118
   2         0.87406353
   3        -0.00008358
   4         0.00004914
   5         0.03902282
   6        -0.01484252
   7         0.24763584
   8        -0.00000664
   9         0.00000392
  10        -0.08606040
Sym=     4a  
Ene=    -0.2915
Spin= Alpha
Occup=    2.00000
   1         0.01100847
   2         0.46044355
   3        -0.00019889
   4         0.00011675
   5        -0.17130907
   6         0.00154116
   7        -0.92917707
   8        -0.00017241
   9         0.00010129
  10        -0.04522362
Sym=     5a  
Ene=     0.1144
Spin= Alpha
Occup=   -0.00000
   1         0.00265095
   2         0.03402381
   3         0.30891298
   4        -0.02489077
   5        -0.13522904
   6         0.00436705
   7         0.05792929
   8        -0.83355482
   9         0.51529992
  10         0.10439975
Sym=     6a  
Ene=     0.0000
Spin= Alpha
Occup=    1.00000
   1         0.00000925
   2         0.00033982
   3         0.83869801
   4        -0.49382024
   5        -0.00246402
   6         0.00008409
   7         0.00085195
   8         0.10119934
   9        -0.05958556
  10         0.00074458
Sym=     7a  
Ene=     0.0505
Spin= Alpha
Occup=    0.00000
   1         0.01923566
   2         0.24306799
   3        -0.07136328
   4        -0.01488214
   5        -0.58594128
   6         0.01760834
   7         0.23859620
   8         0.12892405
   9        -0.13704316
  10         0.66755825
Sym=     8a  
Ene=     0.0677
Spin= Alpha
Occup=    0.00000
   1         0.00112737
   2         0.01423708
   3         0.23101051
   4         0.45998640
   5        -0.03302240
   6         0.00098513
   7         0.01336327
   8         0.49141939
   9         0.59832714
  10         0.03881792
Sym=     9a  
Ene=     0.1605
Spin= Alpha
Occup=    0.00000
   1         0.00017069
   2         0.00213478
   3        -0.41531544
   4        -0.75734857
   5        -0.00350747
   6         0.00009584
   7         0.00135983
   8         0.25736942
   9         0.61956330
  10         0.00554770
Sym=    10a  
Ene=     0.2891
Spin= Alpha
Occup=    0.00000
   1        -0.04060191
   2        -0.49034458
   3        -0.00879597
   4         0.00080911
   5        -0.92848039
   6         0.04000147
   7         0.48534044
   8         0.02135559
   9        -0.01204758
  10        -0.91914145
