   This run of MOLCAS is using the pymolcas driver

                             OPE
                             OPE          NMOL  CASOP  ENMOLC A   SO
                 OPE        NMOLC        AS  OP EN  MO LC     AS  OP
                OPENM       OL CA        SO  PE NM  OL CA     SOP EN
                OP EN      MO   LC       AS  OP ENMOL  CASO   PENMOL
                OP  EN     MO   LC       AS  OP EN     MO     LC ASO
               OP   E  NMOL  C  AS       OP  EN MO     LC     AS  OP
               OP  E   NMO   LC AS        OPEN  MO     LCASOP EN   M
               O  PEN   MO  LCA  SO
            OPE   NMO   L   CAS    OP
        OPENMOL  CASOP     ENMOL   CASOPE
     OPENMOLCA   SOPENMOLCASOPEN   MOLCASOPE
    OPENMOLCAS   OP           EN   MOL    CAS
    OPENMOLCAS       OP  ENM        O     LCA
    OPENMOLCAS    OPEN  MOLCASO     P  E  NMO
    OPENMOLCAS     OP               E  N  MOL
    OPENMOLCA   SO           PENM   O  L  CAS    OPEN    MO    LCAS
    OPENMOLCA   SOP           ENM   O  L  CAS   OP  EN  MOLC  AS   O
    OPENMOLCA   SOPE           NM      O  LCA   S      OP  EN MO
    OPENMOLC                AS         O  PEN   M      OL  CA  SOPE
    OPENMO        LCASOPE  NMOL        C  ASO   P      ENMOLC     AS
    OPE     NMO      LCA  SO     P     E   NM   OL  CA SO  PE N   MO
          OPENMOLCA            SOPE   NMO        LCAS  O    P  ENMO
     OPENMOLCASOPENMOLCASOPENMOLCASOPENMOLCA
        OPENMOLCASOPENMOLCASOPENMOLCASOPE
            OPENMOLCASOPENMOLCASOPENM
               OPENMOLCASOPENMOLCA        version: ea724fe96-dirty
                   OPENMOLCASO
                       OPE                tag:

 OpenMolcas is free software; you can redistribute it and/or modify it
 under the terms of the GNU Lesser General Public License version 2.1.
 OpenMolcas is distributed in the hope that it will be useful, but it
 is provided "as is" and without any express or implied warranties.
 For more details see the full text of the license in the file
 LICENSE or in <http://www.gnu.org/licenses/>.

                 Copyright (C) The OpenMolcas Authors
           For the author list and the recommended citation,
                   consult the file CONTRIBUTORS.md

           *************************************************
           * pymolcas version py2.28                       *
           *   build c4a6d18ded8cb6cad61d2372a9abd97c      *
           *   (after the EMIL interpreter by V. Veryazov) *
           *************************************************

configuration info
------------------
C Compiler ID: Intel
C flags: -std=gnu99
Fortran Compiler ID: Intel
Fortran flags: -fpp -i8 -r8 -heap-arrays
Definitions: _MOLCAS_;_I8_;_LINUX_
Parallel: OFF (GA=OFF)


   -------------------------------------------------------------------------------
  |
  |              Project: 6.52
  |       Submitted from: /home/grierjones/DDCASPT2/iron_oxo_DDCASPT2/cluster/6.52
  |         Scratch area: /tmp/6.52
  |      Save outputs to: /home/grierjones/DDCASPT2/iron_oxo_DDCASPT2/cluster/6.52
  |               Molcas: /home/grierjones/Test/build
  |
  | Scratch area is empty
  |
  |       MOLCAS_DRIVER = /usr/local/pymolcas
  | MOLCAS_KEEP_WORKDIR = NO
  |  MOLCAS_NEW_WORKDIR = YES
  |       MOLCAS_NPROCS = 1
  |        MOLCAS_PRINT = NORMAL
  |       MOLCAS_SOURCE = /home/grierjones/Test/build
  |    MOLCAS_STRUCTURE = 0
  |
   -------------------------------------------------------------------------------

++ ---------   Input file   ---------

&GATEWAY
coord=6.52.xyz
Basis = ANO-RCC-VDZP
Group = nosymm
Expert
End of Input

&SEWARD
End of Input

&SCF
UHF
charge
2
spin
5
FileOrb
/home/grierjones/DDCASPT2/iron_oxo_DDCASPT2/cluster/6.51/6.51.UhfOrb

>>> COPY $WorkDir/6.52.scf.h5 $CurrDir/

&RASSCF
Title= RASSCF
FileOrb
/home/grierjones/DDCASPT2/iron_oxo_DDCASPT2/cluster/6.51/6.51.RasOrb
NACTEL
10 0 0
RAS2
14
Symmetry
1
Spin
5
charge
2
orblisting
all
ITERation
300 200

>>> COPY $WorkDir/6.52.rasscf.h5 $CurrDir/

>>> COPY $WorkDir/GMJ_Fock_MO.csv $CurrDir/6.52.GMJ_Fock_MO.csv

>>> COPY $WorkDir/GMJ_PT2_Fock_MO.csv $CurrDir/6.52.GMJ_PT2_Fock_MO.csv

&MOTRA
Frozen=0
LUMORB

>>> COPY $WorkDir/GMJ_one_int_indx.csv $CurrDir/6.52.GMJ_one_int_indx.csv

>>> COPY $WorkDir/GMJ_one_int.csv $CurrDir/6.52.GMJ_one_int.csv

>>> COPY $WorkDir/GMJ_two_int_indx.csv $CurrDir/6.52.GMJ_two_int_indx.csv

>>> COPY $WorkDir/GMJ_two_int.csv $CurrDir/6.52.GMJ_two_int.csv

&CASPT2
Frozen
0
MAXITER
50

>>> FOREACH i IN (B,E,F,G,H)

  >>> FOREACH j IN (P,M)

    >>> IF (-FILE GMJ_e2_${i}_${j}.csv)

      >>> COPY $WorkDir/GMJ_RHS_${i}_${j}.csv $CurrDir/GMJ_RHS_${i}_${j}.csv

      >>> COPY $WorkDir/GMJ_IVECW_${i}_${j}.csv $CurrDir/GMJ_IVECW_${i}_${j}.csv

      >>> COPY $WorkDir/GMJ_IVECX_${i}_${j}.csv $CurrDir/GMJ_IVECX_${i}_${j}.csv

      >>> COPY $WorkDir/GMJ_IVECC2_${i}_${j}.csv $CurrDir/GMJ_IVECC2_${i}_${j}.csv

      >>> COPY $WorkDir/GMJ_e2_${i}_${j}.csv $CurrDir/GMJ_e2_${i}_${j}.csv

    >>> END IF

  >>> END FOREACH

>>> END FOREACH

>>> FOREACH i IN (A,C,D)

  >>> IF (-FILE GMJ_e2_$i.csv)

    >>> COPY $WorkDir/GMJ_RHS_$i.csv $CurrDir/GMJ_RHS_$i.csv

    >>> COPY $WorkDir/GMJ_IVECW_$i.csv $CurrDir/GMJ_IVECW_$i.csv

    >>> COPY $WorkDir/GMJ_IVECX_$i.csv $CurrDir/GMJ_IVECX_$i.csv

    >>> COPY $WorkDir/GMJ_IVECC2_$i.csv $CurrDir/GMJ_IVECC2_$i.csv

    >>> COPY $WorkDir/GMJ_e2_$i.csv $CurrDir/GMJ_e2_$i.csv

  >>> END IF

>>> END FOREACH

-- ----------------------------------

--- Start Module: gateway at Wed Dec 25 17:04:36 2024 ---
 
()()()()()()()()()()()()()()()()()()()()()()()()()()()()()()()()()()()()()()()()()()()()()()()()()()

                                              &GATEWAY

                                   only a single process is used
                       available to each process: 2.0 GB of memory, 1 thread?
()()()()()()()()()()()()()()()()()()()()()()()()()()()()()()()()()()()()()()()()()()()()()()()()()()
 
 ###############################################################################
 ###############################################################################
 ###                                                                         ###
 ###                                                                         ###
 ###                                                                         ###
 ###    WARNING: EXPERT option is ON!                                        ###
 ###                                                                         ###
 ###                                                                         ###
 ###############################################################################
 ###############################################################################
 
++    Symmetry information:
      ---------------------
 
                    Character Table for C1 
 
                             E  
                    a        1  x, y, xy, Rz, z, xz, Ry, yz, Rx, I
--
 
 
++    Basis set information:
      ----------------------
 
 
      Basis set label: O.ANO-RCC...3S2P1D.
 
      Electronic valence basis set:
      ------------------
      Associated Effective Charge   8.000000 au
      Associated Actual Charge      8.000000 au
      Nuclear Model: Point charge
 
      Shell  nPrim  nBasis  Cartesian Spherical Contaminant
         s      14       3        X                  
         p       9       2        X                  
         d       4       1                 X         
 
 
      Basis set label: FE.ANO-RCC...5S4P2D1F.
 
      Electronic valence basis set:
      ------------------
      Associated Effective Charge  26.000000 au
      Associated Actual Charge     26.000000 au
      Nuclear Model: Point charge
 
      Shell  nPrim  nBasis  Cartesian Spherical Contaminant
         s      21       5        X                  
         p      15       4        X                  
         d      10       2                 X         
         f       6       1                 X         
--
 
 
++    Molecular structure info:
      -------------------------
 
                    ************************************************ 
                    **** Cartesian Coordinates / Bohr, Angstrom **** 
                    ************************************************ 
 
     Center  Label                x              y              z                     x              y              z
        1      O1               0.000000       0.000000       7.671003              0.000000       0.000000       4.059320
        2      FE2              0.000000       0.000000      -4.647441              0.000000       0.000000      -2.459320
--
 
 
            Nuclear Potential Energy             16.88524904 au
 
 ###############################################################################
 ###############################################################################
 ###                                                                         ###
 ###                                                                         ###
 ###    There were warnings during the execution                             ###
 ###    Please, check the output with care!                                  ###
 ###                                                                         ###
 ###                                                                         ###
 ###############################################################################
 ###############################################################################
--- Stop Module: gateway at Wed Dec 25 17:04:36 2024 /rc=_RC_ALL_IS_WELL_ ---
*** files: xmldump
    saved to directory /home/grierjones/DDCASPT2/iron_oxo_DDCASPT2/cluster/6.52

--- Start Module: seward at Wed Dec 25 17:04:36 2024 ---
 
()()()()()()()()()()()()()()()()()()()()()()()()()()()()()()()()()()()()()()()()()()()()()()()()()()

                                              &SEWARD

                                   only a single process is used
                       available to each process: 2.0 GB of memory, 1 thread?
()()()()()()()()()()()()()()()()()()()()()()()()()()()()()()()()()()()()()()()()()()()()()()()()()()
 
 ###############################################################################
 ###############################################################################
 ###                                                                         ###
 ###                                                                         ###
 ###                                                                         ###
 ###    WARNING: EXPERT option is ON!                                        ###
 ###                                                                         ###
 ###                                                                         ###
 ###############################################################################
 ###############################################################################
               SEWARD will generate:
                  Multipole Moment integrals up to order  2
                  Kinetic Energy integrals
                  Nuclear Attraction integrals (point charge)
                  One-Electron Hamiltonian integrals
                  Velocity integrals
                  Relativistic Douglas-Kroll-Hess integrals:
                    - Parametrization         : EXP
                    - DKH order of Hamiltonian: 2
                    - DKH order of Properties : 0
                         - multipole moment operators
                         - electric potential operators
                         - contact operators
                  Atomic mean-field integrals
                  Two-Electron Repulsion integrals
 
                   Integrals are discarded if absolute value <: 0.10E-13
                   Integral cutoff threshold is set to       <: 0.10E-15
 
            Nuclear Potential Energy             16.88524904 au
 
 
      Basis set specifications :
      Symmetry species         a  
      Basis functions           48
 
 
  Input file to MOLDEN was generated!
 
 ###############################################################################
 ###############################################################################
 ###                                                                         ###
 ###                                                                         ###
 ###    There were warnings during the execution                             ###
 ###    Please, check the output with care!                                  ###
 ###                                                                         ###
 ###                                                                         ###
 ###############################################################################
 ###############################################################################
--- Stop Module: seward at Wed Dec 25 17:04:37 2024 /rc=_RC_ALL_IS_WELL_ ---
*** files: 6.52.GssOrb 6.52.guessorb.h5 6.52.guessorb.molden xmldump
    saved to directory /home/grierjones/DDCASPT2/iron_oxo_DDCASPT2/cluster/6.52

*** symbolic link created: INPORB -> 6.52.GssOrb
--- Start Module: scf at Wed Dec 25 17:04:37 2024 ---
 
()()()()()()()()()()()()()()()()()()()()()()()()()()()()()()()()()()()()()()()()()()()()()()()()()()

                                                &SCF

                                   only a single process is used
                       available to each process: 2.0 GB of memory, 1 thread?
()()()()()()()()()()()()()()()()()()()()()()()()()()()()()()()()()()()()()()()()()()()()()()()()()()
 
 *** Possible bug in opening file
 *** isFreeUnit resets the unit number
++    Input section:
      --------------
 
      Header of the integral files:
      
       Integrals generated by seward 4.2.0  , Wed Dec 25 17:04:36 2024
 
 
      Cartesian coordinates in Angstrom:
      -----------------------------------------------------
      No.  Label        X            Y            Z        
      -----------------------------------------------------
       1   O1         0.00000000   0.00000000   4.05932000
       2   FE2        0.00000000   0.00000000  -2.45932000
      -----------------------------------------------------
      Nuclear repulsion energy =   16.88524904
--
 
++    Orbital specifications:
      -----------------------
 
      Symmetry species               1
                                     a
      Frozen orbitals                0
      Occupied orbitals alpha       18
      Occupied orbitals beta        14
      Secondary orbitals alpha      30
      Secondary orbitals beta       34
      Deleted orbitals               0
      Total number of orbitals      48
      Number of basis functions     48
--
 
      Molecular charge                           2.000
 
++    Optimization specifications:
      ----------------------------
 
      SCF Algorithm: Conventional USCF
      D(i)-D(i-1) density differences are used
      Number of density matrices in core                5
      Maximum number of NDDO SCF iterations           400
      Maximum number of HF SCF iterations             400
      Threshold for SCF energy change            0.10E-08
      Threshold for density matrix               0.10E-03
      Threshold for Fock matrix                  0.15E-03
      Threshold for linear dependence            0.10E-08
      Threshold at which DIIS is turned on       0.15E+00
      Threshold at which QNR/C2DIIS is turned on 0.75E-01
      Threshold for Norm(delta) (QNR/C2DIIS)     0.20E-04
      DIIS extrapolation of the SCF procedure
      All orbitals punched on: UHFORB
--
 
      Input vectors read from INPORB
      Orbital file label: * UHF orbitals
 
 
++ Convergence information
                               UHF SCF        iterations: Energy and convergence statistics
 
Iter     Tot. SCF        One-elec.       Two-elec.     Energy      Max Dij or  Max Fij      DNorm      TNorm      AccCon     Time
         Energy          Energy          Energy        Change      Delta Norm                                                in Sec.
 
 The total and one-electron energies are shifted by a value of      1000. a.u.
 
   1  -345.277344734  -882.632804019   520.470210242   0.00E+00    0.43E-04    0.22E-04     0.80E+01   0.18E+03   None         0.
   2  -345.277344737  -882.630732748   520.468138969  -0.32E-08*   0.28E-04    0.20E-04     0.18E-03   0.18E+03   EDIIS        0.
   3  -345.277344737  -882.632688169   520.470094389  -0.63E-09    0.16E-04    0.11E-04     0.12E-03   0.18E+03   c2DIIS       0.
 
       Convergence after  3 Macro Iterations
--
 
 *****************************************************************************************************************************
 *                                                                                                                           *
 *                                             SCF/KS-DFT Program, Final results                                             *
 *                                                                                                                           *
 *                                                                                                                           *
 *                                                                                                                           *
 *                                                       Final Results                                                       *
 *                                                                                                                           *
 *****************************************************************************************************************************
 
::    Total SCF energy                              -1345.2773447374
      One-electron energy                           -1882.6326881693
      Two-electron energy                             520.4700943892
      Nuclear repulsion energy                         16.8852490426
      Kinetic energy (interpolated)                  1399.3975160961
      Virial theorem                                    0.9613260916
      Total spin, S(S+1)                                7.0175021287
      Total spin, S                                     2.1958305082
      Max non-diagonal density matrix element           0.0000161967
      Max non-diagonal Fock matrix element              0.0000110375
 
 
      All orbitals with orbital energies smaller than  E(LUMO)+0.5 are printed
 
++    Molecular orbitals:
      -------------------
 
      Title: UHF orbitals (alpha)

      Molecular orbitals for symmetry species 1: a  
 
          Orbital            1         2         3         4         5         6         7         8         9        10    
          Energy         -263.8569  -32.6334  -27.7169  -27.7169  -27.6861  -21.4801   -4.5474   -3.1248   -3.1248   -3.0532
          Occ. No.          1.0000    1.0000    1.0000    1.0000    1.0000    1.0000    1.0000    1.0000    1.0000    1.0000
 
        1 O1     1s         0.0000   -0.0000    0.0000    0.0000   -0.0000    1.0000    0.0000   -0.0000    0.0000    0.0000
        2 O1     2s         0.0000   -0.0000    0.0000    0.0000   -0.0000    0.0003    0.0000   -0.0000    0.0000    0.0000
        3 O1     3s         0.0000   -0.0000    0.0000    0.0000   -0.0000   -0.0010    0.0001   -0.0000    0.0000    0.0001
        4 O1     2px        0.0000    0.0000    0.0000   -0.0000    0.0000   -0.0000   -0.0000   -0.0000    0.0000   -0.0000
        5 O1     3px        0.0000    0.0000    0.0000   -0.0000    0.0000    0.0000    0.0000   -0.0000    0.0000   -0.0000
        6 O1     2py       -0.0000   -0.0000   -0.0000   -0.0000   -0.0000    0.0000    0.0000    0.0000    0.0000    0.0000
        7 O1     3py       -0.0000   -0.0000   -0.0000   -0.0000   -0.0000   -0.0000   -0.0000    0.0000    0.0000    0.0000
        8 O1     2pz        0.0000    0.0000   -0.0000   -0.0000    0.0000   -0.0000   -0.0000    0.0000   -0.0000   -0.0000
        9 O1     3pz        0.0000    0.0000   -0.0000   -0.0000    0.0000    0.0000   -0.0001    0.0000   -0.0000   -0.0001
       10 O1     3d2-      -0.0000    0.0000   -0.0000    0.0000   -0.0000    0.0000   -0.0000    0.0000   -0.0000    0.0000
       11 O1     3d1-       0.0000    0.0000    0.0000    0.0000    0.0000    0.0000    0.0000   -0.0000   -0.0000   -0.0000
       12 O1     3d0       -0.0000   -0.0000    0.0000    0.0000   -0.0000   -0.0015    0.0000   -0.0000    0.0000    0.0000
       13 O1     3d1+      -0.0000   -0.0000   -0.0000    0.0000   -0.0000   -0.0000   -0.0000    0.0000   -0.0000    0.0000
       14 O1     3d2+       0.0000   -0.0000   -0.0000   -0.0000    0.0000    0.0000   -0.0000    0.0000    0.0000   -0.0000
       15 FE2    1s         1.0000    0.0000    0.0000    0.0000   -0.0000    0.0000   -0.0000   -0.0000    0.0000    0.0000
       16 FE2    2s        -0.0000    1.0000    0.0000    0.0000   -0.0002   -0.0000   -0.0023    0.0000   -0.0000   -0.0000
       17 FE2    3s         0.0000    0.0023    0.0000    0.0000   -0.0000   -0.0000    0.9999    0.0000   -0.0000   -0.0011
       18 FE2    4s        -0.0000   -0.0001   -0.0000   -0.0000    0.0000    0.0000    0.0063   -0.0000    0.0000    0.0005
       19 FE2    5s         0.0000    0.0001    0.0000    0.0000   -0.0000    0.0000   -0.0044    0.0000   -0.0000   -0.0003
       20 FE2    2px       -0.0000   -0.0000   -0.3460    0.9382   -0.0000   -0.0000    0.0000    0.0005   -0.0020    0.0000
       21 FE2    3px        0.0000   -0.0000   -0.0007    0.0019   -0.0000    0.0000   -0.0000   -0.2602    0.9655   -0.0000
       22 FE2    4px       -0.0000    0.0000    0.0001   -0.0002    0.0000   -0.0000    0.0000   -0.0009    0.0032   -0.0000
       23 FE2    5px        0.0000   -0.0000   -0.0002    0.0006   -0.0000   -0.0000   -0.0000    0.0011   -0.0042    0.0000
       24 FE2    2py        0.0000    0.0000    0.9382    0.3460    0.0001    0.0000   -0.0000   -0.0020   -0.0005   -0.0000
       25 FE2    3py       -0.0000    0.0000    0.0019    0.0007    0.0000   -0.0000    0.0000    0.9655    0.2602    0.0001
       26 FE2    4py        0.0000   -0.0000   -0.0002   -0.0001   -0.0000    0.0000   -0.0000    0.0032    0.0009    0.0000
       27 FE2    5py       -0.0000    0.0000    0.0006    0.0002    0.0000    0.0000    0.0000   -0.0042   -0.0011   -0.0000
       28 FE2    2pz        0.0000    0.0002   -0.0001   -0.0000    1.0000   -0.0000   -0.0000    0.0000   -0.0000   -0.0016
       29 FE2    3pz       -0.0000    0.0000   -0.0000   -0.0000    0.0016   -0.0000    0.0011   -0.0001    0.0000    1.0000
       30 FE2    4pz        0.0000   -0.0000    0.0000    0.0000   -0.0001    0.0000    0.0001   -0.0000    0.0000    0.0057
       31 FE2    5pz       -0.0000    0.0000   -0.0000   -0.0000    0.0003    0.0000   -0.0001    0.0000   -0.0000   -0.0056
       32 FE2    3d2-       0.0000    0.0000   -0.0000    0.0000    0.0000   -0.0000    0.0000   -0.0000    0.0000    0.0000
       33 FE2    4d2-      -0.0000   -0.0000    0.0000   -0.0000   -0.0000   -0.0000   -0.0000    0.0000   -0.0000   -0.0000
       34 FE2    3d1-      -0.0000   -0.0000    0.0000    0.0000    0.0000    0.0000   -0.0000    0.0005    0.0001    0.0000
       35 FE2    4d1-       0.0000    0.0000   -0.0000   -0.0000   -0.0000    0.0000    0.0000    0.0001    0.0000    0.0000
       36 FE2    3d0       -0.0000   -0.0005   -0.0000   -0.0000    0.0000    0.0000   -0.0124   -0.0000    0.0000    0.0006
       37 FE2    4d0        0.0000    0.0004    0.0000    0.0000   -0.0000    0.0000    0.0041   -0.0000    0.0000    0.0001
       38 FE2    3d1+       0.0000    0.0000   -0.0000    0.0000   -0.0000   -0.0000    0.0000   -0.0001    0.0005   -0.0000
       39 FE2    4d1+      -0.0000   -0.0000    0.0000   -0.0000    0.0000   -0.0000   -0.0000   -0.0000    0.0001   -0.0000
       40 FE2    3d2+       0.0000    0.0000   -0.0000   -0.0000    0.0000    0.0000    0.0000   -0.0000   -0.0000    0.0000
       41 FE2    4d2+      -0.0000   -0.0000    0.0000    0.0000   -0.0000   -0.0000   -0.0000    0.0000    0.0000   -0.0000
       42 FE2    4f3-      -0.0000   -0.0000    0.0000    0.0000    0.0000   -0.0000   -0.0000    0.0000    0.0000    0.0000
       43 FE2    4f2-      -0.0000    0.0000    0.0000   -0.0000    0.0000   -0.0000    0.0000    0.0000   -0.0000    0.0000
       44 FE2    4f1-      -0.0000   -0.0000   -0.0002   -0.0001   -0.0000    0.0000   -0.0000   -0.0078   -0.0021   -0.0000
       45 FE2    4f0       -0.0000   -0.0000    0.0000    0.0000   -0.0001    0.0000   -0.0000    0.0000   -0.0000   -0.0018
       46 FE2    4f1+       0.0000    0.0000    0.0001   -0.0002    0.0000   -0.0000    0.0000    0.0021   -0.0078    0.0000
       47 FE2    4f2+       0.0000    0.0000    0.0000    0.0000    0.0000    0.0000    0.0000    0.0000    0.0000    0.0000
       48 FE2    4f3+      -0.0000   -0.0000   -0.0000    0.0000    0.0000    0.0000   -0.0000   -0.0000    0.0000    0.0000
 
          Orbital           11        12        13        14        15        16        17        18        19        20    
          Energy           -1.9917   -1.3772   -1.3772   -0.8588   -0.8588   -0.8197   -0.7849   -0.7849   -0.5362   -0.3108
          Occ. No.          1.0000    1.0000    1.0000    1.0000    1.0000    1.0000    1.0000    1.0000    0.0000    0.0000
 
        1 O1     1s        -0.0004   -0.0000    0.0000    0.0000    0.0000   -0.0000    0.0000    0.0000   -0.0000   -0.0002
        2 O1     2s         0.9962    0.0000   -0.0000    0.0000    0.0000   -0.0001    0.0000    0.0000    0.0041   -0.0024
        3 O1     3s        -0.0712   -0.0000    0.0000    0.0000    0.0000   -0.0001    0.0000    0.0000   -0.0039    0.0018
        4 O1     2px       -0.0000   -0.2587    0.9553   -0.0000    0.0000    0.0000    0.0000   -0.0000    0.0000    0.0000
        5 O1     3px        0.0000    0.0374   -0.1379   -0.0000    0.0000    0.0000    0.0000   -0.0001    0.0000    0.0000
        6 O1     2py        0.0000    0.9553    0.2587   -0.0000   -0.0000   -0.0000   -0.0000   -0.0000   -0.0001   -0.0000
        7 O1     3py       -0.0000   -0.1379   -0.0374   -0.0000   -0.0000   -0.0000   -0.0001   -0.0000   -0.0000   -0.0000
        8 O1     2pz       -0.0046    0.0001   -0.0000   -0.0000   -0.0000    0.0003   -0.0000   -0.0000    0.9945    0.0089
        9 O1     3pz       -0.0001   -0.0000    0.0000   -0.0000   -0.0000    0.0007   -0.0000   -0.0000    0.1052   -0.0033
       10 O1     3d2-       0.0000   -0.0000    0.0000    0.0000    0.0000    0.0000    0.0000   -0.0000    0.0000   -0.0000
       11 O1     3d1-       0.0000   -0.0013   -0.0004    0.0000    0.0000   -0.0000   -0.0000   -0.0000    0.0000   -0.0000
       12 O1     3d0       -0.0510   -0.0000    0.0000    0.0000    0.0000   -0.0000   -0.0000   -0.0000   -0.0021    0.0003
       13 O1     3d1+      -0.0000    0.0004   -0.0013    0.0000   -0.0000    0.0000    0.0000   -0.0000   -0.0000    0.0000
       14 O1     3d2+       0.0000   -0.0000   -0.0000    0.0000   -0.0000   -0.0000    0.0000    0.0000    0.0000   -0.0000
       15 FE2    1s        -0.0000   -0.0000    0.0000    0.0000   -0.0000    0.0000   -0.0000   -0.0000    0.0000    0.0000
       16 FE2    2s        -0.0000   -0.0000    0.0000    0.0000    0.0000    0.0004   -0.0000   -0.0000    0.0000    0.0001
       17 FE2    3s        -0.0000   -0.0000    0.0000    0.0000    0.0000    0.0124   -0.0000   -0.0000    0.0001   -0.0058
       18 FE2    4s        -0.0000   -0.0000    0.0000   -0.0000   -0.0000   -0.0153   -0.0000   -0.0000    0.0011    0.9944
       19 FE2    5s        -0.0002   -0.0000    0.0000    0.0000    0.0000    0.0077   -0.0000   -0.0000    0.0021    0.0709
       20 FE2    2px        0.0000   -0.0000    0.0000   -0.0000    0.0000    0.0000    0.0000   -0.0000   -0.0000    0.0000
       21 FE2    3px       -0.0000   -0.0000    0.0000   -0.0000    0.0000    0.0000    0.0002   -0.0005   -0.0000    0.0000
       22 FE2    4px       -0.0000   -0.0001    0.0002    0.0000   -0.0000   -0.0000   -0.0020    0.0070   -0.0000    0.0000
       23 FE2    5px       -0.0000   -0.0000    0.0001    0.0000   -0.0000   -0.0000   -0.0001    0.0003   -0.0000    0.0000
       24 FE2    2py       -0.0000    0.0000    0.0000   -0.0000   -0.0000   -0.0000   -0.0000   -0.0000    0.0000   -0.0000
       25 FE2    3py        0.0000    0.0000    0.0000   -0.0000   -0.0000   -0.0000   -0.0005   -0.0002    0.0000   -0.0000
       26 FE2    4py        0.0000    0.0002    0.0001    0.0000    0.0000    0.0000    0.0070    0.0020    0.0000   -0.0000
       27 FE2    5py        0.0000    0.0001    0.0000    0.0000    0.0000    0.0000    0.0003    0.0001    0.0000   -0.0000
       28 FE2    2pz        0.0000   -0.0000    0.0000    0.0000    0.0000   -0.0000    0.0000    0.0000    0.0000    0.0000
       29 FE2    3pz       -0.0000   -0.0000    0.0000    0.0000    0.0000   -0.0006    0.0000    0.0000    0.0001   -0.0009
       30 FE2    4pz       -0.0001   -0.0000    0.0000   -0.0000   -0.0000    0.0080   -0.0000   -0.0000    0.0011    0.0745
       31 FE2    5pz       -0.0001   -0.0000    0.0000   -0.0000   -0.0000    0.0003   -0.0000   -0.0000    0.0004    0.0108
       32 FE2    3d2-       0.0000   -0.0000    0.0000    0.2639    0.9645   -0.0000   -0.0000    0.0001    0.0000   -0.0000
       33 FE2    4d2-       0.0000    0.0000   -0.0000    0.0009    0.0032   -0.0000   -0.0000    0.0000    0.0000    0.0000
       34 FE2    3d1-       0.0000    0.0000    0.0000    0.0001    0.0000    0.0002    0.9619    0.2721   -0.0000    0.0000
       35 FE2    4d1-       0.0000    0.0001    0.0000    0.0000    0.0000    0.0000    0.0260    0.0074    0.0000   -0.0000
       36 FE2    3d0       -0.0000   -0.0000    0.0000   -0.0000   -0.0000    0.9996   -0.0002   -0.0000    0.0005    0.0143
       37 FE2    4d0       -0.0000   -0.0000    0.0000   -0.0000   -0.0000    0.0153   -0.0000   -0.0000    0.0002   -0.0082
       38 FE2    3d1+      -0.0000   -0.0000    0.0000    0.0000   -0.0001   -0.0000   -0.2721    0.9619    0.0000   -0.0000
       39 FE2    4d1+      -0.0000   -0.0000    0.0001    0.0000   -0.0000   -0.0000   -0.0074    0.0260   -0.0000    0.0000
       40 FE2    3d2+       0.0000   -0.0000   -0.0000    0.9645   -0.2639   -0.0000   -0.0001   -0.0000    0.0000   -0.0000
       41 FE2    4d2+       0.0000    0.0000    0.0000    0.0032   -0.0009   -0.0000   -0.0000   -0.0000    0.0000    0.0000
       42 FE2    4f3-       0.0000   -0.0000   -0.0000    0.0000   -0.0000    0.0000   -0.0000   -0.0000   -0.0000    0.0000
       43 FE2    4f2-      -0.0000   -0.0000    0.0000    0.0001    0.0005   -0.0000   -0.0000    0.0000    0.0000   -0.0000
       44 FE2    4f1-       0.0000    0.0000    0.0000    0.0000    0.0000    0.0000    0.0006    0.0002   -0.0000   -0.0000
       45 FE2    4f0        0.0000   -0.0000    0.0000   -0.0000   -0.0000    0.0006   -0.0000   -0.0000   -0.0000    0.0000
       46 FE2    4f1+      -0.0000   -0.0000    0.0000    0.0000   -0.0000   -0.0000   -0.0002    0.0006    0.0000    0.0000
       47 FE2    4f2+       0.0000   -0.0000   -0.0000    0.0005   -0.0001   -0.0000   -0.0000   -0.0000    0.0000   -0.0000
       48 FE2    4f3+       0.0000    0.0000   -0.0000   -0.0000   -0.0000    0.0000    0.0000   -0.0000   -0.0000    0.0000
 
          Orbital           21        22        23        24    
          Energy           -0.1643   -0.1643   -0.1554   -0.0759
          Occ. No.          0.0000    0.0000    0.0000    0.0000
 
        1 O1     1s         0.0000   -0.0000   -0.0003   -0.0007
        2 O1     2s         0.0000   -0.0000   -0.0032   -0.0065
        3 O1     3s        -0.0000    0.0000    0.0065    0.0188
        4 O1     2px       -0.0001    0.0005    0.0000    0.0000
        5 O1     3px       -0.0016    0.0056    0.0000    0.0000
        6 O1     2py        0.0005    0.0001   -0.0000   -0.0000
        7 O1     3py        0.0056    0.0016   -0.0000   -0.0000
        8 O1     2pz       -0.0000    0.0000    0.0137    0.0249
        9 O1     3pz        0.0000   -0.0000   -0.0237   -0.0526
       10 O1     3d2-       0.0000   -0.0000   -0.0000   -0.0000
       11 O1     3d1-      -0.0001   -0.0000   -0.0000   -0.0000
       12 O1     3d0       -0.0000    0.0000    0.0007    0.0017
       13 O1     3d1+       0.0000   -0.0001    0.0000    0.0000
       14 O1     3d2+       0.0000    0.0000   -0.0000   -0.0000
       15 FE2    1s         0.0000   -0.0000   -0.0000   -0.0000
       16 FE2    2s         0.0000   -0.0000   -0.0000   -0.0002
       17 FE2    3s        -0.0000    0.0000    0.0005    0.0045
       18 FE2    4s         0.0000   -0.0000   -0.0806   -0.0670
       19 FE2    5s        -0.0000    0.0000    0.0641    0.9893
       20 FE2    2px       -0.0000    0.0001   -0.0000   -0.0000
       21 FE2    3px        0.0008   -0.0027    0.0000   -0.0000
       22 FE2    4px       -0.2681    0.9565   -0.0000    0.0000
       23 FE2    5px       -0.0309    0.1102   -0.0000    0.0000
       24 FE2    2py        0.0001    0.0000    0.0000    0.0000
       25 FE2    3py       -0.0027   -0.0008   -0.0000    0.0000
       26 FE2    4py        0.9565    0.2681    0.0001   -0.0000
       27 FE2    5py        0.1102    0.0309    0.0000   -0.0000
       28 FE2    2pz       -0.0000    0.0000    0.0001   -0.0000
       29 FE2    3pz        0.0000   -0.0000   -0.0049    0.0007
       30 FE2    4pz       -0.0001    0.0000    0.9859   -0.0751
       31 FE2    5pz       -0.0000    0.0000    0.1201   -0.0047
       32 FE2    3d2-       0.0000   -0.0000    0.0000    0.0000
       33 FE2    4d2-       0.0000   -0.0000   -0.0000   -0.0000
       34 FE2    3d1-      -0.0072   -0.0020   -0.0000   -0.0000
       35 FE2    4d1-       0.0066    0.0019    0.0000    0.0000
       36 FE2    3d0        0.0000   -0.0000   -0.0099   -0.0085
       37 FE2    4d0       -0.0000    0.0000    0.0116    0.0146
       38 FE2    3d1+       0.0020   -0.0072    0.0000    0.0000
       39 FE2    4d1+      -0.0019    0.0066   -0.0000   -0.0000
       40 FE2    3d2+       0.0000    0.0000    0.0000    0.0000
       41 FE2    4d2+       0.0000    0.0000   -0.0000   -0.0000
       42 FE2    4f3-      -0.0000   -0.0000   -0.0000   -0.0000
       43 FE2    4f2-       0.0000   -0.0000    0.0000    0.0000
       44 FE2    4f1-      -0.0001   -0.0000   -0.0000   -0.0000
       45 FE2    4f0        0.0000   -0.0000   -0.0004    0.0000
       46 FE2    4f1+       0.0000   -0.0001    0.0000    0.0000
       47 FE2    4f2+       0.0000    0.0000    0.0000    0.0000
       48 FE2    4f3+       0.0000   -0.0000   -0.0000   -0.0000
--
 
 
  Input file to MOLDEN was generated!
 
 
++    Static properties:
      ------------------
 
 
      LoProp Charges per center
 

                   O1       FE2   
      Nuclear      8.0000  26.0000
      Electronic  -7.0000 -25.0000
 
      Total        1.0000   1.0000
--
 
 
      All orbitals with orbital energies smaller than  E(LUMO)+0.5 are printed
 
++    Molecular orbitals:
      -------------------
 
      Title: UHF orbitals (beta)

      Molecular orbitals for symmetry species 1: a  
 
          Orbital            1         2         3         4         5         6         7         8         9        10    
          Energy         -263.8556  -32.5486  -27.6225  -27.6225  -27.6219  -21.4331   -4.2960   -2.8293   -2.7800   -2.7800
          Occ. No.          1.0000    1.0000    1.0000    1.0000    1.0000    1.0000    1.0000    1.0000    1.0000    1.0000
 
        1 O1     1s         0.0000    0.0000   -0.0000   -0.0000    0.0000    1.0000    0.0000    0.0000   -0.0000    0.0000
        2 O1     2s         0.0000    0.0000   -0.0000   -0.0000    0.0000   -0.0019    0.0001    0.0001   -0.0000    0.0000
        3 O1     3s         0.0000    0.0000   -0.0000   -0.0000    0.0000    0.0002    0.0001    0.0001   -0.0000    0.0000
        4 O1     2px       -0.0000    0.0000   -0.0000    0.0000   -0.0000    0.0000    0.0000   -0.0000   -0.0000    0.0000
        5 O1     3px        0.0000    0.0000   -0.0000    0.0000   -0.0000   -0.0000   -0.0000   -0.0000   -0.0000    0.0000
        6 O1     2py        0.0000   -0.0000    0.0000    0.0000    0.0000   -0.0000   -0.0000    0.0000    0.0000    0.0000
        7 O1     3py       -0.0000   -0.0000    0.0000    0.0000    0.0000    0.0000    0.0000    0.0000    0.0000    0.0000
        8 O1     2pz        0.0000   -0.0000    0.0000    0.0000   -0.0000   -0.0000   -0.0001   -0.0000    0.0000   -0.0000
        9 O1     3pz        0.0000   -0.0000    0.0000    0.0000   -0.0000   -0.0000   -0.0002   -0.0001    0.0000   -0.0000
       10 O1     3d2-      -0.0000    0.0000   -0.0000    0.0000   -0.0000   -0.0000    0.0000    0.0000   -0.0000    0.0000
       11 O1     3d1-       0.0000    0.0000   -0.0000   -0.0000   -0.0000   -0.0000    0.0000   -0.0000   -0.0000   -0.0000
       12 O1     3d0       -0.0000    0.0000   -0.0000   -0.0000    0.0000    0.0015    0.0000    0.0000   -0.0000    0.0000
       13 O1     3d1+      -0.0000   -0.0000    0.0000   -0.0000    0.0000    0.0000   -0.0000    0.0000    0.0000   -0.0000
       14 O1     3d2+       0.0000   -0.0000   -0.0000   -0.0000    0.0000   -0.0000   -0.0000   -0.0000   -0.0000   -0.0000
       15 FE2    1s         1.0000    0.0000    0.0000    0.0000   -0.0000   -0.0000   -0.0000    0.0000   -0.0000    0.0000
       16 FE2    2s        -0.0000    1.0000    0.0000    0.0000   -0.0002   -0.0000    0.0002   -0.0000    0.0000   -0.0000
       17 FE2    3s         0.0000   -0.0002   -0.0000   -0.0000    0.0000    0.0000    1.0000   -0.0012    0.0000   -0.0000
       18 FE2    4s        -0.0000    0.0001   -0.0000   -0.0000    0.0000   -0.0000    0.0076    0.0006   -0.0000    0.0000
       19 FE2    5s         0.0000   -0.0002    0.0000    0.0000   -0.0000   -0.0000   -0.0057   -0.0003    0.0000   -0.0000
       20 FE2    2px       -0.0000   -0.0000   -0.3215    0.9469   -0.0000    0.0000   -0.0000   -0.0000   -0.0004    0.0018
       21 FE2    3px        0.0000    0.0000    0.0006   -0.0018    0.0000   -0.0000    0.0000   -0.0000   -0.2314    0.9727
       22 FE2    4px       -0.0000   -0.0000   -0.0001    0.0003   -0.0000    0.0000   -0.0000   -0.0000   -0.0019    0.0078
       23 FE2    5px        0.0000   -0.0000    0.0002   -0.0007    0.0000    0.0000   -0.0000    0.0000    0.0021   -0.0087
       24 FE2    2py        0.0000    0.0000    0.9469    0.3215    0.0001   -0.0000    0.0000    0.0000    0.0018    0.0004
       25 FE2    3py       -0.0000   -0.0000   -0.0018   -0.0006   -0.0000    0.0000   -0.0000    0.0001    0.9727    0.2314
       26 FE2    4py        0.0000    0.0000    0.0003    0.0001    0.0000   -0.0000    0.0000    0.0000    0.0078    0.0019
       27 FE2    5py       -0.0000    0.0000   -0.0007   -0.0002   -0.0000   -0.0000    0.0000   -0.0000   -0.0087   -0.0021
       28 FE2    2pz        0.0000    0.0002   -0.0001   -0.0000    1.0000   -0.0000   -0.0000    0.0010   -0.0000    0.0000
       29 FE2    3pz       -0.0000    0.0000    0.0000    0.0000   -0.0010    0.0000    0.0012    0.9997   -0.0001    0.0000
       30 FE2    4pz        0.0000   -0.0000   -0.0000   -0.0000    0.0003   -0.0000    0.0001    0.0107   -0.0000    0.0000
       31 FE2    5pz       -0.0000    0.0000    0.0000    0.0000   -0.0007   -0.0000   -0.0001   -0.0099    0.0000   -0.0000
       32 FE2    3d2-      -0.0000   -0.0000   -0.0000    0.0000   -0.0000    0.0000   -0.0000   -0.0000    0.0000   -0.0000
       33 FE2    4d2-      -0.0000   -0.0000    0.0000   -0.0000    0.0000   -0.0000    0.0000    0.0000   -0.0000    0.0000
       34 FE2    3d1-       0.0000    0.0000    0.0000    0.0000    0.0000   -0.0000    0.0000    0.0000    0.0004    0.0001
       35 FE2    4d1-       0.0000    0.0000   -0.0000   -0.0000   -0.0000   -0.0000    0.0000   -0.0000    0.0003    0.0001
       36 FE2    3d0        0.0000    0.0000   -0.0000   -0.0000    0.0000   -0.0000    0.0010    0.0010   -0.0000    0.0000
       37 FE2    4d0        0.0000    0.0000    0.0000    0.0000   -0.0000   -0.0000    0.0004   -0.0002   -0.0000    0.0000
       38 FE2    3d1+      -0.0000   -0.0000   -0.0000    0.0000   -0.0000    0.0000   -0.0000   -0.0000   -0.0001    0.0004
       39 FE2    4d1+      -0.0000   -0.0000    0.0000   -0.0000    0.0000    0.0000   -0.0000    0.0000   -0.0001    0.0003
       40 FE2    3d2+      -0.0000   -0.0000   -0.0000   -0.0000   -0.0000    0.0000   -0.0000   -0.0000    0.0000    0.0000
       41 FE2    4d2+      -0.0000   -0.0000    0.0000    0.0000    0.0000   -0.0000    0.0000    0.0000   -0.0000   -0.0000
       42 FE2    4f3-      -0.0000    0.0000   -0.0000   -0.0000   -0.0000   -0.0000    0.0000   -0.0000   -0.0000   -0.0000
       43 FE2    4f2-       0.0000   -0.0000   -0.0000    0.0000    0.0000   -0.0000   -0.0000    0.0000   -0.0000    0.0000
       44 FE2    4f1-      -0.0000    0.0000    0.0007    0.0002   -0.0000   -0.0000    0.0000   -0.0000    0.0125    0.0030
       45 FE2    4f0       -0.0000    0.0000   -0.0000   -0.0000   -0.0011   -0.0000    0.0000   -0.0211   -0.0000    0.0000
       46 FE2    4f1+       0.0000   -0.0000   -0.0002    0.0007    0.0000    0.0000   -0.0000    0.0000   -0.0030    0.0125
       47 FE2    4f2+       0.0000   -0.0000   -0.0000   -0.0000    0.0000   -0.0000   -0.0000    0.0000   -0.0000   -0.0000
       48 FE2    4f3+      -0.0000    0.0000    0.0000   -0.0000   -0.0000   -0.0000    0.0000   -0.0000    0.0000   -0.0000
 
          Orbital           11        12        13        14        15        16        17        18        19        20    
          Energy           -1.8118   -1.3323   -0.6829   -0.6829   -0.5026   -0.5026   -0.2937   -0.1441   -0.1432   -0.1432
          Occ. No.          1.0000    1.0000    1.0000    1.0000    0.0000    0.0000    0.0000    0.0000    0.0000    0.0000
 
        1 O1     1s         0.0018    0.0000   -0.0000    0.0000    0.0000    0.0000   -0.0003   -0.0003   -0.0000   -0.0000
        2 O1     2s         0.9974    0.0031   -0.0000    0.0000    0.0000    0.0000   -0.0035   -0.0038   -0.0000   -0.0000
        3 O1     3s        -0.0469   -0.0024    0.0000   -0.0000   -0.0000   -0.0000    0.0021    0.0061    0.0000    0.0000
        4 O1     2px        0.0000    0.0000   -0.0000    0.0000   -0.2703    0.9537   -0.0000   -0.0000   -0.0023    0.0006
        5 O1     3px       -0.0000   -0.0000   -0.0001    0.0000   -0.0361    0.1273   -0.0000   -0.0000    0.0037   -0.0010
        6 O1     2py       -0.0000   -0.0001   -0.0000   -0.0000    0.9537    0.2703    0.0000    0.0000   -0.0006   -0.0023
        7 O1     3py        0.0000    0.0000   -0.0000   -0.0001    0.1273    0.0361    0.0000    0.0000    0.0010    0.0037
        8 O1     2pz       -0.0034    0.9917    0.0000   -0.0000    0.0001    0.0000    0.0018   -0.0026   -0.0000   -0.0000
        9 O1     3pz       -0.0012   -0.1281    0.0000   -0.0000    0.0000    0.0000   -0.0086   -0.0428   -0.0000   -0.0000
       10 O1     3d2-      -0.0000   -0.0000    0.0000   -0.0000    0.0000   -0.0000    0.0000    0.0000    0.0000   -0.0000
       11 O1     3d1-      -0.0000    0.0000   -0.0000   -0.0000   -0.0011   -0.0003    0.0000    0.0000   -0.0000   -0.0001
       12 O1     3d0        0.0553   -0.0009    0.0000   -0.0000   -0.0000   -0.0000    0.0002    0.0004    0.0000    0.0000
       13 O1     3d1+       0.0000   -0.0000   -0.0000    0.0000    0.0003   -0.0011   -0.0000   -0.0000   -0.0001    0.0000
       14 O1     3d2+      -0.0000   -0.0000   -0.0000   -0.0000    0.0000    0.0000    0.0000    0.0000   -0.0000   -0.0000
       15 FE2    1s        -0.0000   -0.0000    0.0000   -0.0000    0.0000    0.0000    0.0000   -0.0000   -0.0000   -0.0000
       16 FE2    2s        -0.0000   -0.0000   -0.0000    0.0000    0.0000    0.0000   -0.0001    0.0000    0.0000    0.0000
       17 FE2    3s        -0.0000   -0.0000    0.0000   -0.0000    0.0000    0.0000   -0.0067    0.0008    0.0000    0.0000
       18 FE2    4s        -0.0001   -0.0007    0.0000   -0.0000    0.0000    0.0000    0.9854   -0.0912   -0.0000   -0.0000
       19 FE2    5s        -0.0004   -0.0011   -0.0000    0.0000    0.0000    0.0000    0.1463    0.0430    0.0000    0.0000
       20 FE2    2px       -0.0000    0.0000   -0.0000    0.0000    0.0000   -0.0000   -0.0000   -0.0000   -0.0002    0.0001
       21 FE2    3px       -0.0000    0.0000   -0.0005    0.0001    0.0000   -0.0000    0.0000   -0.0000   -0.0066    0.0019
       22 FE2    4px        0.0000    0.0000    0.0115   -0.0032    0.0000   -0.0002    0.0000    0.0001    0.9545   -0.2680
       23 FE2    5px        0.0000    0.0000    0.0007   -0.0002    0.0000   -0.0001    0.0000    0.0000    0.1249   -0.0351
       24 FE2    2py        0.0000   -0.0000   -0.0000   -0.0000   -0.0000   -0.0000    0.0000    0.0000   -0.0001   -0.0002
       25 FE2    3py        0.0000   -0.0000   -0.0001   -0.0005   -0.0000   -0.0000   -0.0000    0.0000   -0.0019   -0.0066
       26 FE2    4py       -0.0000   -0.0000    0.0032    0.0115   -0.0002   -0.0000   -0.0000   -0.0004    0.2680    0.9545
       27 FE2    5py       -0.0000   -0.0000    0.0002    0.0007   -0.0001   -0.0000   -0.0000   -0.0001    0.0351    0.1249
       28 FE2    2pz       -0.0000   -0.0000   -0.0000    0.0000    0.0000    0.0000   -0.0000   -0.0002   -0.0000   -0.0000
       29 FE2    3pz       -0.0000   -0.0000   -0.0000    0.0000    0.0000    0.0000   -0.0013   -0.0093   -0.0000   -0.0000
       30 FE2    4pz       -0.0002   -0.0008    0.0000   -0.0000    0.0000    0.0000    0.0807    0.9832    0.0000    0.0004
       31 FE2    5pz       -0.0001   -0.0003    0.0000   -0.0000    0.0000    0.0000    0.0125    0.1293    0.0000    0.0001
       32 FE2    3d2-       0.0000   -0.0000    0.0001   -0.0000    0.0000   -0.0000   -0.0000   -0.0000   -0.0000    0.0000
       33 FE2    4d2-      -0.0000   -0.0000    0.0000   -0.0000    0.0000   -0.0000   -0.0000   -0.0000   -0.0000    0.0000
       34 FE2    3d1-      -0.0000    0.0000    0.2695    0.9602   -0.0002   -0.0001    0.0000    0.0000   -0.0034   -0.0120
       35 FE2    4d1-      -0.0000   -0.0000    0.0196    0.0700   -0.0001   -0.0000   -0.0000   -0.0000    0.0016    0.0057
       36 FE2    3d0       -0.0000   -0.0001    0.0000   -0.0002    0.0000    0.0000    0.0022    0.0233    0.0000    0.0000
       37 FE2    4d0       -0.0001   -0.0003    0.0000   -0.0000    0.0000    0.0000   -0.0010    0.0157    0.0000    0.0000
       38 FE2    3d1+       0.0000   -0.0000    0.9602   -0.2695    0.0001   -0.0002   -0.0000   -0.0000   -0.0120    0.0034
       39 FE2    4d1+       0.0000    0.0000    0.0700   -0.0196    0.0000   -0.0001    0.0000    0.0000    0.0057   -0.0016
       40 FE2    3d2+       0.0000   -0.0000   -0.0000   -0.0001    0.0000    0.0000   -0.0000   -0.0000    0.0000    0.0000
       41 FE2    4d2+      -0.0000   -0.0000   -0.0000   -0.0000    0.0000    0.0000   -0.0000   -0.0000    0.0000    0.0000
       42 FE2    4f3-       0.0000    0.0000   -0.0000   -0.0000    0.0000    0.0000   -0.0000   -0.0000   -0.0000   -0.0000
       43 FE2    4f2-      -0.0000   -0.0000    0.0000   -0.0000    0.0000   -0.0000    0.0000    0.0000    0.0000   -0.0000
       44 FE2    4f1-       0.0000   -0.0000    0.0002    0.0006    0.0000    0.0000   -0.0000   -0.0000    0.0004    0.0013
       45 FE2    4f0       -0.0000   -0.0000    0.0000   -0.0000   -0.0000   -0.0000   -0.0002   -0.0016   -0.0000   -0.0000
       46 FE2    4f1+      -0.0000    0.0000    0.0006   -0.0002   -0.0000    0.0000    0.0000    0.0000    0.0013   -0.0004
       47 FE2    4f2+      -0.0000   -0.0000   -0.0000   -0.0000    0.0000    0.0000    0.0000    0.0000   -0.0000   -0.0000
       48 FE2    4f3+       0.0000    0.0000   -0.0000    0.0000   -0.0000    0.0000   -0.0000   -0.0000   -0.0000    0.0000
 
          Orbital           21        22        23    
          Energy           -0.0566   -0.0029   -0.0029
          Occ. No.          0.0000    0.0000    0.0000
 
        1 O1     1s        -0.0007   -0.0000   -0.0000
        2 O1     2s        -0.0079   -0.0000   -0.0000
        3 O1     3s         0.0185   -0.0000   -0.0000
        4 O1     2px       -0.0000   -0.0000    0.0000
        5 O1     3px       -0.0000    0.0000   -0.0000
        6 O1     2py        0.0000   -0.0000   -0.0000
        7 O1     3py        0.0000    0.0000    0.0000
        8 O1     2pz       -0.0093    0.0000    0.0000
        9 O1     3pz       -0.1225    0.0000    0.0000
       10 O1     3d2-       0.0000    0.0000    0.0000
       11 O1     3d1-       0.0000   -0.0000   -0.0000
       12 O1     3d0        0.0009   -0.0000   -0.0000
       13 O1     3d1+      -0.0000   -0.0000    0.0000
       14 O1     3d2+       0.0000    0.0000   -0.0000
       15 FE2    1s        -0.0000    0.0000    0.0000
       16 FE2    2s         0.0002    0.0000    0.0000
       17 FE2    3s         0.0065    0.0000    0.0000
       18 FE2    4s        -0.1452    0.0000    0.0000
       19 FE2    5s         0.9705    0.0000    0.0000
       20 FE2    2px        0.0000   -0.0000    0.0000
       21 FE2    3px       -0.0000   -0.0000    0.0000
       22 FE2    4px        0.0000   -0.0000    0.0000
       23 FE2    5px        0.0000   -0.0000    0.0000
       24 FE2    2py       -0.0000   -0.0000   -0.0000
       25 FE2    3py        0.0000   -0.0000   -0.0000
       26 FE2    4py       -0.0000   -0.0000   -0.0000
       27 FE2    5py       -0.0000   -0.0000   -0.0000
       28 FE2    2pz        0.0000    0.0000    0.0000
       29 FE2    3pz        0.0010    0.0000    0.0000
       30 FE2    4pz       -0.0696    0.0000    0.0000
       31 FE2    5pz       -0.0046    0.0000    0.0000
       32 FE2    3d2-      -0.0000    0.1185    0.9462
       33 FE2    4d2-      -0.0000    0.0374    0.2987
       34 FE2    3d1-       0.0000    0.0001    0.0000
       35 FE2    4d1-       0.0000    0.0000    0.0000
       36 FE2    3d0        0.0134   -0.0000   -0.0000
       37 FE2    4d0        0.0108   -0.0000   -0.0000
       38 FE2    3d1+      -0.0000    0.0000   -0.0001
       39 FE2    4d1+      -0.0000    0.0000   -0.0000
       40 FE2    3d2+      -0.0000    0.9462   -0.1185
       41 FE2    4d2+      -0.0000    0.2987   -0.0374
       42 FE2    4f3-       0.0000    0.0000   -0.0000
       43 FE2    4f2-      -0.0000    0.0001    0.0006
       44 FE2    4f1-       0.0000    0.0000    0.0000
       45 FE2    4f0        0.0002   -0.0000   -0.0000
       46 FE2    4f1+      -0.0000    0.0000   -0.0000
       47 FE2    4f2+      -0.0000    0.0006   -0.0001
       48 FE2    4f3+       0.0000   -0.0000   -0.0000
--
 
 
++    Molecular charges:
      ------------------
 
      Mulliken charges per centre and basis function type
      ---------------------------------------------------
 
                            O1                      FE2   
                     alpha        beta       alpha        beta
      1s           1.0000      1.0000      1.0000      1.0000
      2s           0.9923      0.9947      1.0000      1.0000
      2px          0.9796      0.0000      1.0000      1.0000
      2pz          0.0000      0.9836      1.0000      1.0000
      2py          0.9796      0.0000      1.0000      1.0000
      3s           0.0051      0.0022      0.9999      0.9999
      3px          0.0204     -0.0000      0.9999      0.9997
      3pz         -0.0000      0.0164      0.9999      0.9993
      3py          0.0204     -0.0000      0.9999      0.9997
      4s           0.0000      0.0000      0.0003      0.0001
      3d2+         0.0000      0.0000      1.0000      0.0000
      3d1+         0.0000      0.0000      0.9992      0.9946
      3d0          0.0026      0.0031      0.9994      0.0000
      3d1-         0.0000      0.0000      0.9992      0.9946
      3d2-         0.0000      0.0000      1.0000      0.0000
      4px          0.0000      0.0000      0.0001      0.0002
      4pz          0.0000      0.0000      0.0001      0.0001
      4py          0.0000      0.0000      0.0001      0.0002
      5s           0.0000      0.0000      0.0001      0.0000
      4d2+         0.0000      0.0000      0.0000      0.0000
      4d1+         0.0000      0.0000      0.0007      0.0053
      4d0          0.0000      0.0000      0.0003      0.0000
      4d1-         0.0000      0.0000      0.0007      0.0053
      4d2-         0.0000      0.0000      0.0000      0.0000
      5px          0.0000      0.0000      0.0000      0.0001
      5pz          0.0000      0.0000      0.0000      0.0001
      5py          0.0000      0.0000      0.0000      0.0001
      4f3+         0.0000      0.0000      0.0000      0.0000
      4f2+         0.0000      0.0000      0.0000      0.0000
      4f1+         0.0000      0.0000      0.0001      0.0002
      4f0          0.0000      0.0000      0.0000      0.0004
      4f1-         0.0000      0.0000      0.0001      0.0002
      4f2-         0.0000      0.0000      0.0000      0.0000
      4f3-         0.0000      0.0000      0.0000      0.0000
      Total        4.0000      3.0000     14.0000     11.0000
      Total              7.0000                 25.0000
 
      Charge            1.0000                  1.0000
 
      Total electronic charge=   32.000000
 
      Total            charge=    2.000000
--
 
 
  Input file to MOLDEN was generated!
 
 
++    Static properties:
      ------------------
 
 
      LoProp Charges per center
 

                   O1       FE2   
      Nuclear      8.0000  26.0000
      Electronic  -7.0000 -25.0000
 
      Total        1.0000   1.0000
--
 
 
++    Natural Bond Order analysis
      ---------------------------
      Based on LoProp computed density
      -------------------------------------------------------------------------------------
      Atom A       Atom B       Bond Order
      -------------------------------------------------------------------------------------
      NBO located     19.999 core electrons.
      NBO located      5.992 lone pair electrons.
      NBO located      1.000 non-bonded electrons on atom O1        
      NBO located      1.000 non-bonded electrons on atom O1        
      NBO located      1.000 non-bonded electrons on atom O1        
      NBO located      1.000 non-bonded electrons on atom FE2       
      NBO located      1.000 non-bonded electrons on atom FE2       
      NBO located      1.000 non-bonded electrons on atom FE2       
      The remaining    0.009 electrons are to be considered as diffuse
--
 
 
++    Molecular orbitals:
      -------------------
 
      Title: Natural orbitals

      Molecular orbitals for symmetry species 1: a  
 
          Orbital            1         2         3         4         5         6         7         8         9        10    
          Energy         -263.8562  -32.2571  -21.4434  -27.5483  -27.5672  -27.5671   -4.7555   -3.0422   -3.0532   -3.0533
          Occ. No.          2.0000    2.0000    2.0000    2.0000    2.0000    2.0000    2.0000    1.9998    1.9998    1.9998
 
        1 O1     1s         0.0000   -0.0027    0.9992    0.0248   -0.0000   -0.0000    0.0020    0.0001   -0.0000   -0.0000
        2 O1     2s         0.0000    0.0001   -0.0301   -0.0008    0.0000    0.0000    0.0000    0.0001   -0.0000   -0.0000
        3 O1     3s         0.0000   -0.0000    0.0013    0.0000   -0.0000   -0.0000    0.0001    0.0001   -0.0000   -0.0000
        4 O1     2px       -0.0000   -0.0000   -0.0000   -0.0000    0.0000   -0.0000    0.0000   -0.0000   -0.0000    0.0000
        5 O1     3px        0.0000    0.0000    0.0000    0.0000    0.0000   -0.0000    0.0000   -0.0000   -0.0000    0.0000
        6 O1     2py        0.0000    0.0000    0.0000    0.0000   -0.0000   -0.0000   -0.0000    0.0000    0.0000    0.0000
        7 O1     3py       -0.0000   -0.0000   -0.0000   -0.0000   -0.0000   -0.0000   -0.0000    0.0000    0.0000    0.0000
        8 O1     2pz        0.0000    0.0000    0.0001    0.0000   -0.0000   -0.0000   -0.0000   -0.0000    0.0000    0.0000
        9 O1     3pz        0.0000    0.0000    0.0000    0.0000   -0.0000   -0.0000   -0.0002   -0.0001    0.0000    0.0000
       10 O1     3d2-      -0.0000    0.0000    0.0000    0.0000   -0.0000    0.0000    0.0000    0.0000    0.0000   -0.0000
       11 O1     3d1-       0.0000    0.0000    0.0000    0.0000    0.0000    0.0000    0.0000   -0.0000   -0.0000   -0.0000
       12 O1     3d0       -0.0000   -0.0000   -0.0000   -0.0000    0.0000    0.0000    0.0000    0.0000   -0.0000   -0.0000
       13 O1     3d1+      -0.0000   -0.0000   -0.0000   -0.0000   -0.0000    0.0000   -0.0000    0.0000    0.0000   -0.0000
       14 O1     3d2+       0.0000    0.0000    0.0000    0.0000   -0.0000   -0.0000    0.0000   -0.0000    0.0000    0.0000
       15 FE2    1s         1.0000   -0.0001   -0.0000   -0.0000    0.0000    0.0000    0.0002    0.0000   -0.0000   -0.0000
       16 FE2    2s         0.0001    0.9942    0.0024    0.0011    0.0000    0.0000    0.1078    0.0000    0.0000    0.0000
       17 FE2    3s        -0.0002   -0.1078   -0.0024    0.0032    0.0000    0.0000    0.9941   -0.0016    0.0000    0.0000
       18 FE2    4s        -0.0000   -0.0007   -0.0000   -0.0000    0.0000    0.0000    0.0068    0.0006   -0.0000   -0.0000
       19 FE2    5s         0.0000    0.0005    0.0000    0.0000   -0.0000   -0.0000   -0.0049   -0.0003    0.0000    0.0000
       20 FE2    2px       -0.0000    0.0000    0.0000   -0.0000   -0.3453    0.9363    0.0000   -0.0000   -0.0174    0.0619
       21 FE2    3px        0.0000    0.0000   -0.0000    0.0000    0.0222   -0.0604    0.0000   -0.0000   -0.2704    0.9604
       22 FE2    4px        0.0000   -0.0000   -0.0000    0.0000    0.0001   -0.0003   -0.0000   -0.0000   -0.0015    0.0053
       23 FE2    5px        0.0000   -0.0000    0.0000   -0.0000   -0.0001    0.0003   -0.0000    0.0000    0.0018   -0.0064
       24 FE2    2py        0.0000   -0.0000   -0.0000    0.0001    0.9363    0.3453   -0.0000    0.0000    0.0619    0.0174
       25 FE2    3py       -0.0000   -0.0000    0.0000   -0.0000   -0.0603   -0.0223   -0.0000    0.0001    0.9604    0.2704
       26 FE2    4py       -0.0000    0.0000    0.0000   -0.0000   -0.0003   -0.0001    0.0000    0.0000    0.0053    0.0015
       27 FE2    5py       -0.0000    0.0000   -0.0000    0.0000    0.0003    0.0001    0.0000   -0.0000   -0.0064   -0.0018
       28 FE2    2pz        0.0000   -0.0007   -0.0248    0.9976   -0.0001   -0.0000   -0.0033    0.0638   -0.0000   -0.0000
       29 FE2    3pz       -0.0000   -0.0002    0.0015   -0.0638    0.0000    0.0000    0.0018    0.9978   -0.0001   -0.0000
       30 FE2    4pz       -0.0000   -0.0000    0.0000   -0.0004    0.0000    0.0000    0.0002    0.0082   -0.0000   -0.0000
       31 FE2    5pz       -0.0000    0.0000   -0.0000    0.0003   -0.0000   -0.0000   -0.0001   -0.0078    0.0000    0.0000
       32 FE2    3d2-       0.0000   -0.0000    0.0000    0.0000    0.0000   -0.0000   -0.0000   -0.0000    0.0000   -0.0000
       33 FE2    4d2-       0.0000   -0.0000    0.0000   -0.0000    0.0000   -0.0000   -0.0000   -0.0000    0.0000   -0.0000
       34 FE2    3d1-      -0.0000    0.0000   -0.0000   -0.0000   -0.0001   -0.0000    0.0000    0.0000   -0.0179   -0.0050
       35 FE2    4d1-      -0.0000    0.0000   -0.0000    0.0000   -0.0000   -0.0000    0.0000    0.0000   -0.0008   -0.0002
       36 FE2    3d0       -0.0000   -0.0001   -0.0000   -0.0000    0.0000    0.0000    0.0010    0.0010    0.0000    0.0000
       37 FE2    4d0        0.0000   -0.0000   -0.0000   -0.0000    0.0000    0.0000    0.0024   -0.0000    0.0000    0.0000
       38 FE2    3d1+       0.0000   -0.0000    0.0000    0.0000    0.0000   -0.0001   -0.0000   -0.0000    0.0050   -0.0179
       39 FE2    4d1+       0.0000   -0.0000    0.0000   -0.0000    0.0000   -0.0000   -0.0000   -0.0000    0.0002   -0.0008
       40 FE2    3d2+       0.0000   -0.0000    0.0000    0.0000    0.0000    0.0000   -0.0000   -0.0000    0.0000    0.0000
       41 FE2    4d2+       0.0000   -0.0000    0.0000   -0.0000    0.0000    0.0000   -0.0000   -0.0000    0.0000    0.0000
       42 FE2    4f3-      -0.0000    0.0000    0.0000    0.0000   -0.0000   -0.0000    0.0000   -0.0000   -0.0000   -0.0000
       43 FE2    4f2-       0.0000   -0.0000    0.0000   -0.0000   -0.0000    0.0000   -0.0000    0.0000   -0.0000    0.0000
       44 FE2    4f1-      -0.0000    0.0000   -0.0000    0.0000    0.0001    0.0000    0.0000   -0.0000    0.0023    0.0006
       45 FE2    4f0        0.0000    0.0000   -0.0000    0.0002   -0.0000   -0.0000    0.0000   -0.0115   -0.0000   -0.0000
       46 FE2    4f1+       0.0000   -0.0000    0.0000   -0.0000   -0.0000    0.0001   -0.0000    0.0000   -0.0006    0.0023
       47 FE2    4f2+       0.0000   -0.0000    0.0000   -0.0000   -0.0000   -0.0000   -0.0000    0.0000   -0.0000   -0.0000
       48 FE2    4f3+      -0.0000    0.0000    0.0000    0.0000    0.0000   -0.0000    0.0000   -0.0000    0.0000   -0.0000
 
          Orbital           11        12        13        14        15        16        17        18        19        20    
          Energy           -0.7340   -0.7340   -1.9087   -0.6303   -0.9139   -0.9139   -0.3906   -0.3906   -0.6303    1.4450
          Occ. No.          1.9989    1.9989    1.9940    1.0001    1.0000    1.0000    1.0000    1.0000    0.9999    0.0060
 
        1 O1     1s        -0.0000   -0.0000    0.0301   -0.0000   -0.0000    0.0000   -0.0000   -0.0000   -0.0000    0.0001
        2 O1     2s        -0.0000   -0.0000    0.9978    0.0030   -0.0000    0.0000   -0.0000   -0.0000   -0.0032    0.0111
        3 O1     3s         0.0000    0.0000   -0.0591   -0.0018   -0.0000    0.0000   -0.0000   -0.0000    0.0017    0.2233
        4 O1     2px       -0.0000   -0.0000    0.0000   -0.0009    0.2587   -0.9553   -0.0000   -0.0000   -0.0009   -0.0000
        5 O1     3px       -0.0001   -0.0000   -0.0000    0.0001   -0.0374    0.1379    0.0000    0.0000    0.0001   -0.0000
        6 O1     2py       -0.0000    0.0000   -0.0000    0.0032   -0.9553   -0.2587   -0.0000   -0.0000    0.0033    0.0000
        7 O1     3py       -0.0000    0.0001    0.0000   -0.0005    0.1379    0.0374    0.0000    0.0000   -0.0005    0.0000
        8 O1     2pz        0.0000    0.0000   -0.0046    0.7015   -0.0001    0.0000    0.0000    0.0000   -0.7010    0.0003
        9 O1     3pz        0.0000    0.0000   -0.0006   -0.0901    0.0000   -0.0000    0.0000    0.0000    0.0911   -0.0083
       10 O1     3d2-       0.0000    0.0000   -0.0000   -0.0000    0.0000   -0.0000   -0.0000   -0.0000   -0.0000   -0.0000
       11 O1     3d1-      -0.0000    0.0000   -0.0000   -0.0000    0.0013    0.0004    0.0000    0.0000   -0.0000   -0.0002
       12 O1     3d0        0.0000    0.0000    0.0022   -0.0006    0.0000   -0.0000   -0.0000   -0.0000    0.0006    0.9747
       13 O1     3d1+      -0.0000   -0.0000    0.0000    0.0000   -0.0004    0.0013    0.0000    0.0000    0.0000    0.0000
       14 O1     3d2+      -0.0000    0.0000   -0.0000   -0.0000    0.0000    0.0000   -0.0000    0.0000   -0.0000   -0.0000
       15 FE2    1s        -0.0000   -0.0000   -0.0000   -0.0000   -0.0000    0.0000    0.0000    0.0000    0.0000   -0.0000
       16 FE2    2s         0.0000    0.0000    0.0000   -0.0000   -0.0000    0.0000    0.0000    0.0000   -0.0000   -0.0000
       17 FE2    3s         0.0000    0.0000   -0.0000   -0.0006   -0.0000    0.0000    0.0000    0.0000   -0.0006   -0.0000
       18 FE2    4s         0.0000    0.0000   -0.0001   -0.0114   -0.0001    0.0000    0.0000    0.0000   -0.0104   -0.0010
       19 FE2    5s        -0.0000   -0.0000   -0.0003    0.0047    0.0000   -0.0000   -0.0000   -0.0000    0.0062   -0.0025
       20 FE2    2px        0.0013    0.0003    0.0000    0.0000    0.0000   -0.0000    0.0000   -0.0000    0.0000    0.0000
       21 FE2    3px        0.0179    0.0048    0.0000    0.0000   -0.0000    0.0000    0.0000   -0.0000    0.0000   -0.0000
       22 FE2    4px        0.0094    0.0026    0.0000   -0.0000    0.0001   -0.0002   -0.0000    0.0000   -0.0000    0.0000
       23 FE2    5px        0.0004    0.0001   -0.0000   -0.0000    0.0000   -0.0001   -0.0000    0.0000   -0.0000    0.0000
       24 FE2    2py        0.0003   -0.0013   -0.0000   -0.0000   -0.0000   -0.0000    0.0000    0.0000   -0.0000   -0.0000
       25 FE2    3py        0.0048   -0.0179   -0.0000   -0.0000    0.0000    0.0000    0.0000    0.0000   -0.0000    0.0000
       26 FE2    4py        0.0026   -0.0094   -0.0000    0.0000   -0.0002   -0.0001   -0.0000   -0.0000    0.0000   -0.0000
       27 FE2    5py        0.0001   -0.0004    0.0000    0.0000   -0.0001   -0.0000   -0.0000   -0.0000    0.0000   -0.0000
       28 FE2    2pz        0.0000    0.0000    0.0000   -0.0000   -0.0000    0.0000   -0.0000   -0.0000   -0.0000   -0.0000
       29 FE2    3pz        0.0000    0.0000   -0.0001   -0.0008   -0.0000    0.0000   -0.0000   -0.0000   -0.0007    0.0000
       30 FE2    4pz        0.0000    0.0000   -0.0001    0.0051    0.0000   -0.0000    0.0000    0.0000    0.0062   -0.0012
       31 FE2    5pz        0.0000    0.0000   -0.0001   -0.0000    0.0000   -0.0000    0.0000    0.0000    0.0005   -0.0008
       32 FE2    3d2-       0.0001    0.0000    0.0000   -0.0000   -0.0000    0.0000   -0.2639   -0.9645   -0.0000   -0.0000
       33 FE2    4d2-       0.0000    0.0000    0.0000   -0.0000   -0.0000    0.0000   -0.0009   -0.0032   -0.0000    0.0000
       34 FE2    3d1-       0.2606   -0.9639   -0.0000    0.0001   -0.0000   -0.0000   -0.0001   -0.0000    0.0001    0.0000
       35 FE2    4d1-       0.0130   -0.0481   -0.0000    0.0000   -0.0001   -0.0000   -0.0000   -0.0000    0.0000   -0.0000
       36 FE2    3d0        0.0000    0.0002   -0.0000    0.7068    0.0048   -0.0000    0.0000    0.0000    0.7070   -0.0003
       37 FE2    4d0        0.0000    0.0000   -0.0000    0.0106    0.0001   -0.0000   -0.0000   -0.0000    0.0110   -0.0005
       38 FE2    3d1+       0.9639    0.2606    0.0000   -0.0000    0.0000   -0.0000   -0.0000    0.0001   -0.0000   -0.0000
       39 FE2    4d1+       0.0481    0.0130    0.0000   -0.0000    0.0000   -0.0001   -0.0000    0.0000   -0.0000    0.0000
       40 FE2    3d2+      -0.0000    0.0001    0.0000   -0.0000   -0.0000    0.0000   -0.9645    0.2639   -0.0000   -0.0000
       41 FE2    4d2+      -0.0000    0.0000    0.0000   -0.0000   -0.0000    0.0000   -0.0032    0.0009   -0.0000    0.0000
       42 FE2    4f3-      -0.0000    0.0000    0.0000    0.0000    0.0000    0.0000   -0.0000    0.0000    0.0000    0.0000
       43 FE2    4f2-       0.0000    0.0000   -0.0000   -0.0000    0.0000    0.0000   -0.0001   -0.0005   -0.0000   -0.0000
       44 FE2    4f1-       0.0002   -0.0007    0.0000    0.0000   -0.0000   -0.0000   -0.0000   -0.0000    0.0000    0.0000
       45 FE2    4f0        0.0000    0.0000    0.0000    0.0005    0.0000   -0.0000    0.0000    0.0000    0.0005    0.0000
       46 FE2    4f1+       0.0007    0.0002   -0.0000   -0.0000    0.0000   -0.0000   -0.0000    0.0000   -0.0000   -0.0000
       47 FE2    4f2+      -0.0000    0.0000   -0.0000   -0.0000    0.0000    0.0000   -0.0005    0.0001   -0.0000   -0.0000
       48 FE2    4f3+      -0.0000   -0.0000    0.0000    0.0000    0.0000    0.0000    0.0000    0.0000    0.0000    0.0000
 
          Orbital           21        22        23        24        25        26        27        28        29        30    
          Energy            0.7113    0.7113    3.5327    3.5327    3.4847    0.5502    2.0074    2.0074    2.0434    0.4446
          Occ. No.          0.0011    0.0011    0.0002    0.0002    0.0002    0.0000    0.0000    0.0000    0.0000    0.0000
 
        1 O1     1s         0.0000    0.0000   -0.0000   -0.0000   -0.0001    0.0002    0.0000    0.0000   -0.0005   -0.0005
        2 O1     2s         0.0000    0.0000   -0.0000   -0.0000   -0.0007    0.0034    0.0000    0.0000   -0.0071   -0.0587
        3 O1     3s        -0.0000   -0.0000   -0.0000   -0.0000   -0.0010    0.0072    0.0000    0.0000   -0.0245   -0.9704
        4 O1     2px       -0.0000    0.0001   -0.0000    0.0001    0.0000   -0.0000    0.0005   -0.0013    0.0000   -0.0000
        5 O1     3px       -0.0003    0.0012   -0.0001    0.0003    0.0000   -0.0000    0.0023   -0.0065    0.0000   -0.0000
        6 O1     2py        0.0001    0.0000    0.0001    0.0000   -0.0000    0.0000   -0.0013   -0.0005   -0.0000    0.0000
        7 O1     3py        0.0012    0.0003    0.0003    0.0001   -0.0000    0.0000   -0.0065   -0.0023   -0.0000    0.0000
        8 O1     2pz       -0.0000   -0.0000    0.0000    0.0000    0.0005   -0.0056   -0.0000   -0.0000    0.0088   -0.0078
        9 O1     3pz        0.0000    0.0000    0.0000    0.0000    0.0016   -0.0237   -0.0000   -0.0000    0.0400   -0.0488
       10 O1     3d2-      -0.0000    0.0000   -0.0000    0.0000    0.0000   -0.0000   -0.0000    0.0000   -0.0000   -0.0000
       11 O1     3d1-      -0.0001   -0.0000   -0.0000   -0.0000    0.0000   -0.0000    0.0006    0.0002   -0.0000   -0.0000
       12 O1     3d0        0.0000    0.0000   -0.0000   -0.0000   -0.0004    0.0019    0.0000    0.0000    0.0006    0.2219
       13 O1     3d1+       0.0000   -0.0001    0.0000   -0.0000   -0.0000    0.0000   -0.0002    0.0006    0.0000    0.0000
       14 O1     3d2+      -0.0000   -0.0000   -0.0000   -0.0000    0.0000   -0.0000   -0.0000   -0.0000   -0.0000   -0.0000
       15 FE2    1s        -0.0000   -0.0000    0.0000    0.0000    0.0000    0.0000   -0.0000   -0.0000    0.0000   -0.0000
       16 FE2    2s        -0.0000   -0.0000   -0.0000   -0.0000   -0.0000    0.0002    0.0000    0.0000   -0.0000    0.0000
       17 FE2    3s         0.0000    0.0000   -0.0000   -0.0000    0.0000   -0.0019   -0.0000   -0.0000    0.0002    0.0003
       18 FE2    4s        -0.0001   -0.0000    0.0000    0.0000   -0.0030    0.3412   -0.0000   -0.0000   -0.0015    0.0110
       19 FE2    5s         0.0000    0.0000   -0.0000   -0.0000    0.0011   -0.3343   -0.0000   -0.0000    0.0102    0.0704
       20 FE2    2px       -0.0000    0.0000    0.0001   -0.0003   -0.0000    0.0000   -0.0000    0.0000   -0.0000   -0.0000
       21 FE2    3px        0.0002   -0.0007    0.0013   -0.0047   -0.0000   -0.0000   -0.0023    0.0064   -0.0000    0.0000
       22 FE2    4px       -0.0280    0.0998   -0.0572    0.2033    0.0000   -0.0000    0.0718   -0.1997    0.0000   -0.0000
       23 FE2    5px       -0.0019    0.0068    0.0575   -0.2043   -0.0000   -0.0000   -0.3192    0.8870   -0.0000    0.0000
       24 FE2    2py        0.0000    0.0000   -0.0003   -0.0001    0.0000   -0.0000    0.0000    0.0000    0.0000    0.0000
       25 FE2    3py       -0.0007   -0.0002   -0.0047   -0.0013    0.0000    0.0000    0.0064    0.0023    0.0000   -0.0000
       26 FE2    4py        0.0998    0.0280    0.2033    0.0572   -0.0000    0.0000   -0.1997   -0.0718   -0.0000    0.0000
       27 FE2    5py        0.0068    0.0019   -0.2043   -0.0575    0.0000    0.0000    0.8870    0.3192    0.0001   -0.0000
       28 FE2    2pz        0.0000    0.0000    0.0000    0.0000    0.0006   -0.0000    0.0000    0.0000    0.0000    0.0000
       29 FE2    3pz        0.0000    0.0000    0.0000    0.0000    0.0145   -0.0000   -0.0000   -0.0000    0.0056   -0.0002
       30 FE2    4pz       -0.0000   -0.0000   -0.0000   -0.0000   -0.2468   -0.0229    0.0000    0.0000   -0.0991    0.0252
       31 FE2    5pz       -0.0000   -0.0000    0.0000    0.0000    0.2112   -0.0009   -0.0001   -0.0000    0.9662   -0.0061
       32 FE2    3d2-       0.0000   -0.0000   -0.0000    0.0000   -0.0000   -0.0000    0.0000   -0.0000   -0.0000   -0.0000
       33 FE2    4d2-      -0.0000    0.0001    0.0000   -0.0000    0.0000    0.0000   -0.0000    0.0000    0.0000    0.0000
       34 FE2    3d1-      -0.0487   -0.0137   -0.0010   -0.0003    0.0000    0.0000    0.0007    0.0003    0.0000    0.0000
       35 FE2    4d1-       0.9562    0.2686   -0.0289   -0.0081   -0.0000   -0.0001    0.0122    0.0044   -0.0000   -0.0000
       36 FE2    3d0        0.0000    0.0000    0.0000    0.0000    0.0010    0.0213   -0.0000   -0.0000    0.0008    0.0001
       37 FE2    4d0       -0.0002   -0.0000    0.0000    0.0000    0.0150   -0.8786   -0.0000   -0.0000   -0.0037   -0.0204
       38 FE2    3d1+       0.0137   -0.0487    0.0003   -0.0010   -0.0000   -0.0000   -0.0003    0.0007   -0.0000   -0.0000
       39 FE2    4d1+      -0.2686    0.9562    0.0081   -0.0289    0.0000    0.0000   -0.0044    0.0122    0.0000    0.0000
       40 FE2    3d2+       0.0000    0.0000   -0.0000   -0.0000   -0.0000   -0.0000    0.0000    0.0000   -0.0000   -0.0000
       41 FE2    4d2+      -0.0001   -0.0000    0.0000    0.0000    0.0000    0.0000   -0.0000   -0.0000    0.0000    0.0000
       42 FE2    4f3-      -0.0000   -0.0000   -0.0000   -0.0000    0.0000    0.0000   -0.0000   -0.0000   -0.0000    0.0000
       43 FE2    4f2-      -0.0000    0.0000   -0.0001    0.0001   -0.0000    0.0000   -0.0000    0.0000    0.0000   -0.0000
       44 FE2    4f1-       0.0095    0.0027    0.9179    0.2584    0.0002   -0.0000    0.2420    0.0871   -0.0001    0.0000
       45 FE2    4f0       -0.0000   -0.0000   -0.0002   -0.0000    0.9455    0.0096   -0.0001   -0.0000   -0.2416    0.0087
       46 FE2    4f1+      -0.0027    0.0095   -0.2584    0.9179   -0.0000    0.0000   -0.0871    0.2420    0.0000   -0.0000
       47 FE2    4f2+      -0.0000   -0.0000   -0.0001   -0.0001   -0.0000    0.0000   -0.0000   -0.0000    0.0000   -0.0000
       48 FE2    4f3+       0.0000   -0.0000    0.0000   -0.0000    0.0000    0.0000    0.0000   -0.0000   -0.0000    0.0000
 
          Orbital           31        32        33        34        35        36        37        38        39        40    
          Energy            0.0793   -0.2259   -0.0074   -0.0074    0.0520    0.0997    0.1056    0.1056    0.7436    0.7436
          Occ. No.          0.0000    0.0000    0.0000    0.0000    0.0000    0.0000    0.0000    0.0000    0.0000    0.0000
 
        1 O1     1s        -0.0004    0.0006   -0.0000   -0.0000    0.0002    0.0002    0.0000   -0.0000    0.0000    0.0000
        2 O1     2s        -0.0025    0.0053   -0.0000    0.0000    0.0005    0.0032    0.0000   -0.0000   -0.0000    0.0000
        3 O1     3s         0.0378   -0.0330    0.0000    0.0000   -0.0418    0.0321    0.0000   -0.0000   -0.0000   -0.0000
        4 O1     2px       -0.0000    0.0000    0.0001    0.0003    0.0000   -0.0000    0.1377    0.0382   -0.0000   -0.0001
        5 O1     3px        0.0000    0.0000    0.0014    0.0045    0.0000   -0.0001    0.9537    0.2648   -0.0000   -0.0006
        6 O1     2py        0.0000   -0.0000   -0.0003    0.0001   -0.0000   -0.0001    0.0382   -0.1377   -0.0000    0.0000
        7 O1     3py       -0.0000   -0.0000   -0.0049    0.0014   -0.0000   -0.0004    0.2648   -0.9537   -0.0001    0.0000
        8 O1     2pz        0.0094   -0.0092   -0.0000   -0.0000    0.0748   -0.1044   -0.0000    0.0000    0.0000    0.0000
        9 O1     3pz        0.0448   -0.0234   -0.0000   -0.0000    0.5934   -0.7962   -0.0002    0.0003    0.0000    0.0000
       10 O1     3d2-       0.0000    0.0000   -0.0000    0.0000    0.0001   -0.0002   -0.0000   -0.0000   -0.0125    0.0092
       11 O1     3d1-       0.0000   -0.0000    0.0000    0.0001   -0.0000   -0.0000   -0.0003    0.0028   -0.0055    0.0001
       12 O1     3d0       -0.0122    0.0145   -0.0000   -0.0000    0.0165   -0.0117   -0.0000    0.0000   -0.0000    0.0000
       13 O1     3d1+      -0.0000    0.0000   -0.0000   -0.0001    0.0000   -0.0000   -0.0014   -0.0010   -0.0105   -0.0000
       14 O1     3d2+       0.0000   -0.0000   -0.0000    0.0000   -0.0000    0.0000   -0.0002   -0.0005    0.0024    0.0150
       15 FE2    1s        -0.0000    0.0000   -0.0000   -0.0000    0.0000   -0.0000   -0.0000    0.0000    0.0000    0.0000
       16 FE2    2s         0.0001   -0.0000    0.0000   -0.0000    0.0000   -0.0001   -0.0000    0.0000    0.0000    0.0000
       17 FE2    3s         0.0083    0.0023   -0.0000   -0.0000   -0.0000   -0.0004   -0.0000    0.0000    0.0000    0.0000
       18 FE2    4s        -0.5329   -0.7697    0.0000    0.0000    0.0862    0.0112    0.0000   -0.0000    0.0000   -0.0000
       19 FE2    5s         0.7002   -0.6302    0.0000    0.0000    0.0429    0.0060    0.0000    0.0000    0.0000   -0.0000
       20 FE2    2px        0.0000    0.0000    0.0000    0.0000    0.0000    0.0000   -0.0000   -0.0000   -0.0000    0.0000
       21 FE2    3px       -0.0000   -0.0000   -0.0009   -0.0032   -0.0000    0.0000   -0.0000   -0.0000    0.0000    0.0000
       22 FE2    4px        0.0000    0.0000    0.2559    0.9132    0.0000   -0.0000   -0.0115   -0.0032   -0.0000   -0.0000
       23 FE2    5px        0.0000    0.0000    0.0695    0.2479    0.0000   -0.0000   -0.0031   -0.0009   -0.0000   -0.0000
       24 FE2    2py       -0.0000   -0.0000   -0.0000    0.0000   -0.0000   -0.0000   -0.0000    0.0000   -0.0000   -0.0000
       25 FE2    3py        0.0000    0.0000    0.0032   -0.0009    0.0000    0.0000   -0.0000   -0.0000    0.0000    0.0000
       26 FE2    4py       -0.0000   -0.0000   -0.9132    0.2559   -0.0001   -0.0001   -0.0032    0.0119   -0.0001   -0.0000
       27 FE2    5py       -0.0000   -0.0000   -0.2479    0.0695   -0.0000   -0.0000   -0.0009    0.0032   -0.0000   -0.0000
       28 FE2    2pz       -0.0000   -0.0000    0.0000   -0.0000   -0.0000   -0.0001   -0.0000    0.0000    0.0000    0.0000
       29 FE2    3pz        0.0007    0.0006   -0.0000   -0.0000    0.0035    0.0022    0.0000   -0.0000    0.0000    0.0000
       30 FE2    4pz       -0.0301   -0.0816    0.0001   -0.0000   -0.7448   -0.6059   -0.0001    0.0003   -0.0000    0.0000
       31 FE2    5pz       -0.0114   -0.0121    0.0000   -0.0000   -0.1203   -0.0973   -0.0000    0.0000   -0.0000    0.0000
       32 FE2    3d2-      -0.0000   -0.0000   -0.0000    0.0000   -0.0000    0.0000   -0.0000   -0.0000    0.0021   -0.0026
       33 FE2    4d2-       0.0000    0.0000    0.0000   -0.0000    0.0000   -0.0000    0.0005    0.0002   -0.6276    0.7783
       34 FE2    3d1-       0.0000    0.0000    0.0041   -0.0012    0.0000    0.0000   -0.0001    0.0004    0.0000    0.0000
       35 FE2    4d1-      -0.0001   -0.0001    0.0958   -0.0269   -0.0000    0.0000   -0.0015    0.0054   -0.0001   -0.0000
       36 FE2    3d0       -0.0060   -0.0055   -0.0000   -0.0000    0.0083    0.0025    0.0000   -0.0000    0.0000    0.0000
       37 FE2    4d0       -0.4715   -0.0598   -0.0000   -0.0000    0.0412    0.0065    0.0000   -0.0000    0.0000    0.0000
       38 FE2    3d1+      -0.0000   -0.0000   -0.0012   -0.0041   -0.0000    0.0000   -0.0004   -0.0001   -0.0000    0.0000
       39 FE2    4d1+       0.0000    0.0000   -0.0269   -0.0958   -0.0000    0.0000   -0.0055   -0.0015    0.0000   -0.0001
       40 FE2    3d2+      -0.0000   -0.0000   -0.0000    0.0000   -0.0000    0.0000    0.0000    0.0000    0.0026    0.0021
       41 FE2    4d2+       0.0000    0.0000    0.0000   -0.0000    0.0000   -0.0000   -0.0004   -0.0000   -0.7783   -0.6277
       42 FE2    4f3-      -0.0000    0.0000   -0.0000    0.0000    0.0000    0.0000    0.0000   -0.0000    0.0000    0.0000
       43 FE2    4f2-      -0.0000   -0.0000   -0.0000   -0.0000    0.0000    0.0000    0.0000    0.0000   -0.0002    0.0003
       44 FE2    4f1-       0.0000   -0.0000    0.1501   -0.0421   -0.0000   -0.0000    0.0005   -0.0020    0.0000   -0.0000
[...]
ATVX     1  Mu1.0011  Se1.027                       0.18471069      0.00000033     -0.00000589     -0.00000000
ATVX     1  Mu1.0012  Se1.027                       0.18471429      0.00000048     -0.00000861     -0.00000000
ATVX     1  Mu1.0013  Se1.027                       0.22904894     -0.00000000     -0.00000000      0.00000000
ATVX     1  Mu1.0014  Se1.027                       0.22904895     -0.00000000      0.00000000     -0.00000000
ATVX     1  Mu1.0015  Se1.027                       0.26413772     -0.00000000      0.00000000     -0.00000000
ATVX     1  Mu1.0016  Se1.027                       0.26413772      0.00000000     -0.00000000     -0.00000000
ATVX     1  Mu1.0017  Se1.027                       0.26596678      0.00000001     -0.00000015     -0.00000000
ATVX     1  Mu1.0018  Se1.027                       0.26597111     -0.00000001      0.00000008     -0.00000000
ATVX     1  Mu1.0019  Se1.027                       0.26875467      0.00000024     -0.00000081     -0.00000000
ATVX     1  Mu1.0020  Se1.027                       0.26876475     -0.00000005      0.00000017     -0.00000000
ATVX     1  Mu1.0021  Se1.027                       0.27457910      0.00000000     -0.00000000     -0.00000000
ATVX     1  Mu1.0022  Se1.027                       0.27458615      0.00000000     -0.00000000     -0.00000000
ATVX     1  Mu1.0023  Se1.027                       0.27543277     -0.00000000      0.00000000     -0.00000000
ATVX     1  Mu1.0024  Se1.027                       0.27543296     -0.00000000      0.00000000     -0.00000000
ATVX     1  Mu1.0025  Se1.027                       0.27607159     -0.00000000      0.00000000     -0.00000000
ATVX     1  Mu1.0026  Se1.027                       0.27607492     -0.00000000      0.00000000     -0.00000000
ATVX     1  Mu1.0027  Se1.027                       0.29827870     -0.00000000      0.00000000     -0.00000000
ATVX     1  Mu1.0028  Se1.027                       0.29828661     -0.00000000      0.00000000     -0.00000000
ATVX     1  Mu1.0001  Se1.028                      -0.20563529      0.00000000      0.00000000      0.00000000
ATVX     1  Mu1.0002  Se1.028                      -0.19790692      0.00000000      0.00000000      0.00000000
ATVX     1  Mu1.0003  Se1.028                      -0.19790351      0.00000004      0.00000015      0.00000000
ATVX     1  Mu1.0004  Se1.028                      -0.15490646     -0.00000000     -0.00000000      0.00000000
ATVX     1  Mu1.0005  Se1.028                      -0.01245499     -0.00000037      0.00002400     -0.00000000
ATVX     1  Mu1.0006  Se1.028                      -0.01245498      0.00000185     -0.00012027     -0.00000000
ATVX     1  Mu1.0007  Se1.028                       0.18581404     -0.00000006      0.00000149     -0.00000000
ATVX     1  Mu1.0008  Se1.028                       0.18581405      0.00000000     -0.00000000     -0.00000000
ATVX     1  Mu1.0009  Se1.028                       0.19042337     -0.00000000      0.00000000     -0.00000000
ATVX     1  Mu1.0010  Se1.028                       0.19042669     -0.00000000      0.00000000     -0.00000000
ATVX     1  Mu1.0011  Se1.028                       0.19252071      0.00000000     -0.00000000     -0.00000000
ATVX     1  Mu1.0012  Se1.028                       0.19252431     -0.00000000      0.00000000     -0.00000000
ATVX     1  Mu1.0013  Se1.028                       0.23685896      0.00000001     -0.00000009     -0.00000000
ATVX     1  Mu1.0014  Se1.028                       0.23685897     -0.00000000      0.00000000     -0.00000000
ATVX     1  Mu1.0015  Se1.028                       0.27194773      0.00000031     -0.00000108     -0.00000000
ATVX     1  Mu1.0016  Se1.028                       0.27194774      0.00000000     -0.00000000     -0.00000000
ATVX     1  Mu1.0017  Se1.028                       0.27377679      0.00000000     -0.00000000     -0.00000000
ATVX     1  Mu1.0018  Se1.028                       0.27378112      0.00000000     -0.00000000     -0.00000000
ATVX     1  Mu1.0019  Se1.028                       0.27656469     -0.00000000      0.00000000     -0.00000000
ATVX     1  Mu1.0020  Se1.028                       0.27657477     -0.00000000      0.00000000     -0.00000000
ATVX     1  Mu1.0021  Se1.028                       0.28238912     -0.00000016      0.00000044     -0.00000000
ATVX     1  Mu1.0022  Se1.028                       0.28239617     -0.00000000      0.00000000     -0.00000000
ATVX     1  Mu1.0023  Se1.028                       0.28324279      0.00000000     -0.00000000     -0.00000000
ATVX     1  Mu1.0024  Se1.028                       0.28324298     -0.00000085      0.00000375     -0.00000000
ATVX     1  Mu1.0025  Se1.028                       0.28388161     -0.00000000      0.00000000     -0.00000000
ATVX     1  Mu1.0026  Se1.028                       0.28388493      0.00000000     -0.00000000     -0.00000000
ATVX     1  Mu1.0001  Se1.029                      -0.20563458     -0.00000000     -0.00000000      0.00000000
ATVX     1  Mu1.0002  Se1.029                      -0.19790621     -0.00000004     -0.00000015      0.00000000
ATVX     1  Mu1.0003  Se1.029                      -0.19790280      0.00000000      0.00000000      0.00000000
ATVX     1  Mu1.0004  Se1.029                      -0.15490575     -0.00000000     -0.00000000      0.00000000
ATVX     1  Mu1.0005  Se1.029                      -0.01245428      0.00000185     -0.00012023     -0.00000000
ATVX     1  Mu1.0006  Se1.029                      -0.01245427      0.00000037     -0.00002399     -0.00000000
ATVX     1  Mu1.0007  Se1.029                       0.18581475      0.00000000     -0.00000000     -0.00000000
ATVX     1  Mu1.0008  Se1.029                       0.18581476      0.00000006     -0.00000149     -0.00000000
ATVX     1  Mu1.0009  Se1.029                       0.19042408     -0.00000000      0.00000000     -0.00000000
ATVX     1  Mu1.0010  Se1.029                       0.19042740      0.00000000     -0.00000000     -0.00000000
ATVX     1  Mu1.0011  Se1.029                       0.19252142     -0.00000000     -0.00000000      0.00000000
ATVX     1  Mu1.0012  Se1.029                       0.19252502     -0.00000000      0.00000000     -0.00000000
ATVX     1  Mu1.0013  Se1.029                       0.23685967     -0.00000000      0.00000000     -0.00000000
ATVX     1  Mu1.0014  Se1.029                       0.23685968     -0.00000001      0.00000009     -0.00000000
ATVX     1  Mu1.0015  Se1.029                       0.27194844      0.00000000     -0.00000000     -0.00000000
ATVX     1  Mu1.0016  Se1.029                       0.27194845     -0.00000031      0.00000108     -0.00000000
ATVX     1  Mu1.0017  Se1.029                       0.27377750     -0.00000000      0.00000000     -0.00000000
ATVX     1  Mu1.0018  Se1.029                       0.27378183     -0.00000000      0.00000000     -0.00000000
ATVX     1  Mu1.0019  Se1.029                       0.27656540      0.00000000     -0.00000000     -0.00000000
ATVX     1  Mu1.0020  Se1.029                       0.27657548     -0.00000000      0.00000000     -0.00000000
ATVX     1  Mu1.0021  Se1.029                       0.28238983     -0.00000000      0.00000000     -0.00000000
ATVX     1  Mu1.0022  Se1.029                       0.28239688      0.00000016     -0.00000044     -0.00000000
ATVX     1  Mu1.0023  Se1.029                       0.28324350      0.00000085     -0.00000375     -0.00000000
ATVX     1  Mu1.0024  Se1.029                       0.28324369      0.00000000     -0.00000000     -0.00000000
ATVX     1  Mu1.0025  Se1.029                       0.28388232      0.00000000     -0.00000000     -0.00000000
ATVX     1  Mu1.0026  Se1.029                       0.28388564      0.00000000     -0.00000000     -0.00000000
ATVX     1  Mu1.0001  Se1.030                      -0.04488548     -0.00000000     -0.00000000      0.00000000
ATVX     1  Mu1.0002  Se1.030                      -0.03715711     -0.00000000     -0.00000000      0.00000000
ATVX     1  Mu1.0003  Se1.030                      -0.03715370      0.00000000      0.00000000      0.00000000
ATVX     1  Mu1.0004  Se1.030                       0.00584336     -0.00000000      0.00000006     -0.00000000
ATVX     1  Mu1.0005  Se1.030                       0.14829482      0.00000000     -0.00000000     -0.00000000
ATVX     1  Mu1.0006  Se1.030                       0.14829483     -0.00000000      0.00000000     -0.00000000
ATVX     1  Mu1.0261  Se1.031                       2.28232748      0.08092639     -0.03682995     -0.00298052
ATVX     1  Mu1.0262  Se1.032                       2.28232748     -0.08092639      0.03682995     -0.00298052
AIVX     1  Mu1.0135  In1.011 Se1.033               3.32221132      0.10918960     -0.03330262     -0.00363630
AIVX     1  Mu1.0136  In1.011 Se1.033               3.32633980      0.07735315     -0.02630264     -0.00203459
AIVX     1  Mu1.0130  In1.008 Se1.034               6.28864318     -0.17040355      0.02710114     -0.00461813
AIVX     1  Mu1.0130  In1.009 Se1.035               6.29894398      0.16998016     -0.02698298     -0.00458657
AIVX     1  Mu1.0168  In1.009 Se1.035               6.56033221     -0.17705300      0.02698841     -0.00477838
AIVX     1  Mu1.0130  In1.010 Se1.036               6.29894518      0.16998021     -0.02698299     -0.00458657
AIVX     1  Mu1.0168  In1.010 Se1.036               6.56033341     -0.17705483      0.02698868     -0.00477848
AIVX     1  Mu1.0036  In1.011 Se1.037               3.46957005      0.13154197     -0.03630165     -0.00477519
AIVX     1  Mu1.0049  In1.011 Se1.038               3.71956539      0.14674049     -0.03786308     -0.00555605
AIVX     1  Mu1.0041  In1.011 Se1.041               3.52398327      0.10191826     -0.02764618     -0.00281765
BVATM    1  Mu1.0001  Se1.027 Se1.026               0.18386838     -0.00000000     -0.00000000      0.00000000
BVATM    1  Mu1.0001  Se1.028 Se1.026               0.19167840     -0.00000000     -0.00000000      0.00000000
BVATM    1  Mu1.0001  Se1.029 Se1.026               0.19167911      0.00000000     -0.00000000     -0.00000000
BVATM    1  Mu1.0001  Se1.032 Se1.031               1.95536615     -0.07208096      0.03718782     -0.00268053
BVATM    1  Mu1.0001  Se1.038 Se1.037               5.00949115     -0.12959506      0.02586990     -0.00335261
BJATP    1  Mu1.0002  In1.011 Se1.033 Se1.031       2.93891636     -0.08261864      0.02798763     -0.00231230
BJATP    1  Mu1.0001  In1.011 Se1.033 Se1.032       2.93891636     -0.08261864      0.02798763     -0.00231230
BJATM    1  Mu1.0002  In1.011 Se1.033 Se1.031       2.93891636      0.07871522     -0.02870891     -0.00225983
BJATM    1  Mu1.0001  In1.011 Se1.033 Se1.032       2.93891636      0.07871522     -0.02870891     -0.00225983
BJAIP    1  Se1.033 In1.011 Se1.033 In1.011         3.92246451      0.12253778     -0.03339997     -0.00409276
--
 
   (Skipping property calculation,
    use PROP keyword to activate)
--
 
  Total CASPT2 energies:
::    CASPT2 Root  1     Total energy:  -1345.82466981
 
  A NEW JOBIPH FILE NAMED 'JOBMIX' IS PREPARED.
********************************************************************************
--- Stop Module: caspt2 at Wed Dec 25 17:11:17 2024 /rc=_RC_ALL_IS_WELL_ ---
*** files: xmldump
    saved to directory /home/grierjones/DDCASPT2/iron_oxo_DDCASPT2/cluster/6.52
--- Module caspt2 spent 5 minutes 32 seconds ---

>>> EXPORT i = B

>>> EXPORT j = P

>>> IF (-FILE GMJ_e2_${i}_${j}.csv)

>>> COPY /tmp/6.52/GMJ_RHS_B_P.csv /home/grierjones/DDCASPT2/iron_oxo_DDCASPT2/cluster/6.52/GMJ_RHS_B_P.csv

>>> COPY /tmp/6.52/GMJ_IVECW_B_P.csv /home/grierjones/DDCASPT2/iron_oxo_DDCASPT2/cluster/6.52/GMJ_IVECW_B_P.csv

>>> COPY /tmp/6.52/GMJ_IVECX_B_P.csv /home/grierjones/DDCASPT2/iron_oxo_DDCASPT2/cluster/6.52/GMJ_IVECX_B_P.csv

>>> COPY /tmp/6.52/GMJ_IVECC2_B_P.csv /home/grierjones/DDCASPT2/iron_oxo_DDCASPT2/cluster/6.52/GMJ_IVECC2_B_P.csv

>>> COPY /tmp/6.52/GMJ_e2_B_P.csv /home/grierjones/DDCASPT2/iron_oxo_DDCASPT2/cluster/6.52/GMJ_e2_B_P.csv

>>> END FOREACH

>>> EXPORT j = M

>>> IF (-FILE GMJ_e2_${i}_${j}.csv)

>>> COPY /tmp/6.52/GMJ_RHS_B_M.csv /home/grierjones/DDCASPT2/iron_oxo_DDCASPT2/cluster/6.52/GMJ_RHS_B_M.csv

>>> COPY /tmp/6.52/GMJ_IVECW_B_M.csv /home/grierjones/DDCASPT2/iron_oxo_DDCASPT2/cluster/6.52/GMJ_IVECW_B_M.csv

>>> COPY /tmp/6.52/GMJ_IVECX_B_M.csv /home/grierjones/DDCASPT2/iron_oxo_DDCASPT2/cluster/6.52/GMJ_IVECX_B_M.csv

>>> COPY /tmp/6.52/GMJ_IVECC2_B_M.csv /home/grierjones/DDCASPT2/iron_oxo_DDCASPT2/cluster/6.52/GMJ_IVECC2_B_M.csv

>>> COPY /tmp/6.52/GMJ_e2_B_M.csv /home/grierjones/DDCASPT2/iron_oxo_DDCASPT2/cluster/6.52/GMJ_e2_B_M.csv

>>> END FOREACH

>>> END FOREACH

>>> EXPORT i = E

>>> EXPORT j = P

>>> IF (-FILE GMJ_e2_${i}_${j}.csv)

>>> COPY /tmp/6.52/GMJ_RHS_E_P.csv /home/grierjones/DDCASPT2/iron_oxo_DDCASPT2/cluster/6.52/GMJ_RHS_E_P.csv

>>> COPY /tmp/6.52/GMJ_IVECW_E_P.csv /home/grierjones/DDCASPT2/iron_oxo_DDCASPT2/cluster/6.52/GMJ_IVECW_E_P.csv

>>> COPY /tmp/6.52/GMJ_IVECX_E_P.csv /home/grierjones/DDCASPT2/iron_oxo_DDCASPT2/cluster/6.52/GMJ_IVECX_E_P.csv

>>> COPY /tmp/6.52/GMJ_IVECC2_E_P.csv /home/grierjones/DDCASPT2/iron_oxo_DDCASPT2/cluster/6.52/GMJ_IVECC2_E_P.csv

>>> COPY /tmp/6.52/GMJ_e2_E_P.csv /home/grierjones/DDCASPT2/iron_oxo_DDCASPT2/cluster/6.52/GMJ_e2_E_P.csv

>>> END FOREACH

>>> EXPORT j = M

>>> IF (-FILE GMJ_e2_${i}_${j}.csv)

>>> COPY /tmp/6.52/GMJ_RHS_E_M.csv /home/grierjones/DDCASPT2/iron_oxo_DDCASPT2/cluster/6.52/GMJ_RHS_E_M.csv

>>> COPY /tmp/6.52/GMJ_IVECW_E_M.csv /home/grierjones/DDCASPT2/iron_oxo_DDCASPT2/cluster/6.52/GMJ_IVECW_E_M.csv

>>> COPY /tmp/6.52/GMJ_IVECX_E_M.csv /home/grierjones/DDCASPT2/iron_oxo_DDCASPT2/cluster/6.52/GMJ_IVECX_E_M.csv

>>> COPY /tmp/6.52/GMJ_IVECC2_E_M.csv /home/grierjones/DDCASPT2/iron_oxo_DDCASPT2/cluster/6.52/GMJ_IVECC2_E_M.csv

>>> COPY /tmp/6.52/GMJ_e2_E_M.csv /home/grierjones/DDCASPT2/iron_oxo_DDCASPT2/cluster/6.52/GMJ_e2_E_M.csv

>>> END FOREACH

>>> END FOREACH

>>> EXPORT i = F

>>> EXPORT j = P

>>> IF (-FILE GMJ_e2_${i}_${j}.csv)

>>> COPY /tmp/6.52/GMJ_RHS_F_P.csv /home/grierjones/DDCASPT2/iron_oxo_DDCASPT2/cluster/6.52/GMJ_RHS_F_P.csv

>>> COPY /tmp/6.52/GMJ_IVECW_F_P.csv /home/grierjones/DDCASPT2/iron_oxo_DDCASPT2/cluster/6.52/GMJ_IVECW_F_P.csv

>>> COPY /tmp/6.52/GMJ_IVECX_F_P.csv /home/grierjones/DDCASPT2/iron_oxo_DDCASPT2/cluster/6.52/GMJ_IVECX_F_P.csv

>>> COPY /tmp/6.52/GMJ_IVECC2_F_P.csv /home/grierjones/DDCASPT2/iron_oxo_DDCASPT2/cluster/6.52/GMJ_IVECC2_F_P.csv

>>> COPY /tmp/6.52/GMJ_e2_F_P.csv /home/grierjones/DDCASPT2/iron_oxo_DDCASPT2/cluster/6.52/GMJ_e2_F_P.csv

>>> END FOREACH

>>> EXPORT j = M

>>> IF (-FILE GMJ_e2_${i}_${j}.csv)

>>> COPY /tmp/6.52/GMJ_RHS_F_M.csv /home/grierjones/DDCASPT2/iron_oxo_DDCASPT2/cluster/6.52/GMJ_RHS_F_M.csv

>>> COPY /tmp/6.52/GMJ_IVECW_F_M.csv /home/grierjones/DDCASPT2/iron_oxo_DDCASPT2/cluster/6.52/GMJ_IVECW_F_M.csv

>>> COPY /tmp/6.52/GMJ_IVECX_F_M.csv /home/grierjones/DDCASPT2/iron_oxo_DDCASPT2/cluster/6.52/GMJ_IVECX_F_M.csv

>>> COPY /tmp/6.52/GMJ_IVECC2_F_M.csv /home/grierjones/DDCASPT2/iron_oxo_DDCASPT2/cluster/6.52/GMJ_IVECC2_F_M.csv

>>> COPY /tmp/6.52/GMJ_e2_F_M.csv /home/grierjones/DDCASPT2/iron_oxo_DDCASPT2/cluster/6.52/GMJ_e2_F_M.csv

>>> END FOREACH

>>> END FOREACH

>>> EXPORT i = G

>>> EXPORT j = P

>>> IF (-FILE GMJ_e2_${i}_${j}.csv)

>>> COPY /tmp/6.52/GMJ_RHS_G_P.csv /home/grierjones/DDCASPT2/iron_oxo_DDCASPT2/cluster/6.52/GMJ_RHS_G_P.csv

>>> COPY /tmp/6.52/GMJ_IVECW_G_P.csv /home/grierjones/DDCASPT2/iron_oxo_DDCASPT2/cluster/6.52/GMJ_IVECW_G_P.csv

>>> COPY /tmp/6.52/GMJ_IVECX_G_P.csv /home/grierjones/DDCASPT2/iron_oxo_DDCASPT2/cluster/6.52/GMJ_IVECX_G_P.csv

>>> COPY /tmp/6.52/GMJ_IVECC2_G_P.csv /home/grierjones/DDCASPT2/iron_oxo_DDCASPT2/cluster/6.52/GMJ_IVECC2_G_P.csv

>>> COPY /tmp/6.52/GMJ_e2_G_P.csv /home/grierjones/DDCASPT2/iron_oxo_DDCASPT2/cluster/6.52/GMJ_e2_G_P.csv

>>> END FOREACH

>>> EXPORT j = M

>>> IF (-FILE GMJ_e2_${i}_${j}.csv)

>>> COPY /tmp/6.52/GMJ_RHS_G_M.csv /home/grierjones/DDCASPT2/iron_oxo_DDCASPT2/cluster/6.52/GMJ_RHS_G_M.csv

>>> COPY /tmp/6.52/GMJ_IVECW_G_M.csv /home/grierjones/DDCASPT2/iron_oxo_DDCASPT2/cluster/6.52/GMJ_IVECW_G_M.csv

>>> COPY /tmp/6.52/GMJ_IVECX_G_M.csv /home/grierjones/DDCASPT2/iron_oxo_DDCASPT2/cluster/6.52/GMJ_IVECX_G_M.csv

>>> COPY /tmp/6.52/GMJ_IVECC2_G_M.csv /home/grierjones/DDCASPT2/iron_oxo_DDCASPT2/cluster/6.52/GMJ_IVECC2_G_M.csv

>>> COPY /tmp/6.52/GMJ_e2_G_M.csv /home/grierjones/DDCASPT2/iron_oxo_DDCASPT2/cluster/6.52/GMJ_e2_G_M.csv

>>> END FOREACH

>>> END FOREACH

>>> EXPORT i = H

>>> EXPORT j = P

>>> IF (-FILE GMJ_e2_${i}_${j}.csv)

>>> COPY /tmp/6.52/GMJ_RHS_H_P.csv /home/grierjones/DDCASPT2/iron_oxo_DDCASPT2/cluster/6.52/GMJ_RHS_H_P.csv

>>> COPY /tmp/6.52/GMJ_IVECW_H_P.csv /home/grierjones/DDCASPT2/iron_oxo_DDCASPT2/cluster/6.52/GMJ_IVECW_H_P.csv

>>> COPY /tmp/6.52/GMJ_IVECX_H_P.csv /home/grierjones/DDCASPT2/iron_oxo_DDCASPT2/cluster/6.52/GMJ_IVECX_H_P.csv

>>> COPY /tmp/6.52/GMJ_IVECC2_H_P.csv /home/grierjones/DDCASPT2/iron_oxo_DDCASPT2/cluster/6.52/GMJ_IVECC2_H_P.csv

>>> COPY /tmp/6.52/GMJ_e2_H_P.csv /home/grierjones/DDCASPT2/iron_oxo_DDCASPT2/cluster/6.52/GMJ_e2_H_P.csv

>>> END FOREACH

>>> EXPORT j = M

>>> IF (-FILE GMJ_e2_${i}_${j}.csv)

>>> COPY /tmp/6.52/GMJ_RHS_H_M.csv /home/grierjones/DDCASPT2/iron_oxo_DDCASPT2/cluster/6.52/GMJ_RHS_H_M.csv

>>> COPY /tmp/6.52/GMJ_IVECW_H_M.csv /home/grierjones/DDCASPT2/iron_oxo_DDCASPT2/cluster/6.52/GMJ_IVECW_H_M.csv

>>> COPY /tmp/6.52/GMJ_IVECX_H_M.csv /home/grierjones/DDCASPT2/iron_oxo_DDCASPT2/cluster/6.52/GMJ_IVECX_H_M.csv

>>> COPY /tmp/6.52/GMJ_IVECC2_H_M.csv /home/grierjones/DDCASPT2/iron_oxo_DDCASPT2/cluster/6.52/GMJ_IVECC2_H_M.csv

>>> COPY /tmp/6.52/GMJ_e2_H_M.csv /home/grierjones/DDCASPT2/iron_oxo_DDCASPT2/cluster/6.52/GMJ_e2_H_M.csv

>>> END FOREACH

>>> END FOREACH

>>> EXPORT i = A

>>> IF (-FILE GMJ_e2_$i.csv)

>>> COPY /tmp/6.52/GMJ_RHS_A.csv /home/grierjones/DDCASPT2/iron_oxo_DDCASPT2/cluster/6.52/GMJ_RHS_A.csv

>>> COPY /tmp/6.52/GMJ_IVECW_A.csv /home/grierjones/DDCASPT2/iron_oxo_DDCASPT2/cluster/6.52/GMJ_IVECW_A.csv

>>> COPY /tmp/6.52/GMJ_IVECX_A.csv /home/grierjones/DDCASPT2/iron_oxo_DDCASPT2/cluster/6.52/GMJ_IVECX_A.csv

>>> COPY /tmp/6.52/GMJ_IVECC2_A.csv /home/grierjones/DDCASPT2/iron_oxo_DDCASPT2/cluster/6.52/GMJ_IVECC2_A.csv

>>> COPY /tmp/6.52/GMJ_e2_A.csv /home/grierjones/DDCASPT2/iron_oxo_DDCASPT2/cluster/6.52/GMJ_e2_A.csv

>>> END FOREACH

>>> EXPORT i = C

>>> IF (-FILE GMJ_e2_$i.csv)

>>> COPY /tmp/6.52/GMJ_RHS_C.csv /home/grierjones/DDCASPT2/iron_oxo_DDCASPT2/cluster/6.52/GMJ_RHS_C.csv

>>> COPY /tmp/6.52/GMJ_IVECW_C.csv /home/grierjones/DDCASPT2/iron_oxo_DDCASPT2/cluster/6.52/GMJ_IVECW_C.csv

>>> COPY /tmp/6.52/GMJ_IVECX_C.csv /home/grierjones/DDCASPT2/iron_oxo_DDCASPT2/cluster/6.52/GMJ_IVECX_C.csv

>>> COPY /tmp/6.52/GMJ_IVECC2_C.csv /home/grierjones/DDCASPT2/iron_oxo_DDCASPT2/cluster/6.52/GMJ_IVECC2_C.csv

>>> COPY /tmp/6.52/GMJ_e2_C.csv /home/grierjones/DDCASPT2/iron_oxo_DDCASPT2/cluster/6.52/GMJ_e2_C.csv

>>> END FOREACH

>>> EXPORT i = D

>>> IF (-FILE GMJ_e2_$i.csv)

>>> COPY /tmp/6.52/GMJ_RHS_D.csv /home/grierjones/DDCASPT2/iron_oxo_DDCASPT2/cluster/6.52/GMJ_RHS_D.csv

>>> COPY /tmp/6.52/GMJ_IVECW_D.csv /home/grierjones/DDCASPT2/iron_oxo_DDCASPT2/cluster/6.52/GMJ_IVECW_D.csv

>>> COPY /tmp/6.52/GMJ_IVECX_D.csv /home/grierjones/DDCASPT2/iron_oxo_DDCASPT2/cluster/6.52/GMJ_IVECX_D.csv

>>> COPY /tmp/6.52/GMJ_IVECC2_D.csv /home/grierjones/DDCASPT2/iron_oxo_DDCASPT2/cluster/6.52/GMJ_IVECC2_D.csv

>>> COPY /tmp/6.52/GMJ_e2_D.csv /home/grierjones/DDCASPT2/iron_oxo_DDCASPT2/cluster/6.52/GMJ_e2_D.csv

>>> END FOREACH

.########################.
.# Non-zero return code #.
.########################.

    Timing: Wall=401.48 User=397.72 System=3.65
************************************
*** WorkDir at /tmp/6.52 cleaned ***
************************************
