   This run of MOLCAS is using the pymolcas driver

                             OPE
                             OPE          NMOL  CASOP  ENMOLC A   SO
                 OPE        NMOLC        AS  OP EN  MO LC     AS  OP
                OPENM       OL CA        SO  PE NM  OL CA     SOP EN
                OP EN      MO   LC       AS  OP ENMOL  CASO   PENMOL
                OP  EN     MO   LC       AS  OP EN     MO     LC ASO
               OP   E  NMOL  C  AS       OP  EN MO     LC     AS  OP
               OP  E   NMO   LC AS        OPEN  MO     LCASOP EN   M
               O  PEN   MO  LCA  SO
            OPE   NMO   L   CAS    OP
        OPENMOL  CASOP     ENMOL   CASOPE
     OPENMOLCA   SOPENMOLCASOPEN   MOLCASOPE
    OPENMOLCAS   OP           EN   MOL    CAS
    OPENMOLCAS       OP  ENM        O     LCA
    OPENMOLCAS    OPEN  MOLCASO     P  E  NMO
    OPENMOLCAS     OP               E  N  MOL
    OPENMOLCA   SO           PENM   O  L  CAS    OPEN    MO    LCAS
    OPENMOLCA   SOP           ENM   O  L  CAS   OP  EN  MOLC  AS   O
    OPENMOLCA   SOPE           NM      O  LCA   S      OP  EN MO
    OPENMOLC                AS         O  PEN   M      OL  CA  SOPE
    OPENMO        LCASOPE  NMOL        C  ASO   P      ENMOLC     AS
    OPE     NMO      LCA  SO     P     E   NM   OL  CA SO  PE N   MO
          OPENMOLCA            SOPE   NMO        LCAS  O    P  ENMO
     OPENMOLCASOPENMOLCASOPENMOLCASOPENMOLCA
        OPENMOLCASOPENMOLCASOPENMOLCASOPE
            OPENMOLCASOPENMOLCASOPENM
               OPENMOLCASOPENMOLCA        version: 44d3b5344-dirty
                   OPENMOLCASO
                       OPE                tag:

 OpenMolcas is free software; you can redistribute it and/or modify it
 under the terms of the GNU Lesser General Public License version 2.1.
 OpenMolcas is distributed in the hope that it will be useful, but it
 is provided "as is" and without any express or implied warranties.
 For more details see the full text of the license in the file
 LICENSE or in <http://www.gnu.org/licenses/>.

                 Copyright (C) The OpenMolcas Authors
           For the author list and the recommended citation,
                   consult the file CONTRIBUTORS.md

           *************************************************
           * pymolcas version py2.28                       *
           *   build c4a6d18ded8cb6cad61d2372a9abd97c      *
           *   (after the EMIL interpreter by V. Veryazov) *
           *************************************************

configuration info
------------------
C Compiler ID: Intel
C flags: -std=gnu99
Fortran Compiler ID: Intel
Fortran flags: -fpp -i8 -r8 -heap-arrays
Definitions: _MOLCAS_;_I8_;_LINUX_
Parallel: OFF (GA=OFF)


   ------------------------------------------------------------------------------------------------------------
  |
  |              Project: H12_0.99
  |       Submitted from: /home/grierjones/DDCASPT2/hydrogen_comps/minimal_2e_2o/chains/even/H12_chain/H12_0.99
  |         Scratch area: /tmp/H12_0.99
  |      Save outputs to: /home/grierjones/DDCASPT2/hydrogen_comps/minimal_2e_2o/chains/even/H12_chain/H12_0.99
  |               Molcas: /home/grierjones/Test/build
  |
  | Scratch area is empty
  |
  |       MOLCAS_DRIVER = /usr/local/pymolcas
  | MOLCAS_KEEP_WORKDIR = NO
  |  MOLCAS_NEW_WORKDIR = YES
  |       MOLCAS_NPROCS = 1
  |       MOLCAS_SOURCE = /home/grierjones/Test/build
  |    MOLCAS_STRUCTURE = 0
  |
   ------------------------------------------------------------------------------------------------------------

++ ---------   Input file   ---------

&GATEWAY
coord=H12_0.99.xyz
Basis = ANO-RCC-VDZP
Group = nosymm
Expert
End of Input

&SEWARD
End of Input

&MOTRA
Frozen=0

>>> COPY $WorkDir/GMJ_one_int_indx.csv $CurrDir/H12_0.99.GMJ_one_int_indx.csv

>>> COPY $WorkDir/GMJ_one_int.csv $CurrDir/H12_0.99.GMJ_one_int.csv

>>> COPY $WorkDir/GMJ_two_int_indx.csv $CurrDir/H12_0.99.GMJ_two_int_indx.csv

>>> COPY $WorkDir/GMJ_two_int.csv $CurrDir/H12_0.99.GMJ_two_int.csv

&SCF

>>> COPY $WorkDir/H12_0.99.scf.h5 $CurrDir/

&RASSCF
Title= RASSCF
FileOrb
/home/grierjones/DDCASPT2/hydrogen_comps/minimal_2e_2o/chains/even/H12_chain/H12_0.96/H12_0.96.RasOrb

NACTEL
12 0 0
Inactive
0
RAS2
12
Symmetry
1
Spin
1
orblisting
all
ITERation
200 100
CIMX
200
SDAV
500

>>> COPY $WorkDir/H12_0.99.rasscf.h5 $CurrDir/

>>> COPY $WorkDir/GMJ_Fock_MO.csv $CurrDir/H12_0.99.GMJ_Fock_MO.csv

&CASPT2
Frozen
0
Imaginary Shift
0.0

>>> FOREACH i IN (B,E,F,G,H)

  >>> FOREACH j IN (P,M)

    >>> IF (-FILE GMJ_e2_${i}_${j}.csv)

      >>> COPY $WorkDir/GMJ_RHS_${i}_${j}.csv $CurrDir/GMJ_RHS_${i}_${j}.csv

      >>> COPY $WorkDir/GMJ_IVECW_${i}_${j}.csv $CurrDir/GMJ_IVECW_${i}_${j}.csv

      >>> COPY $WorkDir/GMJ_e2_${i}_${j}.csv $CurrDir/GMJ_e2_${i}_${j}.csv

    >>> END IF

  >>> END FOREACH

>>> END FOREACH

>>> FOREACH i IN (A,C,D)

  >>> IF (-FILE GMJ_e2_$i.csv)

    >>> COPY $WorkDir/GMJ_RHS_$i.csv $CurrDir/GMJ_RHS_$i.csv

    >>> COPY $WorkDir/GMJ_IVECW_$i.csv $CurrDir/GMJ_IVECW_$i.csv

    >>> COPY $WorkDir/GMJ_e2_$i.csv $CurrDir/GMJ_e2_$i.csv

  >>> END IF

>>> END FOREACH

-- ----------------------------------

--- Start Module: gateway at Thu Oct 17 12:16:40 2024 ---
 
()()()()()()()()()()()()()()()()()()()()()()()()()()()()()()()()()()()()()()()()()()()()()()()()()()

                                              &GATEWAY

                                   only a single process is used
                       available to each process: 2.0 GB of memory, 1 thread?
()()()()()()()()()()()()()()()()()()()()()()()()()()()()()()()()()()()()()()()()()()()()()()()()()()
 
 ###############################################################################
 ###############################################################################
 ###                                                                         ###
 ###                                                                         ###
 ###                                                                         ###
 ###    WARNING: EXPERT option is ON!                                        ###
 ###                                                                         ###
 ###                                                                         ###
 ###############################################################################
 ###############################################################################
 
++    Symmetry information:
      ---------------------
 
                    Character Table for C1 
 
                             E  
                    a        1  x, y, xy, Rz, z, xz, Ry, yz, Rx, I
--
 
 
++    Basis set information:
      ----------------------
 
 
      Basis set label: H.ANO-RCC...2S1P.
 
      Electronic valence basis set:
      ------------------
      Associated Effective Charge   1.000000 au
      Associated Actual Charge      1.000000 au
      Nuclear Model: Point charge
 
      Shell  nPrim  nBasis  Cartesian Spherical Contaminant
         s       8       2        X                  
         p       4       1        X                  
--
 
 
++    Molecular structure info:
      -------------------------
 
                    ************************************************ 
                    **** Cartesian Coordinates / Bohr, Angstrom **** 
                    ************************************************ 
 
     Center  Label                x              y              z                     x              y              z
        1      H1               0.000000       0.000000       0.000000              0.000000       0.000000       0.000000
        2      H2               0.000000       0.000000       1.866821              0.000000       0.000000       0.987879
        3      H3               0.000000       0.000000       3.733642              0.000000       0.000000       1.975758
        4      H4               0.000000       0.000000       5.600460              0.000000       0.000000       2.963636
        5      H5               0.000000       0.000000       7.467281              0.000000       0.000000       3.951515
        6      H6               0.000000       0.000000       9.334102              0.000000       0.000000       4.939394
        7      H7               0.000000       0.000000      11.200923              0.000000       0.000000       5.927273
        8      H8               0.000000       0.000000      13.067743              0.000000       0.000000       6.915152
        9      H9               0.000000       0.000000      14.934562              0.000000       0.000000       7.903030
       10      H10              0.000000       0.000000      16.801383              0.000000       0.000000       8.890909
       11      H11              0.000000       0.000000      18.668204              0.000000       0.000000       9.878788
       12      H12              0.000000       0.000000      20.535025              0.000000       0.000000      10.866667
 
                    *************************************** 
                    *    InterNuclear Distances / Bohr    * 
                    *************************************** 
 
               1 H1            2 H2            3 H3            4 H4            5 H5            6 H6    
    1 H1       0.000000
    2 H2       1.866821        0.000000
    3 H3       3.733642        1.866821        0.000000
    4 H4       5.600460        3.733640        1.866819        0.000000
    5 H5       7.467281        5.600460        3.733640        1.866821        0.000000
    6 H6       9.334102        7.467281        5.600460        3.733642        1.866821        0.000000
    7 H7      11.200923        9.334102        7.467281        5.600462        3.733642        1.866821
    8 H8      13.067743       11.200923        9.334102        7.467283        5.600462        3.733642
    9 H9      14.934562       13.067742       11.200921        9.334102        7.467281        5.600460
   10 H10     16.801383       14.934562       13.067742       11.200923        9.334102        7.467281
   11 H11     18.668204       16.801383       14.934562       13.067743       11.200923        9.334102
   12 H12     20.535025       18.668204       16.801383       14.934564       13.067743       11.200923
 
               7 H7            8 H8            9 H9           10 H10          11 H11          12 H12   
    7 H7       0.000000
    8 H8       1.866821        0.000000
    9 H9       3.733640        1.866819        0.000000
   10 H10      5.600460        3.733640        1.866821        0.000000
   11 H11      7.467281        5.600460        3.733642        1.866821        0.000000
   12 H12      9.334102        7.467281        5.600462        3.733642        1.866821        0.000000
 
                    ******************************************* 
                    *    InterNuclear Distances / Angstrom    * 
                    ******************************************* 
 
               1 H1            2 H2            3 H3            4 H4            5 H5            6 H6    
    1 H1       0.000000
    2 H2       0.987879        0.000000
    3 H3       1.975758        0.987879        0.000000
    4 H4       2.963636        1.975757        0.987878        0.000000
    5 H5       3.951515        2.963636        1.975757        0.987879        0.000000
    6 H6       4.939394        3.951515        2.963636        1.975758        0.987879        0.000000
    7 H7       5.927273        4.939394        3.951515        2.963637        1.975758        0.987879
    8 H8       6.915152        5.927273        4.939394        3.951516        2.963637        1.975758
    9 H9       7.903030        6.915151        5.927272        4.939394        3.951515        2.963636
   10 H10      8.890909        7.903030        6.915151        5.927273        4.939394        3.951515
   11 H11      9.878788        8.890909        7.903030        6.915152        5.927273        4.939394
   12 H12     10.866667        9.878788        8.890909        7.903031        6.915152        5.927273
 
               7 H7            8 H8            9 H9           10 H10          11 H11          12 H12   
    7 H7       0.000000
    8 H8       0.987879        0.000000
    9 H9       1.975757        0.987878        0.000000
   10 H10      2.963636        1.975757        0.987879        0.000000
   11 H11      3.951515        2.963636        1.975758        0.987879        0.000000
   12 H12      4.939394        3.951515        2.963637        1.975758        0.987879        0.000000
 
                    ************************************** 
                    *    Valence Bond Angles / Degree    * 
                    ************************************** 
                          Atom centers                 Phi
                      1 H1       2 H2       3 H3       180.00
                      2 H2       3 H3       4 H4       180.00
                      3 H3       4 H4       5 H5       180.00
                      4 H4       5 H5       6 H6       180.00
                      5 H5       6 H6       7 H7       180.00
                      6 H6       7 H7       8 H8       180.00
                      7 H7       8 H8       9 H9       180.00
                      8 H8       9 H9      10 H10      180.00
                      9 H9      10 H10     11 H11      180.00
                     10 H10     11 H11     12 H12      180.00
--
 
 
            Nuclear Potential Energy             13.51952676 au
 
 ###############################################################################
 ###############################################################################
 ###                                                                         ###
 ###                                                                         ###
 ###    There were warnings during the execution                             ###
 ###    Please, check the output with care!                                  ###
 ###                                                                         ###
 ###                                                                         ###
 ###############################################################################
 ###############################################################################
--- Stop Module: gateway at Thu Oct 17 12:16:40 2024 /rc=_RC_ALL_IS_WELL_ ---
*** files: xmldump
    saved to directory /home/grierjones/DDCASPT2/hydrogen_comps/minimal_2e_2o/chains/even/H12_chain/H12_0.99

--- Start Module: seward at Thu Oct 17 12:16:40 2024 ---
 
()()()()()()()()()()()()()()()()()()()()()()()()()()()()()()()()()()()()()()()()()()()()()()()()()()

                                              &SEWARD

                                   only a single process is used
                       available to each process: 2.0 GB of memory, 1 thread?
()()()()()()()()()()()()()()()()()()()()()()()()()()()()()()()()()()()()()()()()()()()()()()()()()()
 
 ###############################################################################
 ###############################################################################
 ###                                                                         ###
 ###                                                                         ###
 ###                                                                         ###
 ###    WARNING: EXPERT option is ON!                                        ###
 ###                                                                         ###
 ###                                                                         ###
 ###############################################################################
 ###############################################################################
               SEWARD will generate:
                  Multipole Moment integrals up to order  2
                  Kinetic Energy integrals
                  Nuclear Attraction integrals (point charge)
                  One-Electron Hamiltonian integrals
                  Velocity integrals
                  Relativistic Douglas-Kroll-Hess integrals:
                    - Parametrization         : EXP
                    - DKH order of Hamiltonian: 2
                    - DKH order of Properties : 0
                         - multipole moment operators
                         - electric potential operators
                         - contact operators
                  Atomic mean-field integrals
                  Two-Electron Repulsion integrals
 
                   Integrals are discarded if absolute value <: 0.10E-13
                   Integral cutoff threshold is set to       <: 0.10E-15
 
            Nuclear Potential Energy             13.51952676 au
 
 
      Basis set specifications :
      Symmetry species         a  
      Basis functions           60
 
 
  Input file to MOLDEN was generated!
 
 ###############################################################################
 ###############################################################################
 ###                                                                         ###
 ###                                                                         ###
 ###    There were warnings during the execution                             ###
 ###    Please, check the output with care!                                  ###
 ###                                                                         ###
 ###                                                                         ###
 ###############################################################################
 ###############################################################################
--- Stop Module: seward at Thu Oct 17 12:16:42 2024 /rc=_RC_ALL_IS_WELL_ ---
*** files: H12_0.99.GssOrb H12_0.99.guessorb.h5 H12_0.99.guessorb.molden xmldump
    saved to directory /home/grierjones/DDCASPT2/hydrogen_comps/minimal_2e_2o/chains/even/H12_chain/H12_0.99
--- Module seward spent 1 second ---

*** symbolic link created: INPORB -> H12_0.99.GssOrb
--- Start Module: motra at Thu Oct 17 12:16:42 2024 ---
 
()()()()()()()()()()()()()()()()()()()()()()()()()()()()()()()()()()()()()()()()()()()()()()()()()()

                                               &MOTRA

                                   only a single process is used
                       available to each process: 2.0 GB of memory, 1 thread?
()()()()()()()()()()()()()()()()()()()()()()()()()()()()()()()()()()()()()()()()()()()()()()()()()()
 
 
      *** WARNING: Default frozen orbitals is overwritten by user input.
      *** Default values:   0
 
      Header of the integral files:
      
       Integrals generated by seward 4.2.0  , Thu Oct 17 12:16:40 2024
 
 
      Header of MO coefficients source file:
      *Guess orbitals                                                                 
 
 
      Cartesian coordinates in Angstrom:
      -----------------------------------------------------
      No.  Label        X            Y            Z        
      -----------------------------------------------------
       1   H1         0.00000000   0.00000000   0.00000000
       2   H2         0.00000000   0.00000000   0.98787900
       3   H3         0.00000000   0.00000000   1.97575800
       4   H4         0.00000000   0.00000000   2.96363600
       5   H5         0.00000000   0.00000000   3.95151500
       6   H6         0.00000000   0.00000000   4.93939400
       7   H7         0.00000000   0.00000000   5.92727300
       8   H8         0.00000000   0.00000000   6.91515200
       9   H9         0.00000000   0.00000000   7.90303000
      10   H10        0.00000000   0.00000000   8.89090900
      11   H11        0.00000000   0.00000000   9.87878800
      12   H12        0.00000000   0.00000000  10.86666700
      -----------------------------------------------------
      Nuclear repulsion energy =   13.51952676
 
      Orbital specifications:
      -----------------------
 
      Symmetry species:              1
      Number of basis functions:    60
      Frozen orbitals:               0
      Deleted orbitals:              0
      Number of orbitals used:      60

       SYMMETRY  BASIS FUNCTIONS       ORBITALS      INTEGRALS   CPU(SEC)  I/O(SEC)
 
        1 1 1 1   60  60  60  60    60  60  60  60     1675365       0.00      0.00

       TOTAL CPU TIME(SEC)   17.58TOTAL I/O TIME(SEC)   27.85
 
--- Stop Module: motra at Thu Oct 17 12:17:10 2024 /rc=_RC_ALL_IS_WELL_ ---
*** files: xmldump
    saved to directory /home/grierjones/DDCASPT2/hydrogen_comps/minimal_2e_2o/chains/even/H12_chain/H12_0.99
--- Module motra spent 27 seconds ---

>>> COPY /tmp/H12_0.99/GMJ_one_int_indx.csv /home/grierjones/DDCASPT2/hydrogen_comps/minimal_2e_2o/chains/even/H12_chain/H12_0.99/H12_0.99.GMJ_one_int_indx.csv

>>> COPY /tmp/H12_0.99/GMJ_one_int.csv /home/grierjones/DDCASPT2/hydrogen_comps/minimal_2e_2o/chains/even/H12_chain/H12_0.99/H12_0.99.GMJ_one_int.csv

>>> COPY /tmp/H12_0.99/GMJ_two_int_indx.csv /home/grierjones/DDCASPT2/hydrogen_comps/minimal_2e_2o/chains/even/H12_chain/H12_0.99/H12_0.99.GMJ_two_int_indx.csv

>>> COPY /tmp/H12_0.99/GMJ_two_int.csv /home/grierjones/DDCASPT2/hydrogen_comps/minimal_2e_2o/chains/even/H12_chain/H12_0.99/H12_0.99.GMJ_two_int.csv

*** symbolic link created: INPORB -> H12_0.99.GssOrb
--- Start Module: scf at Thu Oct 17 12:17:10 2024 ---
 
()()()()()()()()()()()()()()()()()()()()()()()()()()()()()()()()()()()()()()()()()()()()()()()()()()

                                                &SCF

                                   only a single process is used
                       available to each process: 2.0 GB of memory, 1 thread?
()()()()()()()()()()()()()()()()()()()()()()()()()()()()()()()()()()()()()()()()()()()()()()()()()()
 
++    Input section:
      --------------
 
      Header of the integral files:
      
       Integrals generated by seward 4.2.0  , Thu Oct 17 12:16:40 2024
 
 
      Cartesian coordinates in Angstrom:
      -----------------------------------------------------
      No.  Label        X            Y            Z        
      -----------------------------------------------------
       1   H1         0.00000000   0.00000000   0.00000000
       2   H2         0.00000000   0.00000000   0.98787900
       3   H3         0.00000000   0.00000000   1.97575800
       4   H4         0.00000000   0.00000000   2.96363600
       5   H5         0.00000000   0.00000000   3.95151500
       6   H6         0.00000000   0.00000000   4.93939400
       7   H7         0.00000000   0.00000000   5.92727300
       8   H8         0.00000000   0.00000000   6.91515200
       9   H9         0.00000000   0.00000000   7.90303000
      10   H10        0.00000000   0.00000000   8.89090900
      11   H11        0.00000000   0.00000000   9.87878800
      12   H12        0.00000000   0.00000000  10.86666700
      -----------------------------------------------------
      Nuclear repulsion energy =   13.51952676
--
 
++    Orbital specifications:
      -----------------------
 
      Symmetry species               1
                                     a
      Frozen orbitals                0
      Occupied orbitals              6
      Secondary orbitals            54
      Deleted orbitals               0
      Total number of orbitals      60
      Number of basis functions     60
--
 
      Molecular charge                           0.000
 
++    Optimization specifications:
      ----------------------------
 
      SCF Algorithm: Conventional
      Minimized density differences are used
      Number of density matrices in core                5
      Maximum number of NDDO SCF iterations           400
      Maximum number of HF SCF iterations             400
      Threshold for SCF energy change            0.10E-08
      Threshold for density matrix               0.10E-03
      Threshold for Fock matrix                  0.15E-03
      Threshold for linear dependence            0.10E-08
      Threshold at which DIIS is turned on       0.15E+00
      Threshold at which QNR/C2DIIS is turned on 0.75E-01
      Threshold for Norm(delta) (QNR/C2DIIS)     0.20E-04
      DIIS extrapolation of the SCF procedure
      All orbitals punched on: SCFORB
--
 
      Input vectors read from INPORB
      Orbital file label: *Guess orbitals
 
 
++ Convergence information
                                   SCF        iterations: Energy and convergence statistics
 
Iter     Tot. SCF        One-elec.       Two-elec.     Energy      Max Dij or  Max Fij      DNorm      TNorm      AccCon     Time
         Energy          Energy          Energy        Change      Delta Norm                                                in Sec.
   1    -6.318818814   -32.734735865    12.896390288   0.00E+00    0.23E+00*   0.19E+00*    0.46E+01   0.22E+02   None         0.
   2    -6.452113335   -33.172326005    13.200685907  -0.13E+00*   0.81E-01*   0.20E-01*    0.21E+01   0.22E+02   EDIIS        0.
   3    -6.458208055   -33.146416765    13.168681946  -0.61E-02*   0.27E-01*   0.61E-02*    0.46E+00   0.22E+02   EDIIS        0.
   4    -6.458992225   -33.155574523    13.177055535  -0.78E-03*   0.10E-01*   0.43E-02*    0.14E+00   0.22E+02   c2DIIS       0.
   5    -6.459203699   -33.155167147    13.176436684  -0.21E-03*   0.23E-02*   0.77E-03*    0.32E-01   0.22E+02   QNRc2DIIS    0.
   6    -6.459212176   -33.155618901    13.176879962  -0.85E-05*   0.19E-02*   0.30E-03*    0.45E-02   0.22E+02   QNRc2DIIS    0.
   7    -6.459214577   -33.155364683    13.176623343  -0.24E-05*   0.13E-03*   0.35E-04     0.82E-03   0.22E+02   QNRc2DIIS    0.
   8    -6.459214599   -33.155338879    13.176597517  -0.22E-07*   0.22E-04*   0.89E-05     0.17E-03   0.22E+02   QNRc2DIIS    0.
   9    -6.459214600   -33.155348569    13.176607206  -0.69E-09    0.93E-06    0.37E-06     0.30E-04   0.22E+02   QNRc2DIIS    0.
 
       Convergence after  9 Macro Iterations
--
 
 *****************************************************************************************************************************
 *                                                                                                                           *
 *                                             SCF/KS-DFT Program, Final results                                             *
 *                                                                                                                           *
 *                                                                                                                           *
 *                                                                                                                           *
 *                                                       Final Results                                                       *
 *                                                                                                                           *
 *****************************************************************************************************************************
 
::    Total SCF energy                                 -6.4592145995
      One-electron energy                             -33.1553485694
      Two-electron energy                              13.1766072065
      Nuclear repulsion energy                         13.5195267634
      Kinetic energy (interpolated)                     6.1626681321
      Virial theorem                                    1.0481198178
      Total spin, S(S+1)                                0.0000000000
      Total spin, S                                     0.0000000000
      Max non-diagonal density matrix element           0.0000010600
      Max non-diagonal Fock matrix element              0.0000000492
 
 
      All orbitals with orbital energies smaller than  E(LUMO)+0.5 are printed
 
++    Molecular orbitals:
      -------------------
 
      Title: SCF orbitals

      Molecular orbitals for symmetry species 1: a  
 
          Orbital            1         2         3         4         5         6         7         8         9        10    
          Energy           -0.7382   -0.7008   -0.6397   -0.5546   -0.4463   -0.3216    0.0093    0.1310    0.1866    0.2389
          Occ. No.          2.0000    2.0000    2.0000    2.0000    2.0000    2.0000    0.0000    0.0000    0.0000    0.0000
 
        1 H1     1s         0.0703   -0.1432    0.2112   -0.2674    0.3205   -0.3303    0.5993   -0.8849    0.1223    0.7951
        2 H1     2s         0.0066   -0.0095    0.0054    0.0010    0.0126   -0.0516    0.3089   -0.6591    0.2697    0.8046
        3 H1     2px        0.0000   -0.0000    0.0000   -0.0000    0.0000   -0.0000    0.0000    0.0000    0.0000   -0.0000
        4 H1     2py        0.0000   -0.0000    0.0000   -0.0000    0.0000   -0.0000    0.0000    0.0000    0.0000   -0.0000
        5 H1     2pz        0.0069   -0.0136    0.0175   -0.0163    0.0115   -0.0057    0.0018   -0.0050   -0.0074    0.0234
        6 H2     1s         0.0910   -0.1817    0.2569   -0.3070    0.3058   -0.1941   -0.3146    0.9621   -0.4112   -1.1781
        7 H2     2s        -0.0228    0.0376   -0.0340   -0.0045    0.0630   -0.0747   -0.1404    0.4875   -0.1023   -0.6732
        8 H2     2px       -0.0000    0.0000    0.0000   -0.0000    0.0000   -0.0000    0.0000   -0.0000   -0.0000   -0.0000
        9 H2     2py       -0.0000    0.0000   -0.0000   -0.0000    0.0000   -0.0000    0.0000   -0.0000    0.0000   -0.0000
       10 H2     2pz        0.0044   -0.0071    0.0021    0.0118   -0.0257    0.0278   -0.0163   -0.0151    0.0047    0.0804
       11 H3     1s         0.1811   -0.2677    0.2088   -0.0112   -0.2665    0.4398   -0.5170    0.0737    0.2200    0.7569
       12 H3     2s        -0.0070    0.0237   -0.0349    0.0355   -0.0615    0.1123   -0.1849   -0.0551    0.2985    0.4465
       13 H3     2px        0.0000    0.0000   -0.0000    0.0000    0.0000   -0.0000    0.0000    0.0000   -0.0000   -0.0000
       14 H3     2py       -0.0000    0.0000   -0.0000   -0.0000    0.0000   -0.0000    0.0000   -0.0000    0.0000   -0.0000
       15 H3     2pz        0.0055   -0.0044   -0.0089    0.0242   -0.0257    0.0125    0.0167   -0.0338   -0.0089    0.0563
       16 H4     1s         0.1996   -0.2640    0.1222    0.1416   -0.3447    0.2838    0.3128   -0.5740   -0.0892    0.0593
       17 H4     2s        -0.0288    0.0198    0.0181   -0.0322   -0.0310    0.0819    0.1060   -0.2613    0.1293   -0.1022
       18 H4     2px       -0.0000   -0.0000    0.0000   -0.0000   -0.0000    0.0000   -0.0000    0.0000   -0.0000   -0.0000
       19 H4     2py       -0.0000    0.0000   -0.0000   -0.0000    0.0000   -0.0000    0.0000   -0.0000    0.0000   -0.0000
       20 H4     2pz        0.0018    0.0050   -0.0197    0.0183    0.0067   -0.0267    0.0285   -0.0143   -0.0155    0.0274
       21 H5     1s         0.2523   -0.1564   -0.1618    0.2920    0.0046   -0.4230    0.5417    0.1396   -0.3006   -0.5804
       22 H5     2s        -0.0198    0.0346   -0.0115   -0.0083    0.0269   -0.1073    0.2181    0.0437    0.0542   -0.4424
       23 H5     2px       -0.0000    0.0000    0.0000    0.0000   -0.0000    0.0000   -0.0000   -0.0000    0.0000   -0.0000
       24 H5     2py       -0.0000    0.0000   -0.0000   -0.0000    0.0000   -0.0000    0.0000    0.0000    0.0000    0.0000
       25 H5     2pz        0.0036    0.0078   -0.0186   -0.0011    0.0260   -0.0192   -0.0207    0.0179   -0.0045    0.0294
       26 H6     1s         0.2593   -0.0996   -0.2390    0.1892    0.2373   -0.3767   -0.4584    0.5698    0.0619    0.3915
       27 H6     2s        -0.0279   -0.0133    0.0325    0.0209    0.0071   -0.1033   -0.1771    0.2799    0.2335    0.0046
       28 H6     2px        0.0000    0.0000    0.0000   -0.0000   -0.0000   -0.0000   -0.0000   -0.0000    0.0000   -0.0000
       29 H6     2py        0.0000    0.0000   -0.0000    0.0000   -0.0000   -0.0000    0.0000    0.0000   -0.0000   -0.0000
       30 H6     2pz       -0.0010    0.0122   -0.0060   -0.0233    0.0128    0.0245   -0.0239   -0.0183    0.0059    0.0308
       31 H7     1s         0.2593    0.0996   -0.2390   -0.1892    0.2373    0.3767   -0.4584   -0.5698    0.0619    0.3915
       32 H7     2s        -0.0279    0.0133    0.0325   -0.0209    0.0071    0.1033   -0.1771   -0.2799    0.2335    0.0046
       33 H7     2px        0.0000   -0.0000   -0.0000    0.0000   -0.0000   -0.0000   -0.0000    0.0000   -0.0000   -0.0000
       34 H7     2py       -0.0000   -0.0000    0.0000    0.0000    0.0000   -0.0000   -0.0000    0.0000    0.0000   -0.0000
       35 H7     2pz        0.0010    0.0122    0.0060   -0.0233   -0.0128    0.0245    0.0239   -0.0183   -0.0059   -0.0308
       36 H8     1s         0.2523    0.1564   -0.1618   -0.2920    0.0046    0.4230    0.5417   -0.1396   -0.3006   -0.5804
       37 H8     2s        -0.0198   -0.0346   -0.0115    0.0083    0.0269    0.1073    0.2181   -0.0437    0.0542   -0.4424
       38 H8     2px       -0.0000    0.0000    0.0000   -0.0000   -0.0000    0.0000    0.0000    0.0000    0.0000   -0.0000
       39 H8     2py        0.0000    0.0000   -0.0000    0.0000   -0.0000    0.0000   -0.0000    0.0000    0.0000    0.0000
       40 H8     2pz       -0.0036    0.0078    0.0186   -0.0011   -0.0260   -0.0192    0.0207    0.0179    0.0045   -0.0294
       41 H9     1s         0.1996    0.2640    0.1222   -0.1416   -0.3447   -0.2838    0.3128    0.5740   -0.0892    0.0593
       42 H9     2s        -0.0288   -0.0198    0.0181    0.0322   -0.0310   -0.0819    0.1060    0.2613    0.1293   -0.1022
       43 H9     2px       -0.0000    0.0000   -0.0000    0.0000    0.0000    0.0000    0.0000    0.0000   -0.0000    0.0000
       44 H9     2py       -0.0000   -0.0000    0.0000    0.0000    0.0000   -0.0000    0.0000   -0.0000   -0.0000   -0.0000
       45 H9     2pz       -0.0018    0.0050    0.0197    0.0183   -0.0067   -0.0267   -0.0285   -0.0143    0.0155   -0.0274
       46 H10    1s         0.1811    0.2677    0.2088    0.0112   -0.2665   -0.4398   -0.5170   -0.0737    0.2200    0.7569
       47 H10    2s        -0.0070   -0.0237   -0.0349   -0.0355   -0.0615   -0.1123   -0.1849    0.0551    0.2985    0.4465
       48 H10    2px        0.0000   -0.0000   -0.0000   -0.0000   -0.0000   -0.0000   -0.0000    0.0000   -0.0000   -0.0000
       49 H10    2py       -0.0000    0.0000   -0.0000   -0.0000   -0.0000    0.0000   -0.0000   -0.0000    0.0000    0.0000
       50 H10    2pz       -0.0055   -0.0044    0.0089    0.0242    0.0257    0.0125   -0.0167   -0.0338    0.0089   -0.0563
       51 H11    1s         0.0910    0.1817    0.2569    0.3070    0.3057    0.1941   -0.3146   -0.9621   -0.4112   -1.1781
       52 H11    2s        -0.0228   -0.0376   -0.0340    0.0045    0.0630    0.0747   -0.1404   -0.4875   -0.1023   -0.6732
       53 H11    2px       -0.0000    0.0000    0.0000    0.0000    0.0000   -0.0000    0.0000    0.0000   -0.0000    0.0000
       54 H11    2py       -0.0000    0.0000    0.0000    0.0000    0.0000    0.0000   -0.0000    0.0000   -0.0000   -0.0000
       55 H11    2pz       -0.0044   -0.0071   -0.0021    0.0118    0.0257    0.0278    0.0163   -0.0151   -0.0047   -0.0804
       56 H12    1s         0.0703    0.1432    0.2112    0.2674    0.3205    0.3303    0.5993    0.8849    0.1223    0.7951
       57 H12    2s         0.0066    0.0095    0.0054   -0.0010    0.0126    0.0516    0.3089    0.6591    0.2697    0.8047
       58 H12    2px        0.0000    0.0000    0.0000    0.0000   -0.0000   -0.0000   -0.0000    0.0000   -0.0000    0.0000
       59 H12    2py        0.0000   -0.0000    0.0000    0.0000    0.0000   -0.0000    0.0000    0.0000    0.0000   -0.0000
       60 H12    2pz       -0.0069   -0.0136   -0.0175   -0.0163   -0.0115   -0.0057   -0.0018   -0.0050    0.0074   -0.0234
 
          Orbital           11        12        13    
          Energy            0.2430    0.3672    0.3678
          Occ. No.          0.0000    0.0000    0.0000
 
        1 H1     1s         0.3284   -0.7120    0.8149
        2 H1     2s        -0.0678   -0.8878    0.2506
        3 H1     2px       -0.0000    0.0000   -0.0000
        4 H1     2py       -0.0000    0.0000   -0.0000
        5 H1     2pz        0.0081   -0.0536   -0.0066
        6 H2     1s        -0.0341    1.1341   -0.9864
        7 H2     2s        -0.2339    0.7978   -0.8666
        8 H2     2px        0.0000    0.0000    0.0000
        9 H2     2py       -0.0000    0.0000   -0.0000
       10 H2     2pz       -0.0131   -0.1443   -0.0306
       11 H3     1s        -0.3295   -1.2860    0.1839
       12 H3     2s        -0.4300   -0.6402   -0.1003
       13 H3     2px        0.0000    0.0000    0.0000
       14 H3     2py       -0.0000    0.0000   -0.0000
       15 H3     2pz        0.0016   -0.0475   -0.0438
       16 H4     1s         0.5048    0.9910    0.5970
       17 H4     2s         0.0525    0.8594    0.2866
       18 H4     2px        0.0000    0.0000    0.0000
       19 H4     2py       -0.0000    0.0000   -0.0000
       20 H4     2pz       -0.0255   -0.0032   -0.1032
       21 H5     1s        -0.0423    0.0735   -0.8750
       22 H5     2s        -0.1771    0.2411   -0.3550
       23 H5     2px        0.0000    0.0000   -0.0000
       24 H5     2py       -0.0000    0.0000   -0.0000
       25 H5     2pz       -0.0618    0.0187   -0.0766
       26 H6     1s        -0.3485   -0.7523    0.4959
       27 H6     2s        -0.2302   -0.3213    0.5377
       28 H6     2px        0.0000    0.0000   -0.0000
       29 H6     2py       -0.0000    0.0000   -0.0000
       30 H6     2pz       -0.0518    0.0846   -0.0070
       31 H7     1s         0.3485    0.7523    0.4959
       32 H7     2s         0.2302    0.3213    0.5377
       33 H7     2px        0.0000    0.0000   -0.0000
       34 H7     2py       -0.0000    0.0000   -0.0000
       35 H7     2pz       -0.0518    0.0846    0.0070
       36 H8     1s         0.0424   -0.0734   -0.8750
       37 H8     2s         0.1771   -0.2411   -0.3550
       38 H8     2px       -0.0000    0.0000    0.0000
       39 H8     2py        0.0000    0.0000   -0.0000
       40 H8     2pz       -0.0618    0.0187    0.0766
       41 H9     1s        -0.5048   -0.9910    0.5969
       42 H9     2s        -0.0525   -0.8594    0.2865
       43 H9     2px        0.0000   -0.0000   -0.0000
       44 H9     2py       -0.0000    0.0000   -0.0000
       45 H9     2pz       -0.0255   -0.0032    0.1032
       46 H10    1s         0.3295    1.2860    0.1840
       47 H10    2s         0.4300    0.6402   -0.1002
       48 H10    2px        0.0000   -0.0000   -0.0000
       49 H10    2py        0.0000    0.0000   -0.0000
       50 H10    2pz        0.0016   -0.0475    0.0438
       51 H11    1s         0.0341   -1.1340   -0.9865
       52 H11    2s         0.2340   -0.7977   -0.8667
       53 H11    2px        0.0000    0.0000    0.0000
       54 H11    2py       -0.0000    0.0000   -0.0000
       55 H11    2pz       -0.0131   -0.1443    0.0306
       56 H12    1s        -0.3284    0.7120    0.8150
       57 H12    2s         0.0678    0.8878    0.2507
       58 H12    2px        0.0000   -0.0000   -0.0000
       59 H12    2py        0.0000    0.0000   -0.0000
       60 H12    2pz        0.0081   -0.0536    0.0066
--
 
 
++    Molecular charges:
      ------------------
 
      Mulliken charges per centre and basis function type
      ---------------------------------------------------
 
                H1      H2      H3      H4      H5      H6      H7      H8      H9      H10     H11     H12   
      1s       1.0180  0.9702  1.0245  0.9713  1.0029  0.9937  0.9937  1.0029  0.9713  1.0245  0.9702  1.0180
      2s      -0.0005 -0.0258 -0.0811 -0.0455 -0.0503 -0.0486 -0.0486 -0.0503 -0.0455 -0.0811 -0.0258 -0.0005
      2px      0.0000  0.0000  0.0000  0.0000  0.0000  0.0000 -0.0000  0.0000  0.0000  0.0000  0.0000  0.0000
      2pz      0.0212  0.0515  0.0503  0.0499  0.0489  0.0495  0.0495  0.0489  0.0499  0.0503  0.0515  0.0212
      2py      0.0000  0.0000  0.0000  0.0000  0.0000  0.0000  0.0000 -0.0000  0.0000  0.0000  0.0000  0.0000
      Total    1.0387  0.9959  0.9937  0.9757  1.0015  0.9946  0.9946  1.0015  0.9757  0.9937  0.9959  1.0387
 
      N-E     -0.0387  0.0041  0.0063  0.0243 -0.0015  0.0054  0.0054 -0.0015  0.0243  0.0063  0.0041 -0.0387
 
      Total electronic charge=   12.000000
 
      Total            charge=   -0.000000
--
 
 
  Input file to MOLDEN was generated!
 
 
++    Static properties:
      ------------------
 
 
      LoProp Charges per center
 

                   H1       H2       H3       H4       H5       H6       H7       H8       H9       H10   
      Nuclear      1.0000   1.0000   1.0000   1.0000   1.0000   1.0000   1.0000   1.0000   1.0000   1.0000
      Electronic  -1.0346  -0.9864  -0.9987  -0.9883  -0.9982  -0.9939  -0.9939  -0.9982  -0.9883  -0.9987
 
      Total       -0.0346   0.0136   0.0013   0.0117   0.0018   0.0061   0.0061   0.0018   0.0117   0.0013
 

                   H11      H12   
      Nuclear      1.0000   1.0000
      Electronic  -0.9864  -1.0346
 
      Total        0.0136  -0.0346
--
 
 
++    Natural Bond Order analysis
      ---------------------------
      Based on LoProp computed density
      -------------------------------------------------------------------------------------
      Atom A       Atom B       Bond Order | Atom A       Atom B       Bond Order
        H1           H2             0.985  |   H7           H8             0.939
        H3           H4             0.948  |   H9           H10            0.948
        H5           H6             0.939  |   H11          H12            0.985
      -------------------------------------------------------------------------------------
      NBO located     11.488 electrons involved in    6 bonds.
      The remaining    0.512 electrons are to be considered as diffuse
--
 
 
++    Molecular properties:
      ---------------------
 
      Charge (e):
                      =   -0.0000
      Dipole Moment (Debye):
      Origin of the operator (Ang)=    0.0000    0.0000    0.0000
                   X= -2.4438E-13               Y= -1.1660E-13               Z= -2.4832E-06           Total=  2.4832E-06
      Quadrupole Moment (Debye*Ang):
      Origin of the operator (Ang)=    0.0000    0.0000    5.4333
                  XX= -1.3361E+01              XY= -2.9562E-27              XZ=  1.3146E-12              YY= -1.3361E+01
                  YZ=  6.9912E-13              ZZ= -1.8237E+01
      In traceless form (Debye*Ang)
                  XX=  2.4378E+00              XY= -4.4344E-27              XZ=  1.9719E-12              YY=  2.4378E+00
                  YZ=  1.0487E-12              ZZ= -4.8757E+00
--
 
 
  Input file to MOLDEN was generated!
 
 ###############################################################################
 ###############################################################################
 ###                                                                         ###
 ###                                                                         ###
 ###    RunFile label nBas                                                   ###
 ###    was used       78 times                                              ###
 ###                                                                         ###
 ###                                                                         ###
 ###############################################################################
 ###############################################################################
--- Stop Module: scf at Thu Oct 17 12:17:10 2024 /rc=_RC_ALL_IS_WELL_ ---
*** files: H12_0.99.LprOrb H12_0.99.LoProp.molden H12_0.99.scf.molden H12_0.99.ScfOrb H12_0.99.scf.h5 xmldump
    saved to directory /home/grierjones/DDCASPT2/hydrogen_comps/minimal_2e_2o/chains/even/H12_chain/H12_0.99

>>> COPY /tmp/H12_0.99/H12_0.99.scf.h5 /home/grierjones/DDCASPT2/hydrogen_comps/minimal_2e_2o/chains/even/H12_chain/H12_0.99/

*** symbolic link created: INPORB -> H12_0.99.ScfOrb
--- Start Module: rasscf at Thu Oct 17 12:17:10 2024 ---
 
()()()()()()()()()()()()()()()()()()()()()()()()()()()()()()()()()()()()()()()()()()()()()()()()()()

                                              &RASSCF

                                   only a single process is used
                       available to each process: 2.0 GB of memory, 1 thread?
()()()()()()()()()()()()()()()()()()()()()()()()()()()()()()()()()()()()()()()()()()()()()()()()()()
 
 
      Header of the ONEINT file:
      --------------------------
      
      Integrals generated by seward 4.2.0  , Thu Oct 17 12:16:40 2024
 
 
      OrdInt status: non-squared
 
 
      Cartesian coordinates in Angstrom:
      -----------------------------------------------------
      No.  Label        X            Y            Z        
      -----------------------------------------------------
       1   H1         0.00000000   0.00000000   0.00000000
       2   H2         0.00000000   0.00000000   0.98787900
       3   H3         0.00000000   0.00000000   1.97575800
       4   H4         0.00000000   0.00000000   2.96363600
       5   H5         0.00000000   0.00000000   3.95151500
       6   H6         0.00000000   0.00000000   4.93939400
       7   H7         0.00000000   0.00000000   5.92727300
       8   H8         0.00000000   0.00000000   6.91515200
       9   H9         0.00000000   0.00000000   7.90303000
      10   H10        0.00000000   0.00000000   8.89090900
      11   H11        0.00000000   0.00000000   9.87878800
      12   H12        0.00000000   0.00000000  10.86666700
      -----------------------------------------------------
      Nuclear repulsion energy =   13.51952676
 
++    Wave function specifications:
      -----------------------------
 
      Number of closed shell electrons           0
      Number of electrons in active shells      12
      Max number of holes in RAS1 space          0
      Max nr of electrons in RAS3 space          0
      Number of inactive orbitals                0
      Number of active orbitals                 12
      Number of secondary orbitals              48
      Spin quantum number                      0.0
      State symmetry                             1
--
 
++    Orbital specifications:
      -----------------------
 
      Symmetry species                           1
                                                 a
      Frozen orbitals                            0
      Inactive orbitals                          0
      Active orbitals                           12
      RAS1 orbitals                              0
      RAS2 orbitals                             12
      RAS3 orbitals                              0
      Secondary orbitals                        48
      Deleted orbitals                           0
      Number of basis functions                 60
--
 
++    CI expansion specifications:
      ----------------------------
 
      Number of CSFs                        226512
      Number of determinants                427350
      Number of root(s) required                 1
      Root chosen for geometry opt.              1
      CI root used                               1
         
      highest root included in the CI            1
      max. size of the explicit Hamiltonian    500
--
 
++    Optimization specifications:
      ----------------------------
 
      RASSCF algorithm: Conventional
      Maximum number of macro iterations       200
      Maximum number of SX iterations          100
      Threshold for RASSCF energy            0.100E-07
      Threshold for max MO rotation          0.100E+00
      Threshold for max BLB element          0.100E-03
      Level shift parameter                  0.500E+00
      Make Quasi-Newton update
--
 
      The MO-coefficients are taken from the file:
      /home/grierjones/DDCASPT2/hydrogen_comps/minimal_2e_2o/chains/even/H12_chain/H12_0.96/H12_0.96.RasOrb                           
      Title: RASSCF average (pseudo-natural) orbitals                                      
 
      Total molecular charge    0.00
 
      ************************************************************************************************************************
      *                                                                                                                      *
      *                                            Wave function control section                                             *
      *                                                                                                                      *
      ************************************************************************************************************************
 
 
                                         RASSCF iterations: Energy and convergence statistics
                                         ----------------------------------------------------
 
      Iter CI   SX   CI       RASSCF       Energy    max ROT     max BLB   max BLB  Level Ln srch  Step   QN   Walltime
          iter iter root      energy       change     param      element    value   shift minimum  type update hh:mm:ss
 Nr of preliminary CI iterations:   6
        1   1    4    1    -6.61995395    0.00E+00   0.59E-02    1  13 1 -0.11E-01*  0.09   0.00    SX    NO    0:00:07
        2   1    4    1    -6.62032455   -0.37E-03*  0.16E-02    1  13 1 -0.31E-02*  0.08   0.00    SX    NO    0:00:02
        3   1    4    1    -6.62034354   -0.19E-04*  0.42E-03    1  13 1 -0.82E-03*  0.08   0.00    SX    NO    0:00:02
        4   6    4    1    -6.62035183   -0.83E-05* -0.76E-03    1  13 1 -0.30E-03*  0.08   0.00    SX    NO    0:00:05
        5   3    3    1    -6.62035255   -0.71E-06* -0.37E-03    1  13 1 -0.85E-04   0.08   1.48    LS   YES    0:00:03
        6   4    3    1    -6.62035264   -0.91E-07* -0.21E-03    4  58 1 -0.42E-04   0.08   1.04    QN   YES    0:00:04
        7   3    3    1    -6.62035268   -0.39E-07* -0.18E-03    1  13 1  0.16E-04   0.08   1.87    LS   YES    0:00:03
        8   3    3    1    -6.62035269   -0.11E-07*  0.51E-04    6  54 1  0.26E-04   0.08   1.04    QN   YES    0:00:03
        9   1    3    1    -6.62035269   -0.25E-08  -0.20E-04    6  54 1  0.52E-05   0.08   1.24    QN   YES    0:00:02
      Convergence after  9 iterations
       10   1    3    1    -6.62035269   -0.14E-09  -0.20E-04    6  54 1 -0.77E-06   0.08   1.24    QN   YES    0:00:02
 
      ************************************************************************************************************************
                                                      Wave function printout:
                       occupation of active orbitals, and spin coupling of open shells (u,d: Spin up or down)
      ************************************************************************************************************************
 
      Note: transformation to natural orbitals
      has been made, which may change the order of the CSFs.
 
      printout of CI-coefficients larger than  0.05 for root  1
      energy=      -6.620353
      conf/sym  111111111111     Coeff  Weight
             1  222222000000  -0.91223 0.83216
            43  222220002000   0.18790 0.03531
            47  222220000200   0.05004 0.00250
            67  2222ud00ud00   0.12986 0.01686
            83  222u2du0d000  -0.08472 0.00718
           105  22u22d0ud000  -0.06387 0.00408
           134  2u222d00u0d0  -0.05294 0.00280
           160  u2222d00u00d   0.05120 0.00262
           169  222202002000   0.06270 0.00393
           173  222202000200   0.06199 0.00384
           191  222ud2u00d00  -0.05726 0.00328
           484  2222uu00dd00  -0.08295 0.00688
           495  222u2ud0d000  -0.05295 0.00280
 
      Natural orbitals and occupation numbers for root  1
      sym 1:   1.979873   1.975126   1.966622   1.951402   1.921562   1.850442   0.046204   0.028445   0.165713   0.081671
               0.018943   0.013996
 
      ************************************************************************************************************************
      *                                                                                                                      *
      *                                                    Final results                                                     *
      *                                                                                                                      *
      ************************************************************************************************************************
 
 
++    Wave function specifications:
      -----------------------------
 
      Number of closed shell electrons           0
      Number of electrons in active shells      12
      Max number of holes in RAS1 space          0
      Max nr of electrons in RAS3 space          0
      Number of inactive orbitals                0
      Number of active orbitals                 12
      Number of secondary orbitals              48
      Spin quantum number                      0.0
      State symmetry                             1
--
 
++    Orbital specifications:
      -----------------------
 
      Symmetry species                           1
                                                 a
      Frozen orbitals                            0
      Inactive orbitals                          0
      Active orbitals                           12
      RAS1 orbitals                              0
      RAS2 orbitals                             12
      RAS3 orbitals                              0
      Secondary orbitals                        48
      Deleted orbitals                           0
      Number of basis functions                 60
--
 
++    CI expansion specifications:
      ----------------------------
 
      Number of CSFs                        226512
      Number of determinants                427350
      Number of root(s) required                 1
      CI root used                               1
      highest root included in the CI            1
      Root passed to geometry opt.               1
--
 
++    Final optimization conditions:
      ------------------------------
 
      Average CI energy                              -6.62035269
      RASSCF energy for state  1                     -6.62035269
      Super-CI energy                                -0.00000000
      RASSCF energy change                            0.00000000
      Max change in MO coefficients              -0.107E-03
      Max non-diagonal density matrix element    -0.200E-04
      Maximum BLB matrix element                 -0.773E-06
      (orbital pair   6,  54 in symmetry   1)
      Norm of electronic gradient            0.136E-05
--
 
 
      Final state energy(ies):
      ------------------------
 
::    RASSCF root number  1 Total energy:     -6.62035269
 
++    Molecular orbitals:
      -------------------
 
      Pseudonatural active orbitals and approximate occupation numbers
 
 
 
 
      Molecular orbitals for symmetry species 1: a  
 
 
      Orbital                1         2         3         4         5         6         7         8         9        10
      Energy            0.0000    0.0000    0.0000    0.0000    0.0000    0.0000    0.0000    0.0000    0.0000    0.0000
      Occ. No.          1.9799    1.9751    1.9666    1.9514    1.9216    1.8504    0.0462    0.0284    0.1657    0.0817
 
    1 H1     1s         0.0698    0.1498    0.2242   -0.2822    0.3159   -0.3315    0.5573    0.5819   -0.3735   -0.4844
    2 H1     2s         0.0060    0.0093    0.0056    0.0002    0.0074   -0.0429    0.0027    0.0456    0.0118    0.0193
    3 H1     2px       -0.0000    0.0000   -0.0000    0.0000   -0.0000    0.0000    0.0000    0.0000   -0.0000   -0.0000
    4 H1     2py       -0.0000   -0.0000    0.0000   -0.0000   -0.0000   -0.0000    0.0000    0.0000   -0.0000   -0.0000
    5 H1     2pz        0.0057    0.0119    0.0154   -0.0135    0.0078   -0.0018   -0.0084   -0.0062    0.0045    0.0079
    6 H2     1s         0.0943    0.1911    0.2660   -0.3001    0.2750   -0.1614   -0.6760   -0.9665    0.0553    0.3392
    7 H2     2s        -0.0209   -0.0378   -0.0391    0.0075    0.0435   -0.0610   -0.0651   -0.1932   -0.0578   -0.0221
    8 H2     2px        0.0000   -0.0000   -0.0000   -0.0000    0.0000   -0.0000   -0.0000    0.0000   -0.0000   -0.0000
    9 H2     2py        0.0000   -0.0000   -0.0000    0.0000    0.0000   -0.0000   -0.0000    0.0000    0.0000   -0.0000
   10 H2     2pz        0.0044    0.0077    0.0033    0.0102   -0.0233    0.0274   -0.0123    0.0112    0.0344    0.0307
   11 H3     1s         0.1743    0.2643    0.2106   -0.0090   -0.2481    0.4387    0.1345    0.8255    0.4968    0.3509
   12 H3     2s        -0.0105   -0.0271   -0.0338    0.0288   -0.0407    0.0930    0.0265    0.1924    0.0579    0.0385
   13 H3     2px        0.0000    0.0000    0.0000    0.0000   -0.0000    0.0000   -0.0000   -0.0000   -0.0000    0.0000
   14 H3     2py        0.0000    0.0000    0.0000    0.0000    0.0000    0.0000   -0.0000   -0.0000   -0.0000   -0.0000
   15 H3     2pz        0.0038    0.0023   -0.0102    0.0241   -0.0240    0.0095    0.0418    0.0308   -0.0115   -0.0325
   16 H4     1s         0.2010    0.2561    0.0967    0.1733   -0.3480    0.2564    0.5515   -0.2401   -0.2495   -0.6423
   17 H4     2s        -0.0278   -0.0247    0.0070   -0.0250   -0.0194    0.0638    0.1331   -0.0340   -0.0043   -0.0964
   18 H4     2px       -0.0000   -0.0000   -0.0000   -0.0000    0.0000   -0.0000    0.0000    0.0000   -0.0000   -0.0000
   19 H4     2py       -0.0000   -0.0000   -0.0000   -0.0000   -0.0000   -0.0000    0.0000    0.0000   -0.0000    0.0000
   20 H4     2pz        0.0027   -0.0030   -0.0174    0.0171    0.0052   -0.0263   -0.0370   -0.0409   -0.0308   -0.0019
   21 H5     1s         0.2515    0.1650   -0.1469    0.2765   -0.0160   -0.4186   -0.7956   -0.5077   -0.4437    0.1396
   22 H5     2s        -0.0225   -0.0294   -0.0010   -0.0201    0.0183   -0.0861   -0.1651   -0.1278   -0.0308    0.0554
   23 H5     2px       -0.0000   -0.0000   -0.0000    0.0000   -0.0000    0.0000   -0.0000   -0.0000    0.0000   -0.0000
   24 H5     2py        0.0000    0.0000    0.0000    0.0000    0.0000    0.0000    0.0000   -0.0000    0.0000   -0.0000
   25 H5     2pz        0.0021   -0.0075   -0.0158   -0.0033    0.0264   -0.0172   -0.0091    0.0351    0.0210    0.0394
   26 H6     1s         0.2643    0.0896   -0.2348    0.1596    0.2572   -0.3608    0.3751    0.9880    0.3621    0.5055
   27 H6     2s        -0.0288    0.0064    0.0327    0.0060    0.0032   -0.0819    0.0593    0.2752    0.0175    0.0813
   28 H6     2px        0.0000   -0.0000    0.0000   -0.0000   -0.0000   -0.0000   -0.0000    0.0000   -0.0000    0.0000
   29 H6     2py       -0.0000   -0.0000   -0.0000    0.0000   -0.0000   -0.0000   -0.0000    0.0000   -0.0000   -0.0000
   30 H6     2pz        0.0005   -0.0103   -0.0062   -0.0208    0.0144    0.0237    0.0354   -0.0215    0.0283   -0.0241
   31 H7     1s         0.2643   -0.0896   -0.2348   -0.1596    0.2572    0.3608    0.3751   -0.9880    0.3621   -0.5055
   32 H7     2s        -0.0288   -0.0064    0.0327   -0.0060    0.0032    0.0819    0.0593   -0.2752    0.0175   -0.0813
   33 H7     2px       -0.0000    0.0000    0.0000    0.0000    0.0000    0.0000    0.0000    0.0000    0.0000   -0.0000
   34 H7     2py       -0.0000    0.0000    0.0000   -0.0000    0.0000    0.0000   -0.0000   -0.0000    0.0000    0.0000
   35 H7     2pz       -0.0005   -0.0103    0.0062   -0.0208   -0.0144    0.0237   -0.0354   -0.0215   -0.0283   -0.0241
   36 H8     1s         0.2515   -0.1650   -0.1469   -0.2765   -0.0160    0.4186   -0.7956    0.5077   -0.4437   -0.1396
   37 H8     2s        -0.0225    0.0294   -0.0010    0.0201    0.0183    0.0861   -0.1651    0.1278   -0.0308   -0.0554
   38 H8     2px        0.0000   -0.0000    0.0000    0.0000    0.0000    0.0000    0.0000   -0.0000   -0.0000    0.0000
   39 H8     2py       -0.0000    0.0000   -0.0000   -0.0000   -0.0000    0.0000    0.0000    0.0000   -0.0000   -0.0000
   40 H8     2pz       -0.0021   -0.0075    0.0158   -0.0033   -0.0264   -0.0172    0.0091    0.0351   -0.0210    0.0394
   41 H9     1s         0.2010   -0.2561    0.0967   -0.1733   -0.3480   -0.2564    0.5515    0.2401   -0.2495    0.6423
   42 H9     2s        -0.0278    0.0247    0.0070    0.0250   -0.0194   -0.0638    0.1331    0.0340   -0.0043    0.0964
   43 H9     2px        0.0000   -0.0000   -0.0000   -0.0000   -0.0000   -0.0000   -0.0000    0.0000    0.0000   -0.0000
   44 H9     2py       -0.0000   -0.0000    0.0000    0.0000   -0.0000   -0.0000    0.0000   -0.0000   -0.0000   -0.0000
   45 H9     2pz       -0.0027   -0.0030    0.0174    0.0171   -0.0052   -0.0263    0.0370   -0.0409    0.0308   -0.0019
   46 H10    1s         0.1743   -0.2643    0.2106    0.0090   -0.2481   -0.4387    0.1345   -0.8256    0.4968   -0.3509
   47 H10    2s        -0.0105    0.0271   -0.0338   -0.0288   -0.0407   -0.0930    0.0265   -0.1924    0.0579   -0.0385
   48 H10    2px        0.0000    0.0000   -0.0000   -0.0000    0.0000    0.0000    0.0000   -0.0000   -0.0000    0.0000
   49 H10    2py        0.0000   -0.0000   -0.0000   -0.0000   -0.0000    0.0000   -0.0000    0.0000   -0.0000    0.0000
   50 H10    2pz       -0.0038    0.0023    0.0102    0.0241    0.0240    0.0095   -0.0418    0.0308    0.0115   -0.0325
   51 H11    1s         0.0943   -0.1911    0.2660    0.3001    0.2750    0.1614   -0.6760    0.9665    0.0553   -0.3392
   52 H11    2s        -0.0209    0.0378   -0.0391   -0.0075    0.0435    0.0610   -0.0651    0.1932   -0.0578    0.0221
   53 H11    2px       -0.0000    0.0000    0.0000   -0.0000   -0.0000   -0.0000    0.0000   -0.0000    0.0000   -0.0000
   54 H11    2py        0.0000    0.0000   -0.0000    0.0000    0.0000    0.0000    0.0000   -0.0000    0.0000   -0.0000
   55 H11    2pz       -0.0044    0.0077   -0.0033    0.0102    0.0233    0.0274    0.0123    0.0112   -0.0344    0.0307
   56 H12    1s         0.0698   -0.1498    0.2242    0.2822    0.3159    0.3315    0.5573   -0.5819   -0.3735    0.4844
   57 H12    2s         0.0060   -0.0093    0.0056   -0.0002    0.0074    0.0429    0.0027   -0.0456    0.0118   -0.0193
   58 H12    2px       -0.0000   -0.0000   -0.0000    0.0000    0.0000   -0.0000    0.0000   -0.0000    0.0000   -0.0000
   59 H12    2py       -0.0000   -0.0000   -0.0000   -0.0000    0.0000    0.0000   -0.0000    0.0000   -0.0000    0.0000
   60 H12    2pz       -0.0057    0.0119   -0.0154   -0.0135   -0.0078   -0.0018    0.0084   -0.0062   -0.0045    0.0079
 
 
      Orbital               11        12        13        14        15        16        17        18        19        20
      Energy            0.0000    0.0000    0.1916    0.2323    0.2960    0.3955    0.5278    0.5278    0.5489    0.5744
      Occ. No.          0.0189    0.0140    0.0000    0.0000    0.0000    0.0000    0.0000    0.0000    0.0000    0.0000
 
    1 H1     1s        -0.5328   -0.3481   -0.0808   -0.0515   -0.1735    0.5411    0.0000   -0.0000   -0.9756    0.0000
    2 H1     2s        -0.0818   -0.0779    0.0998    0.2934   -0.5938    0.9119    0.0000   -0.0000   -1.1711    0.0000
    3 H1     2px       -0.0000    0.0000    0.0000    0.0000    0.0000   -0.0000   -0.0502    0.0525   -0.0000   -0.1471
    4 H1     2py       -0.0000   -0.0000    0.0000    0.0000    0.0000   -0.0000    0.0525    0.0502    0.0000    0.0203
    5 H1     2pz        0.0016   -0.0019   -0.0075    0.0033   -0.0398    0.0890    0.0000   -0.0000   -0.1257    0.0000
    6 H2     1s         1.0772    0.7955   -0.0506   -0.1192    0.2153   -0.4095   -0.0000    0.0000    0.8306   -0.0000
    7 H2     2s         0.3113    0.2866    0.1120    0.1548   -0.0410   -0.3059   -0.0000    0.0000    0.9226   -0.0000
    8 H2     2px       -0.0000   -0.0000   -0.0000   -0.0000    0.0000   -0.0000   -0.0859    0.0897   -0.0000   -0.2263
    9 H2     2py       -0.0000   -0.0000    0.0000    0.0000   -0.0000   -0.0000    0.0897    0.0859    0.0000    0.0312
   10 H2     2pz       -0.0241   -0.0191   -0.0083    0.0238   -0.0976    0.1727    0.0000   -0.0000   -0.2002    0.0000
   11 H3     1s        -1.3835   -1.2278   -0.0641    0.0188   -0.1406    0.1581    0.0000    0.0000   -0.0077    0.0000
   12 H3     2s        -0.4351   -0.4686    0.1449    0.2683   -0.2276   -0.0230    0.0000    0.0000    0.3379    0.0000
   13 H3     2px        0.0000   -0.0000   -0.0000   -0.0000    0.0000   -0.0000   -0.1209    0.1262   -0.0000   -0.2671
   14 H3     2py        0.0000    0.0000    0.0000    0.0000   -0.0000    0.0000    0.1262    0.1209   -0.0000    0.0369
   15 H3     2pz       -0.0072    0.0068   -0.0176    0.0132   -0.0693    0.0798   -0.0000    0.0000    0.0142   -0.0000
   16 H4     1s         1.3334    1.5605   -0.0782   -0.1015    0.1012   -0.1802   -0.0000    0.0000    0.2833   -0.0000
   17 H4     2s         0.4362    0.6263    0.1564    0.1304    0.1273   -0.4680   -0.0000    0.0000    0.5073   -0.0000
   18 H4     2px       -0.0000   -0.0000   -0.0000   -0.0000    0.0000   -0.0000   -0.1487    0.1552   -0.0000   -0.2478
   19 H4     2py       -0.0000   -0.0000    0.0000    0.0000   -0.0000    0.0000    0.1552    0.1487    0.0000    0.0342
   20 H4     2pz        0.0033   -0.0217   -0.0119    0.0368   -0.0862    0.0401   -0.0000    0.0000    0.0907   -0.0000
   21 H5     1s        -0.9497   -1.8037   -0.0800    0.0258   -0.0425   -0.1027    0.0000   -0.0000   -0.0608    0.0000
   22 H5     2s        -0.3254   -0.7285    0.1791    0.1598    0.1420   -0.3325    0.0000   -0.0000   -0.1460    0.0000
   23 H5     2px       -0.0000    0.0000    0.0000    0.0000    0.0000   -0.0000   -0.1686    0.1760   -0.0000   -0.1746
   24 H5     2py        0.0000   -0.0000    0.0000    0.0000   -0.0000   -0.0000    0.1760    0.1686    0.0000    0.0241
   25 H5     2pz       -0.0339   -0.0003   -0.0097    0.0441   -0.0531   -0.0531   -0.0000    0.0000    0.1554   -0.0000
   26 H6     1s         0.3547    1.9234   -0.0851   -0.0828    0.0258   -0.0164    0.0000    0.0000   -0.2588   -0.0000
   27 H6     2s         0.1107    0.7789    0.1854   -0.0049    0.2719   -0.1375    0.0000    0.0000   -0.5468    0.0000
   28 H6     2px        0.0000   -0.0000    0.0000    0.0000    0.0000   -0.0000   -0.1787    0.1866   -0.0000   -0.0629
   29 H6     2py       -0.0000   -0.0000    0.0000   -0.0000   -0.0000   -0.0000    0.1866    0.1787    0.0000    0.0087
   30 H6     2pz        0.0343   -0.0137   -0.0025    0.0546   -0.0239   -0.0965   -0.0000    0.0000    0.0557   -0.0000
   31 H7     1s         0.3547   -1.9234   -0.0851    0.0828    0.0258    0.0164    0.0000   -0.0000   -0.2588    0.0000
   32 H7     2s         0.1107   -0.7789    0.1854    0.0049    0.2719    0.1375    0.0000   -0.0000   -0.5468    0.0000
   33 H7     2px       -0.0000   -0.0000   -0.0000   -0.0000    0.0000   -0.0000   -0.1787    0.1866   -0.0000    0.0629
   34 H7     2py        0.0000    0.0000    0.0000    0.0000   -0.0000    0.0000    0.1866    0.1787    0.0000   -0.0087
   35 H7     2pz       -0.0343   -0.0137    0.0025    0.0546    0.0239   -0.0965    0.0000   -0.0000   -0.0557    0.0000
   36 H8     1s        -0.9497    1.8037   -0.0800   -0.0258   -0.0425    0.1027    0.0000    0.0000   -0.0608    0.0000
   37 H8     2s        -0.3254    0.7285    0.1791   -0.1598    0.1420    0.3325    0.0000    0.0000   -0.1460    0.0000
   38 H8     2px       -0.0000   -0.0000   -0.0000    0.0000    0.0000    0.0000   -0.1686    0.1760   -0.0000    0.1746
   39 H8     2py       -0.0000   -0.0000    0.0000   -0.0000    0.0000   -0.0000    0.1760    0.1686    0.0000   -0.0241
   40 H8     2pz        0.0339   -0.0003    0.0097    0.0441    0.0531   -0.0531    0.0000   -0.0000   -0.1554    0.0000
   41 H9     1s         1.3334   -1.5605   -0.0782    0.1015    0.1012    0.1802   -0.0000   -0.0000    0.2833   -0.0000
   42 H9     2s         0.4362   -0.6263    0.1564   -0.1304    0.1273    0.4680   -0.0000    0.0000    0.5073   -0.0000
   43 H9     2px        0.0000    0.0000   -0.0000    0.0000   -0.0000    0.0000   -0.1487    0.1552   -0.0000    0.2478
   44 H9     2py        0.0000   -0.0000   -0.0000   -0.0000    0.0000   -0.0000    0.1552    0.1487    0.0000   -0.0342
   45 H9     2pz       -0.0033   -0.0217    0.0119    0.0368    0.0862    0.0401    0.0000   -0.0000   -0.0907    0.0000
   46 H10    1s        -1.3835    1.2278   -0.0641   -0.0188   -0.1406   -0.1581    0.0000    0.0000   -0.0077   -0.0000
   47 H10    2s        -0.4351    0.4686    0.1449   -0.2683   -0.2276    0.0230   -0.0000    0.0000    0.3379   -0.0000
   48 H10    2px       -0.0000   -0.0000   -0.0000    0.0000    0.0000    0.0000   -0.1209    0.1262   -0.0000    0.2671
   49 H10    2py       -0.0000    0.0000   -0.0000    0.0000    0.0000   -0.0000    0.1262    0.1209    0.0000   -0.0369
   50 H10    2pz        0.0072    0.0068    0.0176    0.0132    0.0693    0.0798    0.0000   -0.0000   -0.0142   -0.0000
   51 H11    1s         1.0772   -0.7955   -0.0506    0.1192    0.2153    0.4095   -0.0000    0.0000    0.8306    0.0000
   52 H11    2s         0.3113   -0.2866    0.1120   -0.1548   -0.0410    0.3059   -0.0000    0.0000    0.9226    0.0000
   53 H11    2px        0.0000   -0.0000   -0.0000    0.0000    0.0000    0.0000   -0.0859    0.0897   -0.0000    0.2263
   54 H11    2py        0.0000   -0.0000    0.0000   -0.0000   -0.0000   -0.0000    0.0897    0.0859    0.0000   -0.0312
   55 H11    2pz        0.0241   -0.0191    0.0083    0.0238    0.0976    0.1727   -0.0000    0.0000    0.2002   -0.0000
   56 H12    1s        -0.5328    0.3481   -0.0808    0.0515   -0.1735   -0.5411    0.0000   -0.0000   -0.9756    0.0000
   57 H12    2s        -0.0818    0.0779    0.0998   -0.2934   -0.5938   -0.9119    0.0000   -0.0000   -1.1711    0.0000
   58 H12    2px       -0.0000    0.0000   -0.0000    0.0000    0.0000    0.0000   -0.0502    0.0525    0.0000    0.1471
   59 H12    2py        0.0000    0.0000    0.0000    0.0000   -0.0000    0.0000    0.0525    0.0502    0.0000   -0.0203
   60 H12    2pz       -0.0016   -0.0019    0.0075    0.0033    0.0398    0.0890   -0.0000    0.0000    0.1257   -0.0000
 
 
      Orbital               21        22        23        24        25        26        27        28        29        30
      Energy            0.5744    0.6506    0.6506    0.7569    0.7569    0.7617    0.8946    0.8946    0.9964    1.0654
      Occ. No.          0.0000    0.0000    0.0000    0.0000    0.0000    0.0000    0.0000    0.0000    0.0000    0.0000
 
    1 H1     1s        -0.0000    0.0000   -0.0000    0.0000   -0.0000    1.2841    0.0000    0.0000    1.3865    0.0000
    2 H1     2s        -0.0000    0.0000   -0.0000    0.0000   -0.0000    1.2825    0.0000    0.0000    1.2039    0.0000
    3 H1     2px        0.0203    0.2263    0.0019    0.3001    0.0283   -0.0000   -0.3656    0.0420   -0.0000    0.4132
    4 H1     2py        0.1471   -0.0019    0.2263   -0.0283    0.3001    0.0000    0.0420    0.3656   -0.0000   -0.0689
    5 H1     2pz       -0.0000   -0.0000   -0.0000    0.0000   -0.0000    0.1299    0.0000    0.0000    0.0881   -0.0000
    6 H2     1s        -0.0000   -0.0000   -0.0000   -0.0000    0.0000   -1.4857   -0.0000    0.0000   -2.1938   -0.0000
    7 H2     2s        -0.0000   -0.0000   -0.0000   -0.0000    0.0000   -1.6840   -0.0000    0.0000   -2.3407   -0.0000
    8 H2     2px        0.0312    0.2879    0.0024    0.2772    0.0261   -0.0000   -0.1860    0.0213    0.0000    0.0197
    9 H2     2py        0.2263   -0.0024    0.2879   -0.0261    0.2772    0.0000    0.0213    0.1860    0.0000   -0.0033
   10 H2     2pz       -0.0000   -0.0000    0.0000    0.0000   -0.0000    0.1571    0.0000    0.0000    0.0623   -0.0000
   11 H3     1s         0.0000    0.0000    0.0000    0.0000   -0.0000   -0.0515   -0.0000   -0.0000    0.4023    0.0000
   12 H3     2s         0.0000    0.0000    0.0000   -0.0000    0.0000   -0.3305   -0.0000   -0.0000    0.3392    0.0000
   13 H3     2px        0.0369    0.2270    0.0019    0.0441    0.0042   -0.0000    0.2052   -0.0235    0.0000   -0.3928
   14 H3     2py        0.2671   -0.0019    0.2270   -0.0042    0.0441    0.0000   -0.0235   -0.2052    0.0000    0.0655
   15 H3     2pz       -0.0000   -0.0000    0.0000   -0.0000    0.0000   -0.1724   -0.0000   -0.0000   -0.2972   -0.0000
   16 H4     1s        -0.0000   -0.0000   -0.0000   -0.0000    0.0000    0.0571    0.0000    0.0000    0.8723   -0.0000
   17 H4     2s        -0.0000   -0.0000   -0.0000    0.0000   -0.0000    0.1569    0.0000    0.0000    1.1841   -0.0000
   18 H4     2px        0.0342    0.0561    0.0005   -0.2264   -0.0213    0.0000    0.3474   -0.0399   -0.0000   -0.1500
   19 H4     2py        0.2478   -0.0005    0.0561    0.0213   -0.2264   -0.0000   -0.0399   -0.3474   -0.0000    0.0250
   20 H4     2pz       -0.0000   -0.0000   -0.0000   -0.0000    0.0000   -0.1634   -0.0000   -0.0000   -0.0333    0.0000
   21 H5     1s         0.0000    0.0000    0.0000    0.0000   -0.0000    0.6803   -0.0000   -0.0000    0.6588    0.0000
   22 H5     2s         0.0000    0.0000    0.0000    0.0000   -0.0000    1.0338   -0.0000    0.0000    0.7762    0.0000
   23 H5     2px        0.0241   -0.1418   -0.0012   -0.3128   -0.0295    0.0000    0.0649   -0.0075   -0.0000    0.3457
   24 H5     2py        0.1746    0.0012   -0.1418    0.0295   -0.3128   -0.0000   -0.0075   -0.0649   -0.0000   -0.0577
   25 H5     2pz        0.0000    0.0000    0.0000   -0.0000    0.0000   -0.0333    0.0000   -0.0000    0.1958    0.0000
   26 H6     1s        -0.0000    0.0000   -0.0000   -0.0000   -0.0000    0.2244    0.0000   -0.0000   -0.9429   -0.0000
   27 H6     2s        -0.0000    0.0000   -0.0000    0.0000   -0.0000    0.4224    0.0000   -0.0000   -1.1739   -0.0000
   28 H6     2px        0.0087   -0.2714   -0.0022   -0.1437   -0.0135    0.0000   -0.2956    0.0339    0.0000    0.2616
   29 H6     2py        0.0629    0.0022   -0.2714    0.0135   -0.1437   -0.0000    0.0339    0.2956   -0.0000   -0.0437
   30 H6     2pz        0.0000    0.0000   -0.0000    0.0000   -0.0000    0.1683    0.0000    0.0000    0.1731    0.0000
   31 H7     1s        -0.0000   -0.0000    0.0000    0.0000    0.0000   -0.2244   -0.0000    0.0000   -0.9429    0.0000
   32 H7     2s        -0.0000   -0.0000    0.0000   -0.0000    0.0000   -0.4224   -0.0000   -0.0000   -1.1739    0.0000
   33 H7     2px       -0.0087   -0.2714   -0.0022    0.1437    0.0135   -0.0000   -0.2956    0.0339    0.0000   -0.2616
   34 H7     2py       -0.0629    0.0022   -0.2714   -0.0135    0.1437    0.0000    0.0339    0.2956    0.0000    0.0437
   35 H7     2pz       -0.0000    0.0000   -0.0000    0.0000   -0.0000    0.1683   -0.0000    0.0000   -0.1731   -0.0000
   36 H8     1s        -0.0000    0.0000    0.0000   -0.0000    0.0000   -0.6803    0.0000   -0.0000    0.6588   -0.0000
   37 H8     2s        -0.0000    0.0000    0.0000   -0.0000    0.0000   -1.0338    0.0000   -0.0000    0.7762   -0.0000
   38 H8     2px       -0.0241   -0.1418   -0.0012    0.3128    0.0295   -0.0000    0.0649   -0.0075    0.0000   -0.3457
   39 H8     2py       -0.1746    0.0012   -0.1418   -0.0295    0.3128    0.0000   -0.0075   -0.0649    0.0000    0.0577
   40 H8     2pz       -0.0000   -0.0000   -0.0000   -0.0000    0.0000   -0.0333   -0.0000   -0.0000   -0.1958   -0.0000
   41 H9     1s         0.0000   -0.0000   -0.0000    0.0000    0.0000   -0.0571   -0.0000    0.0000    0.8723    0.0000
   42 H9     2s         0.0000   -0.0000   -0.0000    0.0000    0.0000   -0.1569   -0.0000    0.0000    1.1841    0.0000
   43 H9     2px       -0.0342    0.0561    0.0005    0.2264    0.0213   -0.0000    0.3474   -0.0399   -0.0000    0.1500
   44 H9     2py       -0.2478   -0.0005    0.0561   -0.0213    0.2264    0.0000   -0.0399   -0.3474   -0.0000   -0.0250
   45 H9     2pz       -0.0000   -0.0000    0.0000   -0.0000    0.0000   -0.1634   -0.0000   -0.0000    0.0333    0.0000
   46 H10    1s        -0.0000    0.0000    0.0000    0.0000   -0.0000    0.0515    0.0000    0.0000    0.4023    0.0000
   47 H10    2s        -0.0000    0.0000    0.0000    0.0000   -0.0000    0.3305    0.0000    0.0000    0.3392    0.0000
   48 H10    2px       -0.0369    0.2270    0.0019   -0.0441   -0.0042   -0.0000    0.2052   -0.0235   -0.0000    0.3928
   49 H10    2py       -0.2671   -0.0019    0.2270    0.0042   -0.0441   -0.0000   -0.0235   -0.2052   -0.0000   -0.0655
   50 H10    2pz       -0.0000   -0.0000    0.0000   -0.0000    0.0000   -0.1724    0.0000   -0.0000    0.2972    0.0000
   51 H11    1s         0.0000    0.0000   -0.0000    0.0000   -0.0000    1.4857   -0.0000   -0.0000   -2.1938   -0.0000
   52 H11    2s         0.0000    0.0000   -0.0000    0.0000   -0.0000    1.6840   -0.0000   -0.0000   -2.3407   -0.0000
   53 H11    2px       -0.0312    0.2879    0.0024   -0.2772   -0.0261    0.0000   -0.1860    0.0213    0.0000   -0.0197
   54 H11    2py       -0.2263   -0.0024    0.2879    0.0261   -0.2772   -0.0000    0.0213    0.1860   -0.0000    0.0033
   55 H11    2pz        0.0000    0.0000   -0.0000    0.0000   -0.0000    0.1571    0.0000    0.0000   -0.0623    0.0000
   56 H12    1s        -0.0000   -0.0000    0.0000   -0.0000    0.0000   -1.2841    0.0000    0.0000    1.3865    0.0000
   57 H12    2s        -0.0000   -0.0000    0.0000   -0.0000    0.0000   -1.2825    0.0000   -0.0000    1.2039    0.0000
   58 H12    2px       -0.0203    0.2263    0.0019   -0.3001   -0.0283    0.0000   -0.3656    0.0420    0.0000   -0.4132
   59 H12    2py       -0.1471   -0.0019    0.2263    0.0283   -0.3001   -0.0000    0.0420    0.3656    0.0000    0.0689
   60 H12    2pz        0.0000    0.0000    0.0000    0.0000   -0.0000    0.1299    0.0000    0.0000   -0.0881   -0.0000
 
 
      Orbital               31        32        33        34        35        36        37        38        39        40
      Energy            1.0654    1.2415    1.2741    1.2741    1.4541    1.5176    1.5176    1.6157    1.6251    1.7984
      Occ. No.          0.0000    0.0000    0.0000    0.0000    0.0000    0.0000    0.0000    0.0000    0.0000    0.0000
 
    1 H1     1s        -0.0000    1.3104    0.0000    0.0000    0.7802    0.0000    0.0000   -1.0964   -0.2750    0.0000
    2 H1     2s        -0.0000    1.0216    0.0000    0.0000    0.4792    0.0000   -0.0000   -1.0113   -0.4032    0.0000
    3 H1     2px       -0.0689   -0.0000    0.4513    0.0407   -0.0000    0.1114   -0.4518   -0.0000    0.0000    0.2123
    4 H1     2py       -0.4132   -0.0000   -0.0407    0.4513    0.0000   -0.4518   -0.1114   -0.0000    0.0000   -0.3932
    5 H1     2pz       -0.0000    0.0012   -0.0000    0.0000   -0.2590    0.0000    0.0000   -0.4608   -0.6069    0.0000
    6 H2     1s        -0.0000   -2.8239    0.0000   -0.0000   -2.4726   -0.0000   -0.0000    2.4023   -0.2696   -0.0000
    7 H2     2s        -0.0000   -2.8076   -0.0000   -0.0000   -2.3209   -0.0000    0.0000    2.2258   -0.3309   -0.0000
    8 H2     2px       -0.0033    0.0000   -0.2000   -0.0180    0.0000   -0.1030    0.4178    0.0000   -0.0000   -0.2915
    9 H2     2py       -0.0197    0.0000    0.0180   -0.2000   -0.0000    0.4178    0.1030    0.0000   -0.0000    0.5400
   10 H2     2pz       -0.0000   -0.0409    0.0000    0.0000   -0.0450   -0.0000   -0.0000    0.2312    0.0874   -0.0000
   11 H3     1s         0.0000    1.6921    0.0000   -0.0000    3.0749    0.0000    0.0000   -1.6091    2.0589    0.0000
   12 H3     2s         0.0000    1.7461    0.0000    0.0000    2.9846    0.0000    0.0000   -1.5783    2.0222    0.0000
[...]
   18 H4     2px       -0.0000    0.6899    0.0274   -0.0000    0.0000    0.0000    0.0000    0.0000   -0.0000   -0.0000
   19 H4     2py       -0.0000   -0.0274    0.6899    0.0000    0.0000    0.0000    0.0000    0.0000   -0.0000   -0.0000
   20 H4     2pz       -0.5406   -0.0000   -0.0000   -0.0460    0.7723    1.0482    0.4472   -0.8330    1.9460    1.7642
   21 H5     1s         1.5705    0.0000    0.0000    0.0672   -1.4920   -1.5916    0.1322    1.2717   -0.6996    0.2596
   22 H5     2s         0.5271    0.0000    0.0000    0.2906   -0.4893   -0.4553   -0.0031    0.1018   -0.0169    0.0256
   23 H5     2px        0.0000   -0.7931   -0.0315   -0.0000   -0.0000    0.0000    0.0000   -0.0000    0.0000    0.0000
   24 H5     2py        0.0000    0.0315   -0.7931   -0.0000   -0.0000    0.0000    0.0000   -0.0000    0.0000    0.0000
   25 H5     2pz       -0.0598   -0.0000   -0.0000    0.7598   -0.5648    0.5626    1.3578    0.5158    1.4629    2.0820
   26 H6     1s        -0.7822   -0.0000   -0.0000   -2.0076    1.2159   -0.9620   -1.3201    0.6298   -1.0396    0.0642
   27 H6     2s        -0.2875   -0.0000   -0.0000   -0.9424    0.3680   -0.1572   -0.2236    0.1079   -0.0615   -0.0163
   28 H6     2px       -0.0000    0.8465    0.0336    0.0000    0.0000   -0.0000   -0.0000    0.0000   -0.0000   -0.0000
   29 H6     2py       -0.0000   -0.0336    0.8465   -0.0000    0.0000    0.0000   -0.0000    0.0000   -0.0000   -0.0000
   30 H6     2pz        0.5815    0.0000    0.0000   -0.4555   -0.6934   -0.8501    0.7240    1.5294    0.5443    2.2473
   31 H7     1s        -0.7822    0.0000   -0.0000    2.0076    1.2159    0.9620   -1.3201   -0.6298   -1.0396   -0.0641
   32 H7     2s        -0.2875    0.0000   -0.0000    0.9424    0.3680    0.1572   -0.2236   -0.1079   -0.0615    0.0163
   33 H7     2px        0.0000   -0.8465   -0.0336   -0.0000   -0.0000   -0.0000    0.0000    0.0000   -0.0000    0.0000
   34 H7     2py        0.0000    0.0336   -0.8465    0.0000   -0.0000   -0.0000   -0.0000   -0.0000   -0.0000    0.0000
   35 H7     2pz       -0.5815   -0.0000   -0.0000   -0.4555    0.6934   -0.8501   -0.7240    1.5294   -0.5443    2.2473
   36 H8     1s         1.5705    0.0000    0.0000   -0.0672   -1.4920    1.5916    0.1322   -1.2717   -0.6996   -0.2596
   37 H8     2s         0.5271   -0.0000    0.0000   -0.2906   -0.4893    0.4553   -0.0031   -0.1018   -0.0169   -0.0256
   38 H8     2px       -0.0000    0.7931    0.0315    0.0000    0.0000   -0.0000   -0.0000   -0.0000   -0.0000   -0.0000
   39 H8     2py       -0.0000   -0.0315    0.7931   -0.0000    0.0000    0.0000    0.0000    0.0000    0.0000   -0.0000
   40 H8     2pz        0.0598    0.0000    0.0000    0.7598    0.5648    0.5626   -1.3578    0.5158   -1.4629    2.0820
   41 H9     1s        -0.6760    0.0000   -0.0000   -1.2080   -0.7257   -0.7437    1.5688   -1.2589   -0.2398   -0.3409
   42 H9     2s        -0.0692    0.0000   -0.0000   -0.1516   -0.1091   -0.2568    0.3182   -0.1812   -0.0522    0.0279
   43 H9     2px        0.0000   -0.6899   -0.0274   -0.0000   -0.0000    0.0000   -0.0000    0.0000    0.0000    0.0000
   44 H9     2py        0.0000    0.0274   -0.6899   -0.0000   -0.0000    0.0000    0.0000   -0.0000   -0.0000   -0.0000
   45 H9     2pz        0.5406    0.0000    0.0000   -0.0460   -0.7723    1.0482   -0.4472   -0.8331   -1.9460    1.7642
   46 H10    1s        -1.1693   -0.0000   -0.0000    0.1902    1.2985   -1.5067    1.0455   -0.1962    0.4679   -0.5582
   47 H10    2s        -0.8268   -0.0000   -0.0000   -0.2466    0.1862   -0.2091    0.0939    0.0660    0.1023   -0.0693
   48 H10    2px       -0.0000    0.5430    0.0216    0.0000    0.0000   -0.0000    0.0000    0.0000   -0.0000   -0.0000
   49 H10    2py       -0.0000   -0.0216    0.5430    0.0000    0.0000   -0.0000   -0.0000    0.0000    0.0000    0.0000
   50 H10    2pz       -0.6243   -0.0000   -0.0000   -0.6862   -0.4084   -0.2110    0.9742   -1.6122   -1.8330    1.3054
   51 H11    1s         2.4808    0.0000    0.0000    1.8289    1.0093   -0.2597   -0.3862    0.7304    0.7740   -0.5194
   52 H11    2s         1.2874    0.0000    0.0000    0.8281    0.3976   -0.1174   -0.0734    0.0896    0.0193    0.0192
   53 H11    2px        0.0000   -0.3620   -0.0144   -0.0000    0.0000   -0.0000   -0.0000   -0.0000    0.0000   -0.0000
   54 H11    2py        0.0000    0.0144   -0.3620   -0.0000   -0.0000    0.0000    0.0000   -0.0000    0.0000   -0.0000
   55 H11    2pz        0.3044    0.0000    0.0000    0.6357    0.9642   -1.2239    1.3585   -1.3490   -1.1886    0.7512
   56 H12    1s        -1.3546   -0.0000   -0.0000   -1.3241   -1.2509    1.1590   -0.9979    0.8409    0.7016   -0.4426
   57 H12    2s        -0.7065   -0.0000   -0.0000   -0.5570   -0.4130    0.2905   -0.1613    0.0715    0.0433   -0.0306
   58 H12    2px       -0.0000    0.1616    0.0064    0.0000   -0.0000    0.0000    0.0000   -0.0000   -0.0000    0.0000
   59 H12    2py       -0.0000   -0.0064    0.1616    0.0000    0.0000   -0.0000   -0.0000    0.0000    0.0000    0.0000
   60 H12    2pz        0.7453    0.0000    0.0000    0.7095    0.6599   -0.5995    0.5162   -0.4291   -0.3455    0.2122
--
 
      Von Neumann Entropy (Root  1) =  1.06273
 

      Mulliken population analysis for root number:  1
      -----------------------------------------------
 
 
++    Molecular charges:
      ------------------
 
      Mulliken charges per centre and basis function type
      ---------------------------------------------------
 
                H1      H2      H3      H4      H5      H6      H7      H8      H9      H10     H11     H12   
      1s       1.0339  0.9473  1.0217  0.9734  0.9970  0.9914  0.9914  0.9970  0.9734  1.0217  0.9473  1.0339
      2s      -0.0000 -0.0244 -0.0699 -0.0404 -0.0445 -0.0430 -0.0430 -0.0445 -0.0404 -0.0699 -0.0244 -0.0000
      2px      0.0000  0.0000  0.0000  0.0000  0.0000  0.0000  0.0000  0.0000  0.0000  0.0000  0.0000  0.0000
      2pz      0.0180  0.0494  0.0481  0.0474  0.0470  0.0475  0.0475  0.0470  0.0474  0.0481  0.0494  0.0180
      2py      0.0000  0.0000  0.0000  0.0000 -0.0000  0.0000  0.0000  0.0000  0.0000  0.0000  0.0000  0.0000
      Total    1.0519  0.9724  0.9999  0.9804  0.9995  0.9959  0.9959  0.9995  0.9804  0.9999  0.9724  1.0519
 
      N-E     -0.0519  0.0276  0.0001  0.0196  0.0005  0.0041  0.0041  0.0005  0.0196  0.0001  0.0276 -0.0519
 
      Total electronic charge=   12.000000
 
      Total            charge=   -0.000000
--
 
 

      Expectation values of various properties for root number:  1
      -----------------------------------------------------------
 
 
++    Molecular properties:
      ---------------------
 
      Charge (e):
                      =   -0.0000
      Dipole Moment (Debye):
      Origin of the operator (Ang)=    0.0000    0.0000    0.0000
                   X= -7.0993E-13               Y= -4.8416E-13               Z= -1.1922E-06           Total=  1.1922E-06
      Quadrupole Moment (Debye*Ang):
      Origin of the operator (Ang)=    0.0000    0.0000    5.4333
                  XX= -1.2870E+01              XY=  1.6446E-27              XZ= -7.0291E-13              YY= -1.2870E+01
                  YZ=  7.7024E-13              ZZ= -1.7901E+01
      In traceless form (Debye*Ang)
                  XX=  2.5154E+00              XY=  2.4668E-27              XZ= -1.0544E-12              YY=  2.5154E+00
                  YZ=  1.1554E-12              ZZ= -5.0308E+00
--
 

      LoProp population analysis for root number:  1
      -----------------------------------------------
 
 
++    LoProp analysis:
      ----------------
 
 
 
  Input file to MOLDEN was generated!
 
 
++    Static properties:
      ------------------
 
 
      LoProp Charges per center
 

                   H1       H2       H3       H4       H5       H6       H7       H8       H9       H10   
      Nuclear      1.0000   1.0000   1.0000   1.0000   1.0000   1.0000   1.0000   1.0000   1.0000   1.0000
      Electronic  -1.0344  -0.9845  -0.9978  -0.9906  -0.9977  -0.9950  -0.9950  -0.9977  -0.9906  -0.9978
 
      Total       -0.0344   0.0155   0.0022   0.0094   0.0023   0.0050   0.0050   0.0023   0.0094   0.0022
 

                   H11      H12   
      Nuclear      1.0000   1.0000
      Electronic  -0.9845  -1.0344
 
      Total        0.0155  -0.0344
--
 
 
      Natural Bond Order analysis for root number:  1
 
++    Natural Bond Order analysis
      ---------------------------
      Based on LoProp computed density
      -------------------------------------------------------------------------------------
      Atom A       Atom B       Bond Order | Atom A       Atom B       Bond Order
        H1           H2             0.946  |   H11          H12            0.946
        H3           H4             0.903  |   H5           H6             0.891
        H9           H10            0.903  |   H7           H8             0.891
      -------------------------------------------------------------------------------------
      NBO located     10.960 electrons involved in    6 bonds.
      The remaining    1.040 electrons are to be considered as diffuse
--
 
--
 
 
  Input file to MOLDEN was generated!
 
      Average orbitals are written to the RASORB file
      Natural orbitals for root   1 are written to the RASORB.1 file
      Spin density orbitals for root   1 are written to the SPDORB.1 file
 
--- Stop Module: rasscf at Thu Oct 17 12:17:49 2024 /rc=_RC_ALL_IS_WELL_ ---
*** files: H12_0.99.LprOrb H12_0.99.rasscf.molden H12_0.99.LoProp.molden H12_0.99.RasOrb H12_0.99.RasOrb.1 H12_0.99.rasscf.h5 H12_0.99.SpdOrb.1 xmldump
    saved to directory /home/grierjones/DDCASPT2/hydrogen_comps/minimal_2e_2o/chains/even/H12_chain/H12_0.99
--- Module rasscf spent 38 seconds ---

>>> COPY /tmp/H12_0.99/H12_0.99.rasscf.h5 /home/grierjones/DDCASPT2/hydrogen_comps/minimal_2e_2o/chains/even/H12_chain/H12_0.99/

>>> COPY /tmp/H12_0.99/GMJ_Fock_MO.csv /home/grierjones/DDCASPT2/hydrogen_comps/minimal_2e_2o/chains/even/H12_chain/H12_0.99/H12_0.99.GMJ_Fock_MO.csv

*** symbolic link created: INPORB -> H12_0.99.RasOrb
--- Start Module: caspt2 at Thu Oct 17 12:17:49 2024 ---
 
()()()()()()()()()()()()()()()()()()()()()()()()()()()()()()()()()()()()()()()()()()()()()()()()()()

                                              &CASPT2

                                   only a single process is used
                       available to each process: 2.0 GB of memory, 1 thread?
()()()()()()()()()()()()()()()()()()()()()()()()()()()()()()()()()()()()()()()()()()()()()()()()()()
 
 Cholesky algorithm in CASPT2 =    1
 
 ###############################################################################
 ###############################################################################
 ###                                                                         ###
 ###                                                                         ###
 ###    User changed nr of frozen orbitals.                                  ###
 ###                                                                         ###
 ###                                                                         ###
 ###############################################################################
 ###############################################################################
 
++    Wave function specifications:
      -----------------------------
 
      Number of closed shell electrons           0
      Number of electrons in active shells      12
      Max number of holes in RAS1 space          0
      Max number of electrons in RAS3 space      0
      Number of inactive orbitals                0
      Number of active orbitals                 12
      Number of secondary orbitals              48
      Spin quantum number                      0.0
      State symmetry                             1
      Number of CSFs                        226512
      Number of root(s) available                1
      Root passed to geometry opt.               1
      A file JOBMIX will be created.
      This is a CASSCF or RASSCF reference function
--
 
++    Orbital specifications:
      -----------------------
 
      Symmetry species                           1
                                                 a
      Frozen orbitals                            0
      Inactive orbitals                          0
      Active orbitals                           12
      Secondary orbitals                        48
      Deleted orbitals                           0
      Number of basis functions                 60
--
 
      Type of Fock operator: STANDARD
      Type of 0-order Hamiltonian: STANDARD WITH DEFAULT IPEA
        "IP-EA" denominator shift =      0.25
      The input orbitals and the CI vector will be transformed.
 
--------------------------------------------------------------------------------
 Estimated memory requirements:
  POLY3 :                 54392696
  RHS:                     1916944
  SIGMA :                   616912
  PRPCTL:                        0
 Available workspace:    230179958
 
++ CASPT2 computation for group   1
 
********************************************************************************
 Multi-State initialization phase begins for group   1
--------------------------------------------------------------------------------
********************************************************************************
 Compute H0 matrices for state    1
--------------------------------------------------------------------------------
--------------------------------------------------------------------------------
 H0 matrices have been computed.
 
********************************************************************************
  CASPT2 EQUATION SOLUTION
--------------------------------------------------------------------------------
 
  Total nr of CASPT2 parameters:
   Before reduction:      249120
   After  reduction:      248544
 
 The contributions to the second order correlation energy in atomic units.
-----------------------------------------------------------------------------------------------------------------------------
  IT.      VJTU        VJTI        ATVX        AIVX        VJAI        BVAT        BJAT        BJAI        TOTAL       RNORM  
-----------------------------------------------------------------------------------------------------------------------------
   1     0.000000    0.000000   -0.028064    0.000000    0.000000   -0.068587    0.000000    0.000000   -0.096651    0.003936
   2     0.000000    0.000000   -0.028341    0.000000    0.000000   -0.068643    0.000000    0.000000   -0.096984    0.000485
   3     0.000000    0.000000   -0.028348    0.000000    0.000000   -0.068646    0.000000    0.000000   -0.096994    0.000078
   4     0.000000    0.000000   -0.028344    0.000000    0.000000   -0.068646    0.000000    0.000000   -0.096990    0.000009
   5     0.000000    0.000000   -0.028343    0.000000    0.000000   -0.068646    0.000000    0.000000   -0.096990    0.000001
-------------------------------------------------------------------------------------------------------------------
 
  FINAL CASPT2 RESULT:
 
  Correlation energy /Case, /Symm, and sums:
 VJTU      0.00000000  0.00000000
 VJTIP     0.00000000  0.00000000
 VJTIM     0.00000000  0.00000000
 ATVX     -0.02834348 -0.02834348
 AIVX      0.00000000  0.00000000
 VJAIP     0.00000000  0.00000000
 VJAIM     0.00000000  0.00000000
 BVATP    -0.06333902 -0.06333902
 BVATM    -0.00530718 -0.00530718
 BJATP     0.00000000  0.00000000
 BJATM     0.00000000  0.00000000
 BJAIP     0.00000000  0.00000000
 BJAIM     0.00000000  0.00000000
 Summed:  -0.09698968 -0.09698968
 
      Reference energy:          -6.6203526908
      E2 (Non-variational):      -0.0969896767
      E2 (Variational):          -0.0969896776
      Total energy:              -6.7173423684
      Residual norm:              0.0000001889
      Reference weight:           0.96547
 
      Contributions to the CASPT2 correlation energy
      Active & Virtual Only:         -0.0969896767
      One Inactive Excited:           0.0000000000
      Two Inactive Excited:           0.0000000000
 
 
++ Denominators, etc.
----------------------------------------------------------------------------------------------------
 Report on small energy denominators, large coefficients, and large energy contributions.
CASE  SYMM ACTIVE-MIX  NON-ACTIVE INDICES          DENOMINATOR     RHS VALUE       COEFFICIENT     CONTRIBUTION
ATVX     1  Mu1.0001  Se1.013                       0.27204360     -0.00000000     -0.00000000      0.00000000
--
 
   (Skipping property calculation,
    use PROP keyword to activate)
--
 
  Total CASPT2 energies:
::    CASPT2 Root  1     Total energy:     -6.71734237
 
  A NEW JOBIPH FILE NAMED 'JOBMIX' IS PREPARED.
********************************************************************************
--- Stop Module: caspt2 at Thu Oct 17 12:18:22 2024 /rc=_RC_ALL_IS_WELL_ ---
*** files: xmldump
    saved to directory /home/grierjones/DDCASPT2/hydrogen_comps/minimal_2e_2o/chains/even/H12_chain/H12_0.99
--- Module caspt2 spent 33 seconds ---

>>> EXPORT i = B

>>> EXPORT j = P

>>> IF (-FILE GMJ_e2_${i}_${j}.csv)
(Skipped)

>>> END FOREACH

>>> EXPORT j = M

>>> IF (-FILE GMJ_e2_${i}_${j}.csv)
(Skipped)

>>> END FOREACH

>>> END FOREACH

>>> EXPORT i = E

>>> EXPORT j = P

>>> IF (-FILE GMJ_e2_${i}_${j}.csv)
(Skipped)

>>> END FOREACH

>>> EXPORT j = M

>>> IF (-FILE GMJ_e2_${i}_${j}.csv)
(Skipped)

>>> END FOREACH

>>> END FOREACH

>>> EXPORT i = F

>>> EXPORT j = P

>>> IF (-FILE GMJ_e2_${i}_${j}.csv)

>>> COPY /tmp/H12_0.99/GMJ_RHS_F_P.csv /home/grierjones/DDCASPT2/hydrogen_comps/minimal_2e_2o/chains/even/H12_chain/H12_0.99/GMJ_RHS_F_P.csv

>>> COPY /tmp/H12_0.99/GMJ_IVECW_F_P.csv /home/grierjones/DDCASPT2/hydrogen_comps/minimal_2e_2o/chains/even/H12_chain/H12_0.99/GMJ_IVECW_F_P.csv

>>> COPY /tmp/H12_0.99/GMJ_e2_F_P.csv /home/grierjones/DDCASPT2/hydrogen_comps/minimal_2e_2o/chains/even/H12_chain/H12_0.99/GMJ_e2_F_P.csv

>>> END FOREACH

>>> EXPORT j = M

>>> IF (-FILE GMJ_e2_${i}_${j}.csv)

>>> COPY /tmp/H12_0.99/GMJ_RHS_F_M.csv /home/grierjones/DDCASPT2/hydrogen_comps/minimal_2e_2o/chains/even/H12_chain/H12_0.99/GMJ_RHS_F_M.csv

>>> COPY /tmp/H12_0.99/GMJ_IVECW_F_M.csv /home/grierjones/DDCASPT2/hydrogen_comps/minimal_2e_2o/chains/even/H12_chain/H12_0.99/GMJ_IVECW_F_M.csv

>>> COPY /tmp/H12_0.99/GMJ_e2_F_M.csv /home/grierjones/DDCASPT2/hydrogen_comps/minimal_2e_2o/chains/even/H12_chain/H12_0.99/GMJ_e2_F_M.csv

>>> END FOREACH

>>> END FOREACH

>>> EXPORT i = G

>>> EXPORT j = P

>>> IF (-FILE GMJ_e2_${i}_${j}.csv)
(Skipped)

>>> END FOREACH

>>> EXPORT j = M

>>> IF (-FILE GMJ_e2_${i}_${j}.csv)
(Skipped)

>>> END FOREACH

>>> END FOREACH

>>> EXPORT i = H

>>> EXPORT j = P

>>> IF (-FILE GMJ_e2_${i}_${j}.csv)
(Skipped)

>>> END FOREACH

>>> EXPORT j = M

>>> IF (-FILE GMJ_e2_${i}_${j}.csv)
(Skipped)

>>> END FOREACH

>>> END FOREACH

>>> EXPORT i = A

>>> IF (-FILE GMJ_e2_$i.csv)
(Skipped)

>>> END FOREACH

>>> EXPORT i = C

>>> IF (-FILE GMJ_e2_$i.csv)

>>> COPY /tmp/H12_0.99/GMJ_RHS_C.csv /home/grierjones/DDCASPT2/hydrogen_comps/minimal_2e_2o/chains/even/H12_chain/H12_0.99/GMJ_RHS_C.csv

>>> COPY /tmp/H12_0.99/GMJ_IVECW_C.csv /home/grierjones/DDCASPT2/hydrogen_comps/minimal_2e_2o/chains/even/H12_chain/H12_0.99/GMJ_IVECW_C.csv

>>> COPY /tmp/H12_0.99/GMJ_e2_C.csv /home/grierjones/DDCASPT2/hydrogen_comps/minimal_2e_2o/chains/even/H12_chain/H12_0.99/GMJ_e2_C.csv

>>> END FOREACH

>>> EXPORT i = D

>>> IF (-FILE GMJ_e2_$i.csv)
(Skipped)

>>> END FOREACH

.########################.
.# Non-zero return code #.
.########################.

    Timing: Wall=102.14 User=90.57 System=11.44
****************************************
*** WorkDir at /tmp/H12_0.99 cleaned ***
****************************************
