[Molden Format]
[N_Atoms]
                     2
[Atoms] (AU)
F1          1      9           0.00000000      0.00000000      0.00000000
LI2         2      3           0.00000000      0.00000000      1.51178090
[Charge] (Mulliken)
  0.693808871988546     
   1.30619112801144     
[GTO] (AU)
   1
   s  14
  1.031094600E+05  1.713099991E-04
  1.528100700E+04  7.123999962E-04
  3.441539200E+03  2.990479984E-03
  9.670948300E+02  1.164036994E-02
  3.140353400E+02  3.968642979E-02
  1.134423000E+02  1.128546094E-01
  4.464472700E+01  2.473650687E-01
  1.894287400E+01  3.672702681E-01
  8.532743000E+00  2.896286985E-01
  3.919401000E+00  7.786681959E-02
  1.568157000E+00  4.562139976E-03
  6.232900000E-01  2.468879987E-03
  2.408610000E-01  1.106309994E-03
  8.430100000E-02  1.739699991E-04
   s  14
  1.031094600E+05 -4.044999995E-05
  1.528100700E+04 -1.682299998E-04
  3.441539200E+03 -7.084299991E-04
  9.670948300E+02 -2.767999996E-03
  3.140353400E+02 -9.611379987E-03
  1.134423000E+02 -2.833957996E-02
  4.464472700E+01 -6.839343991E-02
  1.894287400E+01 -1.237379298E-01
  8.532743000E+00 -1.512859698E-01
  3.919401000E+00 -9.099909988E-03
  1.568157000E+00  3.716257695E-01
  6.232900000E-01  5.500214393E-01
  2.408610000E-01  2.092318697E-01
  8.430100000E-02  8.074639989E-03
   p   9
  2.453302900E+02  1.024860004E-03
  5.691900500E+01  8.344290032E-03
  1.760456800E+01  4.078927016E-02
  6.274995000E+00  1.351370605E-01
  2.447030000E+00  2.798830811E-01
  9.950600000E-01  3.597966414E-01
  4.039730000E-01  3.055347412E-01
  1.548100000E-01  1.354703905E-01
  5.418400000E-02  2.804449011E-02
 
   2
   s  14
  9.497934400E+03  9.668999974E-05
  1.416811200E+03  6.087099984E-04
  3.214599400E+02  3.101519992E-03
  9.112416300E+01  1.266904997E-02
  2.999989100E+01  4.248012989E-02
  1.101763100E+01  1.150183297E-01
  4.372801000E+00  2.398650094E-01
  1.831256000E+00  3.584300090E-01
  8.022610000E-01  3.048527792E-01
  3.626480000E-01  8.824261976E-02
  1.139950000E-01 -8.445899977E-04
  5.123700000E-02 -7.943959979E-03
  2.246800000E-02 -3.764419990E-03
  7.860000000E-03 -8.868999976E-05
   s  14
  9.497934400E+03 -1.244999993E-05
  1.416811200E+03 -7.838999954E-05
  3.214599400E+02 -4.007099976E-04
  9.112416300E+01 -1.645249990E-03
  2.999989100E+01 -5.634599967E-03
  1.101763100E+01 -1.590780991E-02
  4.372801000E+00 -3.612581979E-02
  1.831256000E+00 -6.459927962E-02
  8.022610000E-01 -1.008321794E-01
  3.626480000E-01 -9.757613942E-02
  1.139950000E-01  2.301215886E-01
  5.123700000E-02  6.102389764E-01
  2.246800000E-02  2.849406083E-01
  7.860000000E-03  4.026899976E-03
   p   9
  1.311950400E+01  1.524940000E-03
  3.077424200E+00  8.314830000E-03
  1.098800500E+00  1.933203000E-02
  4.357784000E-01  4.934293000E-02
  1.802432000E-01  1.623554000E-01
  7.613330000E-02  3.847505400E-01
  3.254650000E-02  4.336100400E-01
  1.401820000E-02  1.287005900E-01
  4.906400000E-03 -1.018520000E-03
 
[MO]
Sym=     1a  
Ene=   -28.0850
Spin= Alpha
Occup=    2.00000
   1         0.99999171
   2        -0.00422863
   3         0.00000016
   4         0.00000083
   5         0.00174403
   6        -0.00050219
   7        -0.00007182
   8        -0.00000002
   9        -0.00000008
  10        -0.00031876
Sym=     2a  
Ene=    -4.0585
Spin= Alpha
Occup=    2.00000
   1        -0.02405620
   2         0.26077552
   3        -0.00000220
   4        -0.00001156
   5         0.13540017
   6         0.82784814
   7        -0.03330858
   8         0.00000022
   9         0.00000113
  10        -0.01371295
Sym=     3a  
Ene=    -2.6534
Spin= Alpha
Occup=    2.00000
   1        -0.02367000
   2        -1.04502178
   3        -0.00001314
   4        -0.00006907
   5         0.06189007
   6         0.52666748
   7         0.05343493
   8         0.00000128
   9         0.00000674
  10        -0.02794032
Sym=     4a  
Ene=    -2.0310
Spin= Alpha
Occup=    2.00000
   1        -0.00000000
   2        -0.00000000
   3         1.00939069
   4        -0.19202669
   5         0.00000000
   6        -0.00000000
   7         0.00000000
   8        -0.09846262
   9         0.01873155
  10        -0.00000000
Sym=     5a  
Ene=    -2.0276
Spin= Alpha
Occup=    1.99033
   1        -0.00000273
   2        -0.00006858
   3         0.19203708
   4         1.00944530
   5         0.00000542
   6         0.00004574
   7         0.00000331
   8        -0.01877694
   9        -0.09870122
  10        -0.00000206
Sym=     6a  
Ene=     0.0018
Spin= Alpha
Occup=    0.00967
   1        -0.01438705
   2        -0.16312300
   3        -0.00000021
   4        -0.00000109
   5        -1.11722893
   6         0.64729751
   7         0.05350842
   8         0.00000063
   9         0.00000333
  10         0.12463160
Sym=     7a  
Ene=    -0.4546
Spin= Alpha
Occup=    0.00000
   1        -0.02909048
   2        -0.23875895
   3         0.00000004
   4         0.00000020
   5         0.04230514
   6         0.07300561
   7         1.03095366
   8        -0.00000017
   9        -0.00000090
  10         0.10874648
Sym=     8a  
Ene=    -0.3480
Spin= Alpha
Occup=    0.00000
   1         0.00000008
   2         0.00000069
   3        -0.04491567
   4        -0.23609976
   5         0.00000355
   6        -0.00000210
   7         0.00000052
   8         0.19632392
   9         1.03197916
  10         0.00000068
Sym=     9a  
Ene=    -0.3480
Spin= Alpha
Occup=    0.00000
   1         0.00000000
   2         0.00000000
   3         0.23633314
   4        -0.04496006
   5        -0.00000000
   6        -0.00000000
   7        -0.00000000
   8        -1.03200195
   9         0.19632826
  10         0.00000000
Sym=    10a  
Ene=    -0.3162
Spin= Alpha
Occup=    0.00000
   1         0.06481758
   2         0.42703742
   3         0.00000005
   4         0.00000025
   5        -0.06420635
   6        -0.10991105
   7        -0.23697090
   8        -0.00000018
   9        -0.00000095
  10         1.07491044
