[Molden Format]
[N_Atoms]
                     2
[Atoms] (AU)
B1          1      5           0.00000000      0.00000000      0.00000000
C2          2      6           0.00000000      0.00000000      1.70075351
[Charge] (Mulliken)
  0.492954632245798     
 -0.492954632245816     
[GTO] (AU)
   1
   s  14
  3.336021700E+04  1.039699991E-04
  4.972095200E+03  5.254399956E-04
  1.125641700E+03  2.509059979E-03
  3.164913600E+02  1.031887991E-02
  1.020072600E+02  3.636632969E-02
  3.629587300E+01  1.064607991E-01
  1.397141000E+01  2.403999880E-01
  5.741156000E+00  3.748581168E-01
  2.494268000E+00  3.100066974E-01
  1.114202000E+00  7.922455933E-02
  4.215490000E-01 -4.947589958E-03
  1.696330000E-01 -7.737119935E-03
  6.853500000E-02 -1.501079987E-03
  2.398700000E-02 -1.333299989E-04
   s  14
  3.336021700E+04 -2.030000008E-05
  4.972095200E+03 -1.025700004E-04
  1.125641700E+03 -4.911300020E-04
  3.164913600E+02 -2.026570008E-03
  1.020072600E+02 -7.261010030E-03
  3.629587300E+01 -2.197722009E-02
  1.397141000E+01 -5.408428022E-02
  5.741156000E+00 -1.022402604E-01
  2.494268000E+00 -1.423595206E-01
  1.114202000E+00 -4.658690019E-02
  4.215490000E-01  3.799402916E-01
  1.696330000E-01  5.890463624E-01
  6.853500000E-02  1.749075107E-01
  2.398700000E-02 -1.142030005E-03
   p   9
  5.500000000E+01  1.229800005E-03
  1.336610100E+01  8.827380035E-03
  4.135394000E+00  3.843340015E-02
  1.481256000E+00  1.150031805E-01
  6.021360000E-01  2.733674011E-01
  2.556360000E-01  4.061972116E-01
  1.111510000E-01  3.014967912E-01
  4.764800000E-02  7.684809030E-02
  1.667700000E-02 -8.170000032E-06
 
   2
   s  14
  5.055750100E+04  1.128874000E-04
  7.524785600E+03  5.295373000E-04
  1.694327600E+03  2.450038300E-03
  4.728227900E+02  1.005398470E-02
  1.517107500E+02  3.545398060E-02
  5.391874600E+01  1.044071086E-01
  2.065931100E+01  2.412894918E-01
  8.383976000E+00  3.834225483E-01
  3.577015000E+00  3.078514393E-01
  1.547118000E+00  6.872442990E-02
  6.130130000E-01  2.224445000E-04
  2.460680000E-01  1.976748900E-03
  9.908700000E-02  2.057859400E-03
  3.468000000E-02  4.182020000E-04
   s  14
  5.055750100E+04 -2.507420000E-05
  7.524785600E+03 -1.175945000E-04
  1.694327600E+03 -5.456275000E-04
  4.728227900E+02 -2.245077100E-03
  1.517107500E+02 -8.043471800E-03
  5.391874600E+01 -2.442588710E-02
  2.065931100E+01 -6.136791180E-02
  8.383976000E+00 -1.177767835E-01
  3.577015000E+00 -1.550487783E-01
  1.547118000E+00 -1.933316860E-02
  6.130130000E-01  3.996930678E-01
  2.460680000E-01  5.589420949E-01
  9.908700000E-02  1.711195023E-01
  3.468000000E-02  7.456244600E-03
   p   9
  8.333315500E+01  1.344656000E-03
  1.955761100E+01  1.023555500E-02
  6.080365000E+00  4.520067100E-02
  2.179317000E+00  1.410756198E-01
  8.651500000E-01  3.047388085E-01
  3.619440000E-01  3.995281011E-01
  1.547400000E-01  2.719163432E-01
  6.542900000E-02  5.857669330E-02
  2.290000000E-02 -1.263813000E-04
 
[MO]
Sym=     1a  
Ene=   -11.4330
Spin= Alpha
Occup=    1.00000
   1         0.00065450
   2        -0.01109310
   3         0.00000000
   4        -0.00000000
   5        -0.00360614
   6         1.00210667
   7         0.01105289
   8        -0.00000000
   9         0.00000000
  10        -0.00888233
Sym=     1a  
Ene=   -11.3960
Spin= Beta
Occup=    1.00000
   1         0.00116707
   2        -0.00936994
   3         0.00000000
   4        -0.00000000
   5        -0.00268720
   6         1.00170068
   7         0.00702103
   8        -0.00000000
   9         0.00000000
  10        -0.00885603
Sym=     2a  
Ene=    -7.9187
Spin= Alpha
Occup=    1.00000
   1         0.99580078
   2         0.00647987
   3        -0.00000000
   4         0.00000000
   5         0.00045998
   6        -0.01214419
   7         0.00997147
   8         0.00000000
   9         0.00000000
  10        -0.01019234
Sym=     2a  
Ene=    -7.9104
Spin= Beta
Occup=    1.00000
   1         0.99604705
   2         0.00804518
   3        -0.00000000
   4         0.00000000
   5         0.00069043
   6        -0.01224791
   7         0.00934306
   8         0.00000000
   9         0.00000000
  10        -0.00954098
Sym=     3a  
Ene=    -1.0182
Spin= Alpha
Occup=    1.00000
   1        -0.20296978
   2         0.18135190
   3         0.00000000
   4         0.00000000
   5         0.21838966
   6        -0.06674047
   7         0.69458739
   8         0.00000000
   9         0.00000000
  10        -0.32064689
Sym=     3a  
Ene=    -0.9604
Spin= Beta
Occup=    1.00000
   1        -0.20794025
   2         0.23985450
   3         0.00000000
   4         0.00000000
   5         0.24092643
   6        -0.07729454
   7         0.59468083
   8         0.00000000
   9         0.00000000
  10        -0.39972376
Sym=     4a  
Ene=    -0.5534
Spin= Alpha
Occup=    1.00000
   1         0.15514289
   2        -0.07908144
   3        -0.00000000
   4        -0.00000000
   5        -0.13852411
   6         0.03928963
   7         0.48825027
   8        -0.00000000
   9        -0.00000000
  10         0.92102926
Sym=     4a  
Ene=    -0.5036
Spin= Beta
Occup=    1.00000
   1         0.00000000
   2        -0.00000000
   3         0.59783861
   4         0.06783488
   5         0.00000000
   6        -0.00000000
   7        -0.00000000
   8         0.51484173
   9         0.05841748
  10        -0.00000000
Sym=     5a  
Ene=    -0.5365
Spin= Alpha
Occup=    1.00000
   1        -0.00000000
   2         0.00000000
   3        -0.49654824
   4         0.00520718
   5         0.00000000
   6        -0.00000000
   7        -0.00000000
   8        -0.62220336
   9         0.00652489
  10        -0.00000000
Sym=     5a  
Ene=    -0.5036
Spin= Beta
Occup=    1.00000
   1        -0.00000000
   2        -0.00000000
   3        -0.06783488
   4         0.59783861
   5         0.00000000
   6         0.00000000
   7         0.00000000
   8        -0.05841748
   9         0.51484173
  10        -0.00000000
Sym=     6a  
Ene=    -0.5365
Spin= Alpha
Occup=    1.00000
   1        -0.00000000
   2         0.00000000
   3        -0.00520718
   4        -0.49654824
   5         0.00000000
   6        -0.00000000
   7        -0.00000000
   8        -0.00652489
   9        -0.62220336
  10        -0.00000000
Sym=     6a  
Ene=    -0.0944
Spin= Beta
Occup=    0.00000
   1        -0.05536107
   2        -0.75218196
   3        -0.00000000
   4        -0.00000000
   5         0.72268243
   6        -0.04341994
   7         0.20391794
   8        -0.00000000
   9        -0.00000000
  10        -0.12257511
Sym=     7a  
Ene=    -0.0831
Spin= Alpha
Occup=    0.00000
   1         0.08468537
   2         0.77110549
   3         0.00000000
   4         0.00000000
   5        -0.75410271
   6         0.04804173
   7        -0.08284413
   8         0.00000000
   9         0.00000000
  10         0.31547242
Sym=     7a  
Ene=     0.1619
Spin= Beta
Occup=    0.00000
   1         0.14852514
   2         0.11329232
   3        -0.00000000
   4        -0.00000000
   5        -0.27065079
   6         0.04184178
   7         0.52368506
   8         0.00000000
   9         0.00000000
  10         0.93063433
Sym=     8a  
Ene=     0.3685
Spin= Alpha
Occup=    0.00000
   1        -0.00000000
   2        -0.00000000
   3        -1.13767497
   4         0.02119693
   5        -0.00000000
   6         0.00000000
   7         0.00000000
   8         1.07413258
   9        -0.02001302
  10        -0.00000000
Sym=     8a  
Ene=     0.4243
Spin= Beta
Occup=    0.00000
   1        -0.00000000
   2        -0.00000000
   3        -1.07932933
   4         0.11990214
   5         0.00000000
   6         0.00000000
   7         0.00000000
   8         1.12131598
   9        -0.12456641
  10        -0.00000000
Sym=     9a  
Ene=     0.3685
Spin= Alpha
Occup=    0.00000
   1        -0.00000000
   2         0.00000000
   3         0.02119693
   4         1.13767497
   5         0.00000000
   6        -0.00000000
   7        -0.00000000
   8        -0.02001302
   9        -1.07413258
  10        -0.00000000
Sym=     9a  
Ene=     0.4243
Spin= Beta
Occup=    0.00000
   1        -0.00000000
   2        -0.00000000
   3        -0.11990214
   4        -1.07932933
   5         0.00000000
   6         0.00000000
   7        -0.00000000
   8         0.12456641
   9         1.12131598
  10        -0.00000000
Sym=    10a  
Ene=     1.3185
Spin= Alpha
Occup=    0.00000
   1         0.90651478
   2         3.24608393
   3        -0.00000000
   4        -0.00000000
   5         2.13988678
   6        -0.83848343
   7        -3.56850734
   8        -0.00000000
   9         0.00000000
  10         1.42925535
Sym=    10a  
Ene=     1.3350
Spin= Beta
Occup=    0.00000
   1         0.90848860
   2         3.24571663
   3        -0.00000000
   4        -0.00000000
   5         2.13567496
   6        -0.83818909
   7        -3.57666868
   8        -0.00000000
   9         0.00000000
  10         1.43266617
