[Molden Format]
[N_Atoms]
                     2
[Atoms] (AU)
B1          1      5           0.00000000      0.00000000      0.00000000
C2          2      6           0.00000000      0.00000000      1.70075351
[Charge] (Mulliken)
  0.422317823053576     
 -0.422317823053586     
[GTO] (AU)
   1
   s  14
  3.336021700E+04  1.039699991E-04
  4.972095200E+03  5.254399956E-04
  1.125641700E+03  2.509059979E-03
  3.164913600E+02  1.031887991E-02
  1.020072600E+02  3.636632969E-02
  3.629587300E+01  1.064607991E-01
  1.397141000E+01  2.403999880E-01
  5.741156000E+00  3.748581168E-01
  2.494268000E+00  3.100066974E-01
  1.114202000E+00  7.922455933E-02
  4.215490000E-01 -4.947589958E-03
  1.696330000E-01 -7.737119935E-03
  6.853500000E-02 -1.501079987E-03
  2.398700000E-02 -1.333299989E-04
   s  14
  3.336021700E+04 -2.030000008E-05
  4.972095200E+03 -1.025700004E-04
  1.125641700E+03 -4.911300020E-04
  3.164913600E+02 -2.026570008E-03
  1.020072600E+02 -7.261010030E-03
  3.629587300E+01 -2.197722009E-02
  1.397141000E+01 -5.408428022E-02
  5.741156000E+00 -1.022402604E-01
  2.494268000E+00 -1.423595206E-01
  1.114202000E+00 -4.658690019E-02
  4.215490000E-01  3.799402916E-01
  1.696330000E-01  5.890463624E-01
  6.853500000E-02  1.749075107E-01
  2.398700000E-02 -1.142030005E-03
   p   9
  5.500000000E+01  1.229800005E-03
  1.336610100E+01  8.827380035E-03
  4.135394000E+00  3.843340015E-02
  1.481256000E+00  1.150031805E-01
  6.021360000E-01  2.733674011E-01
  2.556360000E-01  4.061972116E-01
  1.111510000E-01  3.014967912E-01
  4.764800000E-02  7.684809030E-02
  1.667700000E-02 -8.170000032E-06
 
   2
   s  14
  5.055750100E+04  1.128874000E-04
  7.524785600E+03  5.295373000E-04
  1.694327600E+03  2.450038300E-03
  4.728227900E+02  1.005398470E-02
  1.517107500E+02  3.545398060E-02
  5.391874600E+01  1.044071086E-01
  2.065931100E+01  2.412894918E-01
  8.383976000E+00  3.834225483E-01
  3.577015000E+00  3.078514393E-01
  1.547118000E+00  6.872442990E-02
  6.130130000E-01  2.224445000E-04
  2.460680000E-01  1.976748900E-03
  9.908700000E-02  2.057859400E-03
  3.468000000E-02  4.182020000E-04
   s  14
  5.055750100E+04 -2.507420000E-05
  7.524785600E+03 -1.175945000E-04
  1.694327600E+03 -5.456275000E-04
  4.728227900E+02 -2.245077100E-03
  1.517107500E+02 -8.043471800E-03
  5.391874600E+01 -2.442588710E-02
  2.065931100E+01 -6.136791180E-02
  8.383976000E+00 -1.177767835E-01
  3.577015000E+00 -1.550487783E-01
  1.547118000E+00 -1.933316860E-02
  6.130130000E-01  3.996930678E-01
  2.460680000E-01  5.589420949E-01
  9.908700000E-02  1.711195023E-01
  3.468000000E-02  7.456244600E-03
   p   9
  8.333315500E+01  1.344656000E-03
  1.955761100E+01  1.023555500E-02
  6.080365000E+00  4.520067100E-02
  2.179317000E+00  1.410756198E-01
  8.651500000E-01  3.047388085E-01
  3.619440000E-01  3.995281011E-01
  1.547400000E-01  2.719163432E-01
  6.542900000E-02  5.857669330E-02
  2.290000000E-02 -1.263813000E-04
 
[MO]
Sym=     1a  
Ene=   -11.5410
Spin= Alpha
Occup=    1.00000
   1         0.00156416
   2        -0.00762674
   3         0.00000000
   4        -0.00000000
   5        -0.00205079
   6         1.00135865
   7         0.00604765
   8         0.00000000
   9         0.00000000
  10        -0.00646256
Sym=     1a  
Ene=   -11.5410
Spin= Beta
Occup=    1.00000
   1         0.00156416
   2        -0.00762674
   3         0.00000000
   4        -0.00000000
   5        -0.00205079
   6         1.00135865
   7         0.00604765
   8         0.00000000
   9         0.00000000
  10        -0.00646256
Sym=     2a  
Ene=    -7.8935
Spin= Alpha
Occup=    1.00000
   1         0.99649988
   2         0.00904329
   3         0.00000000
   4        -0.00000000
   5         0.00530041
   6        -0.01293070
   7         0.00660720
   8         0.00000000
   9         0.00000000
  10        -0.00943553
Sym=     2a  
Ene=    -7.8935
Spin= Beta
Occup=    1.00000
   1         0.99649988
   2         0.00904329
   3         0.00000000
   4        -0.00000000
   5         0.00530041
   6        -0.01293070
   7         0.00660720
   8         0.00000000
   9         0.00000000
  10        -0.00943553
Sym=     3a  
Ene=    -1.0327
Spin= Alpha
Occup=    1.00000
   1        -0.22479145
   2         0.07266758
   3         0.00000000
   4         0.00000000
   5         0.20596602
   6        -0.04839560
   7         0.78311794
   8         0.00000000
   9        -0.00000000
  10        -0.34903136
Sym=     3a  
Ene=    -1.0327
Spin= Beta
Occup=    1.00000
   1        -0.22479145
   2         0.07266758
   3         0.00000000
   4         0.00000000
   5         0.20596602
   6        -0.04839560
   7         0.78311794
   8         0.00000000
   9        -0.00000000
  10        -0.34903136
Sym=     4a  
Ene=    -0.5677
Spin= Alpha
Occup=    1.00000
   1         0.00000000
   2        -0.00000000
   3         0.30961263
   4         0.22666640
   5         0.00000000
   6        -0.00000000
   7        -0.00000000
   8         0.58388775
   9         0.42746232
  10        -0.00000000
Sym=     4a  
Ene=    -0.5677
Spin= Beta
Occup=    1.00000
   1         0.00000000
   2        -0.00000000
   3         0.30961263
   4         0.22666640
   5         0.00000000
   6        -0.00000000
   7        -0.00000000
   8         0.58388775
   9         0.42746232
  10        -0.00000000
Sym=     5a  
Ene=    -0.5677
Spin= Alpha
Occup=    1.00000
   1        -0.00000000
   2         0.00000000
   3        -0.22666640
   4         0.30961263
   5         0.00000000
   6        -0.00000000
   7         0.00000000
   8        -0.42746232
   9         0.58388775
  10         0.00000000
Sym=     5a  
Ene=    -0.5677
Spin= Beta
Occup=    1.00000
   1        -0.00000000
   2         0.00000000
   3        -0.22666640
   4         0.30961263
   5         0.00000000
   6        -0.00000000
   7         0.00000000
   8        -0.42746232
   9         0.58388775
  10         0.00000000
Sym=     6a  
Ene=     0.0037
Spin= Alpha
Occup=    1.00000
   1        -0.02230475
   2        -0.77403504
   3        -0.00000000
   4         0.00000000
   5         0.64075337
   6        -0.02450586
   7         0.22271519
   8        -0.00000000
   9        -0.00000000
  10         0.02737271
Sym=     6a  
Ene=     0.0037
Spin= Beta
Occup=    0.00000
   1        -0.02230475
   2        -0.77403504
   3        -0.00000000
   4         0.00000000
   5         0.64075337
   6        -0.02450586
   7         0.22271519
   8        -0.00000000
   9        -0.00000000
  10         0.02737271
Sym=     7a  
Ene=    -0.0638
Spin= Alpha
Occup=    0.00000
   1         0.18284783
   2         0.21409760
   3         0.00000000
   4        -0.00000000
   5        -0.36976049
   6         0.04623090
   7         0.40157461
   8         0.00000000
   9         0.00000000
  10         0.98516006
Sym=     7a  
Ene=    -0.0638
Spin= Beta
Occup=    0.00000
   1         0.18284783
   2         0.21409760
   3         0.00000000
   4        -0.00000000
   5        -0.36976049
   6         0.04623090
   7         0.40157461
   8         0.00000000
   9         0.00000000
  10         0.98516006
Sym=     8a  
Ene=     0.3679
Spin= Alpha
Occup=    0.00000
   1        -0.00000000
   2        -0.00000000
   3        -0.97746531
   4        -0.66231777
   5         0.00000000
   6         0.00000000
   7         0.00000000
   8         0.83514533
   9         0.56588361
  10        -0.00000000
Sym=     8a  
Ene=     0.3679
Spin= Beta
Occup=    0.00000
   1        -0.00000000
   2        -0.00000000
   3        -0.97746531
   4        -0.66231777
   5         0.00000000
   6         0.00000000
   7         0.00000000
   8         0.83514533
   9         0.56588361
  10        -0.00000000
Sym=     9a  
Ene=     0.3679
Spin= Alpha
Occup=    0.00000
   1         0.00000000
   2         0.00000000
   3         0.66231777
   4        -0.97746531
   5         0.00000000
   6        -0.00000000
   7        -0.00000000
   8        -0.56588361
   9         0.83514533
  10        -0.00000000
Sym=     9a  
Ene=     0.3679
Spin= Beta
Occup=    0.00000
   1         0.00000000
   2         0.00000000
   3         0.66231777
   4        -0.97746531
   5         0.00000000
   6        -0.00000000
   7        -0.00000000
   8        -0.56588361
   9         0.83514533
  10        -0.00000000
Sym=    10a  
Ene=     1.3075
Spin= Alpha
Occup=    0.00000
   1        -0.89908278
   2        -3.24354489
   3         0.00000000
   4         0.00000000
   5        -2.15056749
   6         0.84128435
   7         3.55498962
   8        -0.00000000
   9         0.00000000
  10        -1.41433465
Sym=    10a  
Ene=     1.3075
Spin= Beta
Occup=    0.00000
   1        -0.89908278
   2        -3.24354489
   3         0.00000000
   4         0.00000000
   5        -2.15056749
   6         0.84128435
   7         3.55498962
   8        -0.00000000
   9         0.00000000
  10        -1.41433465
