   This run of MOLCAS is using the pymolcas driver

                             OPE
                             OPE          NMOL  CASOP  ENMOLC A   SO
                 OPE        NMOLC        AS  OP EN  MO LC     AS  OP
                OPENM       OL CA        SO  PE NM  OL CA     SOP EN
                OP EN      MO   LC       AS  OP ENMOL  CASO   PENMOL
                OP  EN     MO   LC       AS  OP EN     MO     LC ASO
               OP   E  NMOL  C  AS       OP  EN MO     LC     AS  OP
               OP  E   NMO   LC AS        OPEN  MO     LCASOP EN   M
               O  PEN   MO  LCA  SO
            OPE   NMO   L   CAS    OP
        OPENMOL  CASOP     ENMOL   CASOPE
     OPENMOLCA   SOPENMOLCASOPEN   MOLCASOPE
    OPENMOLCAS   OP           EN   MOL    CAS
    OPENMOLCAS       OP  ENM        O     LCA
    OPENMOLCAS    OPEN  MOLCASO     P  E  NMO
    OPENMOLCAS     OP               E  N  MOL
    OPENMOLCA   SO           PENM   O  L  CAS    OPEN    MO    LCAS
    OPENMOLCA   SOP           ENM   O  L  CAS   OP  EN  MOLC  AS   O
    OPENMOLCA   SOPE           NM      O  LCA   S      OP  EN MO
    OPENMOLC                AS         O  PEN   M      OL  CA  SOPE
    OPENMO        LCASOPE  NMOL        C  ASO   P      ENMOLC     AS
    OPE     NMO      LCA  SO     P     E   NM   OL  CA SO  PE N   MO
          OPENMOLCA            SOPE   NMO        LCAS  O    P  ENMO
     OPENMOLCASOPENMOLCASOPENMOLCASOPENMOLCA
        OPENMOLCASOPENMOLCASOPENMOLCASOPE
            OPENMOLCASOPENMOLCASOPENM
               OPENMOLCASOPENMOLCA        version: ea724fe96-dirty
                   OPENMOLCASO
                       OPE                tag:

 OpenMolcas is free software; you can redistribute it and/or modify it
 under the terms of the GNU Lesser General Public License version 2.1.
 OpenMolcas is distributed in the hope that it will be useful, but it
 is provided "as is" and without any express or implied warranties.
 For more details see the full text of the license in the file
 LICENSE or in <http://www.gnu.org/licenses/>.

                 Copyright (C) The OpenMolcas Authors
           For the author list and the recommended citation,
                   consult the file CONTRIBUTORS.md

           *************************************************
           * pymolcas version py2.28                       *
           *   build c4a6d18ded8cb6cad61d2372a9abd97c      *
           *   (after the EMIL interpreter by V. Veryazov) *
           *************************************************

configuration info
------------------
C Compiler ID: Intel
C flags: -std=gnu99
Fortran Compiler ID: Intel
Fortran flags: -fpp -i8 -r8 -heap-arrays
Definitions: _MOLCAS_;_I8_;_LINUX_
Parallel: OFF (GA=OFF)


   --------------------------------------------------------------------------------
  |
  |              Project: H8_2.37
  |       Submitted from: /home/grierjones/DDCASPT2/hydrogen_comps/H8_chain/H8_2.37
  |         Scratch area: /tmp/H8_2.37
  |      Save outputs to: /home/grierjones/DDCASPT2/hydrogen_comps/H8_chain/H8_2.37
  |               Molcas: /home/grierjones/Test/build
  |
  | Scratch area is empty
  |
  |       MOLCAS_DRIVER = /usr/local/pymolcas
  | MOLCAS_KEEP_WORKDIR = NO
  |  MOLCAS_NEW_WORKDIR = YES
  |       MOLCAS_NPROCS = 1
  |        MOLCAS_PRINT = NORMAL
  |       MOLCAS_SOURCE = /home/grierjones/Test/build
  |    MOLCAS_STRUCTURE = 0
  |
   --------------------------------------------------------------------------------

++ ---------   Input file   ---------

&GATEWAY
coord=H8_2.37.xyz
Basis = ANO-RCC-VDZP
Group = nosymm
Expert
End of Input

&SEWARD
End of Input

&SCF

>>> COPY $WorkDir/H8_2.37.scf.h5 $CurrDir/

&RASSCF
Title= RASSCF
FileOrb
/home/grierjones/DDCASPT2/hydrogen_comps/H8_chain/H8_2.35/H8_2.35.RasOrb
NACTEL
8 0 0
Inactive
0
RAS2
8
Symmetry
1
Spin
1
orblisting
all
ITERation
200 100
CIMX
200
SDAV
500

>>> COPY $WorkDir/H8_2.37.rasscf.h5 $CurrDir/

>>> COPY $WorkDir/GMJ_Fock_MO.csv $CurrDir/H8_2.37.GMJ_Fock_MO.csv

>>> COPY $WorkDir/GMJ_PT2_Fock_MO.csv $CurrDir/H8_2.37.GMJ_PT2_Fock_MO.csv

&MOTRA
Frozen=0
LUMORB

>>> COPY $WorkDir/GMJ_one_int_indx.csv $CurrDir/H8_2.37.GMJ_one_int_indx.csv

>>> COPY $WorkDir/GMJ_one_int.csv $CurrDir/H8_2.37.GMJ_one_int.csv

>>> COPY $WorkDir/GMJ_two_int_indx.csv $CurrDir/H8_2.37.GMJ_two_int_indx.csv

>>> COPY $WorkDir/GMJ_two_int.csv $CurrDir/H8_2.37.GMJ_two_int.csv

&CASPT2
Frozen
0

>>> FOREACH i IN (B,E,F,G,H)

  >>> FOREACH j IN (P,M)

    >>> IF (-FILE GMJ_e2_${i}_${j}.csv)

      >>> COPY $WorkDir/GMJ_RHS_${i}_${j}.csv $CurrDir/GMJ_RHS_${i}_${j}.csv

      >>> COPY $WorkDir/GMJ_IVECW_${i}_${j}.csv $CurrDir/GMJ_IVECW_${i}_${j}.csv

      >>> COPY $WorkDir/GMJ_IVECX_${i}_${j}.csv $CurrDir/GMJ_IVECX_${i}_${j}.csv

      >>> COPY $WorkDir/GMJ_IVECC2_${i}_${j}.csv $CurrDir/GMJ_IVECC2_${i}_${j}.csv

      >>> COPY $WorkDir/GMJ_e2_${i}_${j}.csv $CurrDir/GMJ_e2_${i}_${j}.csv

    >>> END IF

  >>> END FOREACH

>>> END FOREACH

>>> FOREACH i IN (A,C,D)

  >>> IF (-FILE GMJ_e2_$i.csv)

    >>> COPY $WorkDir/GMJ_RHS_$i.csv $CurrDir/GMJ_RHS_$i.csv

    >>> COPY $WorkDir/GMJ_IVECW_$i.csv $CurrDir/GMJ_IVECW_$i.csv

    >>> COPY $WorkDir/GMJ_IVECX_$i.csv $CurrDir/GMJ_IVECX_$i.csv

    >>> COPY $WorkDir/GMJ_IVECC2_$i.csv $CurrDir/GMJ_IVECC2_$i.csv

    >>> COPY $WorkDir/GMJ_e2_$i.csv $CurrDir/GMJ_e2_$i.csv

  >>> END IF

>>> END FOREACH

-- ----------------------------------

--- Start Module: gateway at Tue Nov 12 16:51:42 2024 ---
 
()()()()()()()()()()()()()()()()()()()()()()()()()()()()()()()()()()()()()()()()()()()()()()()()()()

                                              &GATEWAY

                                   only a single process is used
                       available to each process: 2.0 GB of memory, 1 thread?
()()()()()()()()()()()()()()()()()()()()()()()()()()()()()()()()()()()()()()()()()()()()()()()()()()
 
 ###############################################################################
 ###############################################################################
 ###                                                                         ###
 ###                                                                         ###
 ###                                                                         ###
 ###    WARNING: EXPERT option is ON!                                        ###
 ###                                                                         ###
 ###                                                                         ###
 ###############################################################################
 ###############################################################################
 
++    Symmetry information:
      ---------------------
 
                    Character Table for C1 
 
                             E  
                    a        1  x, y, xy, Rz, z, xz, Ry, yz, Rx, I
--
 
 
++    Basis set information:
      ----------------------
 
 
      Basis set label: H.ANO-RCC...2S1P.
 
      Electronic valence basis set:
      ------------------
      Associated Effective Charge   1.000000 au
      Associated Actual Charge      1.000000 au
      Nuclear Model: Point charge
 
      Shell  nPrim  nBasis  Cartesian Spherical Contaminant
         s       8       2        X                  
         p       4       1        X                  
--
 
 
++    Molecular structure info:
      -------------------------
 
                    ************************************************ 
                    **** Cartesian Coordinates / Bohr, Angstrom **** 
                    ************************************************ 
 
     Center  Label                x              y              z                     x              y              z
        1      H1               0.000000       0.000000       0.000000              0.000000       0.000000       0.000000
        2      H2               0.000000       0.000000       4.478078              0.000000       0.000000       2.369697
        3      H3               0.000000       0.000000       8.956157              0.000000       0.000000       4.739394
        4      H4               0.000000       0.000000      13.434235              0.000000       0.000000       7.109091
        5      H5               0.000000       0.000000      17.912313              0.000000       0.000000       9.478788
        6      H6               0.000000       0.000000      22.390392              0.000000       0.000000      11.848485
        7      H7               0.000000       0.000000      26.868470              0.000000       0.000000      14.218182
        8      H8               0.000000       0.000000      31.346548              0.000000       0.000000      16.587879
 
                    *************************************** 
                    *    InterNuclear Distances / Bohr    * 
                    *************************************** 
 
               1 H1            2 H2            3 H3            4 H4            5 H5            6 H6    
    1 H1       0.000000
    2 H2       4.478078        0.000000
    3 H3       8.956157        4.478078        0.000000
    4 H4      13.434235        8.956157        4.478078        0.000000
    5 H5      17.912313       13.434235        8.956157        4.478078        0.000000
    6 H6      22.390392       17.912313       13.434235        8.956157        4.478078        0.000000
    7 H7      26.868470       22.390392       17.912313       13.434235        8.956157        4.478078
    8 H8      31.346548       26.868470       22.390392       17.912313       13.434235        8.956157
 
               7 H7            8 H8    
    7 H7       0.000000
    8 H8       4.478078        0.000000
 
                    ******************************************* 
                    *    InterNuclear Distances / Angstrom    * 
                    ******************************************* 
 
               1 H1            2 H2            3 H3            4 H4            5 H5            6 H6    
    1 H1       0.000000
    2 H2       2.369697        0.000000
    3 H3       4.739394        2.369697        0.000000
    4 H4       7.109091        4.739394        2.369697        0.000000
    5 H5       9.478788        7.109091        4.739394        2.369697        0.000000
    6 H6      11.848485        9.478788        7.109091        4.739394        2.369697        0.000000
    7 H7      14.218182       11.848485        9.478788        7.109091        4.739394        2.369697
    8 H8      16.587879       14.218182       11.848485        9.478788        7.109091        4.739394
 
               7 H7            8 H8    
    7 H7       0.000000
    8 H8       2.369697        0.000000
--
 
 
            Nuclear Potential Energy              3.06891844 au
 
 ###############################################################################
 ###############################################################################
 ###                                                                         ###
 ###                                                                         ###
 ###    There were warnings during the execution                             ###
 ###    Please, check the output with care!                                  ###
 ###                                                                         ###
 ###                                                                         ###
 ###############################################################################
 ###############################################################################
--- Stop Module: gateway at Tue Nov 12 16:51:43 2024 /rc=_RC_ALL_IS_WELL_ ---
*** files: xmldump
    saved to directory /home/grierjones/DDCASPT2/hydrogen_comps/H8_chain/H8_2.37

--- Start Module: seward at Tue Nov 12 16:51:43 2024 ---
 
()()()()()()()()()()()()()()()()()()()()()()()()()()()()()()()()()()()()()()()()()()()()()()()()()()

                                              &SEWARD

                                   only a single process is used
                       available to each process: 2.0 GB of memory, 1 thread?
()()()()()()()()()()()()()()()()()()()()()()()()()()()()()()()()()()()()()()()()()()()()()()()()()()
 
 ###############################################################################
 ###############################################################################
 ###                                                                         ###
 ###                                                                         ###
 ###                                                                         ###
 ###    WARNING: EXPERT option is ON!                                        ###
 ###                                                                         ###
 ###                                                                         ###
 ###############################################################################
 ###############################################################################
               SEWARD will generate:
                  Multipole Moment integrals up to order  2
                  Kinetic Energy integrals
                  Nuclear Attraction integrals (point charge)
                  One-Electron Hamiltonian integrals
                  Velocity integrals
                  Relativistic Douglas-Kroll-Hess integrals:
                    - Parametrization         : EXP
                    - DKH order of Hamiltonian: 2
                    - DKH order of Properties : 0
                         - multipole moment operators
                         - electric potential operators
                         - contact operators
                  Atomic mean-field integrals
                  Two-Electron Repulsion integrals
 
                   Integrals are discarded if absolute value <: 0.10E-13
                   Integral cutoff threshold is set to       <: 0.10E-15
 
            Nuclear Potential Energy              3.06891844 au
 
 
      Basis set specifications :
      Symmetry species         a  
      Basis functions           40
 
 
  Input file to MOLDEN was generated!
 
 ###############################################################################
 ###############################################################################
 ###                                                                         ###
 ###                                                                         ###
 ###    There were warnings during the execution                             ###
 ###    Please, check the output with care!                                  ###
 ###                                                                         ###
 ###                                                                         ###
 ###############################################################################
 ###############################################################################
--- Stop Module: seward at Tue Nov 12 16:51:43 2024 /rc=_RC_ALL_IS_WELL_ ---
*** files: H8_2.37.GssOrb H8_2.37.guessorb.h5 H8_2.37.guessorb.molden xmldump
    saved to directory /home/grierjones/DDCASPT2/hydrogen_comps/H8_chain/H8_2.37

*** symbolic link created: INPORB -> H8_2.37.GssOrb
--- Start Module: scf at Tue Nov 12 16:51:43 2024 ---
 
()()()()()()()()()()()()()()()()()()()()()()()()()()()()()()()()()()()()()()()()()()()()()()()()()()

                                                &SCF

                                   only a single process is used
                       available to each process: 2.0 GB of memory, 1 thread?
()()()()()()()()()()()()()()()()()()()()()()()()()()()()()()()()()()()()()()()()()()()()()()()()()()
 
++    Input section:
      --------------
 
      Header of the integral files:
      
       Integrals generated by seward 4.2.0  , Tue Nov 12 16:51:43 2024
 
 
      Cartesian coordinates in Angstrom:
      -----------------------------------------------------
      No.  Label        X            Y            Z        
      -----------------------------------------------------
       1   H1         0.00000000   0.00000000   0.00000000
       2   H2         0.00000000   0.00000000   2.36969700
       3   H3         0.00000000   0.00000000   4.73939400
       4   H4         0.00000000   0.00000000   7.10909100
       5   H5         0.00000000   0.00000000   9.47878800
       6   H6         0.00000000   0.00000000  11.84848500
       7   H7         0.00000000   0.00000000  14.21818200
       8   H8         0.00000000   0.00000000  16.58787900
      -----------------------------------------------------
      Nuclear repulsion energy =    3.06891844
--
 
++    Orbital specifications:
      -----------------------
 
      Symmetry species               1
                                     a
      Frozen orbitals                0
      Occupied orbitals              4
      Secondary orbitals            36
      Deleted orbitals               0
      Total number of orbitals      40
      Number of basis functions     40
--
 
      Molecular charge                           0.000
 
++    Optimization specifications:
      ----------------------------
 
      SCF Algorithm: Conventional
      Minimized density differences are used
      Number of density matrices in core                5
      Maximum number of NDDO SCF iterations           400
      Maximum number of HF SCF iterations             400
      Threshold for SCF energy change            0.10E-08
      Threshold for density matrix               0.10E-03
      Threshold for Fock matrix                  0.15E-03
      Threshold for linear dependence            0.10E-08
      Threshold at which DIIS is turned on       0.15E+00
      Threshold at which QNR/C2DIIS is turned on 0.75E-01
      Threshold for Norm(delta) (QNR/C2DIIS)     0.20E-04
      DIIS extrapolation of the SCF procedure
      All orbitals punched on: SCFORB
--
 
      Input vectors read from INPORB
      Orbital file label: *Guess orbitals
 
 
++ Convergence information
                                   SCF        iterations: Energy and convergence statistics
 
Iter     Tot. SCF        One-elec.       Two-elec.     Energy      Max Dij or  Max Fij      DNorm      TNorm      AccCon     Time
         Energy          Energy          Energy        Change      Delta Norm                                                in Sec.
   1    -3.295616359   -10.302223117     3.937688323   0.00E+00    0.37E+00*   0.12E+00*    0.43E+01   0.79E+01   None         0.
   2    -3.509700826   -10.269648798     3.691029537  -0.21E+00*   0.14E+00*   0.23E-01*    0.13E+01   0.76E+01   EDIIS        0.
   3    -3.520799113   -10.208960308     3.619242760  -0.11E-01*   0.80E-01*   0.90E-02*    0.29E+00   0.76E+01   EDIIS        0.
   4    -3.522994663   -10.211652573     3.619739474  -0.22E-02*   0.47E-01*   0.66E-02*    0.15E+00   0.76E+01   c2DIIS       0.
   5    -3.523909457   -10.201542887     3.608714996  -0.91E-03*   0.16E-01*   0.27E-02*    0.33E-01   0.76E+01   QNRc2DIIS    0.
   6    -3.524087903   -10.206210429     3.613204090  -0.18E-03*   0.17E-01*   0.15E-02*    0.11E-01   0.76E+01   QNRc2DIIS    0.
   7    -3.524176173   -10.204761922     3.611667314  -0.88E-04*   0.38E-02*   0.44E-03*    0.54E-02   0.76E+01   QNRc2DIIS    0.
   8    -3.524179342   -10.203571305     3.610473528  -0.32E-05*   0.78E-03*   0.18E-03*    0.20E-02   0.76E+01   QNRc2DIIS    0.
   9    -3.524179853   -10.203704637     3.610606349  -0.51E-06*   0.79E-04*   0.10E-04     0.39E-03   0.76E+01   QNRc2DIIS    0.
  10    -3.524179856   -10.203696624     3.610598333  -0.29E-08*   0.21E-04*   0.26E-05     0.14E-03   0.76E+01   QNRc2DIIS    0.
  11    -3.524179856   -10.203697512     3.610599220  -0.19E-09    0.56E-05    0.48E-06     0.11E-04   0.76E+01   QNRc2DIIS    0.
 
       Convergence after 11 Macro Iterations
--
 
 *****************************************************************************************************************************
 *                                                                                                                           *
 *                                             SCF/KS-DFT Program, Final results                                             *
 *                                                                                                                           *
 *                                                                                                                           *
 *                                                                                                                           *
 *                                                       Final Results                                                       *
 *                                                                                                                           *
 *****************************************************************************************************************************
 
::    Total SCF energy                                 -3.5241798558
      One-electron energy                             -10.2036975116
      Two-electron energy                               3.6105992205
      Nuclear repulsion energy                          3.0689184353
      Kinetic energy (interpolated)                     2.6446180835
      Virial theorem                                    1.3325855547
      Total spin, S(S+1)                                0.0000000000
      Total spin, S                                     0.0000000000
      Max non-diagonal density matrix element           0.0000054942
      Max non-diagonal Fock matrix element              0.0000003916
 
 
      All orbitals with orbital energies smaller than  E(LUMO)+0.5 are printed
 
++    Molecular orbitals:
      -------------------
 
      Title: SCF orbitals

      Molecular orbitals for symmetry species 1: a  
 
          Orbital            1         2         3         4         5         6         7         8         9        10    
          Energy           -0.4051   -0.3884   -0.3630   -0.3348   -0.1455   -0.1061   -0.0651   -0.0337    0.3223    0.3373
          Occ. No.          2.0000    2.0000    2.0000    2.0000    0.0000    0.0000    0.0000    0.0000    0.0000    0.0000
 
        1 H1     1s         0.1641   -0.3080    0.3885   -0.3146    0.3755   -0.5100    0.4492   -0.2583   -0.1160    0.1690
        2 H1     2s         0.0272   -0.0537    0.0735   -0.0650    0.1193   -0.1749    0.1628   -0.0956    0.2355   -0.4054
        3 H1     2px        0.0000   -0.0000    0.0000   -0.0000    0.0000   -0.0000    0.0000   -0.0000    0.0000    0.0000
        4 H1     2py       -0.0000    0.0000    0.0000    0.0000    0.0000    0.0000   -0.0000   -0.0000    0.0000    0.0000
        5 H1     2pz        0.0069   -0.0115    0.0120   -0.0078   -0.0027    0.0097   -0.0157    0.0131   -0.0170    0.0247
        6 H2     1s         0.2268   -0.3781    0.3895   -0.2433   -0.1944    0.4575   -0.5856    0.4146   -0.1818    0.2193
        7 H2     2s         0.0325   -0.0703    0.0966   -0.0768   -0.0554    0.1596   -0.2171    0.1532    0.2104   -0.2779
        8 H2     2px       -0.0000   -0.0000    0.0000   -0.0000    0.0000   -0.0000   -0.0000    0.0000    0.0000    0.0000
        9 H2     2py       -0.0000    0.0000   -0.0000    0.0000    0.0000   -0.0000   -0.0000   -0.0000    0.0000    0.0000
       10 H2     2pz       -0.0006    0.0047   -0.0114    0.0126   -0.0174    0.0168   -0.0032   -0.0062    0.0032   -0.0087
       11 H3     1s         0.3470   -0.2891   -0.1439    0.4082   -0.4614    0.1312    0.4735   -0.5658   -0.1949    0.1520
       12 H3     2s         0.0585   -0.0436   -0.0476    0.1066   -0.1506    0.0401    0.1758   -0.2057    0.2618   -0.2302
       13 H3     2px        0.0000   -0.0000    0.0000    0.0000   -0.0000    0.0000    0.0000    0.0000   -0.0000    0.0000
       14 H3     2py        0.0000   -0.0000   -0.0000    0.0000   -0.0000    0.0000   -0.0000   -0.0000    0.0000    0.0000
       15 H3     2pz        0.0066   -0.0003   -0.0108    0.0110    0.0132   -0.0202    0.0063    0.0105   -0.0050   -0.0027
       16 H4     1s         0.3719   -0.1924   -0.2789    0.3741    0.3872   -0.4210   -0.2299    0.6253   -0.2120    0.0514
       17 H4     2s         0.0583   -0.0476   -0.0510    0.1032    0.1227   -0.1540   -0.0817    0.2280    0.2762   -0.0793
       18 H4     2px        0.0000    0.0000    0.0000   -0.0000   -0.0000    0.0000    0.0000    0.0000   -0.0000   -0.0000
       19 H4     2py       -0.0000    0.0000   -0.0000    0.0000    0.0000   -0.0000   -0.0000   -0.0000    0.0000    0.0000
       20 H4     2pz       -0.0041    0.0090   -0.0003   -0.0134    0.0182    0.0043   -0.0198    0.0027    0.0029   -0.0080
       21 H5     1s         0.3719    0.1924   -0.2789   -0.3741    0.3872    0.4210   -0.2299   -0.6253   -0.2120   -0.0514
       22 H5     2s         0.0583    0.0476   -0.0510   -0.1032    0.1227    0.1540   -0.0817   -0.2280    0.2762    0.0793
       23 H5     2px       -0.0000    0.0000   -0.0000    0.0000   -0.0000   -0.0000    0.0000    0.0000   -0.0000    0.0000
       24 H5     2py       -0.0000   -0.0000   -0.0000    0.0000   -0.0000   -0.0000   -0.0000    0.0000    0.0000    0.0000
       25 H5     2pz        0.0041    0.0090    0.0003   -0.0134   -0.0182    0.0043    0.0198    0.0027   -0.0029   -0.0080
       26 H6     1s         0.3470    0.2891   -0.1439   -0.4082   -0.4614   -0.1312    0.4735    0.5658   -0.1949   -0.1520
       27 H6     2s         0.0585    0.0436   -0.0476   -0.1066   -0.1506   -0.0401    0.1758    0.2057    0.2618    0.2302
       28 H6     2px       -0.0000   -0.0000    0.0000    0.0000   -0.0000    0.0000    0.0000    0.0000   -0.0000    0.0000
       29 H6     2py       -0.0000    0.0000   -0.0000   -0.0000    0.0000   -0.0000    0.0000    0.0000    0.0000   -0.0000
       30 H6     2pz       -0.0066   -0.0003    0.0108    0.0110   -0.0132   -0.0202   -0.0063    0.0105    0.0050   -0.0027
       31 H7     1s         0.2268    0.3781    0.3895    0.2433   -0.1944   -0.4575   -0.5856   -0.4146   -0.1818   -0.2193
       32 H7     2s         0.0325    0.0703    0.0966    0.0768   -0.0554   -0.1596   -0.2171   -0.1532    0.2104    0.2779
       33 H7     2px        0.0000   -0.0000   -0.0000    0.0000   -0.0000    0.0000   -0.0000    0.0000   -0.0000   -0.0000
       34 H7     2py       -0.0000    0.0000    0.0000   -0.0000    0.0000    0.0000    0.0000   -0.0000   -0.0000    0.0000
       35 H7     2pz        0.0006    0.0047    0.0114    0.0126    0.0174    0.0168    0.0032   -0.0062   -0.0032   -0.0087
       36 H8     1s         0.1641    0.3080    0.3885    0.3146    0.3755    0.5100    0.4492    0.2583   -0.1160   -0.1690
       37 H8     2s         0.0272    0.0537    0.0735    0.0650    0.1193    0.1749    0.1628    0.0956    0.2355    0.4054
       38 H8     2px       -0.0000   -0.0000    0.0000    0.0000    0.0000    0.0000   -0.0000    0.0000   -0.0000   -0.0000
       39 H8     2py        0.0000   -0.0000    0.0000   -0.0000    0.0000    0.0000   -0.0000   -0.0000    0.0000    0.0000
       40 H8     2pz       -0.0069   -0.0115   -0.0120   -0.0078    0.0027    0.0097    0.0157    0.0131    0.0170    0.0247
--
 
 
++    Molecular charges:
      ------------------
 
      Mulliken charges per centre and basis function type
      ---------------------------------------------------
 
                H1      H2      H3      H4      H5      H6      H7      H8    
      1s       0.8799  0.9413  0.9150  0.9207  0.9207  0.9150  0.9413  0.8799
      2s       0.0777  0.0872  0.0760  0.0782  0.0782  0.0760  0.0872  0.0777
      2px      0.0000  0.0000  0.0000  0.0000  0.0000  0.0000  0.0000  0.0000
      2pz      0.0053  0.0063  0.0062  0.0062  0.0062  0.0062  0.0063  0.0053
      2py      0.0000  0.0000  0.0000  0.0000  0.0000  0.0000  0.0000  0.0000
      Total    0.9630  1.0348  0.9972  1.0051  1.0051  0.9972  1.0348  0.9630
 
      N-E      0.0370 -0.0348  0.0028 -0.0051 -0.0051  0.0028 -0.0348  0.0370
 
      Total electronic charge=    8.000000
 
      Total            charge=   -0.000000
--
 
 
  Input file to MOLDEN was generated!
 
 
++    Static properties:
      ------------------
 
 
      LoProp Charges per center
 

                   H1       H2       H3       H4       H5       H6       H7       H8    
      Nuclear      1.0000   1.0000   1.0000   1.0000   1.0000   1.0000   1.0000   1.0000
      Electronic  -0.9782  -1.0182  -0.9986  -1.0050  -1.0050  -0.9986  -1.0182  -0.9782
 
      Total        0.0218  -0.0182   0.0014  -0.0050  -0.0050   0.0014  -0.0182   0.0218
--
 
 
++    Natural Bond Order analysis
      ---------------------------
      Based on LoProp computed density
      -------------------------------------------------------------------------------------
      Atom A       Atom B       Bond Order
      -------------------------------------------------------------------------------------
      NBO located      0.964 non-bonded electrons on atom H1        
      NBO located      1.006 non-bonded electrons on atom H3        
      NBO located      1.013 non-bonded electrons on atom H4        
      NBO located      1.013 non-bonded electrons on atom H5        
      NBO located      1.006 non-bonded electrons on atom H6        
      NBO located      0.964 non-bonded electrons on atom H8        
      The remaining    2.034 electrons are to be considered as diffuse
--
 
 
++    Molecular properties:
      ---------------------
 
      Charge (e):
                      =   -0.0000
      Dipole Moment (Debye):
      Origin of the operator (Ang)=    0.0000    0.0000    0.0000
                   X= -1.0492E-13               Y=  3.5006E-14               Z=  2.9619E-12           Total=  2.9639E-12
      Quadrupole Moment (Debye*Ang):
      Origin of the operator (Ang)=    0.0000    0.0000    8.2939
                  XX= -1.8425E+01              XY=  1.8960E-28              XZ=  9.4447E-13              YY= -1.8425E+01
                  YZ= -2.6048E-13              ZZ=  7.8611E-01
      In traceless form (Debye*Ang)
                  XX= -9.6057E+00              XY=  2.8441E-28              XZ=  1.4167E-12              YY= -9.6057E+00
                  YZ= -3.9071E-13              ZZ=  1.9211E+01
--
 
 
  Input file to MOLDEN was generated!
 
 ###############################################################################
 ###############################################################################
 ###                                                                         ###
 ###                                                                         ###
 ###    RunFile label nBas                                                   ###
 ###    was used       78 times                                              ###
 ###                                                                         ###
 ###                                                                         ###
 ###############################################################################
 ###############################################################################
--- Stop Module: scf at Tue Nov 12 16:51:43 2024 /rc=_RC_ALL_IS_WELL_ ---
*** files: H8_2.37.LprOrb H8_2.37.LoProp.molden H8_2.37.scf.molden H8_2.37.ScfOrb H8_2.37.scf.h5 xmldump
    saved to directory /home/grierjones/DDCASPT2/hydrogen_comps/H8_chain/H8_2.37

>>> COPY /tmp/H8_2.37/H8_2.37.scf.h5 /home/grierjones/DDCASPT2/hydrogen_comps/H8_chain/H8_2.37/

*** symbolic link created: INPORB -> H8_2.37.ScfOrb
--- Start Module: rasscf at Tue Nov 12 16:51:43 2024 ---
 
()()()()()()()()()()()()()()()()()()()()()()()()()()()()()()()()()()()()()()()()()()()()()()()()()()

                                              &RASSCF

                                   only a single process is used
                       available to each process: 2.0 GB of memory, 1 thread?
()()()()()()()()()()()()()()()()()()()()()()()()()()()()()()()()()()()()()()()()()()()()()()()()()()
 
 
      Header of the ONEINT file:
      --------------------------
      
      Integrals generated by seward 4.2.0  , Tue Nov 12 16:51:43 2024
 
 
      OrdInt status: non-squared
 
 
      Cartesian coordinates in Angstrom:
      -----------------------------------------------------
      No.  Label        X            Y            Z        
      -----------------------------------------------------
       1   H1         0.00000000   0.00000000   0.00000000
       2   H2         0.00000000   0.00000000   2.36969700
       3   H3         0.00000000   0.00000000   4.73939400
       4   H4         0.00000000   0.00000000   7.10909100
       5   H5         0.00000000   0.00000000   9.47878800
       6   H6         0.00000000   0.00000000  11.84848500
       7   H7         0.00000000   0.00000000  14.21818200
       8   H8         0.00000000   0.00000000  16.58787900
      -----------------------------------------------------
      Nuclear repulsion energy =    3.06891844
 
++    Wave function specifications:
      -----------------------------
 
      Number of closed shell electrons           0
      Number of electrons in active shells       8
      Max number of holes in RAS1 space          0
      Max nr of electrons in RAS3 space          0
      Number of inactive orbitals                0
      Number of active orbitals                  8
      Number of secondary orbitals              32
      Spin quantum number                      0.0
      State symmetry                             1
--
 
++    Orbital specifications:
      -----------------------
 
      Symmetry species                           1
                                                 a
      Frozen orbitals                            0
      Inactive orbitals                          0
      Active orbitals                            8
      RAS1 orbitals                              0
      RAS2 orbitals                              8
      RAS3 orbitals                              0
      Secondary orbitals                        32
      Deleted orbitals                           0
      Number of basis functions                 40
--
 
++    CI expansion specifications:
      ----------------------------
 
      Number of CSFs                          1764
      Number of determinants                  2485
      Number of root(s) required                 1
      Root chosen for geometry opt.              1
      CI root used                               1
         
      highest root included in the CI            1
      max. size of the explicit Hamiltonian    500
--
 
++    Optimization specifications:
      ----------------------------
 
      RASSCF algorithm: Conventional
      Maximum number of macro iterations       200
      Maximum number of SX iterations          100
      Threshold for RASSCF energy            0.100E-07
      Threshold for max MO rotation          0.100E+00
      Threshold for max BLB element          0.100E-03
      Level shift parameter                  0.500E+00
      Make Quasi-Newton update
--
 
      The MO-coefficients are taken from the file:
      /home/grierjones/DDCASPT2/hydrogen_comps/H8_chain/H8_2.35/H8_2.35.RasOrb                                                        
      Title: RASSCF average (pseudo-natural) orbitals                                      
 
      Total molecular charge    0.00
 
      ************************************************************************************************************************
      *                                                                                                                      *
      *                                            Wave function control section                                             *
      *                                                                                                                      *
      ************************************************************************************************************************
 
 
                                         RASSCF iterations: Energy and convergence statistics
                                         ----------------------------------------------------
 
      Iter CI   SX   CI       RASSCF       Energy    max ROT     max BLB   max BLB  Level Ln srch  Step   QN   Walltime
          iter iter root      energy       change     param      element    value   shift minimum  type update hh:mm:ss
 Nr of preliminary CI iterations:  12
        1   1    4    1    -4.01133042    0.00E+00   0.21E-02    4  14 1  0.19E-02*  0.01   0.00    SX    NO    0:00:00
        2   1    4    1    -4.01134525   -0.15E-04* -0.63E-03    4  12 1  0.44E-03*  0.01   0.00    SX    NO    0:00:00
        3   1    4    1    -4.01134609   -0.84E-06* -0.24E-03    4  12 1 -0.16E-03*  0.01   0.00    SX    NO    0:00:00
        No convergence in the CI section: MAXJT will be increased to 
                    60
        4  48    4    1    -4.01140934   -0.63E-04*  0.15E-02    7  13 1 -0.92E-03*  0.01   0.00    SX    NO    0:00:00
        5   9    3    1    -4.01141578   -0.64E-05* -0.99E-04    1  15 1 -0.11E-03*  0.01   1.01    QN   YES    0:00:00
        6   8    3    1    -4.01141620   -0.42E-06*  0.20E-03    7  13 1 -0.72E-04   0.01   1.01    QN   YES    0:00:00
        7   9    3    1    -4.01141624   -0.34E-07* -0.79E-04    1  15 1  0.61E-04   0.01   0.71    QN   YES    0:00:00
        8   3    3    1    -4.01141626   -0.26E-07* -0.13E-04    1  16 1  0.17E-04   0.01   1.00    QN   YES    0:00:00
        9   1    3    1    -4.01141627   -0.18E-08  -0.46E-05    1  16 1  0.46E-05   0.01   1.31    QN   YES    0:00:00
      Convergence after  9 iterations
 
  Dmat in MO in SXCTL bf call to SXHAM                                                                                    
  mat. size =     8x    8
 
        1.4384255514675135
        0.0000000000048150      1.3901869379194496
        0.0000944301358374     -0.0000000000025910      1.3093962061341249
       -0.0000000000038563      0.0001369108457411     -0.0000000000496263      1.2021931491120152
        0.0000569240030332     -0.0000000000018748      0.0002014057722534      0.0000000000368350      0.6073246946072022
       -0.0000000000351429      0.0000728863799327     -0.0000000000059542      0.0002586234423452      0.0000000000060079
        0.6930009707768792
       -0.0000934968894972      0.0000000000365725      0.0000607108166233     -0.0000000000002120      0.0002581884736495
       -0.0000000000494854      0.8039171386373845
        0.0000000000062495      0.0000865867503156      0.0000000000275879      0.0000156823660671     -0.0000000000082045
       -0.0000704924493833     -0.0000000000004318      0.5555553513454318
       10   1    3    1    -4.01141627   -0.12E-09  -0.46E-05    1   9 1 -0.40E-06   0.01   1.31    QN   YES    0:00:00
 
      ************************************************************************************************************************
                                                      Wave function printout:
                       occupation of active orbitals, and spin coupling of open shells (u,d: Spin up or down)
      ************************************************************************************************************************
 
      Note: transformation to natural orbitals
      has been made, which may change the order of the CSFs.
 
      printout of CI-coefficients larger than  0.05 for root  1
      energy=      -4.011416
      conf/sym  11111111     Coeff  Weight
             1  22220000  -0.41327 0.17079
            20  22200200   0.05679 0.00322
            23  22200020   0.21379 0.04571
            32  22ud0ud0   0.22358 0.04999
            34  22udu00d  -0.05154 0.00266
            40  2u2d0200   0.06953 0.00483
            41  2u2du0d0  -0.17911 0.03208
            45  2u2d0u0d   0.07273 0.00529
            49  u22dud00  -0.09798 0.00960
            56  u22d00ud   0.19560 0.03826
            58  22022000   0.05553 0.00308
            60  22020200   0.13832 0.01913
            61  2202u0d0  -0.06931 0.00480
            63  22020020   0.05862 0.00344
            69  2ud2ud00  -0.18386 0.03380
            76  2ud200ud   0.09827 0.00966
            78  u2d22000   0.05424 0.00294
            81  u2d2u0d0  -0.07519 0.00565
            85  u2d20u0d   0.14687 0.02157
            88  20222000   0.11104 0.01233
            90  20220200   0.05769 0.00333
            95  20220u0d   0.05458 0.00298
           102  ud220ud0   0.05521 0.00305
           104  ud22u00d  -0.14325 0.02052
           108  02222000   0.05048 0.00255
           117  02220002   0.10874 0.01182
           120  22uu0dd0   0.06396 0.00409
           125  2u2ud0d0  -0.06419 0.00412
           135  u22u00dd  -0.07617 0.00580
           559  22000220  -0.12324 0.01519
           578  2ud0ud20   0.13289 0.01766
           607  u2d00u2d   0.11493 0.01321
           617  20202020  -0.09213 0.00849
           646  ud20u02d  -0.09137 0.00835
           673  02200022  -0.08524 0.00727
           676  2u0du2d0   0.10892 0.01186
           704  u20d02ud   0.09487 0.00900
           715  20ud2ud0  -0.08779 0.00771
           743  udududud  -0.08387 0.00703
           745  ududuudd  -0.10127 0.01026
           772  02ud0ud2  -0.07703 0.00593
           783  uuddudud  -0.12454 0.01551
           802  u02d20ud   0.07850 0.00616
           831  0u2du0d2   0.07862 0.00618
           834  20022200  -0.07983 0.00637
           861  ud02u20d  -0.07267 0.00528
           890  02020202  -0.06544 0.00428
           900  u0d22u0d   0.07752 0.00601
           929  0ud2ud02   0.07677 0.00589
           948  00222002  -0.05844 0.00342
          1595  20002220   0.07996 0.00639
          1608  ud00u22d  -0.09166 0.00840
          1624  02000222   0.06165 0.00380
          1627  u0d02u2d   0.07625 0.00581
          1643  0ud0ud22  -0.08424 0.00710
          1652  00202022   0.05213 0.00272
          1656  u00d22ud   0.08199 0.00672
          1671  0u0du2d2  -0.06605 0.00436
          1680  00ud2ud2   0.06869 0.00472
          1689  00022202   0.05255 0.00276
          1764  00002222  -0.07984 0.00637
 
      Natural orbitals and occupation numbers for root  1
      sym 1:   1.438426   1.390187   1.309396   1.202193   0.607324   0.693001   0.803917   0.555555
 
      ************************************************************************************************************************
      *                                                                                                                      *
      *                                                    Final results                                                     *
      *                                                                                                                      *
      ************************************************************************************************************************
 
 
++    Wave function specifications:
      -----------------------------
 
      Number of closed shell electrons           0
      Number of electrons in active shells       8
      Max number of holes in RAS1 space          0
      Max nr of electrons in RAS3 space          0
      Number of inactive orbitals                0
      Number of active orbitals                  8
      Number of secondary orbitals              32
      Spin quantum number                      0.0
      State symmetry                             1
--
 
++    Orbital specifications:
      -----------------------
 
      Symmetry species                           1
                                                 a
      Frozen orbitals                            0
      Inactive orbitals                          0
      Active orbitals                            8
      RAS1 orbitals                              0
      RAS2 orbitals                              8
      RAS3 orbitals                              0
      Secondary orbitals                        32
      Deleted orbitals                           0
      Number of basis functions                 40
--
 
++    CI expansion specifications:
      ----------------------------
 
      Number of CSFs                          1764
      Number of determinants                  2485
      Number of root(s) required                 1
      CI root used                               1
      highest root included in the CI            1
      Root passed to geometry opt.               1
--
 
++    Final optimization conditions:
      ------------------------------
 
      Average CI energy                              -4.01141627
      RASSCF energy for state  1                     -4.01141627
      Super-CI energy                                -0.00000000
      RASSCF energy change                            0.00000000
      Max change in MO coefficients               0.348E-05
      Max non-diagonal density matrix element    -0.462E-05
      Maximum BLB matrix element                 -0.397E-06
      (orbital pair   1,   9 in symmetry   1)
      Norm of electronic gradient            0.688E-06
--
 
 
      Final state energy(ies):
      ------------------------
 
::    RASSCF root number  1 Total energy:     -4.01141627
 
++    Molecular orbitals:
      -------------------
 
      Pseudonatural active orbitals and approximate occupation numbers
 
 
 
 
      Molecular orbitals for symmetry species 1: a  
 
 
      Orbital                1         2         3         4         5         6         7         8         9        10
      Energy            0.0000    0.0000    0.0000    0.0000    0.0000    0.0000    0.0000    0.0000    0.3327    0.3477
      Occ. No.          1.4384    1.3902    1.3094    1.2022    0.6073    0.6930    0.8039    0.5556    0.0000    0.0000
 
    1 H1     1s         0.1910   -0.3413    0.4045   -0.3268    0.4292   -0.4807   -0.3641   -0.2500   -0.0850   -0.1127
    2 H1     2s         0.0138   -0.0255    0.0320   -0.0275    0.0535   -0.0551   -0.0383   -0.0331    0.2350    0.4101
    3 H1     2px       -0.0000   -0.0000    0.0000   -0.0000    0.0000    0.0000    0.0000   -0.0000    0.0000   -0.0000
    4 H1     2py       -0.0000   -0.0000   -0.0000    0.0000    0.0000   -0.0000    0.0000   -0.0000    0.0000   -0.0000
    5 H1     2pz        0.0017   -0.0025    0.0021   -0.0011    0.0026   -0.0020   -0.0010   -0.0020   -0.0137   -0.0208
    6 H2     1s         0.2629   -0.4107    0.3816   -0.2075   -0.5458    0.4340    0.1824    0.3821   -0.1541   -0.1917
    7 H2     2s         0.0162   -0.0332    0.0435   -0.0347   -0.0867    0.0540    0.0103    0.0678    0.2142    0.2835
    8 H2     2px        0.0000    0.0000    0.0000    0.0000   -0.0000   -0.0000   -0.0000   -0.0000    0.0000    0.0000
    9 H2     2py        0.0000    0.0000   -0.0000    0.0000   -0.0000    0.0000   -0.0000    0.0000   -0.0000   -0.0000
   10 H2     2pz        0.0010    0.0000   -0.0024    0.0032    0.0007   -0.0000    0.0012   -0.0003    0.0000    0.0051
   11 H3     1s         0.3550   -0.2929   -0.1436    0.4388    0.4178    0.1380    0.4749   -0.5039   -0.1632   -0.1156
   12 H3     2s         0.0246   -0.0167   -0.0232    0.0509    0.0737    0.0122    0.0595   -0.0885    0.2656    0.2350
   13 H3     2px       -0.0000    0.0000    0.0000   -0.0000    0.0000    0.0000   -0.0000   -0.0000    0.0000    0.0000
   14 H3     2py        0.0000   -0.0000    0.0000   -0.0000    0.0000    0.0000    0.0000    0.0000   -0.0000   -0.0000
   15 H3     2pz        0.0004    0.0015   -0.0030    0.0017    0.0008   -0.0001   -0.0005   -0.0016   -0.0019    0.0043
   16 H4     1s         0.3840   -0.1674   -0.3237    0.3771   -0.2013   -0.4202   -0.3904    0.5531   -0.1769   -0.0506
   17 H4     2s         0.0251   -0.0188   -0.0240    0.0475   -0.0281   -0.0676   -0.0440    0.0991    0.2822    0.0812
   18 H4     2px        0.0000   -0.0000    0.0000    0.0000    0.0000   -0.0000   -0.0000   -0.0000   -0.0000   -0.0000
   19 H4     2py       -0.0000   -0.0000    0.0000    0.0000   -0.0000    0.0000   -0.0000    0.0000    0.0000   -0.0000
   20 H4     2pz        0.0005    0.0022   -0.0013   -0.0028    0.0010    0.0006   -0.0007   -0.0012   -0.0001    0.0067
   21 H5     1s         0.3840    0.1674   -0.3237   -0.3771   -0.2013    0.4202   -0.3904   -0.5531   -0.1769    0.0506
   22 H5     2s         0.0251    0.0188   -0.0240   -0.0475   -0.0281    0.0676   -0.0440   -0.0991    0.2822   -0.0812
   23 H5     2px        0.0000    0.0000    0.0000    0.0000   -0.0000    0.0000   -0.0000    0.0000   -0.0000    0.0000
   24 H5     2py       -0.0000   -0.0000   -0.0000    0.0000    0.0000    0.0000    0.0000    0.0000    0.0000   -0.0000
   25 H5     2pz       -0.0005    0.0022    0.0013   -0.0028   -0.0010    0.0006    0.0007   -0.0012    0.0001    0.0067
   26 H6     1s         0.3550    0.2929   -0.1436   -0.4388    0.4178   -0.1380    0.4749    0.5039   -0.1632    0.1156
   27 H6     2s         0.0246    0.0167   -0.0232   -0.0509    0.0737   -0.0122    0.0595    0.0885    0.2656   -0.2350
   28 H6     2px        0.0000   -0.0000    0.0000    0.0000   -0.0000   -0.0000    0.0000    0.0000   -0.0000   -0.0000
   29 H6     2py        0.0000   -0.0000   -0.0000    0.0000    0.0000   -0.0000   -0.0000    0.0000   -0.0000   -0.0000
   30 H6     2pz       -0.0004    0.0015    0.0030    0.0017   -0.0008   -0.0001    0.0005   -0.0016    0.0019    0.0043
   31 H7     1s         0.2629    0.4107    0.3816    0.2075   -0.5458   -0.4340    0.1824   -0.3821   -0.1541    0.1917
   32 H7     2s         0.0162    0.0332    0.0435    0.0347   -0.0867   -0.0540    0.0103   -0.0678    0.2142   -0.2835
   33 H7     2px       -0.0000   -0.0000    0.0000   -0.0000   -0.0000   -0.0000   -0.0000    0.0000    0.0000   -0.0000
   34 H7     2py       -0.0000    0.0000    0.0000    0.0000   -0.0000    0.0000   -0.0000    0.0000    0.0000    0.0000
   35 H7     2pz       -0.0010    0.0000    0.0024    0.0032   -0.0007   -0.0000   -0.0012   -0.0003   -0.0000    0.0051
   36 H8     1s         0.1910    0.3413    0.4045    0.3268    0.4292    0.4807   -0.3641    0.2500   -0.0850    0.1127
   37 H8     2s         0.0138    0.0255    0.0320    0.0275    0.0535    0.0551   -0.0383    0.0331    0.2350   -0.4101
   38 H8     2px        0.0000    0.0000    0.0000   -0.0000   -0.0000    0.0000    0.0000   -0.0000   -0.0000    0.0000
   39 H8     2py       -0.0000   -0.0000    0.0000   -0.0000   -0.0000   -0.0000    0.0000   -0.0000    0.0000   -0.0000
   40 H8     2pz       -0.0017   -0.0025   -0.0021   -0.0011   -0.0026   -0.0020    0.0010   -0.0020    0.0137   -0.0208
 
 
      Orbital               11        12        13        14        15        16        17        18        19        20
      Energy            0.3773    0.4260    0.4956    0.5891    0.6736    0.7407    0.7410    0.8277    0.8277    0.8483
      Occ. No.          0.0000    0.0000    0.0000    0.0000    0.0000    0.0000    0.0000    0.0000    0.0000    0.0000
 
    1 H1     1s         0.0664    0.0300    0.1310    0.1935    0.1624   -0.1460   -0.1578   -0.0000    0.0000    0.0000
    2 H1     2s        -0.5113    0.5556    0.5394    0.4565    0.2849   -0.1758   -0.1907    0.0000   -0.0000   -0.0000
    3 H1     2px        0.0000    0.0000    0.0000    0.0000   -0.0000    0.0000    0.0000   -0.1106   -0.1008   -0.1480
    4 H1     2py        0.0000    0.0000   -0.0000   -0.0000    0.0000   -0.0000    0.0000    0.1008   -0.1106   -0.2440
    5 H1     2pz        0.0212   -0.0223   -0.0350   -0.0728   -0.1107    0.3247    0.3384   -0.0000   -0.0000    0.0000
    6 H2     1s         0.1110   -0.0228   -0.0394   -0.1639   -0.2140    0.1317    0.1561    0.0000    0.0000   -0.0000
    7 H2     2s        -0.1527   -0.1418   -0.4926   -0.7537   -0.6473    0.3431    0.3947   -0.0000    0.0000    0.0000
    8 H2     2px       -0.0000   -0.0000    0.0000    0.0000    0.0000    0.0000    0.0000   -0.2100   -0.1914   -0.2292
    9 H2     2py        0.0000    0.0000   -0.0000    0.0000    0.0000   -0.0000    0.0000    0.1914   -0.2100   -0.3779
   10 H2     2pz       -0.0089   -0.0027   -0.0304   -0.0433    0.0031   -0.3519   -0.3558   -0.0000    0.0000   -0.0000
   11 H3     1s        -0.0579    0.1001   -0.0014    0.0269    0.2054   -0.1063   -0.1626   -0.0000   -0.0000    0.0000
   12 H3     2s         0.1067   -0.4569   -0.4081    0.1767    0.6621   -0.2993   -0.4245    0.0000   -0.0000   -0.0000
   13 H3     2px        0.0000    0.0000   -0.0000    0.0000    0.0000   -0.0000    0.0000   -0.2846   -0.2593   -0.2025
   14 H3     2py        0.0000    0.0000   -0.0000    0.0000   -0.0000    0.0000   -0.0000    0.2593   -0.2846   -0.3337
   15 H3     2pz       -0.0075    0.0026    0.0308    0.1353    0.1907    0.2763    0.2405    0.0000    0.0000    0.0000
   16 H4     1s        -0.1325    0.0589    0.0051    0.1202   -0.0875    0.0416    0.1547   -0.0000    0.0000   -0.0000
   17 H4     2s         0.3469   -0.2494    0.4404    0.6498   -0.2738    0.1131    0.3837    0.0000   -0.0000    0.0000
   18 H4     2px        0.0000    0.0000   -0.0000   -0.0000    0.0000   -0.0000    0.0000   -0.3240   -0.2952   -0.0805
   19 H4     2py        0.0000    0.0000   -0.0000    0.0000   -0.0000    0.0000   -0.0000    0.2952   -0.3240   -0.1326
   20 H4     2pz       -0.0015    0.0006    0.0232   -0.0754   -0.3384   -0.2070   -0.0816   -0.0000   -0.0000   -0.0000
   21 H5     1s        -0.1325   -0.0589    0.0051   -0.1202   -0.0875    0.0416   -0.1547    0.0000   -0.0000    0.0000
   22 H5     2s         0.3469    0.2494    0.4404   -0.6498   -0.2738    0.1131   -0.3837   -0.0000   -0.0000    0.0000
   23 H5     2px        0.0000    0.0000   -0.0000   -0.0000    0.0000   -0.0000   -0.0000   -0.3240   -0.2952    0.0805
   24 H5     2py        0.0000    0.0000   -0.0000   -0.0000   -0.0000    0.0000   -0.0000    0.2952   -0.3240    0.1326
   25 H5     2pz        0.0015    0.0006   -0.0232   -0.0754    0.3384    0.2070   -0.0816    0.0000    0.0000   -0.0000
   26 H6     1s        -0.0579   -0.1001   -0.0014   -0.0269    0.2054   -0.1063    0.1626    0.0000   -0.0000    0.0000
   27 H6     2s         0.1067    0.4569   -0.4081   -0.1767    0.6621   -0.2993    0.4245    0.0000    0.0000   -0.0000
   28 H6     2px        0.0000    0.0000    0.0000   -0.0000    0.0000   -0.0000   -0.0000   -0.2846   -0.2593    0.2025
   29 H6     2py        0.0000    0.0000   -0.0000   -0.0000   -0.0000   -0.0000   -0.0000    0.2593   -0.2846    0.3337
   30 H6     2pz        0.0075    0.0026   -0.0308    0.1353   -0.1907   -0.2763    0.2405    0.0000    0.0000    0.0000
   31 H7     1s         0.1110    0.0228   -0.0394    0.1639   -0.2140    0.1317   -0.1561    0.0000   -0.0000   -0.0000
   32 H7     2s        -0.1527    0.1418   -0.4926    0.7537   -0.6473    0.3431   -0.3947   -0.0000   -0.0000    0.0000
   33 H7     2px        0.0000   -0.0000   -0.0000   -0.0000    0.0000   -0.0000   -0.0000   -0.2100   -0.1914    0.2292
   34 H7     2py       -0.0000    0.0000    0.0000   -0.0000    0.0000   -0.0000   -0.0000    0.1914   -0.2100    0.3779
   35 H7     2pz        0.0089   -0.0027    0.0304   -0.0433   -0.0031    0.3519   -0.3558   -0.0000   -0.0000   -0.0000
   36 H8     1s         0.0664   -0.0300    0.1310   -0.1935    0.1624   -0.1460    0.1578    0.0000    0.0000    0.0000
   37 H8     2s        -0.5113   -0.5556    0.5394   -0.4565    0.2849   -0.1758    0.1907    0.0000    0.0000   -0.0000
   38 H8     2px       -0.0000   -0.0000    0.0000    0.0000    0.0000   -0.0000    0.0000   -0.1106   -0.1008    0.1480
   39 H8     2py       -0.0000   -0.0000    0.0000   -0.0000    0.0000   -0.0000   -0.0000    0.1008   -0.1106    0.2440
   40 H8     2pz       -0.0212   -0.0223    0.0350   -0.0728    0.1107   -0.3247    0.3384    0.0000    0.0000    0.0000
 
 
      Orbital               21        22        23        24        25        26        27        28        29        30
      Energy            0.8483    0.8810    0.8810    0.9231    0.9231    0.9713    0.9713    1.0187    1.0187    1.0596
      Occ. No.          0.0000    0.0000    0.0000    0.0000    0.0000    0.0000    0.0000    0.0000    0.0000    0.0000
 
    1 H1     1s         0.0000    0.0000   -0.0000   -0.0000   -0.0000   -0.0000   -0.0000    0.0000    0.0000   -0.0000
    2 H1     2s         0.0000    0.0000   -0.0000   -0.0000    0.0000   -0.0000   -0.0000   -0.0000   -0.0000   -0.0000
    3 H1     2px        0.2440    0.2537   -0.3000   -0.4516   -0.0668   -0.2207   -0.4146   -0.2110   -0.3705   -0.3238
    4 H1     2py       -0.1480    0.3000    0.2537   -0.0668    0.4516   -0.4146    0.2207   -0.3705    0.2110    0.0088
    5 H1     2pz       -0.0000   -0.0000   -0.0000   -0.0000   -0.0000    0.0000   -0.0000   -0.0000   -0.0000   -0.0000
    6 H2     1s         0.0000    0.0000   -0.0000   -0.0000    0.0000   -0.0000    0.0000   -0.0000    0.0000    0.0000
    7 H2     2s        -0.0000   -0.0000    0.0000    0.0000    0.0000    0.0000    0.0000    0.0000    0.0000   -0.0000
    8 H2     2px        0.3779    0.2575   -0.3044   -0.1644   -0.0243    0.0743    0.1396    0.2077    0.3647    0.4896
    9 H2     2py       -0.2292    0.3044    0.2575   -0.0243    0.1644    0.1396   -0.0743    0.3647   -0.2077   -0.0133
   10 H2     2pz        0.0000    0.0000   -0.0000   -0.0000   -0.0000   -0.0000   -0.0000    0.0000   -0.0000   -0.0000
   11 H3     1s         0.0000    0.0000   -0.0000    0.0000   -0.0000    0.0000   -0.0000   -0.0000    0.0000    0.0000
   12 H3     2s         0.0000    0.0000   -0.0000   -0.0000   -0.0000    0.0000   -0.0000    0.0000    0.0000    0.0000
   13 H3     2px        0.3337    0.0011   -0.0013    0.3984    0.0589    0.1953    0.3670    0.0024    0.0042   -0.4281
   14 H3     2py       -0.2025    0.0013    0.0011    0.0589   -0.3984    0.3670   -0.1953    0.0042   -0.0024    0.0116
   15 H3     2pz       -0.0000   -0.0000    0.0000    0.0000    0.0000    0.0000    0.0000    0.0000    0.0000    0.0000
   16 H4     1s         0.0000    0.0000   -0.0000    0.0000   -0.0000   -0.0000    0.0000   -0.0000    0.0000   -0.0000
   17 H4     2s        -0.0000    0.0000    0.0000    0.0000    0.0000   -0.0000    0.0000   -0.0000    0.0000   -0.0000
   18 H4     2px        0.1326   -0.2547    0.3012    0.2986    0.0441   -0.1443   -0.2710   -0.2090   -0.3669    0.1694
   19 H4     2py       -0.0805   -0.3012   -0.2547    0.0441   -0.2986   -0.2710    0.1443   -0.3669    0.2090   -0.0046
   20 H4     2pz       -0.0000    0.0000    0.0000    0.0000    0.0000   -0.0000    0.0000   -0.0000    0.0000    0.0000
   21 H5     1s         0.0000   -0.0000    0.0000   -0.0000    0.0000    0.0000    0.0000   -0.0000   -0.0000    0.0000
   22 H5     2s         0.0000   -0.0000   -0.0000   -0.0000   -0.0000    0.0000   -0.0000    0.0000   -0.0000    0.0000
   23 H5     2px       -0.1326   -0.2547    0.3012   -0.2986   -0.0441   -0.1443   -0.2710    0.2090    0.3669    0.1694
   24 H5     2py        0.0805   -0.3012   -0.2547   -0.0441    0.2986   -0.2710    0.1443    0.3669   -0.2090   -0.0046
   25 H5     2pz        0.0000   -0.0000   -0.0000   -0.0000   -0.0000    0.0000    0.0000    0.0000   -0.0000   -0.0000
   26 H6     1s        -0.0000    0.0000   -0.0000    0.0000    0.0000   -0.0000    0.0000   -0.0000    0.0000    0.0000
   27 H6     2s         0.0000    0.0000   -0.0000    0.0000    0.0000   -0.0000    0.0000   -0.0000    0.0000   -0.0000
   28 H6     2px       -0.3337    0.0011   -0.0013   -0.3984   -0.0589    0.1953    0.3670   -0.0024   -0.0042   -0.4281
   29 H6     2py        0.2025    0.0013    0.0011   -0.0589    0.3984    0.3670   -0.1953   -0.0042    0.0024    0.0116
   30 H6     2pz       -0.0000   -0.0000    0.0000    0.0000   -0.0000    0.0000   -0.0000    0.0000    0.0000    0.0000
   31 H7     1s         0.0000   -0.0000   -0.0000   -0.0000   -0.0000    0.0000    0.0000   -0.0000   -0.0000   -0.0000
   32 H7     2s        -0.0000   -0.0000    0.0000   -0.0000   -0.0000    0.0000   -0.0000    0.0000   -0.0000   -0.0000
   33 H7     2px       -0.3779    0.2575   -0.3044    0.1644    0.0243    0.0743    0.1396   -0.2077   -0.3647    0.4896
   34 H7     2py        0.2292    0.3044    0.2575    0.0243   -0.1644    0.1396   -0.0743   -0.3647    0.2077   -0.0133
   35 H7     2pz       -0.0000    0.0000    0.0000    0.0000    0.0000   -0.0000    0.0000   -0.0000    0.0000    0.0000
   36 H8     1s        -0.0000    0.0000    0.0000    0.0000   -0.0000   -0.0000    0.0000   -0.0000    0.0000    0.0000
   37 H8     2s        -0.0000   -0.0000    0.0000    0.0000    0.0000   -0.0000    0.0000   -0.0000    0.0000    0.0000
   38 H8     2px       -0.2440    0.2537   -0.3000    0.4516    0.0668   -0.2207   -0.4146    0.2110    0.3705   -0.3238
   39 H8     2py        0.1480    0.3000    0.2537    0.0668   -0.4516   -0.4146    0.2207    0.3705   -0.2110    0.0088
   40 H8     2pz        0.0000   -0.0000   -0.0000   -0.0000   -0.0000    0.0000   -0.0000    0.0000   -0.0000   -0.0000
 
 
      Orbital               31        32        33        34        35        36        37        38        39        40
      Energy            1.0596    1.0874    1.0874    1.1110    1.1307    1.1462    1.2143    1.3104    1.4060    1.4773
      Occ. No.          0.0000    0.0000    0.0000    0.0000    0.0000    0.0000    0.0000    0.0000    0.0000    0.0000
 
    1 H1     1s        -0.0000    0.0000   -0.0000   -0.1669    0.0179    0.2031   -0.1537    0.1349   -0.1059    0.0600
    2 H1     2s        -0.0000   -0.0000   -0.0000   -0.3149    0.0606    0.3784   -0.2790    0.2030   -0.1295    0.0631
    3 H1     2px        0.0088    0.0657   -0.1622   -0.0000   -0.0000   -0.0000    0.0000   -0.0000    0.0000    0.0000
    4 H1     2py        0.3238    0.1622    0.0657    0.0000   -0.0000    0.0000   -0.0000    0.0000   -0.0000    0.0000
    5 H1     2pz       -0.0000   -0.0000   -0.0000   -0.2927    0.1875    0.4127   -0.4929    0.4563   -0.3501    0.1905
    6 H2     1s         0.0000    0.0000    0.0000    0.4359    0.0332   -0.5054    0.2439   -0.1118    0.0120    0.0210
    7 H2     2s         0.0000    0.0000    0.0000    0.8146    0.0883   -0.8939    0.3604   -0.1522    0.0423   -0.0057
    8 H2     2px       -0.0133   -0.1219    0.3009    0.0000    0.0000    0.0000   -0.0000    0.0000   -0.0000   -0.0000
    9 H2     2py       -0.4896   -0.3009   -0.1219    0.0000    0.0000   -0.0000    0.0000   -0.0000    0.0000    0.0000
   10 H2     2pz       -0.0000    0.0000   -0.0000    0.2980    0.1152   -0.2338   -0.2251    0.5100   -0.5822    0.3842
   11 H3     1s        -0.0000   -0.0000   -0.0000   -0.5128   -0.3567    0.5562    0.0338   -0.0902    0.0276    0.0297
   12 H3     2s        -0.0000   -0.0000   -0.0000   -0.9513   -0.6767    1.0025    0.0174   -0.0576    0.0031    0.0269
   13 H3     2px        0.0116    0.1637   -0.4040   -0.0000   -0.0000   -0.0000    0.0000   -0.0000    0.0000    0.0000
   14 H3     2py        0.4281    0.4040    0.1637   -0.0000   -0.0000    0.0000   -0.0000   -0.0000   -0.0000    0.0000
   15 H3     2pz        0.0000   -0.0000    0.0000    0.0662   -0.4753   -0.2220    0.4796   -0.0006   -0.5026    0.5149
   16 H4     1s        -0.0000    0.0000   -0.0000    0.2317    0.7105   -0.4201   -0.1096   -0.0839    0.0842    0.0042
   17 H4     2s         0.0000    0.0000   -0.0000    0.4267    1.2974   -0.8017   -0.1317   -0.0928    0.0636   -0.0036
   18 H4     2px       -0.0046   -0.1859    0.4587    0.0000    0.0000    0.0000   -0.0000   -0.0000   -0.0000   -0.0000
   19 H4     2py       -0.1694   -0.4587   -0.1859    0.0000    0.0000   -0.0000    0.0000    0.0000    0.0000    0.0000
   20 H4     2pz       -0.0000   -0.0000   -0.0000   -0.4465    0.2827    0.2004    0.3269   -0.4798   -0.2063    0.5914
   21 H5     1s         0.0000   -0.0000    0.0000    0.2317   -0.7105    0.4201   -0.1096    0.0839    0.0842   -0.0042
   22 H5     2s        -0.0000   -0.0000    0.0000    0.4267   -1.2974    0.8017   -0.1317    0.0928    0.0636    0.0036
   23 H5     2px       -0.0046    0.1859   -0.4587    0.0000   -0.0000   -0.0000    0.0000    0.0000    0.0000    0.0000
   24 H5     2py       -0.1694    0.4587    0.1859   -0.0000   -0.0000    0.0000    0.0000    0.0000   -0.0000   -0.0000
   25 H5     2pz       -0.0000    0.0000   -0.0000    0.4465    0.2827    0.2004   -0.3269   -0.4798    0.2063    0.5914
   26 H6     1s        -0.0000    0.0000   -0.0000   -0.5128    0.3567   -0.5562    0.0338    0.0902    0.0276   -0.0297
   27 H6     2s         0.0000   -0.0000   -0.0000   -0.9513    0.6767   -1.0025    0.0174    0.0576    0.0031   -0.0269
   28 H6     2px        0.0116   -0.1637    0.4040   -0.0000    0.0000    0.0000   -0.0000   -0.0000   -0.0000   -0.0000
   29 H6     2py        0.4281   -0.4040   -0.1637    0.0000    0.0000   -0.0000   -0.0000    0.0000    0.0000    0.0000
   30 H6     2pz        0.0000   -0.0000    0.0000   -0.0662   -0.4753   -0.2220   -0.4796   -0.0006    0.5026    0.5149
   31 H7     1s         0.0000    0.0000   -0.0000    0.4359   -0.0332    0.5054    0.2439    0.1118    0.0120   -0.0210
   32 H7     2s        -0.0000    0.0000    0.0000    0.8146   -0.0883    0.8939    0.3604    0.1522    0.0423    0.0057
   33 H7     2px       -0.0133    0.1219   -0.3009    0.0000    0.0000   -0.0000    0.0000    0.0000    0.0000    0.0000
   34 H7     2py       -0.4896    0.3009    0.1219    0.0000   -0.0000    0.0000    0.0000   -0.0000    0.0000    0.0000
   35 H7     2pz        0.0000   -0.0000   -0.0000   -0.2980    0.1152   -0.2338    0.2251    0.5100    0.5822    0.3842
   36 H8     1s         0.0000   -0.0000    0.0000   -0.1669   -0.0179   -0.2031   -0.1537   -0.1349   -0.1059   -0.0600
   37 H8     2s         0.0000   -0.0000   -0.0000   -0.3149   -0.0606   -0.3784   -0.2790   -0.2030   -0.1295   -0.0631
   38 H8     2px        0.0088   -0.0657    0.1622    0.0000   -0.0000    0.0000    0.0000   -0.0000   -0.0000   -0.0000
   39 H8     2py        0.3238   -0.1622   -0.0657    0.0000    0.0000    0.0000   -0.0000   -0.0000    0.0000   -0.0000
   40 H8     2pz       -0.0000    0.0000   -0.0000    0.2927    0.1875    0.4127    0.4929    0.4563    0.3501    0.1905
--
 
      Von Neumann Entropy (Root  1) =  3.64203
 

      Mulliken population analysis for root number:  1
      -----------------------------------------------
 
 
++    Molecular charges:
      ------------------
 
      Mulliken charges per centre and basis function type
      ---------------------------------------------------
 
                H1      H2      H3      H4      H5      H6      H7      H8    
      1s       0.9895  1.0017  1.0019  1.0015  1.0015  1.0019  1.0017  0.9895
      2s       0.0069  0.0008 -0.0029 -0.0023 -0.0023 -0.0029  0.0008  0.0069
      2px      0.0000  0.0000  0.0000  0.0000  0.0000  0.0000  0.0000  0.0000
      2pz      0.0003  0.0010  0.0009  0.0008  0.0008  0.0009  0.0010  0.0003
      2py      0.0000  0.0000  0.0000  0.0000  0.0000  0.0000  0.0000  0.0000
      Total    0.9966  1.0035  0.9998  1.0000  1.0000  0.9998  1.0035  0.9966
 
      N-E      0.0034 -0.0035  0.0002 -0.0000 -0.0000  0.0002 -0.0035  0.0034
 
      Total electronic charge=    8.000000
 
      Total            charge=   -0.000000
--
 
 

      Expectation values of various properties for root number:  1
      -----------------------------------------------------------
 
 
++    Molecular properties:
      ---------------------
 
      Charge (e):
                      =   -0.0000
      Dipole Moment (Debye):
      Origin of the operator (Ang)=    0.0000    0.0000    0.0000
                   X=  6.3316E-14               Y=  2.6640E-13               Z= -2.2033E-12           Total=  2.2203E-12
      Quadrupole Moment (Debye*Ang):
      Origin of the operator (Ang)=    0.0000    0.0000    8.2939
                  XX= -1.2243E+01              XY= -1.3292E-26              XZ= -6.5619E-13              YY= -1.2243E+01
                  YZ=  2.4642E-12              ZZ= -1.1104E+01
      In traceless form (Debye*Ang)
                  XX= -5.6960E-01              XY= -1.9938E-26              XZ= -9.8428E-13              YY= -5.6960E-01
                  YZ=  3.6963E-12              ZZ=  1.1392E+00
--
 

      LoProp population analysis for root number:  1
      -----------------------------------------------
 
 
++    LoProp analysis:
      ----------------
 
 
 
  Input file to MOLDEN was generated!
 
 
++    Static properties:
      ------------------
 
 
      LoProp Charges per center
 

                   H1       H2       H3       H4       H5       H6       H7       H8    
      Nuclear      1.0000   1.0000   1.0000   1.0000   1.0000   1.0000   1.0000   1.0000
      Electronic  -1.0001  -1.0000  -0.9999  -1.0000  -1.0000  -0.9999  -1.0000  -1.0001
 
      Total       -0.0001   0.0000   0.0001  -0.0000  -0.0000   0.0001   0.0000  -0.0001
--
 
 
      Natural Bond Order analysis for root number:  1
 
++    Natural Bond Order analysis
      ---------------------------
      Based on LoProp computed density
      -------------------------------------------------------------------------------------
      Atom A       Atom B       Bond Order
      -------------------------------------------------------------------------------------
      The remaining    8.000 electrons are to be considered as diffuse
--
 
--
 
 
  Input file to MOLDEN was generated!
 
      Average orbitals are written to the RASORB file
      Natural orbitals for root   1 are written to the RASORB.1 file
      Spin density orbitals for root   1 are written to the SPDORB.1 file
 
--- Stop Module: rasscf at Tue Nov 12 16:51:45 2024 /rc=_RC_ALL_IS_WELL_ ---
*** files: H8_2.37.LprOrb H8_2.37.rasscf.molden H8_2.37.LoProp.molden H8_2.37.RasOrb H8_2.37.RasOrb.1 H8_2.37.rasscf.h5 H8_2.37.SpdOrb.1 xmldump
    saved to directory /home/grierjones/DDCASPT2/hydrogen_comps/H8_chain/H8_2.37
--- Module rasscf spent 1 second ---

>>> COPY /tmp/H8_2.37/H8_2.37.rasscf.h5 /home/grierjones/DDCASPT2/hydrogen_comps/H8_chain/H8_2.37/

>>> COPY /tmp/H8_2.37/GMJ_Fock_MO.csv /home/grierjones/DDCASPT2/hydrogen_comps/H8_chain/H8_2.37/H8_2.37.GMJ_Fock_MO.csv

>>> COPY /tmp/H8_2.37/GMJ_PT2_Fock_MO.csv /home/grierjones/DDCASPT2/hydrogen_comps/H8_chain/H8_2.37/H8_2.37.GMJ_PT2_Fock_MO.csv

*** symbolic link created: INPORB -> H8_2.37.RasOrb
--- Start Module: motra at Tue Nov 12 16:51:45 2024 ---
 
()()()()()()()()()()()()()()()()()()()()()()()()()()()()()()()()()()()()()()()()()()()()()()()()()()

                                               &MOTRA

                                   only a single process is used
                       available to each process: 2.0 GB of memory, 1 thread?
()()()()()()()()()()()()()()()()()()()()()()()()()()()()()()()()()()()()()()()()()()()()()()()()()()
 
 
      *** WARNING: Default frozen orbitals is overwritten by user input.
      *** Default values:   0
 
      Header of the integral files:
      
       Integrals generated by seward 4.2.0  , Tue Nov 12 16:51:43 2024
 
 
      Header of MO coefficients source file:
      * RASSCF average (pseudo-natural) orbitals                                      
 
 
      Cartesian coordinates in Angstrom:
      -----------------------------------------------------
      No.  Label        X            Y            Z        
      -----------------------------------------------------
       1   H1         0.00000000   0.00000000   0.00000000
       2   H2         0.00000000   0.00000000   2.36969700
       3   H3         0.00000000   0.00000000   4.73939400
       4   H4         0.00000000   0.00000000   7.10909100
       5   H5         0.00000000   0.00000000   9.47878800
       6   H6         0.00000000   0.00000000  11.84848500
       7   H7         0.00000000   0.00000000  14.21818200
       8   H8         0.00000000   0.00000000  16.58787900
      -----------------------------------------------------
      Nuclear repulsion energy =    3.06891844
 
      Orbital specifications:
      -----------------------
 
      Symmetry species:              1
      Number of basis functions:    40
      Frozen orbitals:               0
      Deleted orbitals:              0
      Number of orbitals used:      40

       SYMMETRY  BASIS FUNCTIONS       ORBITALS      INTEGRALS   CPU(SEC)  I/O(SEC)
 
        1 1 1 1   40  40  40  40    40  40  40  40      336610       0.00      0.00

       TOTAL CPU TIME(SEC)    0.13TOTAL I/O TIME(SEC)    0.44
 
--- Stop Module: motra at Tue Nov 12 16:51:45 2024 /rc=_RC_ALL_IS_WELL_ ---
*** files: xmldump
    saved to directory /home/grierjones/DDCASPT2/hydrogen_comps/H8_chain/H8_2.37

>>> COPY /tmp/H8_2.37/GMJ_one_int_indx.csv /home/grierjones/DDCASPT2/hydrogen_comps/H8_chain/H8_2.37/H8_2.37.GMJ_one_int_indx.csv

>>> COPY /tmp/H8_2.37/GMJ_one_int.csv /home/grierjones/DDCASPT2/hydrogen_comps/H8_chain/H8_2.37/H8_2.37.GMJ_one_int.csv

>>> COPY /tmp/H8_2.37/GMJ_two_int_indx.csv /home/grierjones/DDCASPT2/hydrogen_comps/H8_chain/H8_2.37/H8_2.37.GMJ_two_int_indx.csv

>>> COPY /tmp/H8_2.37/GMJ_two_int.csv /home/grierjones/DDCASPT2/hydrogen_comps/H8_chain/H8_2.37/H8_2.37.GMJ_two_int.csv

*** symbolic link created: INPORB -> H8_2.37.RasOrb
--- Start Module: caspt2 at Tue Nov 12 16:51:45 2024 ---
 
()()()()()()()()()()()()()()()()()()()()()()()()()()()()()()()()()()()()()()()()()()()()()()()()()()

                                              &CASPT2

                                   only a single process is used
                       available to each process: 2.0 GB of memory, 1 thread?
()()()()()()()()()()()()()()()()()()()()()()()()()()()()()()()()()()()()()()()()()()()()()()()()()()
 
 Cholesky algorithm in CASPT2 =    1
 
 ###############################################################################
 ###############################################################################
 ###                                                                         ###
 ###                                                                         ###
 ###    User changed nr of frozen orbitals.                                  ###
 ###                                                                         ###
 ###                                                                         ###
 ###############################################################################
 ###############################################################################
 
++    Wave function specifications:
      -----------------------------
 
      Number of closed shell electrons           0
      Number of electrons in active shells       8
      Max number of holes in RAS1 space          0
      Max number of electrons in RAS3 space      0
      Number of inactive orbitals                0
      Number of active orbitals                  8
      Number of secondary orbitals              32
      Spin quantum number                      0.0
      State symmetry                             1
      Number of CSFs                          1764
      Number of root(s) available                1
      Root passed to geometry opt.               1
      A file JOBMIX will be created.
      This is a CASSCF or RASSCF reference function
--
 
++    Orbital specifications:
      -----------------------
 
      Symmetry species                           1
                                                 a
      Frozen orbitals                            0
      Inactive orbitals                          0
      Active orbitals                            8
      Secondary orbitals                        32
      Deleted orbitals                           0
      Number of basis functions                 40
--
 
      Type of Fock operator: STANDARD
      Type of 0-order Hamiltonian: STANDARD WITH DEFAULT IPEA
        "IP-EA" denominator shift =      0.25
      The input orbitals and the CI vector will be transformed.
 
--------------------------------------------------------------------------------
 Estimated memory requirements:
  POLY3 :                   450746
  RHS:                      417296
  SIGMA :                   326032
  PRPCTL:                        0
 Available workspace:    230388092
 
++ CASPT2 computation for group   1
 
********************************************************************************
 Multi-State initialization phase begins for group   1
--------------------------------------------------------------------------------
********************************************************************************
 Compute H0 matrices for state    1
--------------------------------------------------------------------------------
--------------------------------------------------------------------------------
 H0 matrices have been computed.
 
********************************************************************************
  CASPT2 EQUATION SOLUTION
--------------------------------------------------------------------------------
 
  Total nr of CASPT2 parameters:
   Before reduction:       49280
   After  reduction:       48832
 
 The contributions to the second order correlation energy in atomic units.
-----------------------------------------------------------------------------------------------------------------------------
  IT.      VJTU        VJTI        ATVX        AIVX        VJAI        BVAT        BJAT        BJAI        TOTAL       RNORM  
-----------------------------------------------------------------------------------------------------------------------------
   1     0.000000    0.000000   -0.001388    0.000000    0.000000   -0.003487    0.000000    0.000000   -0.004875    0.000824
   2     0.000000    0.000000   -0.001402    0.000000    0.000000   -0.003491    0.000000    0.000000   -0.004894    0.000135
   3     0.000000    0.000000   -0.001404    0.000000    0.000000   -0.003492    0.000000    0.000000   -0.004896    0.000033
   4     0.000000    0.000000   -0.001403    0.000000    0.000000   -0.003492    0.000000    0.000000   -0.004895    0.000005
-------------------------------------------------------------------------------------------------------------------
 
  FINAL CASPT2 RESULT:
 
  Correlation energy /Case, /Symm, and sums:
 VJTU      0.00000000  0.00000000
 VJTIP     0.00000000  0.00000000
 VJTIM     0.00000000  0.00000000
 ATVX     -0.00140315 -0.00140315
 AIVX      0.00000000  0.00000000
 VJAIP     0.00000000  0.00000000
 VJAIM     0.00000000  0.00000000
 BVATP    -0.00321685 -0.00321685
 BVATM    -0.00027502 -0.00027502
 BJATP     0.00000000  0.00000000
 BJATM     0.00000000  0.00000000
 BJAIP     0.00000000  0.00000000
 BJAIM     0.00000000  0.00000000
 Summed:  -0.00489502 -0.00489502
 
      Reference energy:          -4.0114162651
      E2 (Non-variational):      -0.0048950198
      E2 (Variational):          -0.0048950329
      Total energy:              -4.0163112980
      Residual norm:              0.0000009359
      Reference weight:           0.99686
 
      Contributions to the CASPT2 correlation energy
      Active & Virtual Only:         -0.0048950198
      One Inactive Excited:           0.0000000000
      Two Inactive Excited:           0.0000000000
 
 
++ Denominators, etc.
----------------------------------------------------------------------------------------------------
 Report on small energy denominators, large coefficients, and large energy contributions.
CASE  SYMM ACTIVE-MIX  NON-ACTIVE INDICES          DENOMINATOR     RHS VALUE       COEFFICIENT     CONTRIBUTION
--
 
   (Skipping property calculation,
    use PROP keyword to activate)
--
 
  Total CASPT2 energies:
::    CASPT2 Root  1     Total energy:     -4.01631130
 
  A NEW JOBIPH FILE NAMED 'JOBMIX' IS PREPARED.
********************************************************************************
--- Stop Module: caspt2 at Tue Nov 12 16:51:45 2024 /rc=_RC_ALL_IS_WELL_ ---
*** files: xmldump
    saved to directory /home/grierjones/DDCASPT2/hydrogen_comps/H8_chain/H8_2.37

>>> EXPORT i = B

>>> EXPORT j = P

>>> IF (-FILE GMJ_e2_${i}_${j}.csv)
(Skipped)

>>> END FOREACH

>>> EXPORT j = M

>>> IF (-FILE GMJ_e2_${i}_${j}.csv)
(Skipped)

>>> END FOREACH

>>> END FOREACH

>>> EXPORT i = E

>>> EXPORT j = P

>>> IF (-FILE GMJ_e2_${i}_${j}.csv)
(Skipped)

>>> END FOREACH

>>> EXPORT j = M

>>> IF (-FILE GMJ_e2_${i}_${j}.csv)
(Skipped)

>>> END FOREACH

>>> END FOREACH

>>> EXPORT i = F

>>> EXPORT j = P

>>> IF (-FILE GMJ_e2_${i}_${j}.csv)

>>> COPY /tmp/H8_2.37/GMJ_RHS_F_P.csv /home/grierjones/DDCASPT2/hydrogen_comps/H8_chain/H8_2.37/GMJ_RHS_F_P.csv

>>> COPY /tmp/H8_2.37/GMJ_IVECW_F_P.csv /home/grierjones/DDCASPT2/hydrogen_comps/H8_chain/H8_2.37/GMJ_IVECW_F_P.csv

>>> COPY /tmp/H8_2.37/GMJ_IVECX_F_P.csv /home/grierjones/DDCASPT2/hydrogen_comps/H8_chain/H8_2.37/GMJ_IVECX_F_P.csv

>>> COPY /tmp/H8_2.37/GMJ_IVECC2_F_P.csv /home/grierjones/DDCASPT2/hydrogen_comps/H8_chain/H8_2.37/GMJ_IVECC2_F_P.csv

>>> COPY /tmp/H8_2.37/GMJ_e2_F_P.csv /home/grierjones/DDCASPT2/hydrogen_comps/H8_chain/H8_2.37/GMJ_e2_F_P.csv

>>> END FOREACH

>>> EXPORT j = M

>>> IF (-FILE GMJ_e2_${i}_${j}.csv)

>>> COPY /tmp/H8_2.37/GMJ_RHS_F_M.csv /home/grierjones/DDCASPT2/hydrogen_comps/H8_chain/H8_2.37/GMJ_RHS_F_M.csv

>>> COPY /tmp/H8_2.37/GMJ_IVECW_F_M.csv /home/grierjones/DDCASPT2/hydrogen_comps/H8_chain/H8_2.37/GMJ_IVECW_F_M.csv

>>> COPY /tmp/H8_2.37/GMJ_IVECX_F_M.csv /home/grierjones/DDCASPT2/hydrogen_comps/H8_chain/H8_2.37/GMJ_IVECX_F_M.csv

>>> COPY /tmp/H8_2.37/GMJ_IVECC2_F_M.csv /home/grierjones/DDCASPT2/hydrogen_comps/H8_chain/H8_2.37/GMJ_IVECC2_F_M.csv

>>> COPY /tmp/H8_2.37/GMJ_e2_F_M.csv /home/grierjones/DDCASPT2/hydrogen_comps/H8_chain/H8_2.37/GMJ_e2_F_M.csv

>>> END FOREACH

>>> END FOREACH

>>> EXPORT i = G

>>> EXPORT j = P

>>> IF (-FILE GMJ_e2_${i}_${j}.csv)
(Skipped)

>>> END FOREACH

>>> EXPORT j = M

>>> IF (-FILE GMJ_e2_${i}_${j}.csv)
(Skipped)

>>> END FOREACH

>>> END FOREACH

>>> EXPORT i = H

>>> EXPORT j = P

>>> IF (-FILE GMJ_e2_${i}_${j}.csv)
(Skipped)

>>> END FOREACH

>>> EXPORT j = M

>>> IF (-FILE GMJ_e2_${i}_${j}.csv)
(Skipped)

>>> END FOREACH

>>> END FOREACH

>>> EXPORT i = A

>>> IF (-FILE GMJ_e2_$i.csv)
(Skipped)

>>> END FOREACH

>>> EXPORT i = C

>>> IF (-FILE GMJ_e2_$i.csv)

>>> COPY /tmp/H8_2.37/GMJ_RHS_C.csv /home/grierjones/DDCASPT2/hydrogen_comps/H8_chain/H8_2.37/GMJ_RHS_C.csv

>>> COPY /tmp/H8_2.37/GMJ_IVECW_C.csv /home/grierjones/DDCASPT2/hydrogen_comps/H8_chain/H8_2.37/GMJ_IVECW_C.csv

>>> COPY /tmp/H8_2.37/GMJ_IVECX_C.csv /home/grierjones/DDCASPT2/hydrogen_comps/H8_chain/H8_2.37/GMJ_IVECX_C.csv

>>> COPY /tmp/H8_2.37/GMJ_IVECC2_C.csv /home/grierjones/DDCASPT2/hydrogen_comps/H8_chain/H8_2.37/GMJ_IVECC2_C.csv

>>> COPY /tmp/H8_2.37/GMJ_e2_C.csv /home/grierjones/DDCASPT2/hydrogen_comps/H8_chain/H8_2.37/GMJ_e2_C.csv

>>> END FOREACH

>>> EXPORT i = D

>>> IF (-FILE GMJ_e2_$i.csv)
(Skipped)

>>> END FOREACH

.########################.
.# Non-zero return code #.
.########################.

    Timing: Wall=3.04 User=2.32 System=0.72
***************************************
*** WorkDir at /tmp/H8_2.37 cleaned ***
***************************************
