[Molden Format]
[N_Atoms]
                     2
[Atoms] (AU)
B1          1      5           0.00000000      0.00000000      0.00000000
F2          2      9           0.00000000      0.00000000      1.88972612
[Charge] (Mulliken)
   2.36213812215842     
 -0.362138122158452     
[GTO] (AU)
   1
   s  14
  3.336021700E+04  1.039699991E-04
  4.972095200E+03  5.254399956E-04
  1.125641700E+03  2.509059979E-03
  3.164913600E+02  1.031887991E-02
  1.020072600E+02  3.636632969E-02
  3.629587300E+01  1.064607991E-01
  1.397141000E+01  2.403999880E-01
  5.741156000E+00  3.748581168E-01
  2.494268000E+00  3.100066974E-01
  1.114202000E+00  7.922455933E-02
  4.215490000E-01 -4.947589958E-03
  1.696330000E-01 -7.737119935E-03
  6.853500000E-02 -1.501079987E-03
  2.398700000E-02 -1.333299989E-04
   s  14
  3.336021700E+04 -2.030000008E-05
  4.972095200E+03 -1.025700004E-04
  1.125641700E+03 -4.911300020E-04
  3.164913600E+02 -2.026570008E-03
  1.020072600E+02 -7.261010030E-03
  3.629587300E+01 -2.197722009E-02
  1.397141000E+01 -5.408428022E-02
  5.741156000E+00 -1.022402604E-01
  2.494268000E+00 -1.423595206E-01
  1.114202000E+00 -4.658690019E-02
  4.215490000E-01  3.799402916E-01
  1.696330000E-01  5.890463624E-01
  6.853500000E-02  1.749075107E-01
  2.398700000E-02 -1.142030005E-03
   p   9
  5.500000000E+01  1.229800005E-03
  1.336610100E+01  8.827380035E-03
  4.135394000E+00  3.843340015E-02
  1.481256000E+00  1.150031805E-01
  6.021360000E-01  2.733674011E-01
  2.556360000E-01  4.061972116E-01
  1.111510000E-01  3.014967912E-01
  4.764800000E-02  7.684809030E-02
  1.667700000E-02 -8.170000032E-06
 
   2
   s  14
  1.031094600E+05  1.713099991E-04
  1.528100700E+04  7.123999962E-04
  3.441539200E+03  2.990479984E-03
  9.670948300E+02  1.164036994E-02
  3.140353400E+02  3.968642979E-02
  1.134423000E+02  1.128546094E-01
  4.464472700E+01  2.473650687E-01
  1.894287400E+01  3.672702681E-01
  8.532743000E+00  2.896286985E-01
  3.919401000E+00  7.786681959E-02
  1.568157000E+00  4.562139976E-03
  6.232900000E-01  2.468879987E-03
  2.408610000E-01  1.106309994E-03
  8.430100000E-02  1.739699991E-04
   s  14
  1.031094600E+05 -4.044999995E-05
  1.528100700E+04 -1.682299998E-04
  3.441539200E+03 -7.084299991E-04
  9.670948300E+02 -2.767999996E-03
  3.140353400E+02 -9.611379987E-03
  1.134423000E+02 -2.833957996E-02
  4.464472700E+01 -6.839343991E-02
  1.894287400E+01 -1.237379298E-01
  8.532743000E+00 -1.512859698E-01
  3.919401000E+00 -9.099909988E-03
  1.568157000E+00  3.716257695E-01
  6.232900000E-01  5.500214393E-01
  2.408610000E-01  2.092318697E-01
  8.430100000E-02  8.074639989E-03
   p   9
  2.453302900E+02  1.024860004E-03
  5.691900500E+01  8.344290032E-03
  1.760456800E+01  4.078927016E-02
  6.274995000E+00  1.351370605E-01
  2.447030000E+00  2.798830811E-01
  9.950600000E-01  3.597966414E-01
  4.039730000E-01  3.055347412E-01
  1.548100000E-01  1.354703905E-01
  5.418400000E-02  2.804449011E-02
 
[MO]
Sym=     1a  
Ene=   -27.3510
Spin= Alpha
Occup=    2.00000
   1        -0.00052414
   2        -0.00126156
   3        -0.00000016
   4         0.00000001
   5        -0.00067171
   6         1.00013737
   7        -0.00197380
   8        -0.00000058
   9         0.00000002
  10        -0.00233821
Sym=     2a  
Ene=    -9.0533
Spin= Alpha
Occup=    2.00000
   1         0.99840346
   2         0.01004065
   3        -0.00000033
   4         0.00000001
   5         0.00011914
   6        -0.00105736
   7         0.00631477
   8        -0.00000141
   9         0.00000005
  10        -0.00610108
Sym=     3a  
Ene=    -2.7159
Spin= Alpha
Occup=    2.00000
   1        -0.13756132
   2         0.00691139
   3        -0.00001934
   4         0.00000069
   5         0.09598588
   6        -0.00749281
   7         0.88525166
   8        -0.00006877
   9         0.00000246
  10        -0.34003127
Sym=     4a  
Ene=    -1.6555
Spin= Alpha
Occup=    2.00000
   1        -0.10660112
   2         0.07815452
   3        -0.00002199
   4         0.00000079
   5         0.16918080
   6        -0.02387696
   7        -0.47457108
   8        -0.00009566
   9         0.00000342
  10        -0.89752839
Sym=     5a  
Ene=    -1.6034
Spin= Alpha
Occup=    2.00000
   1        -0.00000000
   2         0.00000000
   3         0.00713485
   4         0.19933727
   5         0.00000000
   6        -0.00000000
   7        -0.00000000
   8         0.03239131
   9         0.90496530
  10        -0.00000000
Sym=     6a  
Ene=    -1.5897
Spin= Alpha
Occup=    1.98809
   1         0.00002067
   2        -0.00000370
   3        -0.23310702
   4         0.00834357
   5        -0.00002879
   6         0.00000246
   7        -0.00001940
   8        -0.88552517
   9         0.03169549
  10         0.00012293
Sym=     7a  
Ene=    -0.0000
Spin= Alpha
Occup=    0.01191
   1         0.00002244
   2         0.00015707
   3         1.05900487
   4        -0.03790483
   5         0.00011871
   6        -0.00002114
   7        -0.00013912
   8        -0.62583972
   9         0.02240060
  10         0.00007604
Sym=     8a  
Ene=    -0.9290
Spin= Alpha
Occup=    0.00000
   1         0.02767261
   2         0.89520725
   3        -0.00004607
   4         0.00000165
   5        -0.51805680
   6        -0.00490422
   7        -0.10250851
   8         0.00003332
   9        -0.00000119
  10         0.17865725
Sym=     9a  
Ene=    -0.6336
Spin= Alpha
Occup=    0.00000
   1        -0.00000000
   2         0.00000000
   3        -0.03815082
   4        -1.06587751
   5        -0.00000000
   6        -0.00000000
   7        -0.00000000
   8         0.02138210
   9         0.59738431
  10        -0.00000000
Sym=    10a  
Ene=    -0.0792
Spin= Alpha
Occup=    0.00000
   1        -0.18399474
   2        -1.02189529
   3         0.00012144
   4        -0.00000435
   5        -1.24104253
   6         0.18303483
   7         1.19216113
   8        -0.00007159
   9         0.00000256
  10        -0.57601257
