[Molden Format]
[N_Atoms]
                     2
[Atoms] (AU)
B1          1      5           0.00000000      0.00000000      0.00000000
F2          2      9           0.00000000      0.00000000      1.88972612
[Charge] (Mulliken)
  0.493363655625225     
 -0.493363655625243     
[GTO] (AU)
   1
   s  14
  3.336021700E+04  1.039699991E-04
  4.972095200E+03  5.254399956E-04
  1.125641700E+03  2.509059979E-03
  3.164913600E+02  1.031887991E-02
  1.020072600E+02  3.636632969E-02
  3.629587300E+01  1.064607991E-01
  1.397141000E+01  2.403999880E-01
  5.741156000E+00  3.748581168E-01
  2.494268000E+00  3.100066974E-01
  1.114202000E+00  7.922455933E-02
  4.215490000E-01 -4.947589958E-03
  1.696330000E-01 -7.737119935E-03
  6.853500000E-02 -1.501079987E-03
  2.398700000E-02 -1.333299989E-04
   s  14
  3.336021700E+04 -2.030000008E-05
  4.972095200E+03 -1.025700004E-04
  1.125641700E+03 -4.911300020E-04
  3.164913600E+02 -2.026570008E-03
  1.020072600E+02 -7.261010030E-03
  3.629587300E+01 -2.197722009E-02
  1.397141000E+01 -5.408428022E-02
  5.741156000E+00 -1.022402604E-01
  2.494268000E+00 -1.423595206E-01
  1.114202000E+00 -4.658690019E-02
  4.215490000E-01  3.799402916E-01
  1.696330000E-01  5.890463624E-01
  6.853500000E-02  1.749075107E-01
  2.398700000E-02 -1.142030005E-03
   p   9
  5.500000000E+01  1.229800005E-03
  1.336610100E+01  8.827380035E-03
  4.135394000E+00  3.843340015E-02
  1.481256000E+00  1.150031805E-01
  6.021360000E-01  2.733674011E-01
  2.556360000E-01  4.061972116E-01
  1.111510000E-01  3.014967912E-01
  4.764800000E-02  7.684809030E-02
  1.667700000E-02 -8.170000032E-06
 
   2
   s  14
  1.031094600E+05  1.713099991E-04
  1.528100700E+04  7.123999962E-04
  3.441539200E+03  2.990479984E-03
  9.670948300E+02  1.164036994E-02
  3.140353400E+02  3.968642979E-02
  1.134423000E+02  1.128546094E-01
  4.464472700E+01  2.473650687E-01
  1.894287400E+01  3.672702681E-01
  8.532743000E+00  2.896286985E-01
  3.919401000E+00  7.786681959E-02
  1.568157000E+00  4.562139976E-03
  6.232900000E-01  2.468879987E-03
  2.408610000E-01  1.106309994E-03
  8.430100000E-02  1.739699991E-04
   s  14
  1.031094600E+05 -4.044999995E-05
  1.528100700E+04 -1.682299998E-04
  3.441539200E+03 -7.084299991E-04
  9.670948300E+02 -2.767999996E-03
  3.140353400E+02 -9.611379987E-03
  1.134423000E+02 -2.833957996E-02
  4.464472700E+01 -6.839343991E-02
  1.894287400E+01 -1.237379298E-01
  8.532743000E+00 -1.512859698E-01
  3.919401000E+00 -9.099909988E-03
  1.568157000E+00  3.716257695E-01
  6.232900000E-01  5.500214393E-01
  2.408610000E-01  2.092318697E-01
  8.430100000E-02  8.074639989E-03
   p   9
  2.453302900E+02  1.024860004E-03
  5.691900500E+01  8.344290032E-03
  1.760456800E+01  4.078927016E-02
  6.274995000E+00  1.351370605E-01
  2.447030000E+00  2.798830811E-01
  9.950600000E-01  3.597966414E-01
  4.039730000E-01  3.055347412E-01
  1.548100000E-01  1.354703905E-01
  5.418400000E-02  2.804449011E-02
 
[MO]
Sym=     1a  
Ene=   -26.4710
Spin= Alpha
Occup=    2.00000
   1        -0.00047946
   2        -0.00082789
   3         0.00000000
   4         0.00000000
   5        -0.00102546
   6         1.00014676
   7        -0.00148738
   8         0.00000000
   9        -0.00000000
  10        -0.00185176
Sym=     2a  
Ene=    -7.8142
Spin= Alpha
Occup=    2.00000
   1         0.99779570
   2        -0.00019926
   3        -0.00000000
   4         0.00000000
   5         0.00959040
   6        -0.00134564
   7         0.00827782
   8        -0.00000000
   9        -0.00000000
  10        -0.00879697
Sym=     3a  
Ene=    -1.9083
Spin= Alpha
Occup=    2.00000
   1        -0.13160353
   2        -0.01011776
   3         0.00000000
   4        -0.00000000
   5         0.09828148
   6        -0.00679870
   7         0.91523178
   8         0.00000000
   9        -0.00000000
  10        -0.26848918
Sym=     4a  
Ene=    -0.9362
Spin= Alpha
Occup=    2.00000
   1         0.13085319
   2         0.10398143
   3         0.00000000
   4         0.00000000
   5        -0.18874458
   6         0.01375604
   7         0.32714180
   8         0.00000000
   9         0.00000000
  10         0.96428271
Sym=     5a  
Ene=    -0.8740
Spin= Alpha
Occup=    2.00000
   1        -0.00000000
   2        -0.00000000
   3         0.15783393
   4        -0.02746233
   5         0.00000000
   6        -0.00000000
   7        -0.00000000
   8         0.91314427
   9        -0.15888263
  10        -0.00000000
Sym=     6a  
Ene=    -0.8719
Spin= Alpha
Occup=    2.00000
   1        -0.00000000
   2        -0.00000000
   3         0.02874422
   4         0.16520130
   5         0.00000000
   6        -0.00000000
   7        -0.00000000
   8         0.15820455
   9         0.90924714
  10        -0.00000000
Sym=     7a  
Ene=    -0.4151
Spin= Alpha
Occup=    1.96594
   1        -0.02899473
   2        -0.94200146
   3         0.00000000
   4        -0.00000000
   5         0.42798436
   6         0.01729961
   7         0.19867519
   8        -0.00000000
   9         0.00000000
  10        -0.06046322
Sym=     8a  
Ene=     0.0000
Spin= Alpha
Occup=    0.03406
   1         0.00000000
   2        -0.00000000
   3        -1.05727450
   4         0.18396059
   5         0.00000000
   6        -0.00000000
   7        -0.00000000
   8         0.55579533
   9        -0.09670567
  10         0.00000000
Sym=     9a  
Ene=     0.1963
Spin= Alpha
Occup=    0.00000
   1        -0.00000000
   2        -0.00000000
   3        -0.18376465
   4        -1.05614840
   5        -0.00000000
   6         0.00000000
   7         0.00000000
   8         0.09781103
   9         0.56214817
  10        -0.00000000
Sym=    10a  
Ene=     0.6826
Spin= Alpha
Occup=    0.00000
   1        -0.17560539
   2        -0.97654613
   3        -0.00000000
   4         0.00000000
   5        -1.27195044
   6         0.18329714
   7         1.20684490
   8         0.00000000
   9        -0.00000000
  10        -0.52845612
