[Molden Format]
[N_Atoms]
                     2
[Atoms] (AU)
B1          1      5           0.00000000      0.00000000      0.00000000
H2          2      1           0.00000000      0.00000000      3.96842486
[Charge] (Mulliken)
  0.128894965331941     
 -0.128894965331950     
[GTO] (AU)
   1
   s  14
  3.336021700E+04  1.039699991E-04
  4.972095200E+03  5.254399956E-04
  1.125641700E+03  2.509059979E-03
  3.164913600E+02  1.031887991E-02
  1.020072600E+02  3.636632969E-02
  3.629587300E+01  1.064607991E-01
  1.397141000E+01  2.403999880E-01
  5.741156000E+00  3.748581168E-01
  2.494268000E+00  3.100066974E-01
  1.114202000E+00  7.922455933E-02
  4.215490000E-01 -4.947589958E-03
  1.696330000E-01 -7.737119935E-03
  6.853500000E-02 -1.501079987E-03
  2.398700000E-02 -1.333299989E-04
   s  14
  3.336021700E+04 -2.030000008E-05
  4.972095200E+03 -1.025700004E-04
  1.125641700E+03 -4.911300020E-04
  3.164913600E+02 -2.026570008E-03
  1.020072600E+02 -7.261010030E-03
  3.629587300E+01 -2.197722009E-02
  1.397141000E+01 -5.408428022E-02
  5.741156000E+00 -1.022402604E-01
  2.494268000E+00 -1.423595206E-01
  1.114202000E+00 -4.658690019E-02
  4.215490000E-01  3.799402916E-01
  1.696330000E-01  5.890463624E-01
  6.853500000E-02  1.749075107E-01
  2.398700000E-02 -1.142030005E-03
   p   9
  5.500000000E+01  1.229800005E-03
  1.336610100E+01  8.827380035E-03
  4.135394000E+00  3.843340015E-02
  1.481256000E+00  1.150031805E-01
  6.021360000E-01  2.733674011E-01
  2.556360000E-01  4.061972116E-01
  1.111510000E-01  3.014967912E-01
  4.764800000E-02  7.684809030E-02
  1.667700000E-02 -8.170000032E-06
 
   2
   s   8
  1.886144500E+02  9.638500027E-04
  2.827659600E+01  7.491960021E-03
  6.424830000E+00  3.759541011E-02
  1.815041000E+00  1.433949804E-01
  5.910630000E-01  3.486363010E-01
  2.121490000E-01  4.382973612E-01
  7.989100000E-02  1.651066105E-01
  2.796200000E-02  2.102287006E-02
 
[MO]
Sym=     1a  
Ene=    -7.7156
Spin= Alpha
Occup=    1.00000
   1         0.99990746
   2         0.01370723
   3        -0.00000000
   4        -0.00000000
   5         0.00107581
   6        -0.00013460
Sym=     1a  
Ene=    -7.7156
Spin= Beta
Occup=    1.00000
   1         0.99990746
   2         0.01370723
   3        -0.00000000
   4        -0.00000000
   5         0.00107581
   6        -0.00013460
Sym=     2a  
Ene=    -0.5273
Spin= Alpha
Occup=    1.00000
   1        -0.01595076
   2         0.92843915
   3        -0.00000000
   4        -0.00000000
   5         0.02962572
   6         0.21853507
Sym=     2a  
Ene=    -0.5273
Spin= Beta
Occup=    1.00000
   1        -0.01595076
   2         0.92843915
   3        -0.00000000
   4        -0.00000000
   5         0.02962572
   6         0.21853507
Sym=     3a  
Ene=    -0.2989
Spin= Alpha
Occup=    1.00000
   1        -0.00543840
   2        -0.33332135
   3        -0.00000000
   4         0.00000000
   5         0.59207869
   6         0.63715194
Sym=     3a  
Ene=    -0.2989
Spin= Beta
Occup=    1.00000
   1        -0.00543840
   2        -0.33332135
   3        -0.00000000
   4         0.00000000
   5         0.59207869
   6         0.63715194
Sym=     4a  
Ene=     0.0854
Spin= Alpha
Occup=    0.00000
   1         0.00000000
   2        -0.00000000
   3         0.90990115
   4         0.41482513
   5         0.00000000
   6        -0.00000000
Sym=     4a  
Ene=     0.0854
Spin= Beta
Occup=    0.00000
   1         0.00000000
   2        -0.00000000
   3         0.90990115
   4         0.41482513
   5         0.00000000
   6        -0.00000000
Sym=     5a  
Ene=     0.0854
Spin= Alpha
Occup=    0.00000
   1        -0.00000000
   2         0.00000000
   3        -0.41482513
   4         0.90990115
   5        -0.00000000
   6        -0.00000000
Sym=     5a  
Ene=     0.0854
Spin= Beta
Occup=    0.00000
   1        -0.00000000
   2         0.00000000
   3        -0.41482513
   4         0.90990115
   5        -0.00000000
   6        -0.00000000
Sym=     6a  
Ene=     0.1620
Spin= Alpha
Occup=    0.00000
   1        -0.00758680
   2        -0.27865715
   3         0.00000000
   4         0.00000000
   5        -0.86486810
   6         0.83475100
Sym=     6a  
Ene=     0.1620
Spin= Beta
Occup=    0.00000
   1        -0.00758680
   2        -0.27865715
   3         0.00000000
   4         0.00000000
   5        -0.86486810
   6         0.83475100
