[Molden Format]
[N_Atoms]
                     2
[Atoms] (AU)
B1          1      5           0.00000000      0.00000000      0.00000000
BE2         2      4           0.00000000      0.00000000      3.96842486
[Charge] (Mulliken)
 -0.115814180199787     
  0.115814180199770     
[GTO] (AU)
   1
   s  14
  3.336021700E+04  1.039699991E-04
  4.972095200E+03  5.254399956E-04
  1.125641700E+03  2.509059979E-03
  3.164913600E+02  1.031887991E-02
  1.020072600E+02  3.636632969E-02
  3.629587300E+01  1.064607991E-01
  1.397141000E+01  2.403999880E-01
  5.741156000E+00  3.748581168E-01
  2.494268000E+00  3.100066974E-01
  1.114202000E+00  7.922455933E-02
  4.215490000E-01 -4.947589958E-03
  1.696330000E-01 -7.737119935E-03
  6.853500000E-02 -1.501079987E-03
  2.398700000E-02 -1.333299989E-04
   s  14
  3.336021700E+04 -2.030000008E-05
  4.972095200E+03 -1.025700004E-04
  1.125641700E+03 -4.911300020E-04
  3.164913600E+02 -2.026570008E-03
  1.020072600E+02 -7.261010030E-03
  3.629587300E+01 -2.197722009E-02
  1.397141000E+01 -5.408428022E-02
  5.741156000E+00 -1.022402604E-01
  2.494268000E+00 -1.423595206E-01
  1.114202000E+00 -4.658690019E-02
  4.215490000E-01  3.799402916E-01
  1.696330000E-01  5.890463624E-01
  6.853500000E-02  1.749075107E-01
  2.398700000E-02 -1.142030005E-03
   p   9
  5.500000000E+01  1.229800005E-03
  1.336610100E+01  8.827380035E-03
  4.135394000E+00  3.843340015E-02
  1.481256000E+00  1.150031805E-01
  6.021360000E-01  2.733674011E-01
  2.556360000E-01  4.061972116E-01
  1.111510000E-01  3.014967912E-01
  4.764800000E-02  7.684809030E-02
  1.667700000E-02 -8.170000032E-06
 
   2
   s  14
  2.262859900E+04  8.443999941E-05
  3.372318100E+03  4.601499968E-04
  7.603504000E+02  2.285389984E-03
  2.117404800E+02  9.648129932E-03
  6.722346800E+01  3.494469975E-02
  2.337217700E+01  1.061099893E-01
  8.721373000E+00  2.458240383E-01
  3.468091000E+00  3.862428773E-01
  1.452144000E+00  3.105526078E-01
  6.086150000E-01  6.415933955E-02
  2.576860000E-01 -2.265049984E-03
  1.041760000E-01 -5.217499963E-04
  4.242700000E-02 -8.757499938E-04
  1.484900000E-02  1.242199991E-04
   s  14
  2.262859900E+04 -1.586999994E-05
  3.372318100E+03 -8.656999968E-05
  7.603504000E+02 -4.302199984E-04
  2.117404800E+02 -1.825079993E-03
  6.722346800E+01 -6.682749976E-03
  2.337217700E+01 -2.095119992E-02
  8.721373000E+00 -5.200308981E-02
  3.468091000E+00 -9.849176964E-02
  1.452144000E+00 -1.355800695E-01
  6.086150000E-01 -6.429875976E-02
  2.576860000E-01  3.125414989E-01
  1.041760000E-01  6.270468577E-01
  4.242700000E-02  2.110231492E-01
  1.484900000E-02 -4.104669985E-03
   p   9
  3.371018400E+01  1.069960000E-03
  8.057649500E+00  6.828550001E-03
  2.836471400E+00  2.119065000E-02
  1.099965700E+00  5.843696001E-02
  4.433964000E-01  2.020920800E-01
  1.822264000E-01  4.582953101E-01
  7.572410000E-02  3.691239601E-01
  3.168540000E-02  6.611471001E-02
  1.108990000E-02  1.405160000E-03
 
[MO]
Sym=     1a  
Ene=    -7.6297
Spin= Alpha
Occup=    1.00000
   1         0.99990255
   2         0.01500311
   3        -0.00000000
   4        -0.00000000
   5        -0.00060383
   6        -0.00001936
   7        -0.00014083
   8         0.00000000
   9         0.00000000
  10         0.00014801
Sym=     1a  
Ene=    -7.6297
Spin= Beta
Occup=    1.00000
   1         0.99990255
   2         0.01500311
   3        -0.00000000
   4        -0.00000000
   5        -0.00060383
   6        -0.00001936
   7        -0.00014083
   8         0.00000000
   9         0.00000000
  10         0.00014801
Sym=     2a  
Ene=    -4.7960
Spin= Alpha
Occup=    1.00000
   1        -0.00002334
   2         0.00099168
   3        -0.00000000
   4        -0.00000000
   5         0.00055930
   6         0.99992350
   7         0.00353475
   8         0.00000000
   9         0.00000000
  10         0.00154780
Sym=     2a  
Ene=    -4.7960
Spin= Beta
Occup=    1.00000
   1        -0.00002334
   2         0.00099168
   3        -0.00000000
   4        -0.00000000
   5         0.00055930
   6         0.99992350
   7         0.00353475
   8         0.00000000
   9         0.00000000
  10         0.00154780
Sym=     3a  
Ene=    -0.4870
Spin= Alpha
Occup=    1.00000
   1        -0.03239111
   2         0.77844529
   3        -0.00000000
   4         0.00000000
   5         0.07515715
   6        -0.03098722
   7         0.28263988
   8        -0.00000000
   9         0.00000000
  10        -0.15323741
Sym=     3a  
Ene=    -0.4870
Spin= Beta
Occup=    1.00000
   1        -0.03239111
   2         0.77844529
   3        -0.00000000
   4         0.00000000
   5         0.07515715
   6        -0.03098722
   7         0.28263988
   8        -0.00000000
   9         0.00000000
  10        -0.15323741
Sym=     4a  
Ene=    -0.0615
Spin= Alpha
Occup=    1.00000
   1        -0.00000000
   2         0.00000000
   3         0.78526048
   4        -0.40994480
   5         0.00000000
   6        -0.00000000
   7         0.00000000
   8         0.25591962
   9        -0.13360270
  10        -0.00000000
Sym=     4a  
Ene=    -0.0615
Spin= Beta
Occup=    0.00000
   1        -0.00000000
   2         0.00000000
   3         0.78526048
   4        -0.40994480
   5         0.00000000
   6        -0.00000000
   7         0.00000000
   8         0.25591962
   9        -0.13360270
  10        -0.00000000
Sym=     5a  
Ene=     0.0000
Spin= Alpha
Occup=    1.00000
   1        -0.00000000
   2        -0.00000000
   3         0.24472316
   4         0.46877390
   5         0.00000000
   6        -0.00000000
   7         0.00000000
   8         0.33468271
   9         0.64109388
  10        -0.00000000
Sym=     5a  
Ene=     0.0000
Spin= Beta
Occup=    1.00000
   1        -0.00000000
   2        -0.00000000
   3         0.24472316
   4         0.46877390
   5         0.00000000
   6        -0.00000000
   7         0.00000000
   8         0.33468271
   9         0.64109388
  10        -0.00000000
Sym=     6a  
Ene=    -0.0507
Spin= Alpha
Occup=    0.00000
   1        -0.00485529
   2        -0.41315630
   3         0.00000000
   4         0.00000000
   5         0.23634012
   6        -0.00662028
   7         0.84686388
   8        -0.00000000
   9        -0.00000000
  10         0.29528290
Sym=     6a  
Ene=    -0.0507
Spin= Beta
Occup=    0.00000
   1        -0.00485529
   2        -0.41315630
   3         0.00000000
   4         0.00000000
   5         0.23634012
   6        -0.00662028
   7         0.84686388
   8        -0.00000000
   9        -0.00000000
  10         0.29528290
Sym=     7a  
Ene=     0.0717
Spin= Alpha
Occup=    0.00000
   1         0.03292522
   2         0.42352597
   3         0.00000000
   4         0.00000000
   5        -0.63094728
   6         0.02815127
   7         0.15064508
   8         0.00000000
   9         0.00000000
  10         0.66498502
Sym=     7a  
Ene=     0.0717
Spin= Beta
Occup=    0.00000
   1         0.03292522
   2         0.42352597
   3         0.00000000
   4         0.00000000
   5        -0.63094728
   6         0.02815127
   7         0.15064508
   8         0.00000000
   9         0.00000000
  10         0.66498502
Sym=     8a  
Ene=     0.1468
Spin= Alpha
Occup=    0.00000
   1        -0.00000000
   2         0.00000000
   3        -0.47459926
   4         0.24776428
   5        -0.00000000
   6        -0.00000000
   7         0.00000000
   8         0.88112634
   9        -0.45999152
  10        -0.00000000
Sym=     8a  
Ene=     0.1468
Spin= Beta
Occup=    0.00000
   1        -0.00000000
   2         0.00000000
   3        -0.47459926
   4         0.24776428
   5        -0.00000000
   6        -0.00000000
   7         0.00000000
   8         0.88112634
   9        -0.45999152
  10        -0.00000000
Sym=     9a  
Ene=     0.1504
Spin= Alpha
Occup=    0.00000
   1        -0.00000000
   2        -0.00000000
   3        -0.41176748
   4        -0.78875187
   5         0.00000000
   6        -0.00000000
   7         0.00000000
   8         0.34267968
   9         0.65641231
  10        -0.00000000
Sym=     9a  
Ene=     0.1504
Spin= Beta
Occup=    0.00000
   1        -0.00000000
   2        -0.00000000
   3        -0.41176748
   4        -0.78875187
   5         0.00000000
   6        -0.00000000
   7         0.00000000
   8         0.34267968
   9         0.65641231
  10        -0.00000000
Sym=    10a  
Ene=     0.4174
Spin= Alpha
Occup=    0.00000
   1        -0.09031565
   2        -0.87856092
   3         0.00000000
   4        -0.00000000
   5        -1.00731579
   6         0.09395025
   7         0.86281521
   8        -0.00000000
   9        -0.00000000
  10        -1.04162254
Sym=    10a  
Ene=     0.4174
Spin= Beta
Occup=    0.00000
   1        -0.09031565
   2        -0.87856092
   3         0.00000000
   4        -0.00000000
   5        -1.00731579
   6         0.09395025
   7         0.86281521
   8        -0.00000000
   9        -0.00000000
  10        -1.04162254
