[Molden Format]
[N_Atoms]
                     2
[Atoms] (AU)
B1          1      5           0.00000000      0.00000000      0.00000000
BE2         2      4           0.00000000      0.00000000      3.96842486
[Charge] (Mulliken)
 -0.127549990772836     
  0.127549990772773     
[GTO] (AU)
   1
   s  14
  3.336021700E+04  1.039699991E-04
  4.972095200E+03  5.254399956E-04
  1.125641700E+03  2.509059979E-03
  3.164913600E+02  1.031887991E-02
  1.020072600E+02  3.636632969E-02
  3.629587300E+01  1.064607991E-01
  1.397141000E+01  2.403999880E-01
  5.741156000E+00  3.748581168E-01
  2.494268000E+00  3.100066974E-01
  1.114202000E+00  7.922455933E-02
  4.215490000E-01 -4.947589958E-03
  1.696330000E-01 -7.737119935E-03
  6.853500000E-02 -1.501079987E-03
  2.398700000E-02 -1.333299989E-04
   s  14
  3.336021700E+04 -2.030000008E-05
  4.972095200E+03 -1.025700004E-04
  1.125641700E+03 -4.911300020E-04
  3.164913600E+02 -2.026570008E-03
  1.020072600E+02 -7.261010030E-03
  3.629587300E+01 -2.197722009E-02
  1.397141000E+01 -5.408428022E-02
  5.741156000E+00 -1.022402604E-01
  2.494268000E+00 -1.423595206E-01
  1.114202000E+00 -4.658690019E-02
  4.215490000E-01  3.799402916E-01
  1.696330000E-01  5.890463624E-01
  6.853500000E-02  1.749075107E-01
  2.398700000E-02 -1.142030005E-03
   p   9
  5.500000000E+01  1.229800005E-03
  1.336610100E+01  8.827380035E-03
  4.135394000E+00  3.843340015E-02
  1.481256000E+00  1.150031805E-01
  6.021360000E-01  2.733674011E-01
  2.556360000E-01  4.061972116E-01
  1.111510000E-01  3.014967912E-01
  4.764800000E-02  7.684809030E-02
  1.667700000E-02 -8.170000032E-06
 
   2
   s  14
  2.262859900E+04  8.443999941E-05
  3.372318100E+03  4.601499968E-04
  7.603504000E+02  2.285389984E-03
  2.117404800E+02  9.648129932E-03
  6.722346800E+01  3.494469975E-02
  2.337217700E+01  1.061099893E-01
  8.721373000E+00  2.458240383E-01
  3.468091000E+00  3.862428773E-01
  1.452144000E+00  3.105526078E-01
  6.086150000E-01  6.415933955E-02
  2.576860000E-01 -2.265049984E-03
  1.041760000E-01 -5.217499963E-04
  4.242700000E-02 -8.757499938E-04
  1.484900000E-02  1.242199991E-04
   s  14
  2.262859900E+04 -1.586999994E-05
  3.372318100E+03 -8.656999968E-05
  7.603504000E+02 -4.302199984E-04
  2.117404800E+02 -1.825079993E-03
  6.722346800E+01 -6.682749976E-03
  2.337217700E+01 -2.095119992E-02
  8.721373000E+00 -5.200308981E-02
  3.468091000E+00 -9.849176964E-02
  1.452144000E+00 -1.355800695E-01
  6.086150000E-01 -6.429875976E-02
  2.576860000E-01  3.125414989E-01
  1.041760000E-01  6.270468577E-01
  4.242700000E-02  2.110231492E-01
  1.484900000E-02 -4.104669985E-03
   p   9
  3.371018400E+01  1.069960000E-03
  8.057649500E+00  6.828550001E-03
  2.836471400E+00  2.119065000E-02
  1.099965700E+00  5.843696001E-02
  4.433964000E-01  2.020920800E-01
  1.822264000E-01  4.582953101E-01
  7.572410000E-02  3.691239601E-01
  3.168540000E-02  6.611471001E-02
  1.108990000E-02  1.405160000E-03
 
[MO]
Sym=     1a  
Ene=    -7.6309
Spin= Alpha
Occup=    1.00000
   1         0.99993106
   2         0.01739627
   3         0.00000000
   4        -0.00000000
   5         0.00043060
   6        -0.00016062
   7        -0.00080400
   8        -0.00000000
   9        -0.00000000
  10         0.00075202
Sym=     1a  
Ene=    -7.6011
Spin= Beta
Occup=    1.00000
   1         0.99994176
   2         0.01361442
   3         0.00000000
   4         0.00000000
   5         0.00080760
   6        -0.00009443
   7        -0.00044211
   8        -0.00000000
   9        -0.00000000
  10         0.00027246
Sym=     2a  
Ene=    -4.7360
Spin= Alpha
Occup=    1.00000
   1        -0.00015919
   2         0.00000939
   3         0.00000000
   4        -0.00000000
   5         0.00032765
   6         0.99997262
   7         0.00292032
   8        -0.00000000
   9        -0.00000000
  10        -0.00095239
Sym=     2a  
Ene=    -4.7476
Spin= Beta
Occup=    1.00000
   1        -0.00002426
   2         0.00083671
   3         0.00000000
   4        -0.00000000
   5         0.00054031
   6         0.99993347
   7         0.00262901
   8        -0.00000000
   9        -0.00000000
  10         0.00064987
Sym=     3a  
Ene=    -0.5856
Spin= Alpha
Occup=    1.00000
   1        -0.03263394
   2         0.83521474
   3        -0.00000000
   4        -0.00000000
   5        -0.07961936
   6        -0.02202008
   7         0.22125269
   8        -0.00000000
   9         0.00000000
  10        -0.15017272
Sym=     3a  
Ene=    -0.4609
Spin= Beta
Occup=    1.00000
   1        -0.03095483
   2         0.63947319
   3        -0.00000000
   4         0.00000000
   5         0.23935033
   6        -0.03797456
   7         0.43238211
   8        -0.00000000
   9         0.00000000
  10        -0.09539697
Sym=     4a  
Ene=    -0.3490
Spin= Alpha
Occup=    1.00000
   1        -0.02852842
   2        -0.39821205
   3         0.00000000
   4        -0.00000000
   5         0.66444318
   6        -0.03441367
   7         0.48808425
   8         0.00000000
   9        -0.00000000
  10        -0.24673435
Sym=     4a  
Ene=    -0.3153
Spin= Beta
Occup=    1.00000
   1         0.01428259
   2        -0.34484625
   3         0.00000000
   4         0.00000000
   5        -0.07718863
   6         0.01376331
   7         0.77040992
   8         0.00000000
   9         0.00000000
  10         0.55951123
Sym=     5a  
Ene=    -0.2957
Spin= Alpha
Occup=    1.00000
   1        -0.00000000
   2        -0.00000000
   3        -0.64510383
   4         0.67383647
   5         0.00000000
   6         0.00000000
   7         0.00000000
   8        -0.13317153
   9         0.13910293
  10        -0.00000000
Sym=     5a  
Ene=     0.0520
Spin= Beta
Occup=    0.00000
   1        -0.00000000
   2         0.00000000
   3         0.27825245
   4         0.26638766
   5         0.00000000
   6        -0.00000000
   7        -0.00000000
   8         0.59865709
   9         0.57313013
  10        -0.00000000
Sym=     6a  
Ene=     0.0499
Spin= Alpha
Occup=    0.00000
   1         0.00000000
   2         0.00000000
   3         0.46556305
   4         0.44571127
   5        -0.00000000
   6         0.00000000
   7        -0.00000000
   8         0.44508053
   9         0.42610213
  10         0.00000000
Sym=     6a  
Ene=     0.0673
Spin= Beta
Occup=    0.00000
   1         0.00000000
   2         0.00000000
   3        -0.20564611
   4         0.21480550
   5        -0.00000000
   6         0.00000000
   7        -0.00000000
   8        -0.60932258
   9         0.63646154
  10         0.00000000
Sym=     7a  
Ene=     0.0804
Spin= Alpha
Occup=    0.00000
   1        -0.00533949
   2         0.14066777
   3        -0.00000000
   4         0.00000000
   5         0.42128709
   6        -0.03120470
   7        -0.84152720
   8         0.00000000
   9        -0.00000000
  10        -0.50214867
Sym=     7a  
Ene=     0.1297
Spin= Beta
Occup=    0.00000
   1        -0.03449642
   2        -0.76152305
   3         0.00000000
   4         0.00000000
   5         0.55967744
   6        -0.01433409
   7         0.20599990
   8        -0.00000000
   9         0.00000000
  10        -0.54367637
Sym=     8a  
Ene=     0.1385
Spin= Alpha
Occup=    0.00000
   1         0.00000000
   2         0.00000000
   3         0.31011928
   4        -0.32393186
   5         0.00000000
   6        -0.00000000
   7        -0.00000000
   8        -0.70327681
   9         0.73460045
  10        -0.00000000
Sym=     8a  
Ene=     0.2122
Spin= Beta
Occup=    0.00000
   1         0.00000000
   2        -0.00000000
   3        -0.69394741
   4        -0.66435724
   5         0.00000000
   6         0.00000000
   7        -0.00000000
   8         0.44788071
   9         0.42878291
  10        -0.00000000
Sym=     9a  
Ene=     0.1908
Spin= Alpha
Occup=    0.00000
   1        -0.00000000
   2        -0.00000000
   3        -0.58501153
   4        -0.56006642
   5         0.00000000
   6         0.00000000
   7         0.00000000
   8         0.60074184
   9         0.57512599
  10        -0.00000000
Sym=     9a  
Ene=     0.2509
Spin= Beta
Occup=    0.00000
   1         0.00000000
   2        -0.00000000
   3        -0.68559653
   4         0.71613270
   5         0.00000000
   6         0.00000000
   7         0.00000000
   8         0.37557811
   9        -0.39230620
  10        -0.00000000
Sym=    10a  
Ene=     0.3880
Spin= Alpha
Occup=    0.00000
   1         0.09137480
   2         0.92298335
   3        -0.00000000
   4         0.00000000
   5         0.92140025
   6        -0.08878069
   7        -0.75423079
   8         0.00000000
   9        -0.00000000
  10         1.14117232
Sym=    10a  
Ene=     0.4130
Spin= Beta
Occup=    0.00000
   1         0.08878703
   2         0.78752556
   3         0.00000000
   4         0.00000000
   5         1.04775906
   6        -0.09362835
   7        -0.86098285
   8        -0.00000000
   9        -0.00000000
  10         1.01001030
