[Molden Format]
[N_Atoms]
                     2
[Atoms] (AU)
B1          1      5           0.00000000      0.00000000      0.00000000
BE2         2      4           0.00000000      0.00000000      3.96842486
[Charge] (Mulliken)
 -7.410456151429567E-002
  7.410456151428635E-002
[GTO] (AU)
   1
   s  14
  3.336021700E+04  1.039699991E-04
  4.972095200E+03  5.254399956E-04
  1.125641700E+03  2.509059979E-03
  3.164913600E+02  1.031887991E-02
  1.020072600E+02  3.636632969E-02
  3.629587300E+01  1.064607991E-01
  1.397141000E+01  2.403999880E-01
  5.741156000E+00  3.748581168E-01
  2.494268000E+00  3.100066974E-01
  1.114202000E+00  7.922455933E-02
  4.215490000E-01 -4.947589958E-03
  1.696330000E-01 -7.737119935E-03
  6.853500000E-02 -1.501079987E-03
  2.398700000E-02 -1.333299989E-04
   s  14
  3.336021700E+04 -2.030000008E-05
  4.972095200E+03 -1.025700004E-04
  1.125641700E+03 -4.911300020E-04
  3.164913600E+02 -2.026570008E-03
  1.020072600E+02 -7.261010030E-03
  3.629587300E+01 -2.197722009E-02
  1.397141000E+01 -5.408428022E-02
  5.741156000E+00 -1.022402604E-01
  2.494268000E+00 -1.423595206E-01
  1.114202000E+00 -4.658690019E-02
  4.215490000E-01  3.799402916E-01
  1.696330000E-01  5.890463624E-01
  6.853500000E-02  1.749075107E-01
  2.398700000E-02 -1.142030005E-03
   p   9
  5.500000000E+01  1.229800005E-03
  1.336610100E+01  8.827380035E-03
  4.135394000E+00  3.843340015E-02
  1.481256000E+00  1.150031805E-01
  6.021360000E-01  2.733674011E-01
  2.556360000E-01  4.061972116E-01
  1.111510000E-01  3.014967912E-01
  4.764800000E-02  7.684809030E-02
  1.667700000E-02 -8.170000032E-06
 
   2
   s  14
  2.262859900E+04  8.443999941E-05
  3.372318100E+03  4.601499968E-04
  7.603504000E+02  2.285389984E-03
  2.117404800E+02  9.648129932E-03
  6.722346800E+01  3.494469975E-02
  2.337217700E+01  1.061099893E-01
  8.721373000E+00  2.458240383E-01
  3.468091000E+00  3.862428773E-01
  1.452144000E+00  3.105526078E-01
  6.086150000E-01  6.415933955E-02
  2.576860000E-01 -2.265049984E-03
  1.041760000E-01 -5.217499963E-04
  4.242700000E-02 -8.757499938E-04
  1.484900000E-02  1.242199991E-04
   s  14
  2.262859900E+04 -1.586999994E-05
  3.372318100E+03 -8.656999968E-05
  7.603504000E+02 -4.302199984E-04
  2.117404800E+02 -1.825079993E-03
  6.722346800E+01 -6.682749976E-03
  2.337217700E+01 -2.095119992E-02
  8.721373000E+00 -5.200308981E-02
  3.468091000E+00 -9.849176964E-02
  1.452144000E+00 -1.355800695E-01
  6.086150000E-01 -6.429875976E-02
  2.576860000E-01  3.125414989E-01
  1.041760000E-01  6.270468577E-01
  4.242700000E-02  2.110231492E-01
  1.484900000E-02 -4.104669985E-03
   p   9
  3.371018400E+01  1.069960000E-03
  8.057649500E+00  6.828550001E-03
  2.836471400E+00  2.119065000E-02
  1.099965700E+00  5.843696001E-02
  4.433964000E-01  2.020920800E-01
  1.822264000E-01  4.582953101E-01
  7.572410000E-02  3.691239601E-01
  3.168540000E-02  6.611471001E-02
  1.108990000E-02  1.405160000E-03
 
[MO]
Sym=     1a  
Ene=    -7.6394
Spin= Alpha
Occup=    2.00000
   1         0.99996618
   2         0.01503054
   3        -0.00000058
   4         0.00000023
   5         0.00125669
   6        -0.00017375
   7        -0.00078855
   8         0.00000001
   9         0.00000001
  10         0.00073872
Sym=     2a  
Ene=    -4.7349
Spin= Alpha
Occup=    2.00000
   1        -0.00007167
   2         0.00028196
   3         0.00000031
   4        -0.00000021
   5         0.00014298
   6         0.99997861
   7         0.00233513
   8        -0.00000166
   9         0.00000105
  10        -0.00039909
Sym=     3a  
Ene=    -0.5338
Spin= Alpha
Occup=    2.00000
   1        -0.03064422
   2         0.78331001
   3        -0.00005002
   4         0.00003259
   5         0.08851770
   6        -0.03162285
   7         0.29634426
   8        -0.00000975
   9         0.00000486
  10        -0.12266462
Sym=     4a  
Ene=    -0.2778
Spin= Alpha
Occup=    2.00000
   1         0.01758283
   2         0.56893110
   3        -0.00005250
   4         0.00005135
   5        -0.27934706
   6         0.00296842
   7        -0.85416811
   8        -0.00017297
   9         0.00010976
  10        -0.08806145
Sym=     5a  
Ene=     0.1073
Spin= Alpha
Occup=    0.00000
   1         0.01449305
   2         0.14379778
   3         0.41460631
   4        -0.07928960
   5        -0.36705147
   6         0.01997919
   7         0.20822473
   8        -0.70911484
   9         0.41417665
  10         0.35283364
Sym=     6a  
Ene=    -0.0000
Spin= Alpha
Occup=    1.00000
   1         0.00000843
   2         0.00020675
   3         0.78017586
   4        -0.47658825
   5         0.00011191
   6        -0.00001297
   7        -0.00023170
   8         0.19879434
   9        -0.12148537
  10         0.00003428
Sym=     7a  
Ene=     0.0437
Spin= Alpha
Occup=    0.00000
   1         0.00596497
   2         0.05889435
   3        -0.28987627
   4        -0.44505853
   5        -0.13058553
   6         0.00687468
   7         0.07260897
   8        -0.33503758
   9        -0.60963001
  10         0.13826823
Sym=     8a  
Ene=     0.0681
Spin= Alpha
Occup=    0.00000
   1         0.02294231
   2         0.22643385
   3        -0.20301835
   4         0.19584187
   5        -0.49683366
   6         0.02608519
   7         0.27580667
   8         0.57736427
   9        -0.15276525
  10         0.52996230
Sym=     9a  
Ene=     0.1824
Spin= Alpha
Occup=    0.00000
   1         0.00073808
   2         0.00726210
   3        -0.40675260
   4        -0.77554141
   5        -0.01468205
   6         0.00075329
   7         0.00805953
   8         0.28842063
   9         0.69999010
  10         0.01661777
Sym=    10a  
Ene=     0.3857
Spin= Alpha
Occup=    0.00000
   1        -0.09036446
   2        -0.84568921
   3        -0.00743118
   4         0.00124901
   5        -0.99477390
   6         0.09152430
   7         0.78868701
   8         0.01308217
   9        -0.00687341
  10        -1.09101361
