[Molden Format]
[N_Atoms]
                     2
[Atoms] (AU)
N1          1      7           0.00000000      0.00000000      0.00000000
N2          2      7           0.00000000      0.00000000      5.10226054
[Charge] (Mulliken)
  0.000000000000000E+000
  0.000000000000000E+000
[GTO] (AU)
   1
   s  14
  7.476171500E+04  1.182599996E-04
  1.112365400E+04  5.172899983E-04
  2.512685700E+03  2.266659992E-03
  7.037772900E+02  9.145289970E-03
  2.254787900E+02  3.239342989E-02
  7.961581000E+01  9.770792967E-02
  3.023728300E+01  2.317036792E-01
  1.226362200E+01  3.768898887E-01
  5.265086000E+00  3.177420689E-01
  2.333471000E+00  8.211308973E-02
  9.018560000E-01  3.312089989E-03
  3.583360000E-01  3.720819988E-03
  1.410930000E-01  3.165419989E-03
  4.938300000E-02  4.595799985E-04
   s  14
  7.476171500E+04 -2.707000010E-05
  1.112365400E+04 -1.183700004E-04
  2.512685700E+03 -5.203800020E-04
  7.037772900E+02 -2.102930008E-03
  2.254787900E+02 -7.568200028E-03
  7.961581000E+01 -2.346767009E-02
  3.023728300E+01 -6.042901023E-02
  1.226362200E+01 -1.170549104E-01
  5.265086000E+00 -1.555321506E-01
  2.333471000E+00 -2.468935009E-02
  9.018560000E-01  3.625054514E-01
  3.583360000E-01  5.550845021E-01
  1.410930000E-01  2.148376908E-01
  4.938300000E-02  8.983850034E-03
   p   9
  1.266665700E+02  1.233630000E-03
  2.983738900E+01  9.493409996E-03
  9.394038000E+00  4.293961998E-02
  3.405104000E+00  1.362925399E-01
  1.350000000E+00  2.921362499E-01
  5.576960000E-01  3.887887598E-01
  2.324490000E-01  2.946801399E-01
  9.426400000E-02  8.012875997E-02
  3.299200000E-02  5.405199998E-04
 
   2
   s  14
  7.476171500E+04  1.182599996E-04
  1.112365400E+04  5.172899983E-04
  2.512685700E+03  2.266659992E-03
  7.037772900E+02  9.145289970E-03
  2.254787900E+02  3.239342989E-02
  7.961581000E+01  9.770792967E-02
  3.023728300E+01  2.317036792E-01
  1.226362200E+01  3.768898887E-01
  5.265086000E+00  3.177420689E-01
  2.333471000E+00  8.211308973E-02
  9.018560000E-01  3.312089989E-03
  3.583360000E-01  3.720819988E-03
  1.410930000E-01  3.165419989E-03
  4.938300000E-02  4.595799985E-04
   s  14
  7.476171500E+04 -2.707000010E-05
  1.112365400E+04 -1.183700004E-04
  2.512685700E+03 -5.203800020E-04
  7.037772900E+02 -2.102930008E-03
  2.254787900E+02 -7.568200028E-03
  7.961581000E+01 -2.346767009E-02
  3.023728300E+01 -6.042901023E-02
  1.226362200E+01 -1.170549104E-01
  5.265086000E+00 -1.555321506E-01
  2.333471000E+00 -2.468935009E-02
  9.018560000E-01  3.625054514E-01
  3.583360000E-01  5.550845021E-01
  1.410930000E-01  2.148376908E-01
  4.938300000E-02  8.983850034E-03
   p   9
  1.266665700E+02  1.233630000E-03
  2.983738900E+01  9.493409996E-03
  9.394038000E+00  4.293961998E-02
  3.405104000E+00  1.362925399E-01
  1.350000000E+00  2.921362499E-01
  5.576960000E-01  3.887887598E-01
  2.324490000E-01  2.946801399E-01
  9.426400000E-02  8.012875997E-02
  3.299200000E-02  5.405199998E-04
 
[MO]
Sym=     1a  
Ene=   -15.6350
Spin= Alpha
Occup=    2.00000
   1         0.70709011
   2         0.00006520
   3        -0.00000000
   4         0.00000000
   5         0.00010001
   6         0.70709011
   7         0.00006520
   8         0.00000000
   9        -0.00000000
  10        -0.00010001
Sym=     2a  
Ene=   -15.6330
Spin= Alpha
Occup=    2.00000
   1        -0.70712251
   2         0.00006420
   3         0.00000000
   4        -0.00000000
   5         0.00009914
   6         0.70712251
   7        -0.00006420
   8        -0.00000000
   9         0.00000000
  10         0.00009914
Sym=     3a  
Ene=    -0.9803
Spin= Alpha
Occup=    2.00000
   1        -0.00129234
   2         0.68978266
   3        -0.00000000
   4         0.00000000
   5         0.06209207
   6        -0.00129234
   7         0.68978266
   8         0.00000000
   9        -0.00000000
  10        -0.06209207
Sym=     4a  
Ene=    -0.9199
Spin= Alpha
Occup=    2.00000
   1        -0.00084214
   2        -0.71275662
   3         0.00000000
   4        -0.00000000
   5         0.05937415
   6         0.00084214
   7         0.71275662
   8        -0.00000000
   9         0.00000000
  10         0.05937415
Sym=     5a  
Ene=    -0.6108
Spin= Alpha
Occup=    2.00000
   1         0.00247637
   2         0.10125010
   3         0.00000000
   4        -0.00000000
   5        -0.67898888
   6         0.00247637
   7         0.10125010
   8         0.00000000
   9        -0.00000000
  10         0.67898888
Sym=     6a  
Ene=    -0.5820
Spin= Alpha
Occup=    2.00000
   1         0.00000000
   2         0.00000000
   3         0.13468657
   4         0.68710389
   5         0.00000000
   6        -0.00000000
   7        -0.00000000
   8         0.13468657
   9         0.68710389
  10         0.00000000
Sym=     7a  
Ene=    -0.5820
Spin= Alpha
Occup=    2.00000
   1        -0.00000000
   2        -0.00000000
   3         0.68710389
   4        -0.13468657
   5        -0.00000000
   6         0.00000000
   7         0.00000000
   8         0.68710389
   9        -0.13468657
  10        -0.00000000
Sym=     8a  
Ene=    -0.5594
Spin= Alpha
Occup=    0.00000
   1         0.00000000
   2         0.00000000
   3        -0.33227457
   4        -0.63224748
   5        -0.00000000
   6        -0.00000000
   7         0.00000000
   8         0.33227457
   9         0.63224748
  10         0.00000000
Sym=     9a  
Ene=    -0.5594
Spin= Alpha
Occup=    0.00000
   1        -0.00000000
   2        -0.00000000
   3        -0.63224748
   4         0.33227457
   5        -0.00000000
   6         0.00000000
   7         0.00000000
   8         0.63224748
   9        -0.33227457
  10        -0.00000000
Sym=    10a  
Ene=    -0.5212
Spin= Alpha
Occup=    0.00000
   1         0.00297820
   2         0.10152274
   3         0.00000000
   4        -0.00000000
   5         0.73569938
   6        -0.00297820
   7        -0.10152274
   8         0.00000000
   9        -0.00000000
  10         0.73569938
