[Molden Format]
[N_Atoms]
                     2
[Atoms] (AU)
N1          1      7           0.00000000      0.00000000      0.00000000
N2          2      7           0.00000000      0.00000000      5.10226054
[Charge] (Mulliken)
 -1.238872116005041E-009
  1.238859681507165E-009
[GTO] (AU)
   1
   s  14
  7.476171500E+04  1.182599996E-04
  1.112365400E+04  5.172899983E-04
  2.512685700E+03  2.266659992E-03
  7.037772900E+02  9.145289970E-03
  2.254787900E+02  3.239342989E-02
  7.961581000E+01  9.770792967E-02
  3.023728300E+01  2.317036792E-01
  1.226362200E+01  3.768898887E-01
  5.265086000E+00  3.177420689E-01
  2.333471000E+00  8.211308973E-02
  9.018560000E-01  3.312089989E-03
  3.583360000E-01  3.720819988E-03
  1.410930000E-01  3.165419989E-03
  4.938300000E-02  4.595799985E-04
   s  14
  7.476171500E+04 -2.707000010E-05
  1.112365400E+04 -1.183700004E-04
  2.512685700E+03 -5.203800020E-04
  7.037772900E+02 -2.102930008E-03
  2.254787900E+02 -7.568200028E-03
  7.961581000E+01 -2.346767009E-02
  3.023728300E+01 -6.042901023E-02
  1.226362200E+01 -1.170549104E-01
  5.265086000E+00 -1.555321506E-01
  2.333471000E+00 -2.468935009E-02
  9.018560000E-01  3.625054514E-01
  3.583360000E-01  5.550845021E-01
  1.410930000E-01  2.148376908E-01
  4.938300000E-02  8.983850034E-03
   p   9
  1.266665700E+02  1.233630000E-03
  2.983738900E+01  9.493409996E-03
  9.394038000E+00  4.293961998E-02
  3.405104000E+00  1.362925399E-01
  1.350000000E+00  2.921362499E-01
  5.576960000E-01  3.887887598E-01
  2.324490000E-01  2.946801399E-01
  9.426400000E-02  8.012875997E-02
  3.299200000E-02  5.405199998E-04
 
   2
   s  14
  7.476171500E+04  1.182599996E-04
  1.112365400E+04  5.172899983E-04
  2.512685700E+03  2.266659992E-03
  7.037772900E+02  9.145289970E-03
  2.254787900E+02  3.239342989E-02
  7.961581000E+01  9.770792967E-02
  3.023728300E+01  2.317036792E-01
  1.226362200E+01  3.768898887E-01
  5.265086000E+00  3.177420689E-01
  2.333471000E+00  8.211308973E-02
  9.018560000E-01  3.312089989E-03
  3.583360000E-01  3.720819988E-03
  1.410930000E-01  3.165419989E-03
  4.938300000E-02  4.595799985E-04
   s  14
  7.476171500E+04 -2.707000010E-05
  1.112365400E+04 -1.183700004E-04
  2.512685700E+03 -5.203800020E-04
  7.037772900E+02 -2.102930008E-03
  2.254787900E+02 -7.568200028E-03
  7.961581000E+01 -2.346767009E-02
  3.023728300E+01 -6.042901023E-02
  1.226362200E+01 -1.170549104E-01
  5.265086000E+00 -1.555321506E-01
  2.333471000E+00 -2.468935009E-02
  9.018560000E-01  3.625054514E-01
  3.583360000E-01  5.550845021E-01
  1.410930000E-01  2.148376908E-01
  4.938300000E-02  8.983850034E-03
   p   9
  1.266665700E+02  1.233630000E-03
  2.983738900E+01  9.493409996E-03
  9.394038000E+00  4.293961998E-02
  3.405104000E+00  1.362925399E-01
  1.350000000E+00  2.921362499E-01
  5.576960000E-01  3.887887598E-01
  2.324490000E-01  2.946801399E-01
  9.426400000E-02  8.012875997E-02
  3.299200000E-02  5.405199998E-04
 
[MO]
Sym=     1a  
Ene=   -15.5980
Spin= Alpha
Occup=    1.00000
   1         0.70708357
   2        -0.00426252
   3        -0.00000000
   4        -0.00000000
   5         0.00010110
   6         0.70708252
   7        -0.00426251
   8         0.00000000
   9        -0.00000000
  10        -0.00010110
Sym=     1a  
Ene=   -15.5980
Spin= Beta
Occup=    1.00000
   1         0.70708357
   2        -0.00426252
   3        -0.00000000
   4        -0.00000000
   5         0.00010110
   6         0.70708252
   7        -0.00426251
   8         0.00000000
   9        -0.00000000
  10        -0.00010110
Sym=     2a  
Ene=   -15.5980
Spin= Alpha
Occup=    1.00000
   1        -0.70710663
   2         0.00402238
   3        -0.00000000
   4        -0.00000000
   5        -0.00030472
   6         0.70710768
   7        -0.00402239
   8         0.00000000
   9        -0.00000000
  10        -0.00030472
Sym=     2a  
Ene=   -15.5980
Spin= Beta
Occup=    1.00000
   1        -0.70710663
   2         0.00402238
   3        -0.00000000
   4        -0.00000000
   5        -0.00030472
   6         0.70710768
   7        -0.00402239
   8         0.00000000
   9        -0.00000000
  10        -0.00030472
Sym=     3a  
Ene=    -0.9562
Spin= Alpha
Occup=    1.00000
   1         0.00325557
   2         0.69467705
   3         0.00000000
   4        -0.00000000
   5         0.02037695
   6         0.00325557
   7         0.69467705
   8        -0.00000000
   9        -0.00000000
  10        -0.02037695
Sym=     3a  
Ene=    -0.9562
Spin= Beta
Occup=    1.00000
   1         0.00325557
   2         0.69467705
   3         0.00000000
   4        -0.00000000
   5         0.02037695
   6         0.00325557
   7         0.69467705
   8        -0.00000000
   9        -0.00000000
  10        -0.02037695
Sym=     4a  
Ene=    -0.9165
Spin= Alpha
Occup=    1.00000
   1        -0.00488234
   2        -0.71598532
   3         0.00000000
   4        -0.00000000
   5         0.03238888
   6         0.00488234
   7         0.71598532
   8         0.00000000
   9        -0.00000000
  10         0.03238888
Sym=     4a  
Ene=    -0.9165
Spin= Beta
Occup=    1.00000
   1        -0.00488234
   2        -0.71598532
   3         0.00000000
   4        -0.00000000
   5         0.03238888
   6         0.00488234
   7         0.71598532
   8         0.00000000
   9        -0.00000000
  10         0.03238888
Sym=     5a  
Ene=    -0.3029
Spin= Alpha
Occup=    1.00000
   1         0.00268340
   2         0.05879910
   3        -0.00000000
   4         0.00000000
   5        -0.68151750
   6         0.00268340
   7         0.05879910
   8         0.00000000
   9        -0.00000000
  10         0.68151750
Sym=     5a  
Ene=    -0.3029
Spin= Beta
Occup=    1.00000
   1         0.00268340
   2         0.05879910
   3        -0.00000000
   4         0.00000000
   5        -0.68151750
   6         0.00268340
   7         0.05879910
   8         0.00000000
   9        -0.00000000
  10         0.68151750
Sym=     6a  
Ene=    -0.2674
Spin= Alpha
Occup=    1.00000
   1        -0.00000000
   2        -0.00000000
   3        -0.00627542
   4         0.70015201
   5        -0.00000000
   6         0.00000000
   7         0.00000000
   8        -0.00627542
   9         0.70015201
  10        -0.00000000
Sym=     6a  
Ene=    -0.2674
Spin= Beta
Occup=    1.00000
   1        -0.00000000
   2        -0.00000000
   3        -0.00627542
   4         0.70015201
   5        -0.00000000
   6         0.00000000
   7         0.00000000
   8        -0.00627542
   9         0.70015201
  10        -0.00000000
Sym=     7a  
Ene=    -0.2674
Spin= Alpha
Occup=    1.00000
   1         0.00000000
   2         0.00000000
   3         0.70015201
   4         0.00627542
   5         0.00000000
   6        -0.00000000
   7        -0.00000000
   8         0.70015201
   9         0.00627542
  10         0.00000000
Sym=     7a  
Ene=    -0.2674
Spin= Beta
Occup=    1.00000
   1         0.00000000
   2         0.00000000
   3         0.70015201
   4         0.00627542
   5         0.00000000
   6        -0.00000000
   7        -0.00000000
   8         0.70015201
   9         0.00627542
  10         0.00000000
Sym=     8a  
Ene=    -0.0585
Spin= Alpha
Occup=    0.00000
   1         0.00000000
   2         0.00000000
   3         0.40663152
   4        -0.58719169
   5        -0.00000000
   6         0.00000000
   7         0.00000000
   8        -0.40663152
   9         0.58719169
  10         0.00000000
Sym=     8a  
Ene=    -0.0585
Spin= Beta
Occup=    0.00000
   1         0.00000000
   2         0.00000000
   3         0.40663152
   4        -0.58719169
   5        -0.00000000
   6         0.00000000
   7         0.00000000
   8        -0.40663152
   9         0.58719169
  10         0.00000000
Sym=     9a  
Ene=    -0.0585
Spin= Alpha
Occup=    0.00000
   1        -0.00000000
   2        -0.00000000
   3        -0.58719169
   4        -0.40663152
   5         0.00000000
   6        -0.00000000
   7        -0.00000000
   8         0.58719169
   9         0.40663152
  10        -0.00000000
Sym=     9a  
Ene=    -0.0585
Spin= Beta
Occup=    0.00000
   1        -0.00000000
   2        -0.00000000
   3        -0.58719169
   4        -0.40663152
   5         0.00000000
   6        -0.00000000
   7        -0.00000000
   8         0.58719169
   9         0.40663152
  10        -0.00000000
Sym=    10a  
Ene=    -0.0087
Spin= Alpha
Occup=    0.00000
   1         0.00273077
   2         0.07535066
   3        -0.00000000
   4         0.00000000
   5         0.73738033
   6        -0.00273077
   7        -0.07535066
   8        -0.00000000
   9         0.00000000
  10         0.73738033
Sym=    10a  
Ene=    -0.0087
Spin= Beta
Occup=    0.00000
   1         0.00273077
   2         0.07535066
   3        -0.00000000
   4         0.00000000
   5         0.73738033
   6        -0.00273077
   7        -0.07535066
   8        -0.00000000
   9         0.00000000
  10         0.73738033
