[Molden Format]
[N_Atoms]
                     2
[Atoms] (AU)
N1          1      7           0.00000000      0.00000000      0.00000000
N2          2      7           0.00000000      0.00000000      5.10226054
[Charge] (Mulliken)
  0.999984305298567     
   1.00001569470140     
[GTO] (AU)
   1
   s  14
  7.476171500E+04  1.182599996E-04
  1.112365400E+04  5.172899983E-04
  2.512685700E+03  2.266659992E-03
  7.037772900E+02  9.145289970E-03
  2.254787900E+02  3.239342989E-02
  7.961581000E+01  9.770792967E-02
  3.023728300E+01  2.317036792E-01
  1.226362200E+01  3.768898887E-01
  5.265086000E+00  3.177420689E-01
  2.333471000E+00  8.211308973E-02
  9.018560000E-01  3.312089989E-03
  3.583360000E-01  3.720819988E-03
  1.410930000E-01  3.165419989E-03
  4.938300000E-02  4.595799985E-04
   s  14
  7.476171500E+04 -2.707000010E-05
  1.112365400E+04 -1.183700004E-04
  2.512685700E+03 -5.203800020E-04
  7.037772900E+02 -2.102930008E-03
  2.254787900E+02 -7.568200028E-03
  7.961581000E+01 -2.346767009E-02
  3.023728300E+01 -6.042901023E-02
  1.226362200E+01 -1.170549104E-01
  5.265086000E+00 -1.555321506E-01
  2.333471000E+00 -2.468935009E-02
  9.018560000E-01  3.625054514E-01
  3.583360000E-01  5.550845021E-01
  1.410930000E-01  2.148376908E-01
  4.938300000E-02  8.983850034E-03
   p   9
  1.266665700E+02  1.233630000E-03
  2.983738900E+01  9.493409996E-03
  9.394038000E+00  4.293961998E-02
  3.405104000E+00  1.362925399E-01
  1.350000000E+00  2.921362499E-01
  5.576960000E-01  3.887887598E-01
  2.324490000E-01  2.946801399E-01
  9.426400000E-02  8.012875997E-02
  3.299200000E-02  5.405199998E-04
 
   2
   s  14
  7.476171500E+04  1.182599996E-04
  1.112365400E+04  5.172899983E-04
  2.512685700E+03  2.266659992E-03
  7.037772900E+02  9.145289970E-03
  2.254787900E+02  3.239342989E-02
  7.961581000E+01  9.770792967E-02
  3.023728300E+01  2.317036792E-01
  1.226362200E+01  3.768898887E-01
  5.265086000E+00  3.177420689E-01
  2.333471000E+00  8.211308973E-02
  9.018560000E-01  3.312089989E-03
  3.583360000E-01  3.720819988E-03
  1.410930000E-01  3.165419989E-03
  4.938300000E-02  4.595799985E-04
   s  14
  7.476171500E+04 -2.707000010E-05
  1.112365400E+04 -1.183700004E-04
  2.512685700E+03 -5.203800020E-04
  7.037772900E+02 -2.102930008E-03
  2.254787900E+02 -7.568200028E-03
  7.961581000E+01 -2.346767009E-02
  3.023728300E+01 -6.042901023E-02
  1.226362200E+01 -1.170549104E-01
  5.265086000E+00 -1.555321506E-01
  2.333471000E+00 -2.468935009E-02
  9.018560000E-01  3.625054514E-01
  3.583360000E-01  5.550845021E-01
  1.410930000E-01  2.148376908E-01
  4.938300000E-02  8.983850034E-03
   p   9
  1.266665700E+02  1.233630000E-03
  2.983738900E+01  9.493409996E-03
  9.394038000E+00  4.293961998E-02
  3.405104000E+00  1.362925399E-01
  1.350000000E+00  2.921362499E-01
  5.576960000E-01  3.887887598E-01
  2.324490000E-01  2.946801399E-01
  9.426400000E-02  8.012875997E-02
  3.299200000E-02  5.405199998E-04
 
[MO]
Sym=     1a  
Ene=   -16.7090
Spin= Alpha
Occup=    2.00000
   1        -0.00136304
   2        -0.00013287
   3         0.00000000
   4        -0.00000000
   5        -0.00016358
   6         0.99997073
   7        -0.00762242
   8         0.00000000
   9        -0.00000000
  10         0.00008583
Sym=     2a  
Ene=   -16.7050
Spin= Alpha
Occup=    2.00000
   1        -0.99979182
   2         0.02036306
   3        -0.00000000
   4         0.00000000
   5         0.00055388
   6        -0.00135213
   7        -0.00013990
   8        -0.00000000
   9         0.00000000
  10        -0.00015081
Sym=     3a  
Ene=    -1.7257
Spin= Alpha
Occup=    2.00000
   1         0.00121199
   2         0.01080142
   3        -0.00000000
   4         0.00000000
   5         0.00082248
   6        -0.00765087
   7        -0.99944714
   8        -0.00000000
   9         0.00000000
  10         0.04207558
Sym=     4a  
Ene=    -1.2464
Spin= Alpha
Occup=    2.00000
   1         0.00000000
   2         0.00000000
   3        -0.00199756
   4         0.00617884
   5        -0.00000000
   6         0.00000000
   7         0.00000000
   8        -0.30975020
   9         0.95066001
  10         0.00000002
Sym=     5a  
Ene=    -1.2450
Spin= Alpha
Occup=    2.00000
   1         0.00000000
   2         0.00000000
   3         0.95065538
   4         0.30975354
   5         0.00000000
   6        -0.00000000
   7        -0.00000000
   8         0.00630003
   9         0.00203692
  10        -0.00000000
Sym=     6a  
Ene=    -0.7191
Spin= Alpha
Occup=    0.03654
   1         0.00003657
   2         0.03457781
   3         0.00000000
   4        -0.00000000
   5        -1.00258129
   6         0.00352867
   7         0.05838342
   8         0.00000000
   9        -0.00000000
  10        -0.02432849
Sym=     7a  
Ene=    -0.1916
Spin= Alpha
Occup=    1.96346
   1        -0.02041226
   2        -0.99969979
   3         0.00000000
   4        -0.00000000
   5        -0.03796180
   6         0.00132797
   7         0.02561251
   8         0.00000000
   9        -0.00000000
  10        -0.00142772
Sym=     8a  
Ene=    -0.7085
Spin= Alpha
Occup=    0.00000
   1         0.00351919
   2         0.05704339
   3         0.00000000
   4        -0.00000001
   5         0.05521649
   6        -0.00005617
   7         0.03692220
   8         0.00000001
   9        -0.00000002
  10         1.00364133
Sym=     9a  
Ene=    -0.7016
Spin= Alpha
Occup=    0.00000
   1         0.00000000
   2         0.00000000
   3         0.02519488
   4         0.00823484
   5         0.00000000
   6        -0.00000000
   7         0.00000000
   8        -0.95096975
   9        -0.30985190
  10         0.00000000
Sym=    10a  
Ene=    -0.7003
Spin= Alpha
Occup=    0.00000
   1        -0.00000000
   2        -0.00000000
   3         0.30985654
   4        -0.95096911
   5         0.00000000
   6        -0.00000000
   7        -0.00000000
   8        -0.00819535
   9         0.02507378
  10        -0.00000001
