[Molden Format]
[N_Atoms]
                     2
[Atoms] (AU)
B1          1      5           0.00000000      0.00000000      0.00000000
C2          2      6           0.00000000      0.00000000      1.51178090
[Charge] (Mulliken)
  0.615075152725161     
 -0.615075152725172     
[GTO] (AU)
   1
   s  14
  3.336021700E+04  1.039699991E-04
  4.972095200E+03  5.254399956E-04
  1.125641700E+03  2.509059979E-03
  3.164913600E+02  1.031887991E-02
  1.020072600E+02  3.636632969E-02
  3.629587300E+01  1.064607991E-01
  1.397141000E+01  2.403999880E-01
  5.741156000E+00  3.748581168E-01
  2.494268000E+00  3.100066974E-01
  1.114202000E+00  7.922455933E-02
  4.215490000E-01 -4.947589958E-03
  1.696330000E-01 -7.737119935E-03
  6.853500000E-02 -1.501079987E-03
  2.398700000E-02 -1.333299989E-04
   s  14
  3.336021700E+04 -2.030000008E-05
  4.972095200E+03 -1.025700004E-04
  1.125641700E+03 -4.911300020E-04
  3.164913600E+02 -2.026570008E-03
  1.020072600E+02 -7.261010030E-03
  3.629587300E+01 -2.197722009E-02
  1.397141000E+01 -5.408428022E-02
  5.741156000E+00 -1.022402604E-01
  2.494268000E+00 -1.423595206E-01
  1.114202000E+00 -4.658690019E-02
  4.215490000E-01  3.799402916E-01
  1.696330000E-01  5.890463624E-01
  6.853500000E-02  1.749075107E-01
  2.398700000E-02 -1.142030005E-03
   p   9
  5.500000000E+01  1.229800005E-03
  1.336610100E+01  8.827380035E-03
  4.135394000E+00  3.843340015E-02
  1.481256000E+00  1.150031805E-01
  6.021360000E-01  2.733674011E-01
  2.556360000E-01  4.061972116E-01
  1.111510000E-01  3.014967912E-01
  4.764800000E-02  7.684809030E-02
  1.667700000E-02 -8.170000032E-06
 
   2
   s  14
  5.055750100E+04  1.128874000E-04
  7.524785600E+03  5.295373000E-04
  1.694327600E+03  2.450038300E-03
  4.728227900E+02  1.005398470E-02
  1.517107500E+02  3.545398060E-02
  5.391874600E+01  1.044071086E-01
  2.065931100E+01  2.412894918E-01
  8.383976000E+00  3.834225483E-01
  3.577015000E+00  3.078514393E-01
  1.547118000E+00  6.872442990E-02
  6.130130000E-01  2.224445000E-04
  2.460680000E-01  1.976748900E-03
  9.908700000E-02  2.057859400E-03
  3.468000000E-02  4.182020000E-04
   s  14
  5.055750100E+04 -2.507420000E-05
  7.524785600E+03 -1.175945000E-04
  1.694327600E+03 -5.456275000E-04
  4.728227900E+02 -2.245077100E-03
  1.517107500E+02 -8.043471800E-03
  5.391874600E+01 -2.442588710E-02
  2.065931100E+01 -6.136791180E-02
  8.383976000E+00 -1.177767835E-01
  3.577015000E+00 -1.550487783E-01
  1.547118000E+00 -1.933316860E-02
  6.130130000E-01  3.996930678E-01
  2.460680000E-01  5.589420949E-01
  9.908700000E-02  1.711195023E-01
  3.468000000E-02  7.456244600E-03
   p   9
  8.333315500E+01  1.344656000E-03
  1.955761100E+01  1.023555500E-02
  6.080365000E+00  4.520067100E-02
  2.179317000E+00  1.410756198E-01
  8.651500000E-01  3.047388085E-01
  3.619440000E-01  3.995281011E-01
  1.547400000E-01  2.719163432E-01
  6.542900000E-02  5.857669330E-02
  2.290000000E-02 -1.263813000E-04
 
[MO]
Sym=     1a  
Ene=   -11.5390
Spin= Alpha
Occup=    1.00000
   1         0.00430502
   2        -0.01623863
   3        -0.00000000
   4        -0.00000000
   5        -0.00387715
   6         1.00304364
   7         0.01602303
   8        -0.00000000
   9        -0.00000000
  10        -0.01266645
Sym=     1a  
Ene=   -11.5050
Spin= Beta
Occup=    1.00000
   1         0.00510169
   2        -0.01383713
   3        -0.00000000
   4        -0.00000000
   5        -0.00269701
   6         1.00242864
   7         0.01124768
   8        -0.00000000
   9        -0.00000000
  10        -0.01253936
Sym=     2a  
Ene=    -8.0435
Spin= Alpha
Occup=    1.00000
   1         0.99319715
   2         0.00182566
   3        -0.00000000
   4        -0.00000000
   5         0.00321347
   6        -0.02623861
   7         0.01338077
   8         0.00000000
   9         0.00000000
  10        -0.01480502
Sym=     2a  
Ene=    -8.0277
Spin= Beta
Occup=    1.00000
   1         0.99311435
   2         0.00236218
   3        -0.00000000
   4        -0.00000000
   5         0.00280535
   6        -0.02607416
   7         0.01408498
   8         0.00000000
   9         0.00000000
  10        -0.01459297
Sym=     3a  
Ene=    -1.0218
Spin= Alpha
Occup=    1.00000
   1        -0.24231500
   2         0.16706933
   3         0.00000000
   4        -0.00000000
   5         0.21847049
   6        -0.07073034
   7         0.72262956
   8        -0.00000000
   9        -0.00000000
  10        -0.32222313
Sym=     3a  
Ene=    -0.9618
Spin= Beta
Occup=    1.00000
   1        -0.24794140
   2         0.22629454
   3        -0.00000000
   4        -0.00000000
   5         0.24789993
   6        -0.08431996
   7         0.62312887
   8         0.00000000
   9        -0.00000000
  10        -0.40244414
Sym=     4a  
Ene=    -0.5906
Spin= Alpha
Occup=    1.00000
   1        -0.00000000
   2         0.00000000
   3        -0.08491924
   4         0.47424794
   5        -0.00000000
   6        -0.00000000
   7        -0.00000000
   8        -0.10884281
   9         0.60785371
  10        -0.00000000
Sym=     4a  
Ene=    -0.5588
Spin= Beta
Occup=    1.00000
   1        -0.00000000
   2         0.00000000
   3        -0.06934042
   4         0.55910291
   5        -0.00000000
   6        -0.00000000
   7        -0.00000000
   8        -0.06617167
   9         0.53355276
  10        -0.00000000
Sym=     5a  
Ene=    -0.5906
Spin= Alpha
Occup=    1.00000
   1        -0.00000000
   2        -0.00000000
   3         0.47424794
   4         0.08491924
   5         0.00000000
   6         0.00000000
   7         0.00000000
   8         0.60785371
   9         0.10884281
  10         0.00000000
Sym=     5a  
Ene=    -0.5588
Spin= Beta
Occup=    1.00000
   1        -0.00000000
   2        -0.00000000
   3         0.55910291
   4         0.06934042
   5         0.00000000
   6         0.00000000
   7         0.00000000
   8         0.53355276
   9         0.06617167
  10         0.00000000
Sym=     6a  
Ene=    -0.5429
Spin= Alpha
Occup=    1.00000
   1         0.18879369
   2        -0.09862485
   3        -0.00000000
   4         0.00000000
   5        -0.17277030
   6         0.05376070
   7         0.47798497
   8        -0.00000000
   9         0.00000000
  10         0.95489368
Sym=     6a  
Ene=    -0.0996
Spin= Beta
Occup=    0.00000
   1        -0.07817138
   2        -0.73936541
   3        -0.00000000
   4         0.00000000
   5         0.76416033
   6        -0.05728785
   7         0.20551976
   8        -0.00000000
   9         0.00000000
  10        -0.15466923
Sym=     7a  
Ene=    -0.0932
Spin= Alpha
Occup=    0.00000
   1         0.11922727
   2         0.76037751
   3         0.00000000
   4        -0.00000000
   5        -0.80296195
   6         0.06359999
   7        -0.09676598
   8         0.00000000
   9        -0.00000000
  10         0.36588484
Sym=     7a  
Ene=     0.1718
Spin= Beta
Occup=    0.00000
   1         0.20022874
   2         0.13903287
   3        -0.00000000
   4         0.00000000
   5        -0.29218733
   6         0.04664285
   7         0.45966526
   8        -0.00000000
   9         0.00000000
  10         0.99318052
Sym=     8a  
Ene=     0.4120
Spin= Alpha
Occup=    0.00000
   1         0.00000000
   2         0.00000000
   3         0.09305547
   4        -1.22038474
   5         0.00000000
   6        -0.00000000
   7        -0.00000000
   8        -0.08829946
   9         1.15801164
  10        -0.00000000
Sym=     8a  
Ene=     0.4655
Spin= Beta
Occup=    0.00000
   1         0.00000000
   2         0.00000000
   3         0.08407996
   4        -1.18559986
   5         0.00000000
   6        -0.00000000
   7        -0.00000000
   8        -0.08491932
   9         1.19743564
  10         0.00000000
Sym=     9a  
Ene=     0.4120
Spin= Alpha
Occup=    0.00000
   1         0.00000000
   2         0.00000000
   3        -1.22038474
   4        -0.09305547
   5         0.00000000
   6        -0.00000000
   7        -0.00000000
   8         1.15801164
   9         0.08829946
  10         0.00000000
Sym=     9a  
Ene=     0.4655
Spin= Beta
Occup=    0.00000
   1         0.00000000
   2         0.00000000
   3        -1.18559986
   4        -0.08407996
   5         0.00000000
   6        -0.00000000
   7        -0.00000000
   8         1.19743564
   9         0.08491932
  10        -0.00000000
Sym=    10a  
Ene=     1.4222
Spin= Alpha
Occup=    0.00000
   1        -1.21188682
   2        -3.90645813
   3        -0.00000000
   4        -0.00000000
   5        -2.32739533
   6         1.08213175
   7         4.28909688
   8         0.00000000
   9         0.00000000
  10        -1.44321590
Sym=    10a  
Ene=     1.4382
Spin= Beta
Occup=    0.00000
   1        -1.21232180
   2        -3.90628948
   3        -0.00000000
   4        -0.00000000
   5        -2.32558321
   6         1.08241477
   7         4.30286760
   8        -0.00000000
   9         0.00000000
  10        -1.43530888
