[Molden Format]
[N_Atoms]
                     2
[Atoms] (AU)
LI1         1      3           0.00000000      0.00000000      0.00000000
O2          2      8           0.00000000      0.00000000      2.45664396
[Charge] (Mulliken)
  0.655418360540531     
 -0.655418360540549     
[GTO] (AU)
   1
   s  14
  9.497934400E+03  9.668999974E-05
  1.416811200E+03  6.087099984E-04
  3.214599400E+02  3.101519992E-03
  9.112416300E+01  1.266904997E-02
  2.999989100E+01  4.248012989E-02
  1.101763100E+01  1.150183297E-01
  4.372801000E+00  2.398650094E-01
  1.831256000E+00  3.584300090E-01
  8.022610000E-01  3.048527792E-01
  3.626480000E-01  8.824261976E-02
  1.139950000E-01 -8.445899977E-04
  5.123700000E-02 -7.943959979E-03
  2.246800000E-02 -3.764419990E-03
  7.860000000E-03 -8.868999976E-05
   s  14
  9.497934400E+03 -1.244999993E-05
  1.416811200E+03 -7.838999954E-05
  3.214599400E+02 -4.007099976E-04
  9.112416300E+01 -1.645249990E-03
  2.999989100E+01 -5.634599967E-03
  1.101763100E+01 -1.590780991E-02
  4.372801000E+00 -3.612581979E-02
  1.831256000E+00 -6.459927962E-02
  8.022610000E-01 -1.008321794E-01
  3.626480000E-01 -9.757613942E-02
  1.139950000E-01  2.301215886E-01
  5.123700000E-02  6.102389764E-01
  2.246800000E-02  2.849406083E-01
  7.860000000E-03  4.026899976E-03
   p   9
  1.311950400E+01  1.524940000E-03
  3.077424200E+00  8.314830000E-03
  1.098800500E+00  1.933203000E-02
  4.357784000E-01  4.934293000E-02
  1.802432000E-01  1.623554000E-01
  7.613330000E-02  3.847505400E-01
  3.254650000E-02  4.336100400E-01
  1.401820000E-02  1.287005900E-01
  4.906400000E-03 -1.018520000E-03
 
   2
   s  14
  1.053749500E+05  1.238600013E-04
  1.567924000E+04  5.120100053E-04
  3.534544700E+03  2.152910022E-03
  9.873651600E+02  8.528440089E-03
  3.159787500E+02  3.018049031E-02
  1.116542800E+02  9.099702095E-02
  4.269945100E+01  2.177936423E-01
  1.739559600E+01  3.686245738E-01
  7.438309000E+00  3.366707335E-01
  3.222862000E+00  9.657630101E-02
  1.253877000E+00  2.144520022E-03
  4.951550000E-01  1.194350012E-03
  1.916650000E-01  5.390200056E-04
  6.708300000E-02  2.103400022E-04
   s  14
  1.053749500E+05 -2.815000008E-05
  1.567924000E+04 -1.163000003E-04
  3.534544700E+03 -4.909200013E-04
  9.873651600E+02 -1.946160005E-03
  3.159787500E+02 -7.005300019E-03
  1.116542800E+02 -2.167814006E-02
  4.269945100E+01 -5.641213015E-02
  1.739559600E+01 -1.127053003E-01
  7.438309000E+00 -1.589119704E-01
  3.222862000E+00 -3.355083009E-02
  1.253877000E+00  3.531902810E-01
  4.951550000E-01  5.534199315E-01
  1.916650000E-01  2.301839106E-01
  6.708300000E-02  1.127267003E-02
   p   9
  2.000000000E+02  9.173000030E-04
  4.653336700E+01  7.377140024E-03
  1.462180900E+01  3.483515011E-02
  5.313064000E+00  1.144397004E-01
  2.102525000E+00  2.554966408E-01
  8.502230000E-01  3.722557412E-01
  3.375970000E-01  3.323314911E-01
  1.288920000E-01  1.400847905E-01
  4.511200000E-02  2.395784008E-02
 
[MO]
Sym=     1a  
Ene=   -20.3830
Spin= Alpha
Occup=    1.00000
   1        -0.00044338
   2        -0.00081531
   3        -0.00000000
   4        -0.00000000
   5        -0.00073869
   6         1.00007322
   7         0.00245375
   8        -0.00000000
   9        -0.00000000
  10        -0.00021881
Sym=     1a  
Ene=   -20.3400
Spin= Beta
Occup=    1.00000
   1        -0.00024476
   2        -0.00036353
   3        -0.00000000
   4         0.00000000
   5        -0.00028707
   6         1.00003123
   7        -0.00006203
   8        -0.00000000
   9        -0.00000000
  10        -0.00028952
Sym=     2a  
Ene=    -2.4967
Spin= Alpha
Occup=    1.00000
   1         0.98739788
   2         0.00753473
   3         0.00000000
   4         0.00000000
   5        -0.00175641
   6        -0.00382117
   7         0.04424053
   8        -0.00000000
   9        -0.00000000
  10        -0.02964863
Sym=     2a  
Ene=    -2.4779
Spin= Beta
Occup=    1.00000
   1         0.99102905
   2         0.01027226
   3         0.00000000
   4         0.00000000
   5        -0.00179116
   6        -0.00377550
   7         0.03698459
   8         0.00000000
   9        -0.00000000
  10        -0.01840382
Sym=     3a  
Ene=    -1.1991
Spin= Alpha
Occup=    1.00000
   1        -0.17183195
   2        -0.00010888
   3         0.00000000
   4         0.00000000
   5         0.02693254
   6        -0.00269392
   7         0.99351322
   8         0.00000000
   9         0.00000000
  10        -0.06069264
Sym=     3a  
Ene=    -1.0252
Spin= Beta
Occup=    1.00000
   1        -0.17107774
   2         0.02854332
   3         0.00000000
   4         0.00000000
   5         0.05557734
   6        -0.00330520
   7         0.96823799
   8         0.00000000
   9         0.00000000
  10        -0.09947209
Sym=     4a  
Ene=    -0.5270
Spin= Alpha
Occup=    1.00000
   1         0.23217755
   2         0.04198177
   3        -0.00000000
   4        -0.00000000
   5        -0.05775704
   6         0.00074864
   7         0.04617517
   8        -0.00000000
   9         0.00000000
  10         1.02441206
Sym=     4a  
Ene=    -0.3684
Spin= Beta
Occup=    1.00000
   1        -0.00000000
   2        -0.00000000
   3        -0.01292033
   4         0.21184234
   5        -0.00000000
   6         0.00000000
   7         0.00000000
   8        -0.05596633
   9         0.91762649
  10        -0.00000000
Sym=     5a  
Ene=    -0.4364
Spin= Alpha
Occup=    1.00000
   1        -0.00000000
   2        -0.00000000
   3        -0.08499267
   4         0.09630585
   5         0.00000000
   6        -0.00000000
   7         0.00000000
   8        -0.63273860
   9         0.71696102
  10        -0.00000000
Sym=     5a  
Ene=    -0.3684
Spin= Beta
Occup=    1.00000
   1        -0.00000000
   2         0.00000000
   3         0.21184234
   4         0.01292033
   5        -0.00000000
   6         0.00000000
   7        -0.00000000
   8         0.91762649
   9         0.05596633
  10        -0.00000000
Sym=     6a  
Ene=    -0.4364
Spin= Alpha
Occup=    1.00000
   1         0.00000000
   2         0.00000000
   3         0.09630585
   4         0.08499267
   5        -0.00000000
   6         0.00000000
   7        -0.00000000
   8         0.71696102
   9         0.63273860
  10         0.00000000
Sym=     6a  
Ene=     0.0136
Spin= Beta
Occup=    0.00000
   1         0.00155029
   2        -0.83927337
   3        -0.00000000
   4         0.00000000
   5         0.54931152
   6         0.00272998
   7         0.06931608
   8         0.00000000
   9        -0.00000000
  10        -0.00841111
Sym=     7a  
Ene=     0.0158
Spin= Alpha
Occup=    0.00000
   1        -0.00534488
   2        -0.84192353
   3        -0.00000000
   4         0.00000000
   5         0.55005428
   6         0.00271814
   7         0.05817892
   8         0.00000000
   9        -0.00000000
  10        -0.04067761
Sym=     7a  
Ene=     0.1297
Spin= Beta
Occup=    0.00000
   1        -0.00000000
   2         0.00000000
   3        -1.01564793
   4         0.09678471
   5        -0.00000000
   6        -0.00000000
   7        -0.00000000
   8         0.48848203
   9        -0.04654919
  10        -0.00000000
Sym=     8a  
Ene=     0.1202
Spin= Alpha
Occup=    0.00000
   1         0.00000000
   2         0.00000000
   3        -1.03205264
   4         0.06573352
   5        -0.00000000
   6        -0.00000000
   7        -0.00000000
   8         0.41336150
   9        -0.02632783
  10         0.00000000
Sym=     8a  
Ene=     0.1297
Spin= Beta
Occup=    0.00000
   1         0.00000000
   2        -0.00000000
   3        -0.09678471
   4        -1.01564793
   5         0.00000000
   6        -0.00000000
   7        -0.00000000
   8         0.04654919
   9         0.48848203
  10         0.00000000
Sym=     9a  
Ene=     0.1202
Spin= Alpha
Occup=    0.00000
   1         0.00000000
   2         0.00000000
   3         0.06573352
   4         1.03205264
   5        -0.00000000
   6         0.00000000
   7         0.00000000
   8        -0.02632783
   9        -0.41336150
  10         0.00000000
Sym=     9a  
Ene=     0.2243
Spin= Beta
Occup=    0.00000
   1         0.11178826
   2         0.69843405
   3         0.00000000
   4         0.00000000
   5         0.95931858
   6        -0.08137879
   7        -0.69515079
   8        -0.00000000
   9        -0.00000000
  10         0.15643803
Sym=    10a  
Ene=     0.2145
Spin= Alpha
Occup=    0.00000
   1         0.08464569
   2         0.69463242
   3         0.00000000
   4         0.00000000
   5         0.97533858
   6        -0.08148313
   7        -0.67673986
   8        -0.00000000
   9        -0.00000000
  10         0.04100505
Sym=    10a  
Ene=     0.3063
Spin= Beta
Occup=    0.00000
   1         0.20414605
   2        -0.00768562
   3        -0.00000000
   4         0.00000000
   5        -0.18105937
   6         0.00990702
   7         0.16010479
   8         0.00000000
   9        -0.00000000
  10         1.01120806
