[Molden Format]
[N_Atoms]
                     2
[Atoms] (AU)
N1          1      7           0.00000000      0.00000000      0.00000000
N2          2      7           0.00000000      0.00000000      3.59047964
[Charge] (Mulliken)
  2.838774548763467E-009
 -2.838790535975022E-009
[GTO] (AU)
   1
   s  14
  7.476171500E+04  1.182599996E-04
  1.112365400E+04  5.172899983E-04
  2.512685700E+03  2.266659992E-03
  7.037772900E+02  9.145289970E-03
  2.254787900E+02  3.239342989E-02
  7.961581000E+01  9.770792967E-02
  3.023728300E+01  2.317036792E-01
  1.226362200E+01  3.768898887E-01
  5.265086000E+00  3.177420689E-01
  2.333471000E+00  8.211308973E-02
  9.018560000E-01  3.312089989E-03
  3.583360000E-01  3.720819988E-03
  1.410930000E-01  3.165419989E-03
  4.938300000E-02  4.595799985E-04
   s  14
  7.476171500E+04 -2.707000010E-05
  1.112365400E+04 -1.183700004E-04
  2.512685700E+03 -5.203800020E-04
  7.037772900E+02 -2.102930008E-03
  2.254787900E+02 -7.568200028E-03
  7.961581000E+01 -2.346767009E-02
  3.023728300E+01 -6.042901023E-02
  1.226362200E+01 -1.170549104E-01
  5.265086000E+00 -1.555321506E-01
  2.333471000E+00 -2.468935009E-02
  9.018560000E-01  3.625054514E-01
  3.583360000E-01  5.550845021E-01
  1.410930000E-01  2.148376908E-01
  4.938300000E-02  8.983850034E-03
   p   9
  1.266665700E+02  1.233630000E-03
  2.983738900E+01  9.493409996E-03
  9.394038000E+00  4.293961998E-02
  3.405104000E+00  1.362925399E-01
  1.350000000E+00  2.921362499E-01
  5.576960000E-01  3.887887598E-01
  2.324490000E-01  2.946801399E-01
  9.426400000E-02  8.012875997E-02
  3.299200000E-02  5.405199998E-04
 
   2
   s  14
  7.476171500E+04  1.182599996E-04
  1.112365400E+04  5.172899983E-04
  2.512685700E+03  2.266659992E-03
  7.037772900E+02  9.145289970E-03
  2.254787900E+02  3.239342989E-02
  7.961581000E+01  9.770792967E-02
  3.023728300E+01  2.317036792E-01
  1.226362200E+01  3.768898887E-01
  5.265086000E+00  3.177420689E-01
  2.333471000E+00  8.211308973E-02
  9.018560000E-01  3.312089989E-03
  3.583360000E-01  3.720819988E-03
  1.410930000E-01  3.165419989E-03
  4.938300000E-02  4.595799985E-04
   s  14
  7.476171500E+04 -2.707000010E-05
  1.112365400E+04 -1.183700004E-04
  2.512685700E+03 -5.203800020E-04
  7.037772900E+02 -2.102930008E-03
  2.254787900E+02 -7.568200028E-03
  7.961581000E+01 -2.346767009E-02
  3.023728300E+01 -6.042901023E-02
  1.226362200E+01 -1.170549104E-01
  5.265086000E+00 -1.555321506E-01
  2.333471000E+00 -2.468935009E-02
  9.018560000E-01  3.625054514E-01
  3.583360000E-01  5.550845021E-01
  1.410930000E-01  2.148376908E-01
  4.938300000E-02  8.983850034E-03
   p   9
  1.266665700E+02  1.233630000E-03
  2.983738900E+01  9.493409996E-03
  9.394038000E+00  4.293961998E-02
  3.405104000E+00  1.362925399E-01
  1.350000000E+00  2.921362499E-01
  5.576960000E-01  3.887887598E-01
  2.324490000E-01  2.946801399E-01
  9.426400000E-02  8.012875997E-02
  3.299200000E-02  5.405199998E-04
 
[MO]
Sym=     1a  
Ene=   -15.6590
Spin= Alpha
Occup=    2.00000
   1         0.70704551
   2        -0.00456631
   3         0.00000000
   4         0.00000000
   5         0.00041333
   6         0.70704453
   7        -0.00456629
   8        -0.00000000
   9        -0.00000000
  10        -0.00041333
Sym=     2a  
Ene=   -15.6560
Spin= Alpha
Occup=    2.00000
   1        -0.70697554
   2         0.01385670
   3        -0.00000000
   4        -0.00000000
   5        -0.00211489
   6         0.70697652
   7        -0.01385671
   8         0.00000000
   9        -0.00000000
  10        -0.00211489
Sym=     3a  
Ene=    -1.0582
Spin= Alpha
Occup=    2.00000
   1         0.00234547
   2        -0.64507274
   3        -0.00000000
   4         0.00000000
   5        -0.07880415
   6         0.00234547
   7        -0.64507279
   8         0.00000000
   9         0.00000000
  10         0.07880414
Sym=     4a  
Ene=    -0.4322
Spin= Alpha
Occup=    2.00000
   1         0.01156958
   2         0.19039779
   3        -0.00000000
   4        -0.00000000
   5        -0.64992882
   6         0.01156958
   7         0.19039781
   8        -0.00000000
   9        -0.00000000
  10         0.64992880
Sym=     5a  
Ene=    -0.3615
Spin= Alpha
Occup=    2.00000
   1         0.00000000
   2         0.00000000
   3         0.67753308
   4         0.04417838
   5        -0.00000000
   6         0.00000000
   7         0.00000000
   8         0.67753311
   9         0.04417838
  10         0.00000000
Sym=     6a  
Ene=    -0.3606
Spin= Alpha
Occup=    2.00000
   1         0.00000000
   2         0.00000000
   3        -0.04417838
   4         0.67753310
   5        -0.00000000
   6         0.00000000
   7         0.00000000
   8        -0.04417838
   9         0.67753309
  10         0.00000000
Sym=     7a  
Ene=    -0.8914
Spin= Alpha
Occup=    1.98812
   1        -0.01809958
   2        -0.73582069
   3        -0.00000000
   4         0.00000000
   5         0.09044496
   6         0.01809958
   7         0.73582064
   8         0.00000000
   9         0.00000000
  10         0.09044495
Sym=     8a  
Ene=     0.0000
Spin= Alpha
Occup=    0.01188
   1         0.00000000
   2         0.00000000
   3        -0.73749043
   4        -0.04808789
   5        -0.00000000
   6        -0.00000000
   7         0.00000000
   8         0.73749040
   9         0.04808788
  10        -0.00000000
Sym=     9a  
Ene=    -0.0110
Spin= Alpha
Occup=    0.00000
   1         0.00000000
   2         0.00000000
   3         0.04808789
   4        -0.73749041
   5        -0.00000000
   6         0.00000000
   7        -0.00000000
   8        -0.04808789
   9         0.73749042
  10        -0.00000000
Sym=    10a  
Ene=     0.1467
Spin= Alpha
Occup=    0.00000
   1         0.01711615
   2         0.26586953
   3        -0.00000000
   4        -0.00000000
   5         0.80796118
   6        -0.01711615
   7        -0.26586953
   8         0.00000000
   9         0.00000000
  10         0.80796120
