[Molden Format]
[N_Atoms]
                     2
[Atoms] (AU)
N1          1      7           0.00000000      0.00000000      0.00000000
N2          2      7           0.00000000      0.00000000      3.59047964
[Charge] (Mulliken)
   1.00001643456197     
  0.999983565438018     
[GTO] (AU)
   1
   s  14
  7.476171500E+04  1.182599996E-04
  1.112365400E+04  5.172899983E-04
  2.512685700E+03  2.266659992E-03
  7.037772900E+02  9.145289970E-03
  2.254787900E+02  3.239342989E-02
  7.961581000E+01  9.770792967E-02
  3.023728300E+01  2.317036792E-01
  1.226362200E+01  3.768898887E-01
  5.265086000E+00  3.177420689E-01
  2.333471000E+00  8.211308973E-02
  9.018560000E-01  3.312089989E-03
  3.583360000E-01  3.720819988E-03
  1.410930000E-01  3.165419989E-03
  4.938300000E-02  4.595799985E-04
   s  14
  7.476171500E+04 -2.707000010E-05
  1.112365400E+04 -1.183700004E-04
  2.512685700E+03 -5.203800020E-04
  7.037772900E+02 -2.102930008E-03
  2.254787900E+02 -7.568200028E-03
  7.961581000E+01 -2.346767009E-02
  3.023728300E+01 -6.042901023E-02
  1.226362200E+01 -1.170549104E-01
  5.265086000E+00 -1.555321506E-01
  2.333471000E+00 -2.468935009E-02
  9.018560000E-01  3.625054514E-01
  3.583360000E-01  5.550845021E-01
  1.410930000E-01  2.148376908E-01
  4.938300000E-02  8.983850034E-03
   p   9
  1.266665700E+02  1.233630000E-03
  2.983738900E+01  9.493409996E-03
  9.394038000E+00  4.293961998E-02
  3.405104000E+00  1.362925399E-01
  1.350000000E+00  2.921362499E-01
  5.576960000E-01  3.887887598E-01
  2.324490000E-01  2.946801399E-01
  9.426400000E-02  8.012875997E-02
  3.299200000E-02  5.405199998E-04
 
   2
   s  14
  7.476171500E+04  1.182599996E-04
  1.112365400E+04  5.172899983E-04
  2.512685700E+03  2.266659992E-03
  7.037772900E+02  9.145289970E-03
  2.254787900E+02  3.239342989E-02
  7.961581000E+01  9.770792967E-02
  3.023728300E+01  2.317036792E-01
  1.226362200E+01  3.768898887E-01
  5.265086000E+00  3.177420689E-01
  2.333471000E+00  8.211308973E-02
  9.018560000E-01  3.312089989E-03
  3.583360000E-01  3.720819988E-03
  1.410930000E-01  3.165419989E-03
  4.938300000E-02  4.595799985E-04
   s  14
  7.476171500E+04 -2.707000010E-05
  1.112365400E+04 -1.183700004E-04
  2.512685700E+03 -5.203800020E-04
  7.037772900E+02 -2.102930008E-03
  2.254787900E+02 -7.568200028E-03
  7.961581000E+01 -2.346767009E-02
  3.023728300E+01 -6.042901023E-02
  1.226362200E+01 -1.170549104E-01
  5.265086000E+00 -1.555321506E-01
  2.333471000E+00 -2.468935009E-02
  9.018560000E-01  3.625054514E-01
  3.583360000E-01  5.550845021E-01
  1.410930000E-01  2.148376908E-01
  4.938300000E-02  8.983850034E-03
   p   9
  1.266665700E+02  1.233630000E-03
  2.983738900E+01  9.493409996E-03
  9.394038000E+00  4.293961998E-02
  3.405104000E+00  1.362925399E-01
  1.350000000E+00  2.921362499E-01
  5.576960000E-01  3.887887598E-01
  2.324490000E-01  2.946801399E-01
  9.426400000E-02  8.012875997E-02
  3.299200000E-02  5.405199998E-04
 
[MO]
Sym=     1a  
Ene=   -16.8470
Spin= Alpha
Occup=    2.00000
   1         0.71324925
   2        -0.00578349
   3         0.00000000
   4         0.00000000
   5        -0.00013039
   6         0.70080617
   7        -0.00556565
   8        -0.00000000
   9        -0.00000000
  10         0.00013022
Sym=     2a  
Ene=   -16.8460
Spin= Alpha
Occup=    2.00000
   1        -0.70073369
   2         0.01232596
   3         0.00000000
   4        -0.00000000
   5         0.00000927
   6         0.71317803
   7        -0.01242576
   8         0.00000000
   9        -0.00000000
  10         0.00001152
Sym=     3a  
Ene=    -1.9109
Spin= Alpha
Occup=    2.00000
   1         0.00110204
   2        -0.64335785
   3        -0.00000000
   4         0.00000000
   5        -0.08452707
   6         0.00110201
   7        -0.64336323
   8         0.00000000
   9         0.00000000
  10         0.08452769
Sym=     4a  
Ene=    -1.2276
Spin= Alpha
Occup=    2.00000
   1         0.00000000
   2         0.00000000
   3         0.11217270
   4         0.66963840
   5        -0.00000000
   6         0.00000000
   7         0.00000000
   8         0.11217379
   9         0.66964497
  10         0.00000000
Sym=     5a  
Ene=    -1.2276
Spin= Alpha
Occup=    2.00000
   1         0.00000000
   2         0.00000000
   3         0.66963840
   4        -0.11217269
   5        -0.00000000
   6        -0.00000000
   7         0.00000000
   8         0.66964497
   9        -0.11217380
  10         0.00000000
Sym=     6a  
Ene=    -0.9101
Spin= Alpha
Occup=    0.01500
   1         0.01113152
   2         0.19607454
   3        -0.00000000
   4        -0.00000000
   5        -0.64920661
   6         0.01113157
   7         0.19607879
   8        -0.00000000
   9        -0.00000000
  10         0.64921216
Sym=     7a  
Ene=    -0.1401
Spin= Alpha
Occup=    1.98500
   1        -0.01832289
   2        -0.76350950
   3         0.00000000
   4         0.00000000
   5        -0.01215724
   6         0.01832280
   7         0.76350367
   8        -0.00000000
   9         0.00000000
  10        -0.01216128
Sym=     8a  
Ene=    -0.9029
Spin= Alpha
Occup=    0.00000
   1         0.00000000
   2         0.00000000
   3         0.22625198
   4        -0.70357596
   5        -0.00000000
   6         0.00000000
   7        -0.00000000
   8        -0.22625011
   9         0.70357013
  10         0.00000000
Sym=     9a  
Ene=    -0.9029
Spin= Alpha
Occup=    0.00000
   1        -0.00000000
   2        -0.00000000
   3         0.70357596
   4         0.22625198
   5        -0.00000000
   6        -0.00000000
   7        -0.00000000
   8        -0.70357013
   9        -0.22625011
  10        -0.00000000
Sym=    10a  
Ene=    -0.6659
Spin= Alpha
Occup=    0.00000
   1         0.01657220
   2         0.17092405
   3         0.00000000
   4        -0.00000000
   5         0.81292183
   6        -0.01657229
   7        -0.17092499
   8        -0.00000000
   9        -0.00000000
  10         0.81291727
