[Molden Format]
[N_Atoms]
                     2
[Atoms] (AU)
N1          1      7           0.00000000      0.00000000      0.00000000
N2          2      7           0.00000000      0.00000000      3.59047964
[Charge] (Mulliken)
  1.414646177977374E-010
 -1.414779404740329E-010
[GTO] (AU)
   1
   s  14
  7.476171500E+04  1.182599996E-04
  1.112365400E+04  5.172899983E-04
  2.512685700E+03  2.266659992E-03
  7.037772900E+02  9.145289970E-03
  2.254787900E+02  3.239342989E-02
  7.961581000E+01  9.770792967E-02
  3.023728300E+01  2.317036792E-01
  1.226362200E+01  3.768898887E-01
  5.265086000E+00  3.177420689E-01
  2.333471000E+00  8.211308973E-02
  9.018560000E-01  3.312089989E-03
  3.583360000E-01  3.720819988E-03
  1.410930000E-01  3.165419989E-03
  4.938300000E-02  4.595799985E-04
   s  14
  7.476171500E+04 -2.707000010E-05
  1.112365400E+04 -1.183700004E-04
  2.512685700E+03 -5.203800020E-04
  7.037772900E+02 -2.102930008E-03
  2.254787900E+02 -7.568200028E-03
  7.961581000E+01 -2.346767009E-02
  3.023728300E+01 -6.042901023E-02
  1.226362200E+01 -1.170549104E-01
  5.265086000E+00 -1.555321506E-01
  2.333471000E+00 -2.468935009E-02
  9.018560000E-01  3.625054514E-01
  3.583360000E-01  5.550845021E-01
  1.410930000E-01  2.148376908E-01
  4.938300000E-02  8.983850034E-03
   p   9
  1.266665700E+02  1.233630000E-03
  2.983738900E+01  9.493409996E-03
  9.394038000E+00  4.293961998E-02
  3.405104000E+00  1.362925399E-01
  1.350000000E+00  2.921362499E-01
  5.576960000E-01  3.887887598E-01
  2.324490000E-01  2.946801399E-01
  9.426400000E-02  8.012875997E-02
  3.299200000E-02  5.405199998E-04
 
   2
   s  14
  7.476171500E+04  1.182599996E-04
  1.112365400E+04  5.172899983E-04
  2.512685700E+03  2.266659992E-03
  7.037772900E+02  9.145289970E-03
  2.254787900E+02  3.239342989E-02
  7.961581000E+01  9.770792967E-02
  3.023728300E+01  2.317036792E-01
  1.226362200E+01  3.768898887E-01
  5.265086000E+00  3.177420689E-01
  2.333471000E+00  8.211308973E-02
  9.018560000E-01  3.312089989E-03
  3.583360000E-01  3.720819988E-03
  1.410930000E-01  3.165419989E-03
  4.938300000E-02  4.595799985E-04
   s  14
  7.476171500E+04 -2.707000010E-05
  1.112365400E+04 -1.183700004E-04
  2.512685700E+03 -5.203800020E-04
  7.037772900E+02 -2.102930008E-03
  2.254787900E+02 -7.568200028E-03
  7.961581000E+01 -2.346767009E-02
  3.023728300E+01 -6.042901023E-02
  1.226362200E+01 -1.170549104E-01
  5.265086000E+00 -1.555321506E-01
  2.333471000E+00 -2.468935009E-02
  9.018560000E-01  3.625054514E-01
  3.583360000E-01  5.550845021E-01
  1.410930000E-01  2.148376908E-01
  4.938300000E-02  8.983850034E-03
   p   9
  1.266665700E+02  1.233630000E-03
  2.983738900E+01  9.493409996E-03
  9.394038000E+00  4.293961998E-02
  3.405104000E+00  1.362925399E-01
  1.350000000E+00  2.921362499E-01
  5.576960000E-01  3.887887598E-01
  2.324490000E-01  2.946801399E-01
  9.426400000E-02  8.012875997E-02
  3.299200000E-02  5.405199998E-04
 
[MO]
Sym=     1a  
Ene=   -15.6600
Spin= Alpha
Occup=    1.00000
   1         0.70704488
   2        -0.00457119
   3         0.00000000
   4        -0.00000000
   5         0.00041904
   6         0.70704497
   7        -0.00457119
   8         0.00000000
   9        -0.00000000
  10        -0.00041904
Sym=     1a  
Ene=   -15.6600
Spin= Beta
Occup=    1.00000
   1         0.70704488
   2        -0.00457119
   3         0.00000000
   4        -0.00000000
   5         0.00041904
   6         0.70704497
   7        -0.00457119
   8         0.00000000
   9        -0.00000000
  10        -0.00041904
Sym=     2a  
Ene=   -15.6600
Spin= Alpha
Occup=    1.00000
   1        -0.70715753
   2         0.00379679
   3         0.00000000
   4        -0.00000000
   5        -0.00088388
   6         0.70715744
   7        -0.00379679
   8         0.00000000
   9        -0.00000000
  10        -0.00088388
Sym=     2a  
Ene=   -15.6600
Spin= Beta
Occup=    1.00000
   1        -0.70715753
   2         0.00379679
   3         0.00000000
   4        -0.00000000
   5        -0.00088388
   6         0.70715744
   7        -0.00379679
   8         0.00000000
   9        -0.00000000
  10        -0.00088388
Sym=     3a  
Ene=    -1.0593
Spin= Alpha
Occup=    1.00000
   1        -0.00233933
   2         0.64511766
   3         0.00000000
   4        -0.00000000
   5         0.07865075
   6        -0.00233933
   7         0.64511766
   8        -0.00000000
   9        -0.00000000
  10        -0.07865075
Sym=     3a  
Ene=    -1.0593
Spin= Beta
Occup=    1.00000
   1        -0.00233933
   2         0.64511766
   3         0.00000000
   4        -0.00000000
   5         0.07865075
   6        -0.00233933
   7         0.64511766
   8        -0.00000000
   9        -0.00000000
  10        -0.07865075
Sym=     4a  
Ene=    -0.8910
Spin= Alpha
Occup=    1.00000
   1        -0.00841041
   2        -0.73555448
   3         0.00000000
   4        -0.00000000
   5         0.09163856
   6         0.00841041
   7         0.73555448
   8         0.00000000
   9        -0.00000000
  10         0.09163856
Sym=     4a  
Ene=    -0.8910
Spin= Beta
Occup=    1.00000
   1        -0.00841041
   2        -0.73555448
   3         0.00000000
   4        -0.00000000
   5         0.09163856
   6         0.00841041
   7         0.73555448
   8         0.00000000
   9        -0.00000000
  10         0.09163856
Sym=     5a  
Ene=    -0.4329
Spin= Alpha
Occup=    1.00000
   1         0.01157676
   2         0.19024550
   3        -0.00000000
   4        -0.00000000
   5        -0.64994739
   6         0.01157676
   7         0.19024550
   8         0.00000000
   9        -0.00000000
  10         0.64994739
Sym=     5a  
Ene=    -0.4329
Spin= Beta
Occup=    1.00000
   1         0.01157676
   2         0.19024550
   3        -0.00000000
   4        -0.00000000
   5        -0.64994739
   6         0.01157676
   7         0.19024550
   8         0.00000000
   9        -0.00000000
  10         0.64994739
Sym=     6a  
Ene=    -0.3610
Spin= Alpha
Occup=    1.00000
   1         0.00000000
   2         0.00000000
   3        -0.08635136
   4         0.67345844
   5        -0.00000000
   6         0.00000000
   7         0.00000000
   8        -0.08635136
   9         0.67345844
  10         0.00000000
Sym=     6a  
Ene=    -0.3610
Spin= Beta
Occup=    1.00000
   1         0.00000000
   2         0.00000000
   3        -0.08635136
   4         0.67345844
   5        -0.00000000
   6         0.00000000
   7         0.00000000
   8        -0.08635136
   9         0.67345844
  10         0.00000000
Sym=     7a  
Ene=    -0.3610
Spin= Alpha
Occup=    1.00000
   1         0.00000000
   2         0.00000000
   3         0.67345844
   4         0.08635136
   5         0.00000000
   6        -0.00000000
   7        -0.00000000
   8         0.67345844
   9         0.08635136
  10         0.00000000
Sym=     7a  
Ene=    -0.3610
Spin= Beta
Occup=    1.00000
   1         0.00000000
   2         0.00000000
   3         0.67345844
   4         0.08635136
   5         0.00000000
   6        -0.00000000
   7        -0.00000000
   8         0.67345844
   9         0.08635136
  10         0.00000000
Sym=     8a  
Ene=    -0.0114
Spin= Alpha
Occup=    0.00000
   1         0.00000000
   2         0.00000000
   3         0.22369543
   4        -0.70438975
   5        -0.00000000
   6         0.00000000
   7        -0.00000000
   8        -0.22369543
   9         0.70438975
  10         0.00000000
Sym=     8a  
Ene=    -0.0114
Spin= Beta
Occup=    0.00000
   1         0.00000000
   2         0.00000000
   3         0.22369543
   4        -0.70438975
   5        -0.00000000
   6         0.00000000
   7        -0.00000000
   8        -0.22369543
   9         0.70438975
  10         0.00000000
Sym=     9a  
Ene=    -0.0114
Spin= Alpha
Occup=    0.00000
   1        -0.00000000
   2        -0.00000000
   3        -0.70438975
   4        -0.22369543
   5         0.00000000
   6        -0.00000000
   7        -0.00000000
   8         0.70438975
   9         0.22369543
  10        -0.00000000
Sym=     9a  
Ene=    -0.0114
Spin= Beta
Occup=    0.00000
   1        -0.00000000
   2        -0.00000000
   3        -0.70438975
   4        -0.22369543
   5         0.00000000
   6        -0.00000000
   7        -0.00000000
   8         0.70438975
   9         0.22369543
  10        -0.00000000
Sym=    10a  
Ene=     0.1462
Spin= Alpha
Occup=    0.00000
   1         0.01712370
   2         0.26693794
   3        -0.00000000
   4        -0.00000000
   5         0.80782897
   6        -0.01712370
   7        -0.26693794
   8        -0.00000000
   9        -0.00000000
  10         0.80782897
Sym=    10a  
Ene=     0.1462
Spin= Beta
Occup=    0.00000
   1         0.01712370
   2         0.26693794
   3        -0.00000000
   4        -0.00000000
   5         0.80782897
   6        -0.01712370
   7        -0.26693794
   8        -0.00000000
   9        -0.00000000
  10         0.80782897
