[Molden Format]
[N_Atoms]
                     2
[Atoms] (AU)
N1          1      7           0.00000000      0.00000000      0.00000000
O2          2      8           0.00000000      0.00000000      1.32280829
[Charge] (Mulliken)
  0.296603656554934     
 -0.296603656554950     
[GTO] (AU)
   1
   s  14
  7.476171500E+04  1.182599996E-04
  1.112365400E+04  5.172899983E-04
  2.512685700E+03  2.266659992E-03
  7.037772900E+02  9.145289970E-03
  2.254787900E+02  3.239342989E-02
  7.961581000E+01  9.770792967E-02
  3.023728300E+01  2.317036792E-01
  1.226362200E+01  3.768898887E-01
  5.265086000E+00  3.177420689E-01
  2.333471000E+00  8.211308973E-02
  9.018560000E-01  3.312089989E-03
  3.583360000E-01  3.720819988E-03
  1.410930000E-01  3.165419989E-03
  4.938300000E-02  4.595799985E-04
   s  14
  7.476171500E+04 -2.707000010E-05
  1.112365400E+04 -1.183700004E-04
  2.512685700E+03 -5.203800020E-04
  7.037772900E+02 -2.102930008E-03
  2.254787900E+02 -7.568200028E-03
  7.961581000E+01 -2.346767009E-02
  3.023728300E+01 -6.042901023E-02
  1.226362200E+01 -1.170549104E-01
  5.265086000E+00 -1.555321506E-01
  2.333471000E+00 -2.468935009E-02
  9.018560000E-01  3.625054514E-01
  3.583360000E-01  5.550845021E-01
  1.410930000E-01  2.148376908E-01
  4.938300000E-02  8.983850034E-03
   p   9
  1.266665700E+02  1.233630000E-03
  2.983738900E+01  9.493409996E-03
  9.394038000E+00  4.293961998E-02
  3.405104000E+00  1.362925399E-01
  1.350000000E+00  2.921362499E-01
  5.576960000E-01  3.887887598E-01
  2.324490000E-01  2.946801399E-01
  9.426400000E-02  8.012875997E-02
  3.299200000E-02  5.405199998E-04
 
   2
   s  14
  1.053749500E+05  1.238600013E-04
  1.567924000E+04  5.120100053E-04
  3.534544700E+03  2.152910022E-03
  9.873651600E+02  8.528440089E-03
  3.159787500E+02  3.018049031E-02
  1.116542800E+02  9.099702095E-02
  4.269945100E+01  2.177936423E-01
  1.739559600E+01  3.686245738E-01
  7.438309000E+00  3.366707335E-01
  3.222862000E+00  9.657630101E-02
  1.253877000E+00  2.144520022E-03
  4.951550000E-01  1.194350012E-03
  1.916650000E-01  5.390200056E-04
  6.708300000E-02  2.103400022E-04
   s  14
  1.053749500E+05 -2.815000008E-05
  1.567924000E+04 -1.163000003E-04
  3.534544700E+03 -4.909200013E-04
  9.873651600E+02 -1.946160005E-03
  3.159787500E+02 -7.005300019E-03
  1.116542800E+02 -2.167814006E-02
  4.269945100E+01 -5.641213015E-02
  1.739559600E+01 -1.127053003E-01
  7.438309000E+00 -1.589119704E-01
  3.222862000E+00 -3.355083009E-02
  1.253877000E+00  3.531902810E-01
  4.951550000E-01  5.534199315E-01
  1.916650000E-01  2.301839106E-01
  6.708300000E-02  1.127267003E-02
   p   9
  2.000000000E+02  9.173000030E-04
  4.653336700E+01  7.377140024E-03
  1.462180900E+01  3.483515011E-02
  5.313064000E+00  1.144397004E-01
  2.102525000E+00  2.554966408E-01
  8.502230000E-01  3.722557412E-01
  3.375970000E-01  3.323314911E-01
  1.288920000E-01  1.400847905E-01
  4.511200000E-02  2.395784008E-02
 
[MO]
Sym=     1a  
Ene=   -21.2370
Spin= Alpha
Occup=    1.00000
   1         0.00037606
   2        -0.01040236
   3        -0.00000000
   4        -0.00000000
   5        -0.00264982
   6         1.00167622
   7         0.01032617
   8         0.00000000
   9         0.00000000
  10        -0.01079743
Sym=     1a  
Ene=   -21.2370
Spin= Beta
Occup=    1.00000
   1         0.00037606
   2        -0.01040236
   3        -0.00000000
   4        -0.00000000
   5        -0.00264982
   6         1.00167622
   7         0.01032617
   8         0.00000000
   9         0.00000000
  10        -0.01079743
Sym=     2a  
Ene=   -16.1720
Spin= Alpha
Occup=    1.00000
   1         1.00017199
   2        -0.00008050
   3        -0.00000000
   4        -0.00000000
   5         0.01283972
   6        -0.01215716
   7        -0.00692179
   8         0.00000000
   9         0.00000000
  10        -0.00363439
Sym=     2a  
Ene=   -16.1720
Spin= Beta
Occup=    1.00000
   1         1.00017199
   2        -0.00008050
   3        -0.00000000
   4        -0.00000000
   5         0.01283972
   6        -0.01215716
   7        -0.00692179
   8         0.00000000
   9         0.00000000
  10        -0.00363439
Sym=     3a  
Ene=    -2.2405
Spin= Alpha
Occup=    1.00000
   1        -0.19269643
   2         0.11458833
   3        -0.00000000
   4         0.00000000
   5         0.30638533
   6        -0.07258268
   7         0.60953724
   8         0.00000000
   9        -0.00000000
  10        -0.47965208
Sym=     3a  
Ene=    -2.2405
Spin= Beta
Occup=    1.00000
   1        -0.19269643
   2         0.11458833
   3        -0.00000000
   4         0.00000000
   5         0.30638533
   6        -0.07258268
   7         0.60953724
   8         0.00000000
   9        -0.00000000
  10        -0.47965208
Sym=     4a  
Ene=    -1.1538
Spin= Alpha
Occup=    1.00000
   1         0.00000000
   2        -0.00000000
   3         0.30872616
   4         0.32377399
   5        -0.00000000
   6         0.00000000
   7         0.00000000
   8         0.46937162
   9         0.49224959
  10         0.00000000
Sym=     4a  
Ene=    -1.1538
Spin= Beta
Occup=    1.00000
   1         0.00000000
   2        -0.00000000
   3         0.30872616
   4         0.32377399
   5        -0.00000000
   6         0.00000000
   7         0.00000000
   8         0.46937162
   9         0.49224959
  10         0.00000000
Sym=     5a  
Ene=    -1.1309
Spin= Alpha
Occup=    1.00000
   1        -0.00000000
   2         0.00000000
   3        -0.32835139
   4         0.31309082
   5         0.00000000
   6        -0.00000000
   7        -0.00000000
   8        -0.48817152
   9         0.46548309
  10        -0.00000000
Sym=     5a  
Ene=    -1.1309
Spin= Beta
Occup=    1.00000
   1        -0.00000000
   2         0.00000000
   3        -0.32835139
   4         0.31309082
   5         0.00000000
   6        -0.00000000
   7        -0.00000000
   8        -0.48817152
   9         0.46548309
  10        -0.00000000
Sym=     6a  
Ene=    -0.9952
Spin= Alpha
Occup=    1.00000
   1         0.07675080
   2        -0.08094443
   3        -0.00000000
   4        -0.00000000
   5        -0.19465446
   6         0.04831367
   7         0.69135630
   8        -0.00000000
   9         0.00000000
  10         0.80497967
Sym=     6a  
Ene=    -0.9952
Spin= Beta
Occup=    1.00000
   1         0.07675080
   2        -0.08094443
   3        -0.00000000
   4        -0.00000000
   5        -0.19465446
   6         0.04831367
   7         0.69135630
   8        -0.00000000
   9         0.00000000
  10         0.80497967
Sym=     7a  
Ene=    -0.8030
Spin= Alpha
Occup=    1.00000
   1        -0.08888969
   2        -0.90283698
   3         0.00000000
   4         0.00000000
   5         0.63341220
   6        -0.00948100
   7         0.17786522
   8        -0.00000000
   9        -0.00000000
  10        -0.25466564
Sym=     7a  
Ene=    -0.8030
Spin= Beta
Occup=    1.00000
   1        -0.08888969
   2        -0.90283698
   3         0.00000000
   4         0.00000000
   5         0.63341220
   6        -0.00948100
   7         0.17786522
   8        -0.00000000
   9        -0.00000000
  10        -0.25466564
Sym=     8a  
Ene=     0.0819
Spin= Alpha
Occup=    1.00000
   1        -0.00000000
   2        -0.00000000
   3        -0.76938920
   4        -0.80689052
   5         0.00000000
   6        -0.00000000
   7         0.00000000
   8         0.68334607
   9         0.71665351
  10        -0.00000000
Sym=     8a  
Ene=     0.0819
Spin= Beta
Occup=    0.00000
   1        -0.00000000
   2        -0.00000000
   3        -0.76938920
   4        -0.80689052
   5         0.00000000
   6        -0.00000000
   7         0.00000000
   8         0.68334607
   9         0.71665351
  10        -0.00000000
Sym=     9a  
Ene=     0.0000
Spin= Alpha
Occup=    0.00000
   1         0.00000000
   2        -0.00000000
   3        -0.80503868
   4         0.76762342
   5        -0.00000000
   6         0.00000000
   7         0.00000000
   8         0.71943762
   9        -0.68600078
  10         0.00000000
Sym=     9a  
Ene=     0.0000
Spin= Beta
Occup=    0.00000
   1         0.00000000
   2        -0.00000000
   3        -0.80503868
   4         0.76762342
   5        -0.00000000
   6         0.00000000
   7         0.00000000
   8         0.71943762
   9        -0.68600078
  10         0.00000000
Sym=    10a  
Ene=     2.3272
Spin= Alpha
Occup=    0.00000
   1         0.75527810
   2         2.85422107
   3        -0.00000000
   4         0.00000000
   5         1.89520432
   6        -0.68265065
   7        -3.02322480
   8         0.00000000
   9         0.00000000
  10         1.51218482
Sym=    10a  
Ene=     2.3272
Spin= Beta
Occup=    0.00000
   1         0.75527810
   2         2.85422107
   3        -0.00000000
   4         0.00000000
   5         1.89520432
   6        -0.68265065
   7        -3.02322480
   8         0.00000000
   9         0.00000000
  10         1.51218482
