[Molden Format]
[N_Atoms]
                     2
[Atoms] (AU)
N1          1      7           0.00000000      0.00000000      0.00000000
O2          2      8           0.00000000      0.00000000      1.32280829
[Charge] (Mulliken)
  0.296643895408780     
 -0.296643895408799     
[GTO] (AU)
   1
   s  14
  7.476171500E+04  1.182599996E-04
  1.112365400E+04  5.172899983E-04
  2.512685700E+03  2.266659992E-03
  7.037772900E+02  9.145289970E-03
  2.254787900E+02  3.239342989E-02
  7.961581000E+01  9.770792967E-02
  3.023728300E+01  2.317036792E-01
  1.226362200E+01  3.768898887E-01
  5.265086000E+00  3.177420689E-01
  2.333471000E+00  8.211308973E-02
  9.018560000E-01  3.312089989E-03
  3.583360000E-01  3.720819988E-03
  1.410930000E-01  3.165419989E-03
  4.938300000E-02  4.595799985E-04
   s  14
  7.476171500E+04 -2.707000010E-05
  1.112365400E+04 -1.183700004E-04
  2.512685700E+03 -5.203800020E-04
  7.037772900E+02 -2.102930008E-03
  2.254787900E+02 -7.568200028E-03
  7.961581000E+01 -2.346767009E-02
  3.023728300E+01 -6.042901023E-02
  1.226362200E+01 -1.170549104E-01
  5.265086000E+00 -1.555321506E-01
  2.333471000E+00 -2.468935009E-02
  9.018560000E-01  3.625054514E-01
  3.583360000E-01  5.550845021E-01
  1.410930000E-01  2.148376908E-01
  4.938300000E-02  8.983850034E-03
   p   9
  1.266665700E+02  1.233630000E-03
  2.983738900E+01  9.493409996E-03
  9.394038000E+00  4.293961998E-02
  3.405104000E+00  1.362925399E-01
  1.350000000E+00  2.921362499E-01
  5.576960000E-01  3.887887598E-01
  2.324490000E-01  2.946801399E-01
  9.426400000E-02  8.012875997E-02
  3.299200000E-02  5.405199998E-04
 
   2
   s  14
  1.053749500E+05  1.238600013E-04
  1.567924000E+04  5.120100053E-04
  3.534544700E+03  2.152910022E-03
  9.873651600E+02  8.528440089E-03
  3.159787500E+02  3.018049031E-02
  1.116542800E+02  9.099702095E-02
  4.269945100E+01  2.177936423E-01
  1.739559600E+01  3.686245738E-01
  7.438309000E+00  3.366707335E-01
  3.222862000E+00  9.657630101E-02
  1.253877000E+00  2.144520022E-03
  4.951550000E-01  1.194350012E-03
  1.916650000E-01  5.390200056E-04
  6.708300000E-02  2.103400022E-04
   s  14
  1.053749500E+05 -2.815000008E-05
  1.567924000E+04 -1.163000003E-04
  3.534544700E+03 -4.909200013E-04
  9.873651600E+02 -1.946160005E-03
  3.159787500E+02 -7.005300019E-03
  1.116542800E+02 -2.167814006E-02
  4.269945100E+01 -5.641213015E-02
  1.739559600E+01 -1.127053003E-01
  7.438309000E+00 -1.589119704E-01
  3.222862000E+00 -3.355083009E-02
  1.253877000E+00  3.531902810E-01
  4.951550000E-01  5.534199315E-01
  1.916650000E-01  2.301839106E-01
  6.708300000E-02  1.127267003E-02
   p   9
  2.000000000E+02  9.173000030E-04
  4.653336700E+01  7.377140024E-03
  1.462180900E+01  3.483515011E-02
  5.313064000E+00  1.144397004E-01
  2.102525000E+00  2.554966408E-01
  8.502230000E-01  3.722557412E-01
  3.375970000E-01  3.323314911E-01
  1.288920000E-01  1.400847905E-01
  4.511200000E-02  2.395784008E-02
 
[MO]
Sym=     1a  
Ene=   -21.2500
Spin= Alpha
Occup=    1.00000
   1        -0.00001531
   2        -0.01144645
   3         0.00000000
   4        -0.00000000
   5        -0.00318563
   6         1.00189820
   7         0.01180365
   8        -0.00000000
   9        -0.00000000
  10        -0.01117010
Sym=     1a  
Ene=   -21.2230
Spin= Beta
Occup=    1.00000
   1         0.00076517
   2        -0.00936252
   3         0.00000000
   4        -0.00000000
   5        -0.00211581
   6         1.00145471
   7         0.00885389
   8        -0.00000000
   9        -0.00000000
  10        -0.01042538
Sym=     2a  
Ene=   -16.1870
Spin= Alpha
Occup=    1.00000
   1         1.00043904
   2         0.00168146
   3         0.00000000
   4        -0.00000000
   5         0.01329398
   6        -0.01234941
   7        -0.00815964
   8        -0.00000000
   9         0.00000000
  10        -0.00323246
Sym=     2a  
Ene=   -16.1570
Spin= Beta
Occup=    1.00000
   1         0.99990576
   2        -0.00183307
   3         0.00000000
   4        -0.00000000
   5         0.01238726
   6        -0.01196460
   7        -0.00569138
   8        -0.00000000
   9         0.00000000
  10        -0.00403402
Sym=     3a  
Ene=    -2.2587
Spin= Alpha
Occup=    1.00000
   1        -0.19236751
   2         0.11791431
   3        -0.00000000
   4         0.00000000
   5         0.30012246
   6        -0.07211822
   7         0.61495363
   8         0.00000000
   9         0.00000000
  10        -0.47326165
Sym=     3a  
Ene=    -2.2225
Spin= Beta
Occup=    1.00000
   1        -0.19301649
   2         0.11125818
   3        -0.00000000
   4         0.00000000
   5         0.31257592
   6        -0.07303791
   7         0.60410161
   8         0.00000000
   9         0.00000000
  10        -0.48599358
Sym=     4a  
Ene=    -1.2319
Spin= Alpha
Occup=    1.00000
   1         0.00000000
   2        -0.00000000
   3         0.40103229
   4         0.20210547
   5         0.00000000
   6         0.00000000
   7         0.00000000
   8         0.60603221
   9         0.30541785
  10         0.00000000
Sym=     4a  
Ene=    -1.1222
Spin= Beta
Occup=    1.00000
   1         0.00000000
   2         0.00000000
   3        -0.20346185
   4         0.40372373
   5         0.00000000
   6        -0.00000000
   7        -0.00000000
   8        -0.30420937
   9         0.60363424
  10        -0.00000000
Sym=     5a  
Ene=    -1.1395
Spin= Alpha
Occup=    1.00000
   1         0.00000000
   2         0.00000000
   3        -0.20491840
   4         0.40661391
   5         0.00000000
   6        -0.00000000
   7        -0.00000000
   8        -0.30290768
   9         0.60105134
  10        -0.00000000
Sym=     5a  
Ene=    -1.0758
Spin= Beta
Occup=    1.00000
   1         0.00000000
   2        -0.00000000
   3         0.39945280
   4         0.20130946
   5         0.00000000
   6         0.00000000
   7         0.00000000
   8         0.60743619
   9         0.30612541
  10         0.00000000
Sym=     6a  
Ene=    -1.0235
Spin= Alpha
Occup=    1.00000
   1         0.06824596
   2        -0.15221511
   3        -0.00000000
   4         0.00000000
   5        -0.17123180
   6         0.05204942
   7         0.71543539
   8        -0.00000000
   9         0.00000000
  10         0.78240501
Sym=     6a  
Ene=    -0.9680
Spin= Beta
Occup=    1.00000
   1         0.08387221
   2        -0.01754276
   3        -0.00000000
   4        -0.00000000
   5        -0.21397496
   6         0.04472816
   7         0.66867939
   8        -0.00000000
   9        -0.00000000
  10         0.82198459
Sym=     7a  
Ene=    -0.8397
Spin= Alpha
Occup=    1.00000
   1         0.09826382
   2         0.91263964
   3         0.00000000
   4        -0.00000000
   5        -0.63447590
   6         0.00882910
   7        -0.15893932
   8         0.00000000
   9         0.00000000
  10         0.31327033
Sym=     7a  
Ene=    -0.7652
Spin= Beta
Occup=    1.00000
   1        -0.07940030
   2        -0.88745928
   3        -0.00000000
   4         0.00000000
   5         0.63340559
   6        -0.01097453
   7         0.18959932
   8        -0.00000000
   9        -0.00000000
  10        -0.20023596
Sym=     8a  
Ene=    -0.2762
Spin= Alpha
Occup=    1.00000
   1        -0.00000000
   2        -0.00000000
   3        -0.99501187
   4        -0.50144924
   5        -0.00000000
   6         0.00000000
   7         0.00000000
   8         0.88521212
   9         0.44611422
  10         0.00000000
Sym=     8a  
Ene=     0.3840
Spin= Beta
Occup=    0.00000
   1        -0.00000000
   2        -0.00000000
   3         0.50090042
   4        -0.99392287
   5        -0.00000000
   6         0.00000000
   7         0.00000000
   8        -0.44693917
   9         0.88684905
  10        -0.00000000
Sym=     9a  
Ene=     0.3543
Spin= Alpha
Occup=    0.00000
   1        -0.00000000
   2        -0.00000000
   3         0.50030632
   4        -0.99274400
   5        -0.00000000
   6         0.00000000
   7         0.00000000
   8        -0.44782239
   9         0.88860161
  10        -0.00000000
Sym=     9a  
Ene=     0.4400
Spin= Beta
Occup=    0.00000
   1        -0.00000000
   2        -0.00000000
   3        -0.99564702
   4        -0.50176933
   5        -0.00000000
   6         0.00000000
   7         0.00000000
   8         0.88424929
   9         0.44562899
  10         0.00000000
Sym=    10a  
Ene=     2.2992
Spin= Alpha
Occup=    0.00000
   1         0.75466305
   2         2.84804583
   3        -0.00000000
   4        -0.00000000
   5         1.89810544
   6        -0.68210458
   7        -3.01756600
   8        -0.00000000
   9         0.00000000
  10         1.51503729
Sym=    10a  
Ene=     2.3556
Spin= Beta
Occup=    0.00000
   1         0.75584834
   2         2.86026609
   3        -0.00000000
   4        -0.00000000
   5         1.89211392
   6        -0.68315226
   7        -3.02870573
   8        -0.00000000
   9         0.00000000
  10         1.50919776
