[Molden Format]
[N_Atoms]
                     2
[Atoms] (AU)
LI1         1      3           0.00000000      0.00000000      0.00000000
LI2         2      3           0.00000000      0.00000000      3.02356180
[Charge] (Mulliken)
  5.511147094239277E-013
 -5.511147094239277E-013
[GTO] (AU)
   1
   s  14
  9.497934400E+03  9.668999974E-05
  1.416811200E+03  6.087099984E-04
  3.214599400E+02  3.101519992E-03
  9.112416300E+01  1.266904997E-02
  2.999989100E+01  4.248012989E-02
  1.101763100E+01  1.150183297E-01
  4.372801000E+00  2.398650094E-01
  1.831256000E+00  3.584300090E-01
  8.022610000E-01  3.048527792E-01
  3.626480000E-01  8.824261976E-02
  1.139950000E-01 -8.445899977E-04
  5.123700000E-02 -7.943959979E-03
  2.246800000E-02 -3.764419990E-03
  7.860000000E-03 -8.868999976E-05
   s  14
  9.497934400E+03 -1.244999993E-05
  1.416811200E+03 -7.838999954E-05
  3.214599400E+02 -4.007099976E-04
  9.112416300E+01 -1.645249990E-03
  2.999989100E+01 -5.634599967E-03
  1.101763100E+01 -1.590780991E-02
  4.372801000E+00 -3.612581979E-02
  1.831256000E+00 -6.459927962E-02
  8.022610000E-01 -1.008321794E-01
  3.626480000E-01 -9.757613942E-02
  1.139950000E-01  2.301215886E-01
  5.123700000E-02  6.102389764E-01
  2.246800000E-02  2.849406083E-01
  7.860000000E-03  4.026899976E-03
   p   9
  1.311950400E+01  1.524940000E-03
  3.077424200E+00  8.314830000E-03
  1.098800500E+00  1.933203000E-02
  4.357784000E-01  4.934293000E-02
  1.802432000E-01  1.623554000E-01
  7.613330000E-02  3.847505400E-01
  3.254650000E-02  4.336100400E-01
  1.401820000E-02  1.287005900E-01
  4.906400000E-03 -1.018520000E-03
 
   2
   s  14
  9.497934400E+03  9.668999974E-05
  1.416811200E+03  6.087099984E-04
  3.214599400E+02  3.101519992E-03
  9.112416300E+01  1.266904997E-02
  2.999989100E+01  4.248012989E-02
  1.101763100E+01  1.150183297E-01
  4.372801000E+00  2.398650094E-01
  1.831256000E+00  3.584300090E-01
  8.022610000E-01  3.048527792E-01
  3.626480000E-01  8.824261976E-02
  1.139950000E-01 -8.445899977E-04
  5.123700000E-02 -7.943959979E-03
  2.246800000E-02 -3.764419990E-03
  7.860000000E-03 -8.868999976E-05
   s  14
  9.497934400E+03 -1.244999993E-05
  1.416811200E+03 -7.838999954E-05
  3.214599400E+02 -4.007099976E-04
  9.112416300E+01 -1.645249990E-03
  2.999989100E+01 -5.634599967E-03
  1.101763100E+01 -1.590780991E-02
  4.372801000E+00 -3.612581979E-02
  1.831256000E+00 -6.459927962E-02
  8.022610000E-01 -1.008321794E-01
  3.626480000E-01 -9.757613942E-02
  1.139950000E-01  2.301215886E-01
  5.123700000E-02  6.102389764E-01
  2.246800000E-02  2.849406083E-01
  7.860000000E-03  4.026899976E-03
   p   9
  1.311950400E+01  1.524940000E-03
  3.077424200E+00  8.314830000E-03
  1.098800500E+00  1.933203000E-02
  4.357784000E-01  4.934293000E-02
  1.802432000E-01  1.623554000E-01
  7.613330000E-02  3.847505400E-01
  3.254650000E-02  4.336100400E-01
  1.401820000E-02  1.287005900E-01
  4.906400000E-03 -1.018520000E-03
 
[MO]
Sym=     1a  
Ene=    -2.5396
Spin= Alpha
Occup=    2.00000
   1         0.70189199
   2         0.00519727
   3        -0.00000000
   4         0.00000000
   5         0.00395696
   6         0.70189199
   7         0.00519727
   8         0.00000000
   9        -0.00000000
  10        -0.00395696
Sym=     2a  
Ene=    -2.5129
Spin= Alpha
Occup=    2.00000
   1        -0.71244632
   2        -0.00994420
   3        -0.00000000
   4         0.00000000
   5        -0.00113446
   6         0.71244632
   7         0.00994420
   8         0.00000000
   9        -0.00000000
  10        -0.00113446
Sym=     3a  
Ene=    -0.1907
Spin= Alpha
Occup=    1.82749
   1        -0.10914109
   2         0.49384166
   3        -0.00000000
   4         0.00000000
   5         0.13704695
   6        -0.10914109
   7         0.49384166
   8         0.00000000
   9         0.00000000
  10        -0.13704695
Sym=     4a  
Ene=    -0.0000
Spin= Alpha
Occup=    0.17251
   1        -0.00000000
   2        -0.00000000
   3         0.49052400
   4        -0.20370959
   5        -0.00000000
   6         0.00000000
   7         0.00000000
   8         0.49052400
   9        -0.20370959
  10         0.00000000
Sym=     5a  
Ene=     0.0164
Spin= Alpha
Occup=    0.00000
   1         0.00000000
   2        -0.00000000
   3         0.20370959
   4         0.49052400
   5        -0.00000000
   6         0.00000000
   7         0.00000000
   8         0.20370959
   9         0.49052400
  10         0.00000000
Sym=     6a  
Ene=     0.0251
Spin= Alpha
Occup=    0.00000
   1         0.04516166
   2        -0.38919726
   3        -0.00000000
   4        -0.00000000
   5         0.46369490
   6        -0.04516166
   7         0.38919726
   8         0.00000000
   9        -0.00000000
  10         0.46369490
Sym=     7a  
Ene=     0.1050
Spin= Alpha
Occup=    0.00000
   1         0.17536941
   2         0.32752927
   3        -0.00000000
   4         0.00000000
   5        -1.04886175
   6         0.17536941
   7         0.32752927
   8         0.00000000
   9        -0.00000000
  10         1.04886175
Sym=     8a  
Ene=     0.1589
Spin= Alpha
Occup=    0.00000
   1        -0.00000000
   2        -0.00000000
   3        -1.36867615
   4         0.56839718
   5        -0.00000000
   6         0.00000000
   7         0.00000000
   8         1.36867615
   9        -0.56839718
  10        -0.00000000
Sym=     9a  
Ene=     0.1592
Spin= Alpha
Occup=    0.00000
   1         0.00000000
   2         0.00000000
   3        -0.56839718
   4        -1.36867615
   5        -0.00000000
   6         0.00000000
   7        -0.00000000
   8         0.56839718
   9         1.36867615
  10         0.00000000
Sym=    10a  
Ene=     0.9888
Spin= Alpha
Occup=    0.00000
   1        -1.77185394
   2        -7.76266986
   3         0.00000000
   4        -0.00000000
   5        -2.88307619
   6         1.77185394
   7         7.76266986
   8        -0.00000000
   9         0.00000000
  10        -2.88307619
