[Molden Format]
[N_Atoms]
                     2
[Atoms] (AU)
LI1         1      3           0.00000000      0.00000000      0.00000000
LI2         2      3           0.00000000      0.00000000      3.02356180
[Charge] (Mulliken)
   1.00142945777401     
  0.998570542225986     
[GTO] (AU)
   1
   s  14
  9.497934400E+03  9.668999974E-05
  1.416811200E+03  6.087099984E-04
  3.214599400E+02  3.101519992E-03
  9.112416300E+01  1.266904997E-02
  2.999989100E+01  4.248012989E-02
  1.101763100E+01  1.150183297E-01
  4.372801000E+00  2.398650094E-01
  1.831256000E+00  3.584300090E-01
  8.022610000E-01  3.048527792E-01
  3.626480000E-01  8.824261976E-02
  1.139950000E-01 -8.445899977E-04
  5.123700000E-02 -7.943959979E-03
  2.246800000E-02 -3.764419990E-03
  7.860000000E-03 -8.868999976E-05
   s  14
  9.497934400E+03 -1.244999993E-05
  1.416811200E+03 -7.838999954E-05
  3.214599400E+02 -4.007099976E-04
  9.112416300E+01 -1.645249990E-03
  2.999989100E+01 -5.634599967E-03
  1.101763100E+01 -1.590780991E-02
  4.372801000E+00 -3.612581979E-02
  1.831256000E+00 -6.459927962E-02
  8.022610000E-01 -1.008321794E-01
  3.626480000E-01 -9.757613942E-02
  1.139950000E-01  2.301215886E-01
  5.123700000E-02  6.102389764E-01
  2.246800000E-02  2.849406083E-01
  7.860000000E-03  4.026899976E-03
   p   9
  1.311950400E+01  1.524940000E-03
  3.077424200E+00  8.314830000E-03
  1.098800500E+00  1.933203000E-02
  4.357784000E-01  4.934293000E-02
  1.802432000E-01  1.623554000E-01
  7.613330000E-02  3.847505400E-01
  3.254650000E-02  4.336100400E-01
  1.401820000E-02  1.287005900E-01
  4.906400000E-03 -1.018520000E-03
 
   2
   s  14
  9.497934400E+03  9.668999974E-05
  1.416811200E+03  6.087099984E-04
  3.214599400E+02  3.101519992E-03
  9.112416300E+01  1.266904997E-02
  2.999989100E+01  4.248012989E-02
  1.101763100E+01  1.150183297E-01
  4.372801000E+00  2.398650094E-01
  1.831256000E+00  3.584300090E-01
  8.022610000E-01  3.048527792E-01
  3.626480000E-01  8.824261976E-02
  1.139950000E-01 -8.445899977E-04
  5.123700000E-02 -7.943959979E-03
  2.246800000E-02 -3.764419990E-03
  7.860000000E-03 -8.868999976E-05
   s  14
  9.497934400E+03 -1.244999993E-05
  1.416811200E+03 -7.838999954E-05
  3.214599400E+02 -4.007099976E-04
  9.112416300E+01 -1.645249990E-03
  2.999989100E+01 -5.634599967E-03
  1.101763100E+01 -1.590780991E-02
  4.372801000E+00 -3.612581979E-02
  1.831256000E+00 -6.459927962E-02
  8.022610000E-01 -1.008321794E-01
  3.626480000E-01 -9.757613942E-02
  1.139950000E-01  2.301215886E-01
  5.123700000E-02  6.102389764E-01
  2.246800000E-02  2.849406083E-01
  7.860000000E-03  4.026899976E-03
   p   9
  1.311950400E+01  1.524940000E-03
  3.077424200E+00  8.314830000E-03
  1.098800500E+00  1.933203000E-02
  4.357784000E-01  4.934293000E-02
  1.802432000E-01  1.623554000E-01
  7.613330000E-02  3.847505400E-01
  3.254650000E-02  4.336100400E-01
  1.401820000E-02  1.287005900E-01
  4.906400000E-03 -1.018520000E-03
 
[MO]
Sym=     1a  
Ene=    -3.1243
Spin= Alpha
Occup=    2.00000
   1         0.01032122
   2        -0.01143586
   3        -0.00000000
   4         0.00000000
   5        -0.00002071
   6         1.00137676
   7         0.02110154
   8         0.00000000
   9         0.00000000
  10        -0.01013439
Sym=     2a  
Ene=    -3.1234
Spin= Alpha
Occup=    1.99990
   1        -1.00129623
   2        -0.01977245
   3        -0.00000000
   4        -0.00000000
   5        -0.00951436
   6         0.03086690
   7         0.01029543
   8        -0.00000000
   9        -0.00000000
  10         0.00054335
Sym=     3a  
Ene=    -0.0019
Spin= Alpha
Occup=    0.00010
   1        -1.41552423
   2        -5.36491241
   3         0.00000000
   4         0.00000000
   5        -1.89895898
   6         1.19876181
   7         5.73616930
   8         0.00000000
   9        -0.00000000
  10        -2.59959819
Sym=     4a  
Ene=    -0.3550
Spin= Alpha
Occup=    0.00000
   1        -0.00000000
   2        -0.00000000
   3         0.33548864
   4         0.41192255
   5        -0.00000000
   6         0.00000000
   7        -0.00000000
   8         0.33534428
   9         0.41174531
  10        -0.00000000
Sym=     5a  
Ene=    -0.3550
Spin= Alpha
Occup=    0.00000
   1         0.00000000
   2         0.00000000
   3        -0.41192255
   4         0.33548864
   5         0.00000000
   6        -0.00000000
   7         0.00000000
   8        -0.41174531
   9         0.33534428
  10         0.00000000
Sym=     6a  
Ene=    -0.3530
Spin= Alpha
Occup=    0.00000
   1         0.04941461
   2         0.24062877
   3         0.00000000
   4        -0.00000000
   5         0.47425816
   6        -0.14445429
   7         0.35582091
   8         0.00000000
   9        -0.00000000
  10         0.49307092
Sym=     7a  
Ene=    -0.2913
Spin= Alpha
Occup=    0.00000
   1        -0.18127818
   2        -0.87478114
   3         0.00000000
   4         0.00000000
   5         0.92473273
   6        -0.06666898
   7        -0.02590867
   8        -0.00000000
   9         0.00000000
  10        -0.87756721
Sym=     8a  
Ene=    -0.2336
Spin= Alpha
Occup=    0.00000
   1        -0.00000000
   2        -0.00000000
   3        -1.48179825
   4         0.02241168
   5         0.00000000
   6        -0.00000000
   7        -0.00000000
   8         1.48188016
   9        -0.02241292
  10        -0.00000000
Sym=     9a  
Ene=    -0.2336
Spin= Alpha
Occup=    0.00000
   1        -0.00000000
   2        -0.00000000
   3         0.02241168
   4         1.48179825
   5        -0.00000000
   6         0.00000000
   7         0.00000000
   8        -0.02241292
   9        -1.48188016
  10        -0.00000000
Sym=    10a  
Ene=     0.0510
Spin= Alpha
Occup=    0.00000
   1        -1.06896735
   2        -5.58174235
   3        -0.00000000
   4        -0.00000000
   5        -2.22707519
   6         1.31086020
   7         5.26595949
   8        -0.00000000
   9         0.00000000
  10        -1.36923124
