[Molden Format]
[N_Atoms]
                     2
[Atoms] (AU)
LI1         1      3           0.00000000      0.00000000      0.00000000
LI2         2      3           0.00000000      0.00000000      3.02356180
[Charge] (Mulliken)
 -4.010125564946065E-013
  4.014566457044566E-013
[GTO] (AU)
   1
   s  14
  9.497934400E+03  9.668999974E-05
  1.416811200E+03  6.087099984E-04
  3.214599400E+02  3.101519992E-03
  9.112416300E+01  1.266904997E-02
  2.999989100E+01  4.248012989E-02
  1.101763100E+01  1.150183297E-01
  4.372801000E+00  2.398650094E-01
  1.831256000E+00  3.584300090E-01
  8.022610000E-01  3.048527792E-01
  3.626480000E-01  8.824261976E-02
  1.139950000E-01 -8.445899977E-04
  5.123700000E-02 -7.943959979E-03
  2.246800000E-02 -3.764419990E-03
  7.860000000E-03 -8.868999976E-05
   s  14
  9.497934400E+03 -1.244999993E-05
  1.416811200E+03 -7.838999954E-05
  3.214599400E+02 -4.007099976E-04
  9.112416300E+01 -1.645249990E-03
  2.999989100E+01 -5.634599967E-03
  1.101763100E+01 -1.590780991E-02
  4.372801000E+00 -3.612581979E-02
  1.831256000E+00 -6.459927962E-02
  8.022610000E-01 -1.008321794E-01
  3.626480000E-01 -9.757613942E-02
  1.139950000E-01  2.301215886E-01
  5.123700000E-02  6.102389764E-01
  2.246800000E-02  2.849406083E-01
  7.860000000E-03  4.026899976E-03
   p   9
  1.311950400E+01  1.524940000E-03
  3.077424200E+00  8.314830000E-03
  1.098800500E+00  1.933203000E-02
  4.357784000E-01  4.934293000E-02
  1.802432000E-01  1.623554000E-01
  7.613330000E-02  3.847505400E-01
  3.254650000E-02  4.336100400E-01
  1.401820000E-02  1.287005900E-01
  4.906400000E-03 -1.018520000E-03
 
   2
   s  14
  9.497934400E+03  9.668999974E-05
  1.416811200E+03  6.087099984E-04
  3.214599400E+02  3.101519992E-03
  9.112416300E+01  1.266904997E-02
  2.999989100E+01  4.248012989E-02
  1.101763100E+01  1.150183297E-01
  4.372801000E+00  2.398650094E-01
  1.831256000E+00  3.584300090E-01
  8.022610000E-01  3.048527792E-01
  3.626480000E-01  8.824261976E-02
  1.139950000E-01 -8.445899977E-04
  5.123700000E-02 -7.943959979E-03
  2.246800000E-02 -3.764419990E-03
  7.860000000E-03 -8.868999976E-05
   s  14
  9.497934400E+03 -1.244999993E-05
  1.416811200E+03 -7.838999954E-05
  3.214599400E+02 -4.007099976E-04
  9.112416300E+01 -1.645249990E-03
  2.999989100E+01 -5.634599967E-03
  1.101763100E+01 -1.590780991E-02
  4.372801000E+00 -3.612581979E-02
  1.831256000E+00 -6.459927962E-02
  8.022610000E-01 -1.008321794E-01
  3.626480000E-01 -9.757613942E-02
  1.139950000E-01  2.301215886E-01
  5.123700000E-02  6.102389764E-01
  2.246800000E-02  2.849406083E-01
  7.860000000E-03  4.026899976E-03
   p   9
  1.311950400E+01  1.524940000E-03
  3.077424200E+00  8.314830000E-03
  1.098800500E+00  1.933203000E-02
  4.357784000E-01  4.934293000E-02
  1.802432000E-01  1.623554000E-01
  7.613330000E-02  3.847505400E-01
  3.254650000E-02  4.336100400E-01
  1.401820000E-02  1.287005900E-01
  4.906400000E-03 -1.018520000E-03
 
[MO]
Sym=     1a  
Ene=    -2.5323
Spin= Alpha
Occup=    1.00000
   1         0.70127556
   2         0.00796074
   3         0.00000000
   4         0.00000000
   5         0.00469965
   6         0.70127556
   7         0.00796074
   8        -0.00000000
   9        -0.00000000
  10        -0.00469965
Sym=     1a  
Ene=    -2.5323
Spin= Beta
Occup=    1.00000
   1         0.70127556
   2         0.00796074
   3         0.00000000
   4         0.00000000
   5         0.00469965
   6         0.70127556
   7         0.00796074
   8        -0.00000000
   9        -0.00000000
  10        -0.00469965
Sym=     2a  
Ene=    -2.5055
Spin= Alpha
Occup=    1.00000
   1        -0.71237686
   2        -0.00962082
   3        -0.00000000
   4        -0.00000000
   5        -0.00103413
   6         0.71237686
   7         0.00962082
   8        -0.00000000
   9        -0.00000000
  10        -0.00103413
Sym=     2a  
Ene=    -2.5055
Spin= Beta
Occup=    1.00000
   1        -0.71237686
   2        -0.00962082
   3        -0.00000000
   4        -0.00000000
   5        -0.00103413
   6         0.71237686
   7         0.00962082
   8        -0.00000000
   9        -0.00000000
  10        -0.00103413
Sym=     3a  
Ene=    -0.2031
Spin= Alpha
Occup=    1.00000
   1        -0.11079861
   2         0.49796581
   3        -0.00000000
   4         0.00000000
   5         0.12355686
   6        -0.11079861
   7         0.49796581
   8         0.00000000
   9        -0.00000000
  10        -0.12355686
Sym=     3a  
Ene=    -0.2031
Spin= Beta
Occup=    1.00000
   1        -0.11079861
   2         0.49796581
   3        -0.00000000
   4         0.00000000
   5         0.12355686
   6        -0.11079861
   7         0.49796581
   8         0.00000000
   9        -0.00000000
  10        -0.12355686
Sym=     4a  
Ene=     0.0174
Spin= Alpha
Occup=    0.00000
   1         0.00000000
   2        -0.00000000
   3         0.30601380
   4         0.43412780
   5        -0.00000000
   6         0.00000000
   7         0.00000000
   8         0.30601380
   9         0.43412780
  10         0.00000000
Sym=     4a  
Ene=     0.0174
Spin= Beta
Occup=    0.00000
   1         0.00000000
   2        -0.00000000
   3         0.30601380
   4         0.43412780
   5        -0.00000000
   6         0.00000000
   7         0.00000000
   8         0.30601380
   9         0.43412780
  10         0.00000000
Sym=     5a  
Ene=     0.0174
Spin= Alpha
Occup=    0.00000
   1         0.00000000
   2        -0.00000000
   3         0.43412780
   4        -0.30601380
   5         0.00000000
   6        -0.00000000
   7         0.00000000
   8         0.43412780
   9        -0.30601380
  10         0.00000000
Sym=     5a  
Ene=     0.0174
Spin= Beta
Occup=    0.00000
   1         0.00000000
   2        -0.00000000
   3         0.43412780
   4        -0.30601380
   5         0.00000000
   6        -0.00000000
   7         0.00000000
   8         0.43412780
   9        -0.30601380
  10         0.00000000
Sym=     6a  
Ene=     0.0256
Spin= Alpha
Occup=    0.00000
   1         0.04466283
   2        -0.39128149
   3        -0.00000000
   4        -0.00000000
   5         0.46292087
   6        -0.04466283
   7         0.39128149
   8        -0.00000000
   9        -0.00000000
  10         0.46292087
Sym=     6a  
Ene=     0.0256
Spin= Beta
Occup=    0.00000
   1         0.04466283
   2        -0.39128149
   3        -0.00000000
   4        -0.00000000
   5         0.46292087
   6        -0.04466283
   7         0.39128149
   8        -0.00000000
   9        -0.00000000
  10         0.46292087
Sym=     7a  
Ene=     0.1079
Spin= Alpha
Occup=    0.00000
   1         0.17679039
   2         0.32116771
   3        -0.00000000
   4         0.00000000
   5        -1.05053325
   6         0.17679039
   7         0.32116771
   8         0.00000000
   9        -0.00000000
  10         1.05053325
Sym=     7a  
Ene=     0.1079
Spin= Beta
Occup=    0.00000
   1         0.17679039
   2         0.32116771
   3        -0.00000000
   4         0.00000000
   5        -1.05053325
   6         0.17679039
   7         0.32116771
   8         0.00000000
   9        -0.00000000
  10         1.05053325
Sym=     8a  
Ene=     0.1621
Spin= Alpha
Occup=    0.00000
   1        -0.00000000
   2        -0.00000000
   3        -1.48194515
   4         0.01372344
   5         0.00000000
   6        -0.00000000
   7         0.00000000
   8         1.48194515
   9        -0.01372344
  10        -0.00000000
Sym=     8a  
Ene=     0.1621
Spin= Beta
Occup=    0.00000
   1        -0.00000000
   2        -0.00000000
   3        -1.48194515
   4         0.01372344
   5         0.00000000
   6        -0.00000000
   7         0.00000000
   8         1.48194515
   9        -0.01372344
  10        -0.00000000
Sym=     9a  
Ene=     0.1621
Spin= Alpha
Occup=    0.00000
   1         0.00000000
   2         0.00000000
   3        -0.01372344
   4        -1.48194515
   5        -0.00000000
   6        -0.00000000
   7        -0.00000000
   8         0.01372344
   9         1.48194515
  10         0.00000000
Sym=     9a  
Ene=     0.1621
Spin= Beta
Occup=    0.00000
   1         0.00000000
   2         0.00000000
   3        -0.01372344
   4        -1.48194515
   5        -0.00000000
   6        -0.00000000
   7        -0.00000000
   8         0.01372344
   9         1.48194515
  10         0.00000000
Sym=    10a  
Ene=     0.9916
Spin= Alpha
Occup=    0.00000
   1        -1.77189451
   2        -7.76256549
   3         0.00000000
   4        -0.00000000
   5        -2.88320061
   6         1.77189451
   7         7.76256549
   8        -0.00000000
   9         0.00000000
  10        -2.88320061
Sym=    10a  
Ene=     0.9916
Spin= Beta
Occup=    0.00000
   1        -1.77189451
   2        -7.76256549
   3         0.00000000
   4        -0.00000000
   5        -2.88320061
   6         1.77189451
   7         7.76256549
   8        -0.00000000
   9         0.00000000
  10        -2.88320061
