[Molden Format]
[N_Atoms]
                     2
[Atoms] (AU)
C1          1      6           0.00000000      0.00000000      0.00000000
C2          2      6           0.00000000      0.00000000      4.34637009
[Charge] (Mulliken)
  1.279865102787880E-011
 -1.280842099049551E-011
[GTO] (AU)
   1
   s  14
  5.055750100E+04  1.128874000E-04
  7.524785600E+03  5.295373000E-04
  1.694327600E+03  2.450038300E-03
  4.728227900E+02  1.005398470E-02
  1.517107500E+02  3.545398060E-02
  5.391874600E+01  1.044071086E-01
  2.065931100E+01  2.412894918E-01
  8.383976000E+00  3.834225483E-01
  3.577015000E+00  3.078514393E-01
  1.547118000E+00  6.872442990E-02
  6.130130000E-01  2.224445000E-04
  2.460680000E-01  1.976748900E-03
  9.908700000E-02  2.057859400E-03
  3.468000000E-02  4.182020000E-04
   s  14
  5.055750100E+04 -2.507420000E-05
  7.524785600E+03 -1.175945000E-04
  1.694327600E+03 -5.456275000E-04
  4.728227900E+02 -2.245077100E-03
  1.517107500E+02 -8.043471800E-03
  5.391874600E+01 -2.442588710E-02
  2.065931100E+01 -6.136791180E-02
  8.383976000E+00 -1.177767835E-01
  3.577015000E+00 -1.550487783E-01
  1.547118000E+00 -1.933316860E-02
  6.130130000E-01  3.996930678E-01
  2.460680000E-01  5.589420949E-01
  9.908700000E-02  1.711195023E-01
  3.468000000E-02  7.456244600E-03
   p   9
  8.333315500E+01  1.344656000E-03
  1.955761100E+01  1.023555500E-02
  6.080365000E+00  4.520067100E-02
  2.179317000E+00  1.410756198E-01
  8.651500000E-01  3.047388085E-01
  3.619440000E-01  3.995281011E-01
  1.547400000E-01  2.719163432E-01
  6.542900000E-02  5.857669330E-02
  2.290000000E-02 -1.263813000E-04
 
   2
   s  14
  5.055750100E+04  1.128874000E-04
  7.524785600E+03  5.295373000E-04
  1.694327600E+03  2.450038300E-03
  4.728227900E+02  1.005398470E-02
  1.517107500E+02  3.545398060E-02
  5.391874600E+01  1.044071086E-01
  2.065931100E+01  2.412894918E-01
  8.383976000E+00  3.834225483E-01
  3.577015000E+00  3.078514393E-01
  1.547118000E+00  6.872442990E-02
  6.130130000E-01  2.224445000E-04
  2.460680000E-01  1.976748900E-03
  9.908700000E-02  2.057859400E-03
  3.468000000E-02  4.182020000E-04
   s  14
  5.055750100E+04 -2.507420000E-05
  7.524785600E+03 -1.175945000E-04
  1.694327600E+03 -5.456275000E-04
  4.728227900E+02 -2.245077100E-03
  1.517107500E+02 -8.043471800E-03
  5.391874600E+01 -2.442588710E-02
  2.065931100E+01 -6.136791180E-02
  8.383976000E+00 -1.177767835E-01
  3.577015000E+00 -1.550487783E-01
  1.547118000E+00 -1.933316860E-02
  6.130130000E-01  3.996930678E-01
  2.460680000E-01  5.589420949E-01
  9.908700000E-02  1.711195023E-01
  3.468000000E-02  7.456244600E-03
   p   9
  8.333315500E+01  1.344656000E-03
  1.955761100E+01  1.023555500E-02
  6.080365000E+00  4.520067100E-02
  2.179317000E+00  1.410756198E-01
  8.651500000E-01  3.047388085E-01
  3.619440000E-01  3.995281011E-01
  1.547400000E-01  2.719163432E-01
  6.542900000E-02  5.857669330E-02
  2.290000000E-02 -1.263813000E-04
 
[MO]
Sym=     1a  
Ene=   -11.2910
Spin= Alpha
Occup=    1.00000
   1         0.70706255
   2        -0.00217387
   3        -0.00000000
   4         0.00000000
   5         0.00048160
   6         0.70706254
   7        -0.00217387
   8         0.00000000
   9        -0.00000000
  10        -0.00048160
Sym=     1a  
Ene=   -11.2910
Spin= Beta
Occup=    1.00000
   1         0.70706255
   2        -0.00217387
   3        -0.00000000
   4         0.00000000
   5         0.00048160
   6         0.70706254
   7        -0.00217387
   8         0.00000000
   9        -0.00000000
  10        -0.00048160
Sym=     2a  
Ene=   -11.2910
Spin= Alpha
Occup=    1.00000
   1        -0.70715520
   2         0.00151268
   3        -0.00000000
   4         0.00000000
   5        -0.00084233
   6         0.70715521
   7        -0.00151268
   8         0.00000000
   9        -0.00000000
  10        -0.00084233
Sym=     2a  
Ene=   -11.2910
Spin= Beta
Occup=    1.00000
   1        -0.70715520
   2         0.00151268
   3        -0.00000000
   4         0.00000000
   5        -0.00084233
   6         0.70715521
   7        -0.00151268
   8         0.00000000
   9        -0.00000000
  10        -0.00084233
Sym=     3a  
Ene=    -0.7592
Spin= Alpha
Occup=    1.00000
   1        -0.00332799
   2         0.65274716
   3        -0.00000000
   4         0.00000000
   5         0.07633569
   6        -0.00332799
   7         0.65274716
   8         0.00000000
   9         0.00000000
  10        -0.07633569
Sym=     3a  
Ene=    -0.7592
Spin= Beta
Occup=    1.00000
   1        -0.00332799
   2         0.65274716
   3        -0.00000000
   4         0.00000000
   5         0.07633569
   6        -0.00332799
   7         0.65274716
   8         0.00000000
   9         0.00000000
  10        -0.07633569
Sym=     4a  
Ene=    -0.6475
Spin= Alpha
Occup=    1.00000
   1        -0.00492649
   2        -0.72792705
   3        -0.00000000
   4         0.00000000
   5         0.09500321
   6         0.00492649
   7         0.72792705
   8        -0.00000000
   9        -0.00000000
  10         0.09500321
Sym=     4a  
Ene=    -0.6475
Spin= Beta
Occup=    1.00000
   1        -0.00492649
   2        -0.72792705
   3        -0.00000000
   4         0.00000000
   5         0.09500321
   6         0.00492649
   7         0.72792705
   8        -0.00000000
   9        -0.00000000
  10         0.09500321
Sym=     5a  
Ene=    -0.2994
Spin= Alpha
Occup=    1.00000
   1         0.00979686
   2         0.18054027
   3         0.00000000
   4         0.00000000
   5        -0.64971975
   6         0.00979686
   7         0.18054027
   8        -0.00000000
   9        -0.00000000
  10         0.64971975
Sym=     5a  
Ene=    -0.2994
Spin= Beta
Occup=    1.00000
   1         0.00979686
   2         0.18054027
   3         0.00000000
   4         0.00000000
   5        -0.64971975
   6         0.00979686
   7         0.18054027
   8        -0.00000000
   9        -0.00000000
  10         0.64971975
Sym=     6a  
Ene=    -0.2450
Spin= Alpha
Occup=    1.00000
   1        -0.00000000
   2        -0.00000000
   3         0.67373868
   4         0.10411699
   5        -0.00000000
   6         0.00000000
   7         0.00000000
   8         0.67373868
   9         0.10411699
  10        -0.00000000
Sym=     6a  
Ene=    -0.2450
Spin= Beta
Occup=    1.00000
   1        -0.00000000
   2        -0.00000000
   3         0.67373868
   4         0.10411699
   5        -0.00000000
   6         0.00000000
   7         0.00000000
   8         0.67373868
   9         0.10411699
  10        -0.00000000
Sym=     7a  
Ene=     0.0338
Spin= Alpha
Occup=    0.00000
   1         0.00000000
   2         0.00000000
   3        -0.72690990
   4        -0.11233387
   5        -0.00000000
   6         0.00000000
   7         0.00000000
   8         0.72690990
   9         0.11233387
  10         0.00000000
Sym=     7a  
Ene=     0.0338
Spin= Beta
Occup=    0.00000
   1         0.00000000
   2         0.00000000
   3        -0.72690990
   4        -0.11233387
   5        -0.00000000
   6         0.00000000
   7         0.00000000
   8         0.72690990
   9         0.11233387
  10         0.00000000
Sym=     8a  
Ene=     0.0829
Spin= Alpha
Occup=    0.00000
   1         0.00000000
   2         0.00000000
   3        -0.10411699
   4         0.67373868
   5         0.00000000
   6        -0.00000000
   7        -0.00000000
   8        -0.10411699
   9         0.67373868
  10         0.00000000
Sym=     8a  
Ene=     0.0829
Spin= Beta
Occup=    0.00000
   1         0.00000000
   2         0.00000000
   3        -0.10411699
   4         0.67373868
   5         0.00000000
   6        -0.00000000
   7        -0.00000000
   8        -0.10411699
   9         0.67373868
  10         0.00000000
Sym=     9a  
Ene=     0.1510
Spin= Alpha
Occup=    0.00000
   1         0.01365911
   2         0.24821393
   3        -0.00000000
   4         0.00000000
   5         0.80107988
   6        -0.01365911
   7        -0.24821393
   8         0.00000000
   9        -0.00000000
  10         0.80107988
Sym=     9a  
Ene=     0.1510
Spin= Beta
Occup=    0.00000
   1         0.01365911
   2         0.24821393
   3        -0.00000000
   4         0.00000000
   5         0.80107988
   6        -0.01365911
   7        -0.24821393
   8         0.00000000
   9        -0.00000000
  10         0.80107988
Sym=    10a  
Ene=     0.1524
Spin= Alpha
Occup=    0.00000
   1         0.00000000
   2         0.00000000
   3         0.11233387
   4        -0.72690990
   5         0.00000000
   6        -0.00000000
   7        -0.00000000
   8        -0.11233387
   9         0.72690990
  10         0.00000000
Sym=    10a  
Ene=     0.1524
Spin= Beta
Occup=    0.00000
   1         0.00000000
   2         0.00000000
   3         0.11233387
   4        -0.72690990
   5         0.00000000
   6        -0.00000000
   7        -0.00000000
   8        -0.11233387
   9         0.72690990
  10         0.00000000
