[Molden Format]
[N_Atoms]
                     2
[Atoms] (AU)
C1          1      6           0.00000000      0.00000000      0.00000000
C2          2      6           0.00000000      0.00000000      4.34637009
[Charge] (Mulliken)
 -1.835980256714720E-010
  1.835962493146326E-010
[GTO] (AU)
   1
   s  14
  5.055750100E+04  1.128874000E-04
  7.524785600E+03  5.295373000E-04
  1.694327600E+03  2.450038300E-03
  4.728227900E+02  1.005398470E-02
  1.517107500E+02  3.545398060E-02
  5.391874600E+01  1.044071086E-01
  2.065931100E+01  2.412894918E-01
  8.383976000E+00  3.834225483E-01
  3.577015000E+00  3.078514393E-01
  1.547118000E+00  6.872442990E-02
  6.130130000E-01  2.224445000E-04
  2.460680000E-01  1.976748900E-03
  9.908700000E-02  2.057859400E-03
  3.468000000E-02  4.182020000E-04
   s  14
  5.055750100E+04 -2.507420000E-05
  7.524785600E+03 -1.175945000E-04
  1.694327600E+03 -5.456275000E-04
  4.728227900E+02 -2.245077100E-03
  1.517107500E+02 -8.043471800E-03
  5.391874600E+01 -2.442588710E-02
  2.065931100E+01 -6.136791180E-02
  8.383976000E+00 -1.177767835E-01
  3.577015000E+00 -1.550487783E-01
  1.547118000E+00 -1.933316860E-02
  6.130130000E-01  3.996930678E-01
  2.460680000E-01  5.589420949E-01
  9.908700000E-02  1.711195023E-01
  3.468000000E-02  7.456244600E-03
   p   9
  8.333315500E+01  1.344656000E-03
  1.955761100E+01  1.023555500E-02
  6.080365000E+00  4.520067100E-02
  2.179317000E+00  1.410756198E-01
  8.651500000E-01  3.047388085E-01
  3.619440000E-01  3.995281011E-01
  1.547400000E-01  2.719163432E-01
  6.542900000E-02  5.857669330E-02
  2.290000000E-02 -1.263813000E-04
 
   2
   s  14
  5.055750100E+04  1.128874000E-04
  7.524785600E+03  5.295373000E-04
  1.694327600E+03  2.450038300E-03
  4.728227900E+02  1.005398470E-02
  1.517107500E+02  3.545398060E-02
  5.391874600E+01  1.044071086E-01
  2.065931100E+01  2.412894918E-01
  8.383976000E+00  3.834225483E-01
  3.577015000E+00  3.078514393E-01
  1.547118000E+00  6.872442990E-02
  6.130130000E-01  2.224445000E-04
  2.460680000E-01  1.976748900E-03
  9.908700000E-02  2.057859400E-03
  3.468000000E-02  4.182020000E-04
   s  14
  5.055750100E+04 -2.507420000E-05
  7.524785600E+03 -1.175945000E-04
  1.694327600E+03 -5.456275000E-04
  4.728227900E+02 -2.245077100E-03
  1.517107500E+02 -8.043471800E-03
  5.391874600E+01 -2.442588710E-02
  2.065931100E+01 -6.136791180E-02
  8.383976000E+00 -1.177767835E-01
  3.577015000E+00 -1.550487783E-01
  1.547118000E+00 -1.933316860E-02
  6.130130000E-01  3.996930678E-01
  2.460680000E-01  5.589420949E-01
  9.908700000E-02  1.711195023E-01
  3.468000000E-02  7.456244600E-03
   p   9
  8.333315500E+01  1.344656000E-03
  1.955761100E+01  1.023555500E-02
  6.080365000E+00  4.520067100E-02
  2.179317000E+00  1.410756198E-01
  8.651500000E-01  3.047388085E-01
  3.619440000E-01  3.995281011E-01
  1.547400000E-01  2.719163432E-01
  6.542900000E-02  5.857669330E-02
  2.290000000E-02 -1.263813000E-04
 
[MO]
Sym=     1a  
Ene=   -11.2930
Spin= Alpha
Occup=    2.00000
   1         0.70707123
   2        -0.00207122
   3         0.00000000
   4         0.00000000
   5        -0.00009809
   6         0.70707116
   7        -0.00207122
   8        -0.00000000
   9         0.00000000
  10         0.00009809
Sym=     2a  
Ene=   -11.2920
Spin= Alpha
Occup=    2.00000
   1        -0.70706148
   2         0.00867477
   3         0.00000000
   4         0.00000000
   5        -0.00086475
   6         0.70706155
   7        -0.00867477
   8        -0.00000000
   9         0.00000000
  10        -0.00086475
Sym=     3a  
Ene=    -0.7588
Spin= Alpha
Occup=    2.00000
   1        -0.00281296
   2         0.66081468
   3         0.00000000
   4         0.00000000
   5         0.04438494
   6        -0.00281296
   7         0.66081458
   8         0.00000000
   9        -0.00000000
  10        -0.04438495
Sym=     4a  
Ene=    -0.2500
Spin= Alpha
Occup=    2.00000
   1         0.00000000
   2        -0.00000000
   3        -0.33387212
   4         0.59438503
   5         0.00000000
   6        -0.00000000
   7         0.00000000
   8        -0.33387212
   9         0.59438503
  10         0.00000000
Sym=     5a  
Ene=    -0.2500
Spin= Alpha
Occup=    2.00000
   1         0.00000000
   2        -0.00000000
   3         0.59438503
   4         0.33387212
   5        -0.00000000
   6         0.00000000
   7        -0.00000000
   8         0.59438503
   9         0.33387212
  10         0.00000000
Sym=     6a  
Ene=    -0.6433
Spin= Alpha
Occup=    1.98124
   1        -0.01239632
   2        -0.74042911
   3        -0.00000000
   4        -0.00000000
   5         0.05078949
   6         0.01239632
   7         0.74042921
   8         0.00000000
   9        -0.00000000
  10         0.05078948
Sym=     7a  
Ene=     0.0000
Spin= Alpha
Occup=    0.01876
   1         0.00932235
   2         0.14831761
   3        -0.00000000
   4        -0.00000000
   5        -0.65268141
   6         0.00932235
   7         0.14831758
   8         0.00000000
   9        -0.00000000
  10         0.65268152
Sym=     8a  
Ene=     0.0275
Spin= Alpha
Occup=    0.00000
   1         0.00000000
   2         0.00000000
   3        -0.30908388
   4         0.66744592
   5         0.00000000
   6        -0.00000000
   7        -0.00000000
   8         0.30908388
   9        -0.66744592
  10         0.00000000
Sym=     9a  
Ene=     0.0275
Spin= Alpha
Occup=    0.00000
   1        -0.00000000
   2        -0.00000000
   3         0.66744592
   4         0.30908388
   5        -0.00000000
   6        -0.00000000
   7         0.00000000
   8        -0.66744592
   9        -0.30908388
  10        -0.00000000
Sym=    10a  
Ene=     0.2470
Spin= Alpha
Occup=    0.00000
   1        -0.01377211
   2        -0.20779709
   3        -0.00000000
   4         0.00000000
   5        -0.80509319
   6         0.01377211
   7         0.20779711
   8         0.00000000
   9         0.00000000
  10        -0.80509310
