[Molden Format]
[N_Atoms]
                     2
[Atoms] (AU)
C1          1      6           0.00000000      0.00000000      0.00000000
C2          2      6           0.00000000      0.00000000      4.34637009
[Charge] (Mulliken)
   1.00489023921837     
  0.995109760781601     
[GTO] (AU)
   1
   s  14
  5.055750100E+04  1.128874000E-04
  7.524785600E+03  5.295373000E-04
  1.694327600E+03  2.450038300E-03
  4.728227900E+02  1.005398470E-02
  1.517107500E+02  3.545398060E-02
  5.391874600E+01  1.044071086E-01
  2.065931100E+01  2.412894918E-01
  8.383976000E+00  3.834225483E-01
  3.577015000E+00  3.078514393E-01
  1.547118000E+00  6.872442990E-02
  6.130130000E-01  2.224445000E-04
  2.460680000E-01  1.976748900E-03
  9.908700000E-02  2.057859400E-03
  3.468000000E-02  4.182020000E-04
   s  14
  5.055750100E+04 -2.507420000E-05
  7.524785600E+03 -1.175945000E-04
  1.694327600E+03 -5.456275000E-04
  4.728227900E+02 -2.245077100E-03
  1.517107500E+02 -8.043471800E-03
  5.391874600E+01 -2.442588710E-02
  2.065931100E+01 -6.136791180E-02
  8.383976000E+00 -1.177767835E-01
  3.577015000E+00 -1.550487783E-01
  1.547118000E+00 -1.933316860E-02
  6.130130000E-01  3.996930678E-01
  2.460680000E-01  5.589420949E-01
  9.908700000E-02  1.711195023E-01
  3.468000000E-02  7.456244600E-03
   p   9
  8.333315500E+01  1.344656000E-03
  1.955761100E+01  1.023555500E-02
  6.080365000E+00  4.520067100E-02
  2.179317000E+00  1.410756198E-01
  8.651500000E-01  3.047388085E-01
  3.619440000E-01  3.995281011E-01
  1.547400000E-01  2.719163432E-01
  6.542900000E-02  5.857669330E-02
  2.290000000E-02 -1.263813000E-04
 
   2
   s  14
  5.055750100E+04  1.128874000E-04
  7.524785600E+03  5.295373000E-04
  1.694327600E+03  2.450038300E-03
  4.728227900E+02  1.005398470E-02
  1.517107500E+02  3.545398060E-02
  5.391874600E+01  1.044071086E-01
  2.065931100E+01  2.412894918E-01
  8.383976000E+00  3.834225483E-01
  3.577015000E+00  3.078514393E-01
  1.547118000E+00  6.872442990E-02
  6.130130000E-01  2.224445000E-04
  2.460680000E-01  1.976748900E-03
  9.908700000E-02  2.057859400E-03
  3.468000000E-02  4.182020000E-04
   s  14
  5.055750100E+04 -2.507420000E-05
  7.524785600E+03 -1.175945000E-04
  1.694327600E+03 -5.456275000E-04
  4.728227900E+02 -2.245077100E-03
  1.517107500E+02 -8.043471800E-03
  5.391874600E+01 -2.442588710E-02
  2.065931100E+01 -6.136791180E-02
  8.383976000E+00 -1.177767835E-01
  3.577015000E+00 -1.550487783E-01
  1.547118000E+00 -1.933316860E-02
  6.130130000E-01  3.996930678E-01
  2.460680000E-01  5.589420949E-01
  9.908700000E-02  1.711195023E-01
  3.468000000E-02  7.456244600E-03
   p   9
  8.333315500E+01  1.344656000E-03
  1.955761100E+01  1.023555500E-02
  6.080365000E+00  4.520067100E-02
  2.179317000E+00  1.410756198E-01
  8.651500000E-01  3.047388085E-01
  3.619440000E-01  3.995281011E-01
  1.547400000E-01  2.719163432E-01
  6.542900000E-02  5.857669330E-02
  2.290000000E-02 -1.263813000E-04
 
[MO]
Sym=     1a  
Ene=   -12.2750
Spin= Alpha
Occup=    2.00000
   1         0.99980808
   2        -0.01663888
   3        -0.00000000
   4         0.00000000
   5        -0.00089764
   6         0.01013312
   7         0.00137661
   8        -0.00000000
   9         0.00000000
  10         0.00044024
Sym=     2a  
Ene=   -12.2720
Spin= Alpha
Occup=    2.00000
   1        -0.01011767
   2        -0.00005448
   3        -0.00000000
   4         0.00000000
   5        -0.00008501
   6         0.99994087
   7        -0.00459421
   8        -0.00000000
   9         0.00000000
  10         0.00012816
Sym=     3a  
Ene=    -1.4285
Spin= Alpha
Occup=    2.00000
   1        -0.00678075
   2        -0.00528959
   3        -0.00000000
   4         0.00000000
   5         0.04236516
   6         0.00399061
   7         0.98890590
   8        -0.00000000
   9         0.00000000
  10        -0.07505320
Sym=     4a  
Ene=    -0.9675
Spin= Alpha
Occup=    2.00000
   1        -0.00000000
   2         0.00000000
   3        -0.25800477
   4         0.62778272
   5         0.00000001
   6        -0.00000000
   7        -0.00000000
   8        -0.26028411
   9         0.63332885
  10        -0.00000001
Sym=     5a  
Ene=    -0.6266
Spin= Alpha
Occup=    0.04839
   1        -0.00000000
   2         0.00000000
   3         0.92620143
   4         0.38064825
   5        -0.00000000
   6        -0.00000000
   7         0.00000000
   8        -0.01937824
   9        -0.00796403
  10         0.00000000
Sym=     6a  
Ene=    -0.0012
Spin= Alpha
Occup=    1.95161
   1        -0.01710316
   2        -1.00025797
   3        -0.00000000
   4         0.00000000
   5        -0.06645415
   6         0.00739568
   7         0.14089467
   8        -0.00000000
   9         0.00000000
  10         0.02712153
Sym=     7a  
Ene=    -0.7067
Spin= Alpha
Occup=    0.00000
   1        -0.00000000
   2        -0.00000000
   3         0.28065234
   4        -0.68288925
   5        -0.00000000
   6         0.00000000
   7         0.00000000
   8        -0.27853972
   9         0.67774879
  10        -0.00000000
Sym=     8a  
Ene=    -0.6917
Spin= Alpha
Occup=    0.00000
   1         0.00919427
   2         0.17478656
   3        -0.00000000
   4         0.00000001
   5        -0.65342603
   6         0.00937376
   7         0.18361589
   8        -0.00000000
   9         0.00000001
  10         0.64629519
Sym=     9a  
Ene=    -0.6122
Spin= Alpha
Occup=    0.00000
   1         0.00000000
   2         0.00000000
   3        -0.05098796
   4        -0.02095492
   5        -0.00000000
   6         0.00000000
   7         0.00000000
   8         0.92740139
   9         0.38114141
  10         0.00000000
Sym=    10a  
Ene=    -0.5215
Spin= Alpha
Occup=    0.00000
   1        -0.01349919
   2        -0.13710367
   3        -0.00000000
   4         0.00000000
   5        -0.80345570
   6         0.01345044
   7         0.13654531
   8         0.00000000
   9        -0.00000000
  10        -0.80910579
