   This run of MOLCAS is using the pymolcas driver

                             OPE
                             OPE          NMOL  CASOP  ENMOLC A   SO
                 OPE        NMOLC        AS  OP EN  MO LC     AS  OP
                OPENM       OL CA        SO  PE NM  OL CA     SOP EN
                OP EN      MO   LC       AS  OP ENMOL  CASO   PENMOL
                OP  EN     MO   LC       AS  OP EN     MO     LC ASO
               OP   E  NMOL  C  AS       OP  EN MO     LC     AS  OP
               OP  E   NMO   LC AS        OPEN  MO     LCASOP EN   M
               O  PEN   MO  LCA  SO
            OPE   NMO   L   CAS    OP
        OPENMOL  CASOP     ENMOL   CASOPE
     OPENMOLCA   SOPENMOLCASOPEN   MOLCASOPE
    OPENMOLCAS   OP           EN   MOL    CAS
    OPENMOLCAS       OP  ENM        O     LCA
    OPENMOLCAS    OPEN  MOLCASO     P  E  NMO
    OPENMOLCAS     OP               E  N  MOL
    OPENMOLCA   SO           PENM   O  L  CAS    OPEN    MO    LCAS
    OPENMOLCA   SOP           ENM   O  L  CAS   OP  EN  MOLC  AS   O
    OPENMOLCA   SOPE           NM      O  LCA   S      OP  EN MO
    OPENMOLC                AS         O  PEN   M      OL  CA  SOPE
    OPENMO        LCASOPE  NMOL        C  ASO   P      ENMOLC     AS
    OPE     NMO      LCA  SO     P     E   NM   OL  CA SO  PE N   MO
          OPENMOLCA            SOPE   NMO        LCAS  O    P  ENMO
     OPENMOLCASOPENMOLCASOPENMOLCASOPENMOLCA
        OPENMOLCASOPENMOLCASOPENMOLCASOPE
            OPENMOLCASOPENMOLCASOPENM
               OPENMOLCASOPENMOLCA        version: 1d1d16313-dirty
                   OPENMOLCASO
                       OPE                tag:

 OpenMolcas is free software; you can redistribute it and/or modify it
 under the terms of the GNU Lesser General Public License version 2.1.
 OpenMolcas is distributed in the hope that it will be useful, but it
 is provided "as is" and without any express or implied warranties.
 For more details see the full text of the license in the file
 LICENSE or in <http://www.gnu.org/licenses/>.

                 Copyright (C) The OpenMolcas Authors
           For the author list and the recommended citation,
                   consult the file CONTRIBUTORS.md

           *************************************************
           * pymolcas version py2.28                       *
           *   build c4a6d18ded8cb6cad61d2372a9abd97c      *
           *   (after the EMIL interpreter by V. Veryazov) *
           *************************************************

configuration info
------------------
C Compiler ID: IntelLLVM
C flags: -std=gnu99
Fortran Compiler ID: IntelLLVM
Fortran flags: -standard-semantics -fltconsistency -fpp -i8 -heap-arrays
Definitions: _MOLCAS_;_I8_;_LINUX_
Parallel: OFF (GA=OFF)


   ------------------------------------------------------------------------------
  |
  |              Project: ozone_127.25
  |       Submitted from: /home/grierjones/DDCASPT2/ozone/ANO-RCC-MB/ozone_127.25
  |         Scratch area: /tmp/ozone_127.25
  |      Save outputs to: /home/grierjones/DDCASPT2/ozone/ANO-RCC-MB/ozone_127.25
  |               Molcas: /home/grierjones/Test/build
  |
  | Scratch area is empty
  |
  |       MOLCAS_DRIVER = /usr/local/pymolcas
  | MOLCAS_KEEP_WORKDIR = NO
  |  MOLCAS_NEW_WORKDIR = YES
  |       MOLCAS_NPROCS = 1
  |        MOLCAS_PRINT = NORMAL
  |       MOLCAS_SOURCE = /home/grierjones/Test
  |    MOLCAS_STRUCTURE = 0
  |
   ------------------------------------------------------------------------------

++ ---------   Input file   ---------

&GATEWAY
coord=ozone_127.25.xyz
Basis = ANO-RCC-MB
Group = nosymm
Expert
End of Input

&SEWARD
End of Input

&SCF

>>> COPY $WorkDir/ozone_127.25.scf.h5 $CurrDir/

&RASSCF
Title= RASSCF
FileOrb
/home/grierjones/DDCASPT2/ozone/ANO-RCC-MB/ozone_127.00/ozone_127.00.RasOrb
NACTEL
4 0 0
Inactive
10
RAS2
3
Symmetry
1
Spin
1
orblisting
all
ITERation
300 200

>>> COPY $WorkDir/ozone_127.25.rasscf.h5 $CurrDir/

>>> COPY $WorkDir/GMJ_Fock_MO.csv $CurrDir/ozone_127.25.GMJ_Fock_MO.csv

>>> COPY $WorkDir/GMJ_PT2_Fock_MO.csv $CurrDir/ozone_127.25.GMJ_PT2_Fock_MO.csv

&MOTRA
Frozen=0
LUMORB

>>> COPY $WorkDir/GMJ_one_int_indx.csv $CurrDir/ozone_127.25.GMJ_one_int_indx.csv

>>> COPY $WorkDir/GMJ_one_int.csv $CurrDir/ozone_127.25.GMJ_one_int.csv

>>> COPY $WorkDir/GMJ_two_int_indx.csv $CurrDir/ozone_127.25.GMJ_two_int_indx.csv

>>> COPY $WorkDir/GMJ_two_int.csv $CurrDir/ozone_127.25.GMJ_two_int.csv

&CASPT2
Frozen
0
MAXITER
50

>>> FOREACH i IN (B,E,F,G,H)

  >>> FOREACH j IN (P,M)

    >>> IF (-FILE GMJ_e2_${i}_${j}.csv)

      >>> COPY $WorkDir/GMJ_RHS_${i}_${j}.csv $CurrDir/GMJ_RHS_${i}_${j}.csv

      >>> COPY $WorkDir/GMJ_IVECW_${i}_${j}.csv $CurrDir/GMJ_IVECW_${i}_${j}.csv

      >>> COPY $WorkDir/GMJ_IVECX_${i}_${j}.csv $CurrDir/GMJ_IVECX_${i}_${j}.csv

      >>> COPY $WorkDir/GMJ_IVECC2_${i}_${j}.csv $CurrDir/GMJ_IVECC2_${i}_${j}.csv

      >>> COPY $WorkDir/GMJ_e2_${i}_${j}.csv $CurrDir/GMJ_e2_${i}_${j}.csv

    >>> END IF

  >>> END FOREACH

>>> END FOREACH

>>> FOREACH i IN (A,C,D)

  >>> IF (-FILE GMJ_e2_$i.csv)

    >>> COPY $WorkDir/GMJ_RHS_$i.csv $CurrDir/GMJ_RHS_$i.csv

    >>> COPY $WorkDir/GMJ_IVECW_$i.csv $CurrDir/GMJ_IVECW_$i.csv

    >>> COPY $WorkDir/GMJ_IVECX_$i.csv $CurrDir/GMJ_IVECX_$i.csv

    >>> COPY $WorkDir/GMJ_IVECC2_$i.csv $CurrDir/GMJ_IVECC2_$i.csv

    >>> COPY $WorkDir/GMJ_e2_$i.csv $CurrDir/GMJ_e2_$i.csv

  >>> END IF

>>> END FOREACH

-- ----------------------------------

--- Start Module: gateway at Sat Jan 25 14:03:47 2025 ---
 
()()()()()()()()()()()()()()()()()()()()()()()()()()()()()()()()()()()()()()()()()()()()()()()()()()

                                              &GATEWAY

                                   only a single process is used
                       available to each process: 2.0 GB of memory, 1 thread?
()()()()()()()()()()()()()()()()()()()()()()()()()()()()()()()()()()()()()()()()()()()()()()()()()()
 
 ###############################################################################
 ###############################################################################
 ###                                                                         ###
 ###                                                                         ###
 ###                                                                         ###
 ###    WARNING: EXPERT option is ON!                                        ###
 ###                                                                         ###
 ###                                                                         ###
 ###############################################################################
 ###############################################################################
 
++    Symmetry information:
      ---------------------
 
                    Character Table for C1 
 
                             E  
                    a        1  x, y, xy, Rz, z, xz, Ry, yz, Rx, I
--
 
 
++    Basis set information:
      ----------------------
 
 
      Basis set label: O.ANO-RCC...2S1P.
 
      Electronic valence basis set:
      ------------------
      Associated Effective Charge   8.000000 au
      Associated Actual Charge      8.000000 au
      Nuclear Model: Point charge
 
      Shell  nPrim  nBasis  Cartesian Spherical Contaminant
         s      14       2        X                  
         p       9       1        X                  
--
 
 
++    Molecular structure info:
      -------------------------
 
                    ************************************************ 
                    **** Cartesian Coordinates / Bohr, Angstrom **** 
                    ************************************************ 
 
     Center  Label                x              y              z                     x              y              z
        1      O1               1.072881       2.163674       0.000000              0.567744       1.144967       0.000000
        2      O2               0.000000       0.000000       0.000000              0.000000       0.000000       0.000000
        3      O3               1.072881      -2.163674       0.000000              0.567744      -1.144967       0.000000
 
                    *************************************** 
                    *    InterNuclear Distances / Bohr    * 
                    *************************************** 
 
               1 O1            2 O2            3 O3    
    1 O1       0.000000
    2 O2       2.415069        0.000000
    3 O3       4.327348        2.415069        0.000000
 
                    ******************************************* 
                    *    InterNuclear Distances / Angstrom    * 
                    ******************************************* 
 
               1 O1            2 O2            3 O3    
    1 O1       0.000000
    2 O2       1.277999        0.000000
    3 O3       2.289934        1.277999        0.000000
 
                    ************************************** 
                    *    Valence Bond Angles / Degree    * 
                    ************************************** 
                          Atom centers                 Phi
                      1 O1       2 O2       3 O3       127.25
--
 
 
            Nuclear Potential Energy             67.79021415 au
 
 ###############################################################################
 ###############################################################################
 ###                                                                         ###
 ###                                                                         ###
 ###    There were warnings during the execution                             ###
 ###    Please, check the output with care!                                  ###
 ###                                                                         ###
 ###                                                                         ###
 ###############################################################################
 ###############################################################################
--- Stop Module: gateway at Sat Jan 25 14:03:47 2025 /rc=_RC_ALL_IS_WELL_ ---
*** files: xmldump
    saved to directory /home/grierjones/DDCASPT2/ozone/ANO-RCC-MB/ozone_127.25

--- Start Module: seward at Sat Jan 25 14:03:47 2025 ---
 
()()()()()()()()()()()()()()()()()()()()()()()()()()()()()()()()()()()()()()()()()()()()()()()()()()

                                              &SEWARD

                                   only a single process is used
                       available to each process: 2.0 GB of memory, 1 thread?
()()()()()()()()()()()()()()()()()()()()()()()()()()()()()()()()()()()()()()()()()()()()()()()()()()
 
 ###############################################################################
 ###############################################################################
 ###                                                                         ###
 ###                                                                         ###
 ###                                                                         ###
 ###    WARNING: EXPERT option is ON!                                        ###
 ###                                                                         ###
 ###                                                                         ###
 ###############################################################################
 ###############################################################################
               SEWARD will generate:
                  Multipole Moment integrals up to order  2
                  Kinetic Energy integrals
                  Nuclear Attraction integrals (point charge)
                  One-Electron Hamiltonian integrals
                  Velocity integrals
                  Relativistic Douglas-Kroll-Hess integrals:
                    - Parametrization         : EXP
                    - DKH order of Hamiltonian: 2
                    - DKH order of Properties : 0
                         - multipole moment operators
                         - electric potential operators
                         - contact operators
                  Atomic mean-field integrals
                  Two-Electron Repulsion integrals
 
                   Integrals are discarded if absolute value <: 0.10E-13
                   Integral cutoff threshold is set to       <: 0.10E-15
 
            Nuclear Potential Energy             67.79021415 au
 
 
      Basis set specifications :
      Symmetry species         a  
      Basis functions           15
 
 
  Input file to MOLDEN was generated!
 
 ###############################################################################
 ###############################################################################
 ###                                                                         ###
 ###                                                                         ###
 ###    There were warnings during the execution                             ###
 ###    Please, check the output with care!                                  ###
 ###                                                                         ###
 ###                                                                         ###
 ###############################################################################
 ###############################################################################
forrtl: warning (525): IEEE_DIVIDE_BY_ZERO is signaling
forrtl: warning (526): IEEE_INVALID is signaling
forrtl: warning (528): IEEE_UNDERFLOW is signaling
--- Stop Module: seward at Sat Jan 25 14:03:47 2025 /rc=_RC_ALL_IS_WELL_ ---
*** files: ozone_127.25.GssOrb ozone_127.25.guessorb.h5 ozone_127.25.guessorb.molden xmldump
    saved to directory /home/grierjones/DDCASPT2/ozone/ANO-RCC-MB/ozone_127.25

*** symbolic link created: INPORB -> ozone_127.25.GssOrb
--- Start Module: scf at Sat Jan 25 14:03:47 2025 ---
 
()()()()()()()()()()()()()()()()()()()()()()()()()()()()()()()()()()()()()()()()()()()()()()()()()()

                                                &SCF

                                   only a single process is used
                       available to each process: 2.0 GB of memory, 1 thread?
()()()()()()()()()()()()()()()()()()()()()()()()()()()()()()()()()()()()()()()()()()()()()()()()()()
 
++    Input section:
      --------------
 
      Header of the integral files:
      
       Integrals generated by seward 4.2.0  , Sat Jan 25 14:03:47 2025
 
 
      Cartesian coordinates in Angstrom:
      -----------------------------------------------------
      No.  Label        X            Y            Z        
      -----------------------------------------------------
       1   O1         0.56774400   1.14496700   0.00000000
       2   O2         0.00000000   0.00000000   0.00000000
       3   O3         0.56774400  -1.14496700   0.00000000
      -----------------------------------------------------
      Nuclear repulsion energy =   67.79021415
--
 
++    Orbital specifications:
      -----------------------
 
      Symmetry species               1
                                     a
      Frozen orbitals                0
      Occupied orbitals             12
      Secondary orbitals             3
      Deleted orbitals               0
      Total number of orbitals      15
      Number of basis functions     15
--
 
      Molecular charge                           0.000
 
++    Optimization specifications:
      ----------------------------
 
      SCF Algorithm: Conventional
      Minimized density differences are used
      Number of density matrices in core                5
      Maximum number of NDDO SCF iterations           400
      Maximum number of HF SCF iterations             400
      Threshold for SCF energy change            0.10E-08
      Threshold for density matrix               0.10E-03
      Threshold for Fock matrix                  0.15E-03
      Threshold for linear dependence            0.10E-08
      Threshold at which DIIS is turned on       0.15E+00
      Threshold at which QNR/C2DIIS is turned on 0.75E-01
      Threshold for Norm(delta) (QNR/C2DIIS)     0.20E-04
      DIIS extrapolation of the SCF procedure
      All orbitals punched on: SCFORB
--
 
      Input vectors read from INPORB
      Orbital file label: *Guess orbitals
 
 
++ Convergence information
                                   SCF        iterations: Energy and convergence statistics
 
Iter     Tot. SCF        One-elec.       Two-elec.     Energy      Max Dij or  Max Fij      DNorm      TNorm      AccCon     Time
         Energy          Energy          Energy        Change      Delta Norm                                                in Sec.
   1  -223.903989742  -439.235434859   147.541230968   0.00E+00    0.61E+00*   0.26E+00*    0.73E+01   0.49E+02   None         0.
   2  -224.157299973  -442.214292161   150.266778038  -0.25E+00*   0.41E+00*   0.14E+00*    0.23E+01   0.50E+02   EDIIS        0.
   3  -224.213289102  -440.855625482   148.852122230  -0.56E-01*   0.13E+00*   0.78E-01*    0.53E+00   0.50E+02   EDIIS        0.
   4  -224.241016506  -441.637001308   149.605770652  -0.28E-01*   0.17E-01*   0.24E-01*    0.92E-01   0.50E+02   c2DIIS       0.
   5  -224.245810848  -441.425706196   149.389681198  -0.48E-02*   0.63E-02*   0.38E-02*    0.19E-01   0.50E+02   QNRc2DIIS    0.
   6  -224.245915864  -441.432624845   149.396494831  -0.11E-03*   0.11E-01*   0.21E-02*    0.73E-02   0.50E+02   QNRc2DIIS    0.
   7  -224.245982345  -441.429363329   149.393166834  -0.66E-04*   0.82E-03*   0.11E-02*    0.42E-02   0.50E+02   QNRc2DIIS    0.
   8  -224.245985111  -441.432804901   149.396605641  -0.28E-05*   0.64E-03*   0.27E-03*    0.28E-03   0.50E+02   QNRc2DIIS    0.
   9  -224.245985648  -441.432546883   149.396347085  -0.54E-06*   0.49E-04*   0.27E-04     0.17E-03   0.50E+02   QNRc2DIIS    0.
  10  -224.245985651  -441.432609792   149.396409991  -0.35E-08*   0.32E-05    0.22E-05     0.34E-04   0.50E+02   QNRc2DIIS    0.
  11  -224.245985651  -441.432607774   149.396407973  -0.23E-10    0.15E-05    0.60E-06     0.78E-04   0.50E+02   QNRc2DIIS    0.
 
       Convergence after 11 Macro Iterations
--
 
 *****************************************************************************************************************************
 *                                                                                                                           *
 *                                             SCF/KS-DFT Program, Final results                                             *
 *                                                                                                                           *
 *                                                                                                                           *
 *                                                                                                                           *
 *                                                       Final Results                                                       *
 *                                                                                                                           *
 *****************************************************************************************************************************
 
::    Total SCF energy                               -224.2459856511
      One-electron energy                            -441.4326077737
      Two-electron energy                             149.3964079728
      Nuclear repulsion energy                         67.7902141498
      Kinetic energy (interpolated)                   224.7248442502
      Virial theorem                                    0.9978691337
      Total spin, S(S+1)                                0.0000000000
      Total spin, S                                     0.0000000000
      Max non-diagonal density matrix element           0.0000019601
      Max non-diagonal Fock matrix element              0.0000002555
 
 
      All orbitals with orbital energies smaller than  E(LUMO)+0.5 are printed
 
++    Molecular orbitals:
      -------------------
 
      Title: SCF orbitals

      Molecular orbitals for symmetry species 1: a  
 
          Orbital            1         2         3         4         5         6         7         8         9        10    
          Energy          -21.0560  -20.7973  -20.7972   -1.7988   -1.4917   -1.1277   -0.8689   -0.8288   -0.8200   -0.6253
          Occ. No.          2.0000    2.0000    2.0000    2.0000    2.0000    2.0000    2.0000    2.0000    2.0000    2.0000
 
        1 O1     1s         0.0010   -0.7071    0.7071   -0.0184    0.0137    0.0101   -0.0155    0.0000   -0.0248    0.0044
        2 O1     2s        -0.0004   -0.0003    0.0001    0.2903   -0.5580    0.6098   -0.2677    0.0000   -0.4376    0.0685
        3 O1     2px       -0.0002    0.0005   -0.0005   -0.0512    0.0454    0.0820    0.1845    0.0000   -0.3187   -0.5629
        4 O1     2py        0.0002    0.0012   -0.0011   -0.0964    0.1017    0.0929   -0.2889    0.0000   -0.2812    0.4608
        5 O1     2pz       -0.0000   -0.0000   -0.0000   -0.0000    0.0000    0.0000   -0.0000    0.3477    0.0000   -0.0000
        6 O2     1s         1.0000    0.0000   -0.0018   -0.0232   -0.0000   -0.0156   -0.0062    0.0000    0.0000    0.0000
        7 O2     2s        -0.0000    0.0000   -0.0011    0.6567    0.0000   -0.6523   -0.0754    0.0000    0.0000    0.0000
        8 O2     2px        0.0014    0.0000   -0.0002    0.1384    0.0000    0.2025    0.7217   -0.0000   -0.0000   -0.0000
        9 O2     2py       -0.0000    0.0006    0.0000    0.0000   -0.3459   -0.0000    0.0000   -0.0000    0.5870   -0.1585
       10 O2     2pz        0.0000   -0.0000    0.0000    0.0000    0.0000    0.0000    0.0000    0.7312    0.0000    0.0000
       11 O3     1s         0.0010    0.7071    0.7071   -0.0184   -0.0137    0.0101   -0.0155   -0.0000    0.0248   -0.0044
       12 O3     2s        -0.0004    0.0003    0.0001    0.2903    0.5580    0.6098   -0.2677   -0.0000    0.4376   -0.0685
       13 O3     2px       -0.0002   -0.0005   -0.0005   -0.0512   -0.0454    0.0820    0.1845   -0.0000    0.3187    0.5629
       14 O3     2py       -0.0002    0.0012    0.0011    0.0964    0.1017   -0.0929    0.2889    0.0000   -0.2812    0.4608
       15 O3     2pz        0.0000   -0.0000   -0.0000    0.0000    0.0000    0.0000   -0.0000    0.3477    0.0000    0.0000
 
          Orbital           11        12        13        14    
          Energy           -0.5796   -0.5285   -0.1057    0.2179
          Occ. No.          2.0000    2.0000    0.0000    0.0000
 
        1 O1     1s         0.0064    0.0000   -0.0000   -0.0246
        2 O1     2s         0.0563    0.0000   -0.0000   -0.2963
        3 O1     2px        0.6637    0.0000   -0.0000    0.2060
        4 O1     2py       -0.0953   -0.0000    0.0000    0.7133
        5 O1     2pz        0.0000   -0.7210    0.6370    0.0000
        6 O2     1s         0.0184    0.0000   -0.0000    0.0828
        7 O2     2s         0.2173    0.0000   -0.0000    0.8269
        8 O2     2px       -0.5401   -0.0000    0.0000    0.5593
        9 O2     2py        0.0000   -0.0000    0.0000   -0.0000
       10 O2     2pz       -0.0000    0.0000   -0.7476   -0.0000
       11 O3     1s         0.0064   -0.0000   -0.0000   -0.0246
       12 O3     2s         0.0563    0.0000   -0.0000   -0.2963
       13 O3     2px        0.6637    0.0000   -0.0000    0.2060
       14 O3     2py        0.0953   -0.0000    0.0000   -0.7133
       15 O3     2pz       -0.0000    0.7210    0.6370   -0.0000
--
 
 
++    Molecular charges:
      ------------------
 
      Mulliken charges per centre and basis function type
      ---------------------------------------------------
 
                O1      O2      O3    
      1s       2.0001  2.0001  2.0001
      2s       1.9164  1.7563  1.9164
      2px      1.7879  1.7105  1.7879
      2pz      1.3582  1.2835  1.3582
      2py      0.9982  1.1279  0.9982
      Total    8.0609  7.8783  8.0609
 
      N-E     -0.0609  0.1217 -0.0609
 
      Total electronic charge=   24.000000
 
      Total            charge=   -0.000000
--
 
 
  Input file to MOLDEN was generated!
 
 
++    Static properties:
      ------------------
 
 
      LoProp Charges per center
 

                   O1       O2       O3    
      Nuclear      8.0000   8.0000   8.0000
      Electronic  -8.1084  -7.7832  -8.1084
 
      Total       -0.1084   0.2168  -0.1084
--
 
 
++    Natural Bond Order analysis
      ---------------------------
      Based on LoProp computed density
      -------------------------------------------------------------------------------------
      Atom A       Atom B       Bond Order | Atom A       Atom B       Bond Order
        O1           O2             2.000  |   O2           O3             2.000
      -------------------------------------------------------------------------------------
      NBO located     12.000 core electrons.
      NBO located      3.952 lone pair electrons.
      NBO located      8.000 electrons involved in    2 bonds.
      The remaining    0.048 electrons are to be considered as diffuse
--
 
 
++    Molecular properties:
      ---------------------
 
      Charge (e):
                      =   -0.0000
      Dipole Moment (Debye):
      Origin of the operator (Ang)=    0.0000    0.0000    0.0000
                   X= -1.3130E-01               Y= -1.0315E-11               Z= -5.5165E-14           Total=  1.3130E-01
      Quadrupole Moment (Debye*Ang):
      Origin of the operator (Ang)=    0.3785    0.0000    0.0000
                  XX= -1.7435E+01              XY= -2.8450E-12              XZ= -5.2684E-13              YY= -1.8391E+01
                  YZ=  1.2569E-13              ZZ= -1.5794E+01
      In traceless form (Debye*Ang)
                  XX= -3.4250E-01              XY= -4.2675E-12              XZ= -7.9026E-13              YY= -1.7762E+00
                  YZ=  1.8854E-13              ZZ=  2.1187E+00
--
 
 
  Input file to MOLDEN was generated!
 
 ###############################################################################
 ###############################################################################
 ###                                                                         ###
 ###                                                                         ###
 ###    RunFile label nBas                                                   ###
 ###    was used       78 times                                              ###
 ###                                                                         ###
 ###                                                                         ###
 ###############################################################################
 ###############################################################################
forrtl: warning (528): IEEE_UNDERFLOW is signaling
--- Stop Module: scf at Sat Jan 25 14:03:48 2025 /rc=_RC_ALL_IS_WELL_ ---
*** files: ozone_127.25.LprOrb ozone_127.25.LoProp.molden ozone_127.25.scf.molden ozone_127.25.ScfOrb ozone_127.25.scf.h5 xmldump
    saved to directory /home/grierjones/DDCASPT2/ozone/ANO-RCC-MB/ozone_127.25

>>> COPY /tmp/ozone_127.25/ozone_127.25.scf.h5 /home/grierjones/DDCASPT2/ozone/ANO-RCC-MB/ozone_127.25/

*** symbolic link created: INPORB -> ozone_127.25.ScfOrb
--- Start Module: rasscf at Sat Jan 25 14:03:48 2025 ---
 
()()()()()()()()()()()()()()()()()()()()()()()()()()()()()()()()()()()()()()()()()()()()()()()()()()

                                              &RASSCF

                                   only a single process is used
                       available to each process: 2.0 GB of memory, 1 thread?
()()()()()()()()()()()()()()()()()()()()()()()()()()()()()()()()()()()()()()()()()()()()()()()()()()
 
 
 *************** WARNING ****************
 ###############################################################################
 ###############################################################################
 ###                                                                         ###
 ###                                                                         ###
 ###    Too many macro-iterations.                                           ###
 ###                                                                         ###
 ###                                                                         ###
 ###############################################################################
 ###############################################################################
 Too many macro-iterations requested.
 Reset to maximum, new MAXIT=     200
 ****************************************
 
 *************** WARNING ****************
 ###############################################################################
 ###############################################################################
 ###                                                                         ###
 ###                                                                         ###
 ###    Too many SX-iterations.                                              ###
 ###                                                                         ###
 ###                                                                         ###
 ###############################################################################
 ###############################################################################
 Too many SX-iterations requested.
 Reset to maximum, new ITMAX=     100
 ****************************************
 
      Header of the ONEINT file:
      --------------------------
      
      Integrals generated by seward 4.2.0  , Sat Jan 25 14:03:47 2025
 
 
      OrdInt status: non-squared
 
 
      Cartesian coordinates in Angstrom:
      -----------------------------------------------------
      No.  Label        X            Y            Z        
      -----------------------------------------------------
       1   O1         0.56774400   1.14496700   0.00000000
       2   O2         0.00000000   0.00000000   0.00000000
       3   O3         0.56774400  -1.14496700   0.00000000
      -----------------------------------------------------
      Nuclear repulsion energy =   67.79021415
 
++    Wave function specifications:
      -----------------------------
 
      Number of closed shell electrons          20
      Number of electrons in active shells       4
      Max number of holes in RAS1 space          0
      Max nr of electrons in RAS3 space          0
      Number of inactive orbitals               10
      Number of active orbitals                  3
      Number of secondary orbitals               2
      Spin quantum number                      0.0
      State symmetry                             1
--
 
++    Orbital specifications:
      -----------------------
 
      Symmetry species                           1
                                                 a
      Frozen orbitals                            0
      Inactive orbitals                         10
      Active orbitals                            3
      RAS1 orbitals                              0
      RAS2 orbitals                              3
      RAS3 orbitals                              0
      Secondary orbitals                         2
      Deleted orbitals                           0
      Number of basis functions                 15
--
 
++    CI expansion specifications:
      ----------------------------
 
      Number of CSFs                             6
      Number of determinants                     6
      Number of root(s) required                 1
      Root chosen for geometry opt.              1
      CI root used                               1
         
      highest root included in the CI            1
      max. size of the explicit Hamiltonian      6
--
 
++    Optimization specifications:
      ----------------------------
 
      RASSCF algorithm: Conventional
      Maximum number of macro iterations       200
      Maximum number of SX iterations          100
      Threshold for RASSCF energy            0.100E-07
      Threshold for max MO rotation          0.100E+00
      Threshold for max BLB element          0.100E-03
      Level shift parameter                  0.500E+00
      Make Quasi-Newton update
--
 
      The MO-coefficients are taken from the file:
      /home/grierjones/DDCASPT2/ozone/ANO-RCC-MB/ozone_127.00/ozone_127.00.RasOrb                                                     
      Title: RASSCF average (pseudo-natural) orbitals                                      
 
      Total molecular charge    0.00
 
      ************************************************************************************************************************
      *                                                                                                                      *
      *                                            Wave function control section                                             *
      *                                                                                                                      *
      ************************************************************************************************************************
 
 
                                         RASSCF iterations: Energy and convergence statistics
                                         ----------------------------------------------------
 
      Iter CI   SX   CI       RASSCF       Energy    max ROT     max BLB   max BLB  Level Ln srch  Step   QN   Walltime
          iter iter root      energy       change     param      element    value   shift minimum  type update hh:mm:ss
 Nr of preliminary CI iterations:   1
        1   1    3    1  -224.36043542    0.00E+00   0.63E-03    7  14 1 -0.16E-02*  0.24   0.00    SX    NO    0:00:00
        2   1    3    1  -224.36043898   -0.36E-05* -0.32E-03    9  15 1  0.86E-03*  0.24   0.00    SX    NO    0:00:00
        3   1    3    1  -224.36044011   -0.11E-05* -0.22E-03    7  14 1 -0.56E-03*  0.24   0.00    SX    NO    0:00:00
        4   1    3    1  -224.36044054   -0.43E-06*  0.11E-03    9  15 1  0.29E-03*  0.24   0.00    SX    NO    0:00:00
        5   1    2    1  -224.36044070   -0.15E-06*  0.16E-03    7  14 1 -0.19E-03*  0.24   2.45    LS   YES    0:00:00
        6   1    2    1  -224.36044079   -0.95E-07* -0.42E-04   10  14 1 -0.53E-04   0.24   1.13    QN   YES    0:00:00
        7   1    2    1  -224.36044079   -0.42E-08   0.24E-04   10  14 1 -0.23E-04   0.24   1.39    QN   YES    0:00:00
      Convergence after  7 iterations
 
  Dmat in MO in SXCTL bf call to SXHAM                                                                                    
  mat. size =     3x    3
 
        1.9919697741494089
       -0.0000000000008258      1.5428916522703269
        0.0006935521064822     -0.0000000000007127      0.4651385735802641
        8   1    2    1  -224.36044080   -0.10E-08   0.24E-04    7  14 1  0.87E-05   0.24   1.39    QN   YES    0:00:00
 
      ************************************************************************************************************************
                                                      Wave function printout:
                       occupation of active orbitals, and spin coupling of open shells (u,d: Spin up or down)
      ************************************************************************************************************************
 
      Note: transformation to natural orbitals
      has been made, which may change the order of the CSFs.
 
      printout of CI-coefficients larger than  0.05 for root  1
      energy=    -224.360441
      conf/sym  111     Coeff  Weight
             1  220  -0.87603 0.76743
             3  202   0.47807 0.22855
             6  022   0.06336 0.00401
 
      Natural orbitals and occupation numbers for root  1
      sym 1:   1.991970   1.542892   0.465138
 
      ************************************************************************************************************************
      *                                                                                                                      *
      *                                                    Final results                                                     *
      *                                                                                                                      *
      ************************************************************************************************************************
 
 
++    Wave function specifications:
      -----------------------------
 
      Number of closed shell electrons          20
      Number of electrons in active shells       4
      Max number of holes in RAS1 space          0
      Max nr of electrons in RAS3 space          0
      Number of inactive orbitals               10
      Number of active orbitals                  3
      Number of secondary orbitals               2
      Spin quantum number                      0.0
      State symmetry                             1
--
 
++    Orbital specifications:
      -----------------------
 
      Symmetry species                           1
                                                 a
      Frozen orbitals                            0
      Inactive orbitals                         10
      Active orbitals                            3
      RAS1 orbitals                              0
      RAS2 orbitals                              3
      RAS3 orbitals                              0
      Secondary orbitals                         2
      Deleted orbitals                           0
      Number of basis functions                 15
--
 
++    CI expansion specifications:
      ----------------------------
 
      Number of CSFs                             6
      Number of determinants                     6
      Number of root(s) required                 1
      CI root used                               1
      highest root included in the CI            1
      Root passed to geometry opt.               1
--
 
++    Final optimization conditions:
      ------------------------------
 
      Average CI energy                            -224.36044080
      RASSCF energy for state  1                   -224.36044080
      Super-CI energy                                -0.00000000
      RASSCF energy change                           -0.00000000
      Max change in MO coefficients               0.199E-04
      Max non-diagonal density matrix element     0.240E-04
      Maximum BLB matrix element                  0.869E-05
      (orbital pair   7,  14 in symmetry   1)
      Norm of electronic gradient            0.107E-04
--
 
 
      Final state energy(ies):
      ------------------------
 
::    RASSCF root number  1 Total energy:   -224.36044080
 
++    Molecular orbitals:
      -------------------
 
      Pseudonatural active orbitals and approximate occupation numbers
 
 
 
 
      Molecular orbitals for symmetry species 1: a  
 
 
      Orbital                1         2         3         4         5         6         7         8         9        10
      Energy          -20.9216  -20.8286  -20.8286   -1.7650   -1.4834   -1.1159   -0.8340   -0.8113   -0.6392   -0.5706
      Occ. No.          2.0000    2.0000    2.0000    2.0000    2.0000    2.0000    2.0000    2.0000    2.0000    2.0000
 
    1 O1     1s         0.0026   -0.7071    0.7071   -0.0175    0.0117    0.0118   -0.0127   -0.0221    0.0043    0.0063
    2 O1     2s        -0.0005   -0.0002    0.0000    0.3216   -0.5834    0.6125   -0.2010   -0.3861    0.0688    0.0459
    3 O1     2px       -0.0001    0.0005   -0.0005   -0.0527    0.0435    0.0956    0.2629   -0.3591   -0.5470    0.6426
    4 O1     2py        0.0003    0.0012   -0.0010   -0.1048    0.1012    0.1275   -0.3207   -0.3077    0.4789   -0.0250
    5 O1     2pz       -0.0000    0.0000    0.0000    0.0000    0.0000    0.0000   -0.0000    0.0000    0.0000   -0.0000
    6 O2     1s         1.0000    0.0000   -0.0040   -0.0257   -0.0000   -0.0119   -0.0085    0.0000    0.0000    0.0241
    7 O2     2s         0.0005    0.0000   -0.0010    0.6128    0.0000   -0.6503   -0.1325    0.0000    0.0000    0.3017
    8 O2     2px        0.0017    0.0000   -0.0002    0.1374    0.0000    0.1302    0.6365   -0.0000   -0.0000   -0.5987
    9 O2     2py       -0.0000    0.0006    0.0000    0.0000   -0.3018   -0.0000    0.0000    0.5289   -0.1556    0.0000
   10 O2     2pz        0.0000    0.0000   -0.0000    0.0000    0.0000    0.0000   -0.0000   -0.0000    0.0000   -0.0000
   11 O3     1s         0.0026    0.7071    0.7071   -0.0175   -0.0117    0.0118   -0.0127    0.0221   -0.0043    0.0063
   12 O3     2s        -0.0005    0.0002    0.0000    0.3216    0.5834    0.6125   -0.2010    0.3861   -0.0688    0.0459
   13 O3     2px       -0.0001   -0.0005   -0.0005   -0.0527   -0.0435    0.0956    0.2629    0.3591    0.5470    0.6426
   14 O3     2py       -0.0003    0.0012    0.0010    0.1048    0.1012   -0.1275    0.3207   -0.3077    0.4789    0.0250
   15 O3     2pz        0.0000    0.0000    0.0000    0.0000   -0.0000    0.0000    0.0000    0.0000    0.0000    0.0000
 
 
      Orbital               11        12        13        14        15
      Energy            0.0000    0.0000    0.0000    0.2221    0.4423
      Occ. No.          1.9920    1.5429    0.4651    0.0000    0.0000
 
    1 O1     1s         0.0000   -0.0000   -0.0000   -0.0261   -0.0493
    2 O1     2s        -0.0000    0.0000   -0.0000   -0.3125   -0.4636
    3 O1     2px        0.0000   -0.0000    0.0000    0.1797    0.3791
    4 O1     2py       -0.0000   -0.0000   -0.0000    0.6990    0.5424
    5 O1     2pz        0.2303   -0.7210    0.6882   -0.0000   -0.0000
    6 O2     1s        -0.0000   -0.0000    0.0000    0.0808    0.0000
    7 O2     2s        -0.0000   -0.0000    0.0000    0.8285    0.0000
    8 O2     2px        0.0000    0.0000    0.0000    0.6214    0.0000
    9 O2     2py       -0.0000   -0.0000    0.0000   -0.0000    1.0722
   10 O2     2pz        0.8512    0.0000   -0.6074    0.0000    0.0000
   11 O3     1s        -0.0000    0.0000   -0.0000   -0.0261    0.0493
   12 O3     2s        -0.0000   -0.0000   -0.0000   -0.3125    0.4636
   13 O3     2px       -0.0000   -0.0000   -0.0000    0.1797   -0.3791
   14 O3     2py       -0.0000   -0.0000   -0.0000   -0.6990    0.5424
   15 O3     2pz        0.2303    0.7210    0.6882   -0.0000   -0.0000
--
 
      Von Neumann Entropy (Root  1) =  0.78397
 

      Mulliken population analysis for root number:  1
      -----------------------------------------------
 
 
++    Molecular charges:
      ------------------
 
      Mulliken charges per centre and basis function type
      ---------------------------------------------------
 
                O1      O2      O3    
      1s       2.0001  2.0001  2.0001
      2s       1.9074  1.7390  1.9074
      2px      1.8228  1.6090  1.8228
      2pz      1.1512  1.6977  1.1512
      2py      1.1030  0.9852  1.1030
      Total    7.9845  8.0310  7.9845
 
      N-E      0.0155 -0.0310  0.0155
 
      Total electronic charge=   24.000000
 
      Total            charge=   -0.000000
--
 
 

      Expectation values of various properties for root number:  1
      -----------------------------------------------------------
 
 
++    Molecular properties:
      ---------------------
 
      Charge (e):
                      =   -0.0000
      Dipole Moment (Debye):
      Origin of the operator (Ang)=    0.0000    0.0000    0.0000
                   X=  3.5768E-01               Y=  7.0931E-12               Z= -1.9633E-13           Total=  3.5768E-01
      Quadrupole Moment (Debye*Ang):
      Origin of the operator (Ang)=    0.3785    0.0000    0.0000
                  XX= -1.7558E+01              XY=  9.3778E-13              XZ= -2.8125E-13              YY= -1.7708E+01
                  YZ= -8.6605E-14              ZZ= -1.5531E+01
      In traceless form (Debye*Ang)
                  XX= -9.3814E-01              XY=  1.4067E-12              XZ= -4.2187E-13              YY= -1.1643E+00
                  YZ= -1.2991E-13              ZZ=  2.1024E+00
--
 

      LoProp population analysis for root number:  1
      -----------------------------------------------
 
 
++    LoProp analysis:
      ----------------
 
 
 
  Input file to MOLDEN was generated!
 
 
++    Static properties:
      ------------------
 
 
      LoProp Charges per center
 

                   O1       O2       O3    
      Nuclear      8.0000   8.0000   8.0000
      Electronic  -8.0162  -7.9675  -8.0162
 
      Total       -0.0162   0.0325  -0.0162
--
 
 
      Natural Bond Order analysis for root number:  1
 
++    Natural Bond Order analysis
      ---------------------------
      Based on LoProp computed density
      -------------------------------------------------------------------------------------
      Atom A       Atom B       Bond Order | Atom A       Atom B       Bond Order
        O1           O2             1.965  |   O2           O3             1.965
      -------------------------------------------------------------------------------------
      NBO located     12.000 core electrons.
      NBO located      3.947 lone pair electrons.
      NBO located      7.861 electrons involved in    2 bonds.
      The remaining    0.192 electrons are to be considered as diffuse
--
 
--
 
 
  Input file to MOLDEN was generated!
 
      Average orbitals are written to the RASORB file
      Natural orbitals for root   1 are written to the RASORB.1 file
      Spin density orbitals for root   1 are written to the SPDORB.1 file
 
forrtl: warning (525): IEEE_DIVIDE_BY_ZERO is signaling
forrtl: warning (526): IEEE_INVALID is signaling
forrtl: warning (528): IEEE_UNDERFLOW is signaling
--- Stop Module: rasscf at Sat Jan 25 14:03:48 2025 /rc=_RC_ALL_IS_WELL_ ---
*** files: ozone_127.25.LprOrb ozone_127.25.rasscf.molden ozone_127.25.LoProp.molden ozone_127.25.RasOrb ozone_127.25.RasOrb.1 ozone_127.25.rasscf.h5 ozone_127.25.SpdOrb.1 xmldump
    saved to directory /home/grierjones/DDCASPT2/ozone/ANO-RCC-MB/ozone_127.25

>>> COPY /tmp/ozone_127.25/ozone_127.25.rasscf.h5 /home/grierjones/DDCASPT2/ozone/ANO-RCC-MB/ozone_127.25/

>>> COPY /tmp/ozone_127.25/GMJ_Fock_MO.csv /home/grierjones/DDCASPT2/ozone/ANO-RCC-MB/ozone_127.25/ozone_127.25.GMJ_Fock_MO.csv

>>> COPY /tmp/ozone_127.25/GMJ_PT2_Fock_MO.csv /home/grierjones/DDCASPT2/ozone/ANO-RCC-MB/ozone_127.25/ozone_127.25.GMJ_PT2_Fock_MO.csv

*** symbolic link created: INPORB -> ozone_127.25.RasOrb
--- Start Module: motra at Sat Jan 25 14:03:48 2025 ---
 
()()()()()()()()()()()()()()()()()()()()()()()()()()()()()()()()()()()()()()()()()()()()()()()()()()

                                               &MOTRA

                                   only a single process is used
                       available to each process: 2.0 GB of memory, 1 thread?
()()()()()()()()()()()()()()()()()()()()()()()()()()()()()()()()()()()()()()()()()()()()()()()()()()
 
 
      *** WARNING: Default frozen orbitals is overwritten by user input.
      *** Default values:   3
 
      Header of the integral files:
      
       Integrals generated by seward 4.2.0  , Sat Jan 25 14:03:47 2025
 
 
      Header of MO coefficients source file:
      * RASSCF average (pseudo-natural) orbitals                                      
 
 
      Cartesian coordinates in Angstrom:
      -----------------------------------------------------
      No.  Label        X            Y            Z        
      -----------------------------------------------------
       1   O1         0.56774400   1.14496700   0.00000000
       2   O2         0.00000000   0.00000000   0.00000000
       3   O3         0.56774400  -1.14496700   0.00000000
      -----------------------------------------------------
      Nuclear repulsion energy =   67.79021415
 
      Orbital specifications:
      -----------------------
 
      Symmetry species:              1
      Number of basis functions:    15
      Frozen orbitals:               0
      Deleted orbitals:              0
      Number of orbitals used:      15

       SYMMETRY  BASIS FUNCTIONS       ORBITALS      INTEGRALS   CPU(SEC)  I/O(SEC)
 
        1 1 1 1   15  15  15  15    15  15  15  15        7260       0.00      0.00

       TOTAL CPU TIME(SEC)    0.00TOTAL I/O TIME(SEC)    0.01
 
--- Stop Module: motra at Sat Jan 25 14:03:48 2025 /rc=_RC_ALL_IS_WELL_ ---
*** files: xmldump
    saved to directory /home/grierjones/DDCASPT2/ozone/ANO-RCC-MB/ozone_127.25

>>> COPY /tmp/ozone_127.25/GMJ_one_int_indx.csv /home/grierjones/DDCASPT2/ozone/ANO-RCC-MB/ozone_127.25/ozone_127.25.GMJ_one_int_indx.csv

>>> COPY /tmp/ozone_127.25/GMJ_one_int.csv /home/grierjones/DDCASPT2/ozone/ANO-RCC-MB/ozone_127.25/ozone_127.25.GMJ_one_int.csv

>>> COPY /tmp/ozone_127.25/GMJ_two_int_indx.csv /home/grierjones/DDCASPT2/ozone/ANO-RCC-MB/ozone_127.25/ozone_127.25.GMJ_two_int_indx.csv

>>> COPY /tmp/ozone_127.25/GMJ_two_int.csv /home/grierjones/DDCASPT2/ozone/ANO-RCC-MB/ozone_127.25/ozone_127.25.GMJ_two_int.csv

*** symbolic link created: INPORB -> ozone_127.25.RasOrb
--- Start Module: caspt2 at Sat Jan 25 14:03:48 2025 ---
 
()()()()()()()()()()()()()()()()()()()()()()()()()()()()()()()()()()()()()()()()()()()()()()()()()()

                                              &CASPT2

                                   only a single process is used
                       available to each process: 2.0 GB of memory, 1 thread?
()()()()()()()()()()()()()()()()()()()()()()()()()()()()()()()()()()()()()()()()()()()()()()()()()()
 
 Cholesky algorithm in CASPT2 =    1
 
 ###############################################################################
 ###############################################################################
 ###                                                                         ###
 ###                                                                         ###
 ###    User changed nr of frozen orbitals.                                  ###
 ###                                                                         ###
 ###                                                                         ###
 ###############################################################################
 ###############################################################################
 
++    Wave function specifications:
      -----------------------------
 
      Number of closed shell electrons          20
      Number of electrons in active shells       4
      Max number of holes in RAS1 space          0
      Max number of electrons in RAS3 space      0
      Number of inactive orbitals               10
      Number of active orbitals                  3
      Number of secondary orbitals               2
      Spin quantum number                      0.0
      State symmetry                             1
      Number of CSFs                             6
      Number of root(s) available                1
      Root passed to geometry opt.               1
      A file JOBMIX will be created.
      This is a CASSCF or RASSCF reference function
--
 
++    Orbital specifications:
      -----------------------
 
      Symmetry species                           1
                                                 a
      Frozen orbitals                            0
      Inactive orbitals                         10
      Active orbitals                            3
      Secondary orbitals                         2
      Deleted orbitals                           0
      Number of basis functions                 15
--
 
      Type of Fock operator: STANDARD
      Type of 0-order Hamiltonian: STANDARD WITH DEFAULT IPEA
        "IP-EA" denominator shift =      0.25
      The input orbitals and the CI vector will be transformed.
 
--------------------------------------------------------------------------------
 Estimated memory requirements:
  POLY3 :                   250202
  RHS:                      251368
  SIGMA :                   251440
  PRPCTL:                        0
 Available workspace:    230399382
 
++ CASPT2 computation for group   1
 
********************************************************************************
 Multi-State initialization phase begins for group   1
--------------------------------------------------------------------------------
********************************************************************************
 Compute H0 matrices for state    1
--------------------------------------------------------------------------------
--------------------------------------------------------------------------------
 H0 matrices have been computed.
 
********************************************************************************
  CASPT2 EQUATION SOLUTION
--------------------------------------------------------------------------------
 
  Total nr of CASPT2 parameters:
   Before reduction:        2100
   After  reduction:        1232
-------------------------------------------------------------------------------------------------------------------
 
  FINAL CASPT2 RESULT:
 
  Correlation energy /Case, /Symm, and sums:
 VJTU     -0.00000000 -0.00000000
 VJTIP    -0.00082561 -0.00082561
 VJTIM     0.00000000  0.00000000
 ATVX     -0.00000000 -0.00000000
 AIVX     -0.04715177 -0.04715177
 VJAIP    -0.00000000 -0.00000000
 VJAIM    -0.00000000 -0.00000000
 BVATP    -0.00057309 -0.00057309
 BVATM    -0.00000079 -0.00000079
 BJATP    -0.00000000 -0.00000000
 BJATM    -0.00000000 -0.00000000
 BJAIP    -0.04344121 -0.04344121
 BJAIM    -0.00672206 -0.00672206
 Summed:  -0.09871454 -0.09871454
 
      Reference energy:        -224.3604407955
      E2 (Non-variational):      -0.0987145405
      E2 (Variational):          -0.0987145469
      Total energy:            -224.4591553424
      Residual norm:              0.0000002362
      Reference weight:           0.95202
 
      Contributions to the CASPT2 correlation energy
      Active & Virtual Only:         -0.0005738870
      One Inactive Excited:          -0.0471517727
      Two Inactive Excited:          -0.0509888808
 
 
++ Denominators, etc.
----------------------------------------------------------------------------------------------------
 Report on small energy denominators, large coefficients, and large energy contributions.
CASE  SYMM ACTIVE-MIX  NON-ACTIVE INDICES          DENOMINATOR     RHS VALUE       COEFFICIENT     CONTRIBUTION
AIVX     1  Mu1.0006  In1.004 Se1.014               2.70259362      0.06923188     -0.02561683     -0.00177350
AIVX     1  Mu1.0003  In1.005 Se1.014               1.99487770     -0.05632432      0.02823447     -0.00159029
AIVX     1  Mu1.0001  In1.007 Se1.014               0.97939262      0.02514190     -0.02567091     -0.00064542
AIVX     1  Mu1.0004  In1.007 Se1.014               1.58973067     -0.06563847      0.04128905     -0.00271015
AIVX     1  Mu1.0005  In1.007 Se1.014               1.61689201      0.04486866     -0.02774994     -0.00124510
AIVX     1  Mu1.0002  In1.008 Se1.014               1.24350375     -0.06963289      0.05599733     -0.00389926
AIVX     1  Mu1.0003  In1.008 Se1.014               1.32274081      0.03648432     -0.02758236     -0.00100632
AIVX     1  Mu1.0002  In1.009 Se1.014               1.07142896      0.05487976     -0.05122109     -0.00281100
AIVX     1  Mu1.0003  In1.009 Se1.014               1.15066602     -0.03766338      0.03273181     -0.00123279
AIVX     1  Mu1.0004  In1.010 Se1.014               1.32625426      0.03872026     -0.02919520     -0.00113045
AIVX     1  Mu1.0001  In1.008 Se1.015               1.17676831      0.03828514     -0.03253413     -0.00124557
AIVX     1  Mu1.0004  In1.008 Se1.015               1.78710636     -0.09851899      0.05512766     -0.00543112
AIVX     1  Mu1.0005  In1.008 Se1.015               1.81426770      0.06594705     -0.03634913     -0.00239712
AIVX     1  Mu1.0006  In1.008 Se1.015               1.96902808      0.07119855     -0.03615923     -0.00257448
AIVX     1  Mu1.0002  In1.010 Se1.015               1.22289643      0.05497200     -0.04495229     -0.00247112
AIVX     1  Mu1.0003  In1.010 Se1.015               1.30213349     -0.03606362      0.02769580     -0.00099881
BJAIP    1  Se1.014 In1.007 Se1.014 In1.007         2.11231427      0.06023605     -0.02851662     -0.00171773
BJAIP    1  Se1.014 In1.007 Se1.015 In1.008         2.30968996      0.07358615     -0.03185975     -0.00234444
BJAIP    1  Se1.014 In1.008 Se1.014 In1.008         2.06682086      0.06606899     -0.03196648     -0.00211199
BJAIP    1  Se1.015 In1.008 Se1.015 In1.008         2.50706565      0.11178533     -0.04458811     -0.00498430
BJAIP    1  Se1.014 In1.008 Se1.014 In1.009         1.89474607     -0.05329640      0.02812852     -0.00149915
BJAIP    1  Se1.014 In1.009 Se1.014 In1.009         1.72267128      0.05061530     -0.02938187     -0.00148717
BJAIP    1  Se1.014 In1.008 Se1.015 In1.010         2.04621354     -0.08247464      0.04030598     -0.00332422
BJAIP    1  Se1.015 In1.010 Se1.015 In1.010         2.02560623      0.05393442     -0.02662631     -0.00143607
BJAIM    1  Se1.014 In1.007 Se1.014 In1.008         2.30968996      0.07800718     -0.03377388     -0.00263460
--
 
   (Skipping property calculation,
    use PROP keyword to activate)
--
 
  Total CASPT2 energies:
::    CASPT2 Root  1     Total energy:   -224.45915534
 
  A NEW JOBIPH FILE NAMED 'JOBMIX' IS PREPARED.
********************************************************************************
forrtl: warning (528): IEEE_UNDERFLOW is signaling
--- Stop Module: caspt2 at Sat Jan 25 14:03:48 2025 /rc=_RC_ALL_IS_WELL_ ---
*** files: xmldump
    saved to directory /home/grierjones/DDCASPT2/ozone/ANO-RCC-MB/ozone_127.25

>>> EXPORT i = B

>>> EXPORT j = P

>>> IF (-FILE GMJ_e2_${i}_${j}.csv)

>>> COPY /tmp/ozone_127.25/GMJ_RHS_B_P.csv /home/grierjones/DDCASPT2/ozone/ANO-RCC-MB/ozone_127.25/GMJ_RHS_B_P.csv

>>> COPY /tmp/ozone_127.25/GMJ_IVECW_B_P.csv /home/grierjones/DDCASPT2/ozone/ANO-RCC-MB/ozone_127.25/GMJ_IVECW_B_P.csv

>>> COPY /tmp/ozone_127.25/GMJ_IVECX_B_P.csv /home/grierjones/DDCASPT2/ozone/ANO-RCC-MB/ozone_127.25/GMJ_IVECX_B_P.csv

>>> COPY /tmp/ozone_127.25/GMJ_IVECC2_B_P.csv /home/grierjones/DDCASPT2/ozone/ANO-RCC-MB/ozone_127.25/GMJ_IVECC2_B_P.csv

>>> COPY /tmp/ozone_127.25/GMJ_e2_B_P.csv /home/grierjones/DDCASPT2/ozone/ANO-RCC-MB/ozone_127.25/GMJ_e2_B_P.csv

>>> END FOREACH

>>> EXPORT j = M

>>> IF (-FILE GMJ_e2_${i}_${j}.csv)
(Skipped)

>>> END FOREACH

>>> END FOREACH

>>> EXPORT i = E

>>> EXPORT j = P

>>> IF (-FILE GMJ_e2_${i}_${j}.csv)

>>> COPY /tmp/ozone_127.25/GMJ_RHS_E_P.csv /home/grierjones/DDCASPT2/ozone/ANO-RCC-MB/ozone_127.25/GMJ_RHS_E_P.csv

>>> COPY /tmp/ozone_127.25/GMJ_IVECW_E_P.csv /home/grierjones/DDCASPT2/ozone/ANO-RCC-MB/ozone_127.25/GMJ_IVECW_E_P.csv

>>> COPY /tmp/ozone_127.25/GMJ_IVECX_E_P.csv /home/grierjones/DDCASPT2/ozone/ANO-RCC-MB/ozone_127.25/GMJ_IVECX_E_P.csv

>>> COPY /tmp/ozone_127.25/GMJ_IVECC2_E_P.csv /home/grierjones/DDCASPT2/ozone/ANO-RCC-MB/ozone_127.25/GMJ_IVECC2_E_P.csv

>>> COPY /tmp/ozone_127.25/GMJ_e2_E_P.csv /home/grierjones/DDCASPT2/ozone/ANO-RCC-MB/ozone_127.25/GMJ_e2_E_P.csv

>>> END FOREACH

>>> EXPORT j = M

>>> IF (-FILE GMJ_e2_${i}_${j}.csv)

>>> COPY /tmp/ozone_127.25/GMJ_RHS_E_M.csv /home/grierjones/DDCASPT2/ozone/ANO-RCC-MB/ozone_127.25/GMJ_RHS_E_M.csv

>>> COPY /tmp/ozone_127.25/GMJ_IVECW_E_M.csv /home/grierjones/DDCASPT2/ozone/ANO-RCC-MB/ozone_127.25/GMJ_IVECW_E_M.csv

>>> COPY /tmp/ozone_127.25/GMJ_IVECX_E_M.csv /home/grierjones/DDCASPT2/ozone/ANO-RCC-MB/ozone_127.25/GMJ_IVECX_E_M.csv

>>> COPY /tmp/ozone_127.25/GMJ_IVECC2_E_M.csv /home/grierjones/DDCASPT2/ozone/ANO-RCC-MB/ozone_127.25/GMJ_IVECC2_E_M.csv

>>> COPY /tmp/ozone_127.25/GMJ_e2_E_M.csv /home/grierjones/DDCASPT2/ozone/ANO-RCC-MB/ozone_127.25/GMJ_e2_E_M.csv

>>> END FOREACH

>>> END FOREACH

>>> EXPORT i = F

>>> EXPORT j = P

>>> IF (-FILE GMJ_e2_${i}_${j}.csv)

>>> COPY /tmp/ozone_127.25/GMJ_RHS_F_P.csv /home/grierjones/DDCASPT2/ozone/ANO-RCC-MB/ozone_127.25/GMJ_RHS_F_P.csv

>>> COPY /tmp/ozone_127.25/GMJ_IVECW_F_P.csv /home/grierjones/DDCASPT2/ozone/ANO-RCC-MB/ozone_127.25/GMJ_IVECW_F_P.csv

>>> COPY /tmp/ozone_127.25/GMJ_IVECX_F_P.csv /home/grierjones/DDCASPT2/ozone/ANO-RCC-MB/ozone_127.25/GMJ_IVECX_F_P.csv

>>> COPY /tmp/ozone_127.25/GMJ_IVECC2_F_P.csv /home/grierjones/DDCASPT2/ozone/ANO-RCC-MB/ozone_127.25/GMJ_IVECC2_F_P.csv

>>> COPY /tmp/ozone_127.25/GMJ_e2_F_P.csv /home/grierjones/DDCASPT2/ozone/ANO-RCC-MB/ozone_127.25/GMJ_e2_F_P.csv

>>> END FOREACH

>>> EXPORT j = M

>>> IF (-FILE GMJ_e2_${i}_${j}.csv)

>>> COPY /tmp/ozone_127.25/GMJ_RHS_F_M.csv /home/grierjones/DDCASPT2/ozone/ANO-RCC-MB/ozone_127.25/GMJ_RHS_F_M.csv

>>> COPY /tmp/ozone_127.25/GMJ_IVECW_F_M.csv /home/grierjones/DDCASPT2/ozone/ANO-RCC-MB/ozone_127.25/GMJ_IVECW_F_M.csv

>>> COPY /tmp/ozone_127.25/GMJ_IVECX_F_M.csv /home/grierjones/DDCASPT2/ozone/ANO-RCC-MB/ozone_127.25/GMJ_IVECX_F_M.csv

>>> COPY /tmp/ozone_127.25/GMJ_IVECC2_F_M.csv /home/grierjones/DDCASPT2/ozone/ANO-RCC-MB/ozone_127.25/GMJ_IVECC2_F_M.csv

>>> COPY /tmp/ozone_127.25/GMJ_e2_F_M.csv /home/grierjones/DDCASPT2/ozone/ANO-RCC-MB/ozone_127.25/GMJ_e2_F_M.csv

>>> END FOREACH

>>> END FOREACH

>>> EXPORT i = G

>>> EXPORT j = P

>>> IF (-FILE GMJ_e2_${i}_${j}.csv)

>>> COPY /tmp/ozone_127.25/GMJ_RHS_G_P.csv /home/grierjones/DDCASPT2/ozone/ANO-RCC-MB/ozone_127.25/GMJ_RHS_G_P.csv

>>> COPY /tmp/ozone_127.25/GMJ_IVECW_G_P.csv /home/grierjones/DDCASPT2/ozone/ANO-RCC-MB/ozone_127.25/GMJ_IVECW_G_P.csv

>>> COPY /tmp/ozone_127.25/GMJ_IVECX_G_P.csv /home/grierjones/DDCASPT2/ozone/ANO-RCC-MB/ozone_127.25/GMJ_IVECX_G_P.csv

>>> COPY /tmp/ozone_127.25/GMJ_IVECC2_G_P.csv /home/grierjones/DDCASPT2/ozone/ANO-RCC-MB/ozone_127.25/GMJ_IVECC2_G_P.csv

>>> COPY /tmp/ozone_127.25/GMJ_e2_G_P.csv /home/grierjones/DDCASPT2/ozone/ANO-RCC-MB/ozone_127.25/GMJ_e2_G_P.csv

>>> END FOREACH

>>> EXPORT j = M

>>> IF (-FILE GMJ_e2_${i}_${j}.csv)

>>> COPY /tmp/ozone_127.25/GMJ_RHS_G_M.csv /home/grierjones/DDCASPT2/ozone/ANO-RCC-MB/ozone_127.25/GMJ_RHS_G_M.csv

>>> COPY /tmp/ozone_127.25/GMJ_IVECW_G_M.csv /home/grierjones/DDCASPT2/ozone/ANO-RCC-MB/ozone_127.25/GMJ_IVECW_G_M.csv

>>> COPY /tmp/ozone_127.25/GMJ_IVECX_G_M.csv /home/grierjones/DDCASPT2/ozone/ANO-RCC-MB/ozone_127.25/GMJ_IVECX_G_M.csv

>>> COPY /tmp/ozone_127.25/GMJ_IVECC2_G_M.csv /home/grierjones/DDCASPT2/ozone/ANO-RCC-MB/ozone_127.25/GMJ_IVECC2_G_M.csv

>>> COPY /tmp/ozone_127.25/GMJ_e2_G_M.csv /home/grierjones/DDCASPT2/ozone/ANO-RCC-MB/ozone_127.25/GMJ_e2_G_M.csv

>>> END FOREACH

>>> END FOREACH

>>> EXPORT i = H

>>> EXPORT j = P

>>> IF (-FILE GMJ_e2_${i}_${j}.csv)

>>> COPY /tmp/ozone_127.25/GMJ_RHS_H_P.csv /home/grierjones/DDCASPT2/ozone/ANO-RCC-MB/ozone_127.25/GMJ_RHS_H_P.csv

>>> COPY /tmp/ozone_127.25/GMJ_IVECW_H_P.csv /home/grierjones/DDCASPT2/ozone/ANO-RCC-MB/ozone_127.25/GMJ_IVECW_H_P.csv

>>> COPY /tmp/ozone_127.25/GMJ_IVECX_H_P.csv /home/grierjones/DDCASPT2/ozone/ANO-RCC-MB/ozone_127.25/GMJ_IVECX_H_P.csv

>>> COPY /tmp/ozone_127.25/GMJ_IVECC2_H_P.csv /home/grierjones/DDCASPT2/ozone/ANO-RCC-MB/ozone_127.25/GMJ_IVECC2_H_P.csv

>>> COPY /tmp/ozone_127.25/GMJ_e2_H_P.csv /home/grierjones/DDCASPT2/ozone/ANO-RCC-MB/ozone_127.25/GMJ_e2_H_P.csv

>>> END FOREACH

>>> EXPORT j = M

>>> IF (-FILE GMJ_e2_${i}_${j}.csv)

>>> COPY /tmp/ozone_127.25/GMJ_RHS_H_M.csv /home/grierjones/DDCASPT2/ozone/ANO-RCC-MB/ozone_127.25/GMJ_RHS_H_M.csv

>>> COPY /tmp/ozone_127.25/GMJ_IVECW_H_M.csv /home/grierjones/DDCASPT2/ozone/ANO-RCC-MB/ozone_127.25/GMJ_IVECW_H_M.csv

>>> COPY /tmp/ozone_127.25/GMJ_IVECX_H_M.csv /home/grierjones/DDCASPT2/ozone/ANO-RCC-MB/ozone_127.25/GMJ_IVECX_H_M.csv

>>> COPY /tmp/ozone_127.25/GMJ_IVECC2_H_M.csv /home/grierjones/DDCASPT2/ozone/ANO-RCC-MB/ozone_127.25/GMJ_IVECC2_H_M.csv

>>> COPY /tmp/ozone_127.25/GMJ_e2_H_M.csv /home/grierjones/DDCASPT2/ozone/ANO-RCC-MB/ozone_127.25/GMJ_e2_H_M.csv

>>> END FOREACH

>>> END FOREACH

>>> EXPORT i = A

>>> IF (-FILE GMJ_e2_$i.csv)

>>> COPY /tmp/ozone_127.25/GMJ_RHS_A.csv /home/grierjones/DDCASPT2/ozone/ANO-RCC-MB/ozone_127.25/GMJ_RHS_A.csv

>>> COPY /tmp/ozone_127.25/GMJ_IVECW_A.csv /home/grierjones/DDCASPT2/ozone/ANO-RCC-MB/ozone_127.25/GMJ_IVECW_A.csv

>>> COPY /tmp/ozone_127.25/GMJ_IVECX_A.csv /home/grierjones/DDCASPT2/ozone/ANO-RCC-MB/ozone_127.25/GMJ_IVECX_A.csv

>>> COPY /tmp/ozone_127.25/GMJ_IVECC2_A.csv /home/grierjones/DDCASPT2/ozone/ANO-RCC-MB/ozone_127.25/GMJ_IVECC2_A.csv

>>> COPY /tmp/ozone_127.25/GMJ_e2_A.csv /home/grierjones/DDCASPT2/ozone/ANO-RCC-MB/ozone_127.25/GMJ_e2_A.csv

>>> END FOREACH

>>> EXPORT i = C

>>> IF (-FILE GMJ_e2_$i.csv)

>>> COPY /tmp/ozone_127.25/GMJ_RHS_C.csv /home/grierjones/DDCASPT2/ozone/ANO-RCC-MB/ozone_127.25/GMJ_RHS_C.csv

>>> COPY /tmp/ozone_127.25/GMJ_IVECW_C.csv /home/grierjones/DDCASPT2/ozone/ANO-RCC-MB/ozone_127.25/GMJ_IVECW_C.csv

>>> COPY /tmp/ozone_127.25/GMJ_IVECX_C.csv /home/grierjones/DDCASPT2/ozone/ANO-RCC-MB/ozone_127.25/GMJ_IVECX_C.csv

>>> COPY /tmp/ozone_127.25/GMJ_IVECC2_C.csv /home/grierjones/DDCASPT2/ozone/ANO-RCC-MB/ozone_127.25/GMJ_IVECC2_C.csv

>>> COPY /tmp/ozone_127.25/GMJ_e2_C.csv /home/grierjones/DDCASPT2/ozone/ANO-RCC-MB/ozone_127.25/GMJ_e2_C.csv

>>> END FOREACH

>>> EXPORT i = D

>>> IF (-FILE GMJ_e2_$i.csv)

>>> COPY /tmp/ozone_127.25/GMJ_RHS_D.csv /home/grierjones/DDCASPT2/ozone/ANO-RCC-MB/ozone_127.25/GMJ_RHS_D.csv

>>> COPY /tmp/ozone_127.25/GMJ_IVECW_D.csv /home/grierjones/DDCASPT2/ozone/ANO-RCC-MB/ozone_127.25/GMJ_IVECW_D.csv

>>> COPY /tmp/ozone_127.25/GMJ_IVECX_D.csv /home/grierjones/DDCASPT2/ozone/ANO-RCC-MB/ozone_127.25/GMJ_IVECX_D.csv

>>> COPY /tmp/ozone_127.25/GMJ_IVECC2_D.csv /home/grierjones/DDCASPT2/ozone/ANO-RCC-MB/ozone_127.25/GMJ_IVECC2_D.csv

>>> COPY /tmp/ozone_127.25/GMJ_e2_D.csv /home/grierjones/DDCASPT2/ozone/ANO-RCC-MB/ozone_127.25/GMJ_e2_D.csv

>>> END FOREACH

.########################.
.# Non-zero return code #.
.########################.

    Timing: Wall=1.04 User=0.81 System=0.23
********************************************
*** WorkDir at /tmp/ozone_127.25 cleaned ***
********************************************
