[Molden Format]
[N_Atoms]
                     2
[Atoms] (AU)
LI1         1      3           0.00000000      0.00000000      0.00000000
O2          2      8           0.00000000      0.00000000      4.53534270
[Charge] (Mulliken)
  0.128474543730320     
 -0.128474543730343     
[GTO] (AU)
   1
   s  14
  9.497934400E+03  9.668999974E-05
  1.416811200E+03  6.087099984E-04
  3.214599400E+02  3.101519992E-03
  9.112416300E+01  1.266904997E-02
  2.999989100E+01  4.248012989E-02
  1.101763100E+01  1.150183297E-01
  4.372801000E+00  2.398650094E-01
  1.831256000E+00  3.584300090E-01
  8.022610000E-01  3.048527792E-01
  3.626480000E-01  8.824261976E-02
  1.139950000E-01 -8.445899977E-04
  5.123700000E-02 -7.943959979E-03
  2.246800000E-02 -3.764419990E-03
  7.860000000E-03 -8.868999976E-05
   s  14
  9.497934400E+03 -1.244999993E-05
  1.416811200E+03 -7.838999954E-05
  3.214599400E+02 -4.007099976E-04
  9.112416300E+01 -1.645249990E-03
  2.999989100E+01 -5.634599967E-03
  1.101763100E+01 -1.590780991E-02
  4.372801000E+00 -3.612581979E-02
  1.831256000E+00 -6.459927962E-02
  8.022610000E-01 -1.008321794E-01
  3.626480000E-01 -9.757613942E-02
  1.139950000E-01  2.301215886E-01
  5.123700000E-02  6.102389764E-01
  2.246800000E-02  2.849406083E-01
  7.860000000E-03  4.026899976E-03
   p   9
  1.311950400E+01  1.524940000E-03
  3.077424200E+00  8.314830000E-03
  1.098800500E+00  1.933203000E-02
  4.357784000E-01  4.934293000E-02
  1.802432000E-01  1.623554000E-01
  7.613330000E-02  3.847505400E-01
  3.254650000E-02  4.336100400E-01
  1.401820000E-02  1.287005900E-01
  4.906400000E-03 -1.018520000E-03
 
   2
   s  14
  1.053749500E+05  1.238600013E-04
  1.567924000E+04  5.120100053E-04
  3.534544700E+03  2.152910022E-03
  9.873651600E+02  8.528440089E-03
  3.159787500E+02  3.018049031E-02
  1.116542800E+02  9.099702095E-02
  4.269945100E+01  2.177936423E-01
  1.739559600E+01  3.686245738E-01
  7.438309000E+00  3.366707335E-01
  3.222862000E+00  9.657630101E-02
  1.253877000E+00  2.144520022E-03
  4.951550000E-01  1.194350012E-03
  1.916650000E-01  5.390200056E-04
  6.708300000E-02  2.103400022E-04
   s  14
  1.053749500E+05 -2.815000008E-05
  1.567924000E+04 -1.163000003E-04
  3.534544700E+03 -4.909200013E-04
  9.873651600E+02 -1.946160005E-03
  3.159787500E+02 -7.005300019E-03
  1.116542800E+02 -2.167814006E-02
  4.269945100E+01 -5.641213015E-02
  1.739559600E+01 -1.127053003E-01
  7.438309000E+00 -1.589119704E-01
  3.222862000E+00 -3.355083009E-02
  1.253877000E+00  3.531902810E-01
  4.951550000E-01  5.534199315E-01
  1.916650000E-01  2.301839106E-01
  6.708300000E-02  1.127267003E-02
   p   9
  2.000000000E+02  9.173000030E-04
  4.653336700E+01  7.377140024E-03
  1.462180900E+01  3.483515011E-02
  5.313064000E+00  1.144397004E-01
  2.102525000E+00  2.554966408E-01
  8.502230000E-01  3.722557412E-01
  3.375970000E-01  3.323314911E-01
  1.288920000E-01  1.400847905E-01
  4.511200000E-02  2.395784008E-02
 
[MO]
Sym=     1a  
Ene=   -20.6840
Spin= Alpha
Occup=    1.00000
   1        -0.00004338
   2        -0.00046689
   3         0.00000000
   4        -0.00000000
   5        -0.00061360
   6         1.00002765
   7         0.00196003
   8        -0.00000000
   9         0.00000000
  10        -0.00029256
Sym=     1a  
Ene=   -20.6180
Spin= Beta
Occup=    1.00000
   1        -0.00002084
   2        -0.00006186
   3         0.00000000
   4        -0.00000000
   5        -0.00006103
   6         1.00000142
   7        -0.00185458
   8        -0.00000000
   9        -0.00000000
  10        -0.00015246
Sym=     2a  
Ene=    -2.4823
Spin= Alpha
Occup=    1.00000
   1         0.99987519
   2         0.01294643
   3         0.00000000
   4         0.00000000
   5         0.00005529
   6        -0.00004181
   7         0.00127404
   8         0.00000000
   9         0.00000000
  10        -0.00110482
Sym=     2a  
Ene=    -2.4948
Spin= Beta
Occup=    1.00000
   1         0.99991732
   2         0.01185786
   3         0.00000000
   4         0.00000000
   5        -0.00003852
   6        -0.00001111
   7         0.00088081
   8         0.00000000
   9        -0.00000000
  10        -0.00021534
Sym=     3a  
Ene=    -1.3847
Spin= Alpha
Occup=    1.00000
   1        -0.00915316
   2        -0.00891373
   3        -0.00000000
   4         0.00000000
   5        -0.00937204
   6        -0.00120289
   7         1.00432822
   8         0.00000000
   9        -0.00000000
  10        -0.02972849
Sym=     3a  
Ene=    -1.0911
Spin= Beta
Occup=    1.00000
   1        -0.00806853
   2         0.01768231
   3        -0.00000000
   4         0.00000000
   5         0.01442133
   6         0.00106640
   7         0.99158727
   8        -0.00000000
   9         0.00000000
  10        -0.00623268
Sym=     4a  
Ene=    -0.6732
Spin= Alpha
Occup=    1.00000
   1        -0.00000000
   2        -0.00000000
   3        -0.01346755
   4        -0.00010069
   5         0.00000000
   6        -0.00000000
   7        -0.00000000
   8         1.00163703
   9         0.00748836
  10        -0.00000000
Sym=     4a  
Ene=    -0.5171
Spin= Beta
Occup=    1.00000
   1         0.00000000
   2         0.00000000
   3        -0.00017114
   4         0.02289171
   5        -0.00000000
   6         0.00000000
   7        -0.00000000
   8        -0.00745170
   9         0.99673282
  10         0.00000000
Sym=     5a  
Ene=    -0.6707
Spin= Alpha
Occup=    1.00000
   1         0.02836872
   2         0.00850868
   3        -0.00000000
   4        -0.00000000
   5        -0.01185119
   6         0.00034732
   7         0.02938334
   8         0.00000000
   9         0.00000000
  10         0.99970049
Sym=     5a  
Ene=    -0.1991
Spin= Beta
Occup=    1.00000
   1         0.01820407
   2        -0.92664347
   3        -0.00000000
   4        -0.00000000
   5         0.05171527
   6         0.01618093
   7         0.18932427
   8        -0.00000000
   9        -0.00000000
  10         0.30716151
Sym=     6a  
Ene=    -0.5934
Spin= Alpha
Occup=    1.00000
   1         0.00000000
   2         0.00000000
   3        -0.00001690
   4         0.00226116
   5        -0.00000000
   6         0.00000000
   7        -0.00000000
   8         0.00747810
   9        -1.00026406
  10         0.00000000
Sym=     6a  
Ene=     0.0300
Spin= Beta
Occup=    0.00000
   1         0.00000000
   2         0.00000000
   3         0.94242258
   4         0.00704567
   5        -0.00000000
   6         0.00000000
   7         0.00000000
   8         0.23341226
   9         0.00174502
  10         0.00000000
Sym=     7a  
Ene=     0.0418
Spin= Alpha
Occup=    0.00000
   1        -0.00943644
   2         0.96513323
   3        -0.00000000
   4        -0.00000000
   5        -0.29691369
   6        -0.00853707
   7        -0.09664802
   8         0.00000000
   9         0.00000000
  10         0.08595385
Sym=     7a  
Ene=     0.0304
Spin= Beta
Occup=    0.00000
   1         0.01156624
   2         0.19302181
   3        -0.00000000
   4        -0.00000000
   5        -0.79371766
   6         0.02265332
   7         0.22447271
   8        -0.00000000
   9        -0.00000000
  10         0.55718050
Sym=     8a  
Ene=     0.0839
Spin= Alpha
Occup=    0.00000
   1        -0.00000000
   2         0.00000000
   3         1.00847377
   4         0.00753947
   5         0.00000000
   6        -0.00000000
   7        -0.00000000
   8        -0.11799984
   9        -0.00088218
  10         0.00000000
Sym=     8a  
Ene=     0.0471
Spin= Beta
Occup=    0.00000
   1        -0.00000000
   2        -0.00000000
   3        -0.00753820
   4         1.00830386
   5        -0.00000000
   6         0.00000000
   7         0.00000000
   8         0.00115153
   9        -0.15402724
  10         0.00000000
Sym=     9a  
Ene=     0.0865
Spin= Alpha
Occup=    0.00000
   1        -0.00000000
   2         0.00000000
   3        -0.00754013
   4         1.00856115
   5        -0.00000000
   6         0.00000000
   7         0.00000000
   8         0.00096533
   9        -0.12912215
  10        -0.00000000
Sym=     9a  
Ene=     0.1792
Spin= Beta
Occup=    0.00000
   1        -0.00000000
   2        -0.00000000
   3        -0.35922192
   4        -0.00268559
   5        -0.00000000
   6         0.00000000
   7         0.00000000
   8         0.98118267
   9         0.00733544
  10        -0.00000000
Sym=    10a  
Ene=     0.1274
Spin= Alpha
Occup=    0.00000
   1         0.00258378
   2         0.37384045
   3        -0.00000000
   4         0.00000000
   5         1.02374976
   6        -0.04045831
   7        -0.38893420
   8         0.00000000
   9        -0.00000000
  10         0.17072681
Sym=    10a  
Ene=     0.1824
Spin= Beta
Occup=    0.00000
   1        -0.01922910
   2        -0.41854473
   3         0.00000000
   4        -0.00000000
   5        -0.70963358
   6         0.03142706
   7         0.31729083
   8        -0.00000000
   9         0.00000000
  10        -0.79497462
