   This run of MOLCAS is using the pymolcas driver

                             OPE
                             OPE          NMOL  CASOP  ENMOLC A   SO
                 OPE        NMOLC        AS  OP EN  MO LC     AS  OP
                OPENM       OL CA        SO  PE NM  OL CA     SOP EN
                OP EN      MO   LC       AS  OP ENMOL  CASO   PENMOL
                OP  EN     MO   LC       AS  OP EN     MO     LC ASO
               OP   E  NMOL  C  AS       OP  EN MO     LC     AS  OP
               OP  E   NMO   LC AS        OPEN  MO     LCASOP EN   M
               O  PEN   MO  LCA  SO
            OPE   NMO   L   CAS    OP
        OPENMOL  CASOP     ENMOL   CASOPE
     OPENMOLCA   SOPENMOLCASOPEN   MOLCASOPE
    OPENMOLCAS   OP           EN   MOL    CAS
    OPENMOLCAS       OP  ENM        O     LCA
    OPENMOLCAS    OPEN  MOLCASO     P  E  NMO
    OPENMOLCAS     OP               E  N  MOL
    OPENMOLCA   SO           PENM   O  L  CAS    OPEN    MO    LCAS
    OPENMOLCA   SOP           ENM   O  L  CAS   OP  EN  MOLC  AS   O
    OPENMOLCA   SOPE           NM      O  LCA   S      OP  EN MO
    OPENMOLC                AS         O  PEN   M      OL  CA  SOPE
    OPENMO        LCASOPE  NMOL        C  ASO   P      ENMOLC     AS
    OPE     NMO      LCA  SO     P     E   NM   OL  CA SO  PE N   MO
          OPENMOLCA            SOPE   NMO        LCAS  O    P  ENMO
     OPENMOLCASOPENMOLCASOPENMOLCASOPENMOLCA
        OPENMOLCASOPENMOLCASOPENMOLCASOPE
            OPENMOLCASOPENMOLCASOPENM
               OPENMOLCASOPENMOLCA        version: 24.02
                   OPENMOLCASO
                       OPE                tag: 126-g611b04c8f

 OpenMolcas is free software; you can redistribute it and/or modify it
 under the terms of the GNU Lesser General Public License version 2.1.
 OpenMolcas is distributed in the hope that it will be useful, but it
 is provided "as is" and without any express or implied warranties.
 For more details see the full text of the license in the file
 LICENSE or in <http://www.gnu.org/licenses/>.

                 Copyright (C) The OpenMolcas Authors
           For the author list and the recommended citation,
                   consult the file CONTRIBUTORS.md

           *************************************************
           * pymolcas version py2.28                       *
           *   build c4a6d18ded8cb6cad61d2372a9abd97c      *
           *   (after the EMIL interpreter by V. Veryazov) *
           *************************************************

configuration info
------------------
Host name: debian (Linux)
C Compiler ID: GNU
C flags: -std=gnu99
Fortran Compiler ID: Intel
Fortran flags: -fpp -i8 -heap-arrays
Definitions: _MOLCAS_;_I8_;_LINUX_
Parallel: OFF (GA=OFF)


   ------------------------------------------------------------------
  |
  |              Project: 2.40
  |       Submitted from: /home/grierjones/DDCASPT2/delta_ML/LiO/2.40
  |         Scratch area: /tmp/2.40
  |      Save outputs to: /home/grierjones/DDCASPT2/delta_ML/LiO/2.40
  |               Molcas: /usr/local
  |
  | Scratch area is empty
  |
  |       MOLCAS_DRIVER = /usr/local/pymolcas
  | MOLCAS_KEEP_WORKDIR = NO
  |  MOLCAS_NEW_WORKDIR = YES
  |       MOLCAS_NPROCS = 1
  |       MOLCAS_SOURCE = /usr/local
  |    MOLCAS_STRUCTURE = 0
  |
   ------------------------------------------------------------------

++ ---------   Input file   ---------

&GATEWAY
coord=2.40.xyz
Basis = ANO-RCC-MB
Group = nosymm
End of Input

&SEWARD
End of Input

&SCF
UHF

&MBPT2
Frozen
0

&RASSCF
Title= RASSCF
FileOrb
/home/grierjones/DDCASPT2/delta_ML/LiO/2.30/2.30.RasOrb

NACTEL
1 0 0
Inactive
5
RAS2
2
Symmetry
1
Spin
2
orblisting
all
ITERation
200 100
CIMX
200
SDAV
500

&CASPT2
Imaginary Shift
0.0
Frozen
0

-- ----------------------------------

--- Start Module: gateway at Thu Apr 25 14:04:31 2024 ---
 
()()()()()()()()()()()()()()()()()()()()()()()()()()()()()()()()()()()()()()()()()()()()()()()()()()

                                              &GATEWAY

                                   only a single process is used
                       available to each process: 2.0 GB of memory, 1 thread?
                                            pid: 115414
()()()()()()()()()()()()()()()()()()()()()()()()()()()()()()()()()()()()()()()()()()()()()()()()()()
 
 
++    Symmetry information:
      ---------------------
 
                    Character Table for C1 
 
                             E  
                    a        1  x, y, xy, Rz, z, xz, Ry, yz, Rx, I
--
 
 
++    Basis set information:
      ----------------------
 
 
      Basis set label: LI.ANO-RCC...2S1P.
 
      Electronic valence basis set:
      ------------------
      Associated Effective Charge   3.000000 au
      Associated Actual Charge      3.000000 au
      Nuclear Model: Point charge
 
      Shell  nPrim  nBasis  Cartesian Spherical Contaminant
         s      14       2        X                  
         p       9       1        X                  
 
 
      Basis set label: O.ANO-RCC...2S1P.
 
      Electronic valence basis set:
      ------------------
      Associated Effective Charge   8.000000 au
      Associated Actual Charge      8.000000 au
      Nuclear Model: Point charge
 
      Shell  nPrim  nBasis  Cartesian Spherical Contaminant
         s      14       2        X                  
         p       9       1        X                  
--
 
 
++    Molecular structure info:
      -------------------------
 
                    ************************************************ 
                    **** Cartesian Coordinates / Bohr, Angstrom **** 
                    ************************************************ 
 
     Center  Label                x              y              z                     x              y              z
        1      LI1              0.000000       0.000000       0.000000              0.000000       0.000000       0.000000
        2      O2               0.000000       0.000000       4.535343              0.000000       0.000000       2.400000
--
 
 
            Nuclear Potential Energy              5.29177211 au
 
--- Stop Module: gateway at Thu Apr 25 14:04:32 2024 /rc=_RC_ALL_IS_WELL_ ---
*** files: xmldump
    saved to directory /home/grierjones/DDCASPT2/delta_ML/LiO/2.40

--- Start Module: seward at Thu Apr 25 14:04:32 2024 ---
 
()()()()()()()()()()()()()()()()()()()()()()()()()()()()()()()()()()()()()()()()()()()()()()()()()()

                                              &SEWARD

                                   only a single process is used
                       available to each process: 2.0 GB of memory, 1 thread?
                                            pid: 115417
()()()()()()()()()()()()()()()()()()()()()()()()()()()()()()()()()()()()()()()()()()()()()()()()()()
 
               SEWARD will generate:
                  Multipole Moment integrals up to order  2
                  Kinetic Energy integrals
                  Nuclear Attraction integrals (point charge)
                  One-Electron Hamiltonian integrals
                  Velocity integrals
                  Relativistic Douglas-Kroll-Hess integrals:
                    - Parametrization         : EXP
                    - DKH order of Hamiltonian: 2
                    - DKH order of Properties : 0
                         - multipole moment operators
                         - electric potential operators
                         - contact operators
                  Orbital angular momentum around ( 0.0000  0.0000  3.1525 )
                  Velocity quadrupole around ( 0.0000  0.0000  3.1525 )
                  Atomic mean-field integrals
                  Two-Electron Repulsion integrals
 
                   Integrals are discarded if absolute value <: 1.00E-14
                   Integral cutoff threshold is set to       <: 1.00E-16
 
            Nuclear Potential Energy              5.29177211 au
 
 
      Basis set specifications :
      Symmetry species         a  
      Basis functions           10
 
 
      Input file to MOLDEN was generated!
 
--- Stop Module: seward at Thu Apr 25 14:04:32 2024 /rc=_RC_ALL_IS_WELL_ ---
*** files: 2.40.GssOrb 2.40.guessorb.h5 2.40.guessorb.molden xmldump
    saved to directory /home/grierjones/DDCASPT2/delta_ML/LiO/2.40

*** symbolic link created: INPORB -> 2.40.GssOrb
--- Start Module: scf at Thu Apr 25 14:04:32 2024 ---
 
()()()()()()()()()()()()()()()()()()()()()()()()()()()()()()()()()()()()()()()()()()()()()()()()()()

                                                &SCF

                                   only a single process is used
                       available to each process: 2.0 GB of memory, 1 thread?
                                            pid: 115420
()()()()()()()()()()()()()()()()()()()()()()()()()()()()()()()()()()()()()()()()()()()()()()()()()()
 
++    Input section:
      --------------
 
      Header of the integral files:
      
       Integrals generated by Gateway/Seward, Thu Apr 25 14:04:32 2024
 
 
      Cartesian coordinates in Angstrom:
      -----------------------------------------------------
      No.  Label        X            Y            Z        
      -----------------------------------------------------
       1   LI1        0.00000000   0.00000000   0.00000000
       2   O2         0.00000000   0.00000000   2.40000000
      -----------------------------------------------------
      Nuclear repulsion energy =    5.29177211
--
 
++    Orbital specifications:
      -----------------------
 
      Symmetry species               1
                                     a
      Frozen orbitals                0
      Occupied orbitals alpha        6
      Occupied orbitals beta         5
      Secondary orbitals alpha       4
      Secondary orbitals beta        5
      Deleted orbitals               0
      Total number of orbitals      10
      Number of basis functions     10
--
 
      Molecular charge                           0.000
 
++    Optimization specifications:
      ----------------------------
 
      SCF Algorithm: Conventional USCF
      D(i)-D(i-1) density differences are used
      Number of density matrices in core                 5
      Maximum number of NDDO SCF iterations            400
      Maximum number of HF SCF iterations              400
      Threshold for SCF energy change             1.00E-09
      Threshold for density matrix                1.00E-04
      Threshold for Fock matrix                   1.50E-04
      Threshold for linear dependence             1.00E-09
      Threshold at which DIIS is turned on        1.50E-01
      Maximum depth in the DIIS procedure                5
      Maximum depth in the BFGS Hessian update          30
      Threshold at which QNR/C2DIIS is turned on  7.50E-02
      Threshold for Norm(delta) (QNR/C2DIIS)      1.00E-03
      All orbitals punched on: UHFORB
--
 
      Input vectors read from INPORB
      Orbital file label: *Guess orbitals
 
 
++ Convergence information
                               UHF SCF        iterations: Energy and convergence statistics
 
Iter     Tot. SCF        One-elec.       Two-elec.     Energy      Max Dij or  Max Fij      DNorm      TNorm      AccCon     Time
         Energy          Energy          Energy        Change      Delta Norm                                                in Sec.
   1   -82.201232241  -127.669964751    40.176960401   0.00E+00    4.63E-01*   5.39E-02*    4.67E+00   1.98E+01   None         0.
   2   -82.256801517  -125.542194358    37.993620732  -5.56E-02*   1.26E-01*   2.66E-02*    1.39E+00   1.93E+01   EDIIS        0.
   3   -82.263153547  -126.208880682    38.653955026  -6.35E-03*   8.86E-02*   1.84E-02*    3.71E-01   1.94E+01   c2DIIS       0.
   4   -82.264902506  -125.965460297    38.408785682  -1.75E-03*   6.43E-02*   3.80E-02*    1.53E-01   1.94E+01   c2DIIS       0.
   5   -82.267710575  -125.832098943    38.272616259  -2.81E-03*   8.70E-02*   1.17E-02*    1.35E-01   1.93E+01   QNRc2DIIS    0.
 DIIS_X: Resetting BFGS depth!
         Too large B matrix values.
 DIIS_X: Resetting kOptim!
         Caused by energies and gradients which are inconsistent with a convex e
 nergy functional.
 kOptim=                     2 -> kOptim=                     1
   6   -82.268993179  -125.811404497    38.250639209  -1.28E-03*   9.49E-02*   8.93E-03*    1.16E-01   1.93E+01   QNRc2DIIS    0.
 DIIS_X: Resetting kOptim!
         Caused by energies and gradients which are inconsistent with a convex e
 nergy functional.
 kOptim=                     2 -> kOptim=                     1
   7   -82.270427141  -125.722481087    38.160281837  -1.43E-03*   1.02E-01*   9.52E-03*    1.20E-01   1.93E+01   QNRc2DIIS    0.
 DIIS_X: Resetting kOptim!
         Caused by energies and gradients which are inconsistent with a convex e
 nergy functional.
 kOptim=                     2 -> kOptim=                     1
   8   -82.272096055  -125.624711120    38.060842956  -1.67E-03*   1.12E-01*   1.03E-02*    1.27E-01   1.93E+01   QNRc2DIIS    0.
 DIIS_X: Resetting BFGS depth!
         Too large B matrix values.
 DIIS_X: Resetting kOptim!
         Caused by energies and gradients which are inconsistent with a convex e
 nergy functional.
 kOptim=                     2 -> kOptim=                     1
   9   -82.274039744  -125.501178921    37.935367068  -1.94E-03*   1.21E-01*   1.07E-02*    1.35E-01   1.93E+01   QNRc2DIIS    0.
 DIIS_X: Resetting BFGS depth!
         Too large B matrix values.
 DIIS_X: Resetting kOptim!
         Caused by energies and gradients which are inconsistent with a convex e
 nergy functional.
 kOptim=                     2 -> kOptim=                     1
  10   -82.276250994  -125.354193171    37.786170068  -2.21E-03*   1.28E-01*   1.10E-02*    1.43E-01   1.92E+01   QNRc2DIIS    0.
 DIIS_X: Resetting BFGS depth!
         Too large B matrix values.
 DIIS_X: Resetting kOptim!
         Caused by energies and gradients which are inconsistent with a convex e
 nergy functional.
 kOptim=                     2 -> kOptim=                     1
  11   -82.278662345  -125.184994692    37.614560238  -2.41E-03*   1.32E-01*   1.17E-02*    1.50E-01   1.92E+01   QNRc2DIIS    0.
 DIIS_X: Resetting BFGS depth!
         Too large B matrix values.
 DIIS_X: Resetting kOptim!
         Caused by energies and gradients which are inconsistent with a convex e
 nergy functional.
 kOptim=                     2 -> kOptim=                     1
  12   -82.281133318  -124.999869662    37.426964234  -2.47E-03*   1.30E-01*   1.19E-02*    1.53E-01   1.91E+01   QNRc2DIIS    0.
 DIIS_X: Resetting BFGS depth!
         Too large B matrix values.
  13   -82.283473250  -124.809040150    37.233794790  -2.34E-03*   5.94E-02*   1.17E-02*    1.51E-01   1.91E+01   QNRc2DIIS    0.
 DIIS_X: Resetting BFGS depth!
         Too large B matrix values.
  14   -82.284472293  -124.718735084    37.142490682  -9.99E-04*   5.78E-02*   1.14E-02*    6.93E-02   1.91E+01   QNRc2DIIS    0.
  15   -82.285399117  -124.631237264    37.054066038  -9.27E-04*   2.07E+00*   1.10E-02*    6.79E-02   1.91E+01   QNRc2DIIS    0.
 DIIS_X: Resetting BFGS depth!
         Too large B matrix values.
  16   -82.227456033  -123.554037737    36.034809595   5.79E-02*   4.81E+00*   6.80E-02*    2.54E+00   1.88E+01   QNRc2DIIS    0.
 DIIS_X: Resetting BFGS depth!
         Too large B matrix values.
  17   -82.186908521  -124.369365017    36.890684387   4.05E-02*   7.02E-01*   9.39E-02*    2.70E+00   1.90E+01   QNRc2DIIS    0.
  18   -82.240423168  -125.686143533    38.153948256  -5.35E-02*   1.55E+00*   4.76E-02*    9.74E-01   1.93E+01   QNRc2DIIS    0.
 DIIS_X: Resetting BFGS depth!
         Too large B matrix values.
  19   -82.057509332  -122.007610426    34.658328985   1.83E-01*   7.57E-01*   1.82E-01*    1.81E+00   1.84E+01   QNRc2DIIS    0.
 DIIS_X: Resetting BFGS depth!
         Too large B matrix values.
  20   -81.871873316  -119.930817483    32.767172058   1.86E-01*   3.21E+00*   2.88E-01*    8.85E-01   1.79E+01   QNRc2DIIS    0.
  21   -82.265647026  -125.962270369    38.404851234  -3.94E-01*   1.06E+00*   1.76E-02*    2.91E+00   1.94E+01   QNRc2DIIS    0.
 DIIS_X: Resetting BFGS depth!
         Too large B matrix values.
  22   -82.231022824  -125.444775154    37.921980221   3.46E-02*   2.75E-01*   6.30E-02*    1.41E+00   1.93E+01   QNRc2DIIS    0.
  23   -82.243800917  -125.647984342    38.112411316  -1.28E-02*   2.25E+00*   4.13E-02*    3.68E-01   1.93E+01   QNRc2DIIS    0.
 DIIS_X: Resetting BFGS depth!
         Too large B matrix values.
  24   -81.870331186  -120.089634296    32.927531001   3.73E-01*   6.36E-01*   2.86E-01*    2.35E+00   1.79E+01   QNRc2DIIS    0.
 DIIS_X: Resetting BFGS depth!
         Too large B matrix values.
  25   -81.920409829  -121.003224600    33.791042662  -5.01E-02*   9.55E-01*   2.46E-01*    7.86E-01   1.81E+01   QNRc2DIIS    0.
 DIIS_X: Resetting BFGS depth!
         Too large B matrix values.
  26   -82.141828813  -123.534578122    36.100977200  -2.21E-01*   3.08E+00*   1.36E-01*    1.09E+00   1.88E+01   QNRc2DIIS    0.
  27   -82.191879595  -122.910585671    35.426933967  -5.01E-02*   2.22E+00*   1.48E-01*    2.86E+00   1.86E+01   QNRc2DIIS    0.
 DIIS_X: Resetting BFGS depth!
         Too large B matrix values.
  28   -82.153298145  -124.703804271    37.258734017   3.86E-02*   1.98E+00*   1.65E-01*    2.83E+00   1.91E+01   QNRc2DIIS    0.
 DIIS_X: Resetting BFGS depth!
         Too large B matrix values.
  29   -82.246641661  -123.413462434    35.875048664  -9.33E-02*   7.52E-01*   9.06E-02*    2.55E+00   1.88E+01   QNRc2DIIS    0.
 DIIS_X: Resetting BFGS depth!
         Too large B matrix values.
  30   -82.224118819  -122.733475740    35.217584811   2.25E-02*   1.06E+00*   1.13E-01*    1.09E+00   1.86E+01   QNRc2DIIS    0.
  31   -82.209590127  -123.786931473    36.285569237   1.45E-02*   5.56E-01*   5.81E-02*    1.44E+00   1.89E+01   QNRc2DIIS    0.
 DIIS_X: Resetting BFGS depth!
         Too large B matrix values.
  32   -82.188314102  -122.427453112    34.947366901   2.13E-02*   3.74E+00*   1.29E-01*    8.62E-01   1.85E+01   QNRc2DIIS    0.
 DIIS_X: Resetting BFGS depth!
         Too large B matrix values.
  33   -82.263748260  -124.984460950    37.428940581  -7.54E-02*   2.17E+00*   4.91E-02*    2.69E+00   1.91E+01   QNRc2DIIS    0.
 DIIS_X: Resetting kOptim!
         Caused by energies and gradients which are inconsistent with a convex e
 nergy functional.
 kOptim=                     5 -> kOptim=                     1
  34   -82.269300599  -122.751196059    35.190123351  -5.55E-03*   2.93E-01*   4.47E-02*    2.40E+00   1.86E+01   QNRc2DIIS    0.
  35   -82.280949415  -122.956028588    35.383307065  -1.16E-02*   4.96E-01*   1.95E-02*    4.14E-01   1.87E+01   QNRc2DIIS    0.
  36   -82.287644438  -123.484566109    35.905149562  -6.70E-03*   1.22E-01*   1.68E-02*    6.81E-01   1.88E+01   QNRc2DIIS    0.
  37   -82.288942336  -123.603418212    36.022703767  -1.30E-03*   2.02E-01*   1.57E-02*    1.72E-01   1.88E+01   QNRc2DIIS    0.
  38   -82.290522996  -123.713157398    36.130862293  -1.58E-03*   2.09E-02*   1.77E-03*    3.02E-01   1.88E+01   QNRc2DIIS    0.
  39   -82.290548925  -123.737965906    36.155644872  -2.59E-05*   5.73E-03*   4.64E-04*    3.04E-02   1.88E+01   QNRc2DIIS    0.
  40   -82.290551339  -123.744556447    36.162233000  -2.41E-06*   8.80E-03*   3.07E-04*    7.67E-03   1.88E+01   QNRc2DIIS    0.
  41   -82.290552716  -123.756786838    36.174462014  -1.38E-06*   2.05E-04    2.98E-05     1.17E-02   1.88E+01   QNRc2DIIS    0.
  42   -82.290552720  -123.756869445    36.174544615  -4.80E-09*   2.49E-05    6.03E-06     2.91E-04   1.88E+01   QNRc2DIIS    0.
  43   -82.290552720  -123.756851299    36.174526469  -7.56E-11    9.32E-06    2.46E-06     3.68E-05   1.88E+01   QNRc2DIIS    0.
 
       Convergence after  43 Macro Iterations
--
 
 *****************************************************************************************************************************
 *                                                                                                                           *
 *                                             SCF/KS-DFT Program, Final results                                             *
 *                                                                                                                           *
 *                                                                                                                           *
 *                                                                                                                           *
 *                                                       Final Results                                                       *
 *                                                                                                                           *
 *****************************************************************************************************************************
 
::    Total SCF energy                                -82.2905527204
      One-electron energy                            -123.7568512987
      Two-electron energy                              36.1745264692
      Nuclear repulsion energy                          5.2917721090
      Kinetic energy (interpolated)                    82.7843794593
      Virial theorem                                    0.9940347836
      Total spin, S(S+1)                                1.5766418742
      Total spin, S                                     0.8515331569
      Max non-diagonal density matrix element           0.0000051363
      Max non-diagonal Fock matrix element              0.0000014504
 
 
      All orbitals with orbital energies smaller than  E(LUMO)+0.5 are printed
 
++    Molecular orbitals:
      -------------------
 
      Title: UHF orbitals (alpha)

      Molecular orbitals for symmetry species 1: a  
 
          Orbital            1         2         3         4         5         6         7         8         9        10    
          Energy          -20.6840   -2.4823   -1.3847   -0.6731   -0.6707   -0.5934    0.0418    0.0839    0.0865    0.1274
          Occ. No.          1.0000    1.0000    1.0000    1.0000    1.0000    1.0000    0.0000    0.0000    0.0000    0.0000
 
        1 LI1    1s        -0.0000    0.9999   -0.0092   -0.0000    0.0284    0.0000   -0.0094   -0.0000   -0.0000    0.0026
        2 LI1    2s        -0.0005    0.0129   -0.0089   -0.0000    0.0085   -0.0000    0.9651    0.0000   -0.0000    0.3738
        3 LI1    2px        0.0000    0.0000   -0.0000   -0.0135   -0.0000   -0.0000   -0.0000    1.0085   -0.0075   -0.0000
        4 LI1    2py       -0.0000    0.0000    0.0000   -0.0001   -0.0000    0.0023   -0.0000    0.0075    1.0086    0.0000
        5 LI1    2pz       -0.0006    0.0001   -0.0094    0.0000   -0.0119   -0.0000   -0.2969    0.0000   -0.0000    1.0237
        6 O2     1s         1.0000   -0.0000   -0.0012   -0.0000    0.0003    0.0000   -0.0085   -0.0000    0.0000   -0.0405
        7 O2     2s         0.0020    0.0013    1.0043   -0.0000    0.0294   -0.0000   -0.0966   -0.0000    0.0000   -0.3889
        8 O2     2px       -0.0000    0.0000    0.0000    1.0016    0.0000    0.0075    0.0000   -0.1180    0.0010    0.0000
        9 O2     2py        0.0000    0.0000   -0.0000    0.0075    0.0000   -1.0003    0.0000   -0.0009   -0.1291   -0.0000
       10 O2     2pz       -0.0003   -0.0011   -0.0297   -0.0000    0.9997    0.0000    0.0860    0.0000   -0.0000    0.1707
--
 
 
      Input file to MOLDEN was generated!
 
 
++    Static properties:
      ------------------
 
 
      LoProp Charges per center
 

                   LI1      O2    
      Nuclear      3.0000   8.0000
      Electronic  -2.8824  -8.1176
 
      Total        0.1176  -0.1176
--
 
 
      All orbitals with orbital energies smaller than  E(LUMO)+0.5 are printed
 
++    Molecular orbitals:
      -------------------
 
      Title: UHF orbitals (beta)

      Molecular orbitals for symmetry species 1: a  
 
          Orbital            1         2         3         4         5         6         7         8         9        10    
          Energy          -20.6175   -2.4948   -1.0911   -0.5171   -0.1991    0.0300    0.0304    0.0471    0.1792    0.1824
          Occ. No.          1.0000    1.0000    1.0000    1.0000    1.0000    0.0000    0.0000    0.0000    0.0000    0.0000
 
        1 LI1    1s        -0.0000    0.9999   -0.0081    0.0000    0.0182    0.0000    0.0116   -0.0000   -0.0000   -0.0192
        2 LI1    2s        -0.0001    0.0119    0.0177    0.0000   -0.9266    0.0000    0.1930   -0.0000   -0.0000   -0.4185
        3 LI1    2px        0.0000    0.0000   -0.0000   -0.0002   -0.0000    0.9424   -0.0000   -0.0075   -0.3592    0.0000
        4 LI1    2py       -0.0000    0.0000    0.0000    0.0229   -0.0000    0.0070   -0.0000    1.0083   -0.0027   -0.0000
        5 LI1    2pz       -0.0001   -0.0000    0.0144   -0.0000    0.0517   -0.0000   -0.7937   -0.0000   -0.0000   -0.7096
        6 O2     1s         1.0000   -0.0000    0.0011   -0.0000    0.0162    0.0000    0.0227    0.0000    0.0000    0.0314
        7 O2     2s        -0.0019    0.0009    0.9916   -0.0000    0.1893    0.0000    0.2245    0.0000    0.0000    0.3173
        8 O2     2px       -0.0000    0.0000   -0.0000   -0.0075   -0.0000    0.2334   -0.0000    0.0012    0.9812   -0.0000
        9 O2     2py       -0.0000   -0.0000    0.0000    0.9967   -0.0000    0.0017   -0.0000   -0.1540    0.0073    0.0000
       10 O2     2pz       -0.0002   -0.0002   -0.0062    0.0000    0.3072    0.0000    0.5572    0.0000   -0.0000   -0.7950
--
 
 
++    Molecular charges:
      ------------------
 
      Mulliken charges per centre and basis function type
      ---------------------------------------------------
 
                            LI1                     O2    
                     alpha        beta       alpha        beta
      1s           0.9999      1.0001      1.0000      1.0000
      2s          -0.0026      0.8654      1.0047      0.9947
      2px         -0.0016      0.0000      1.0016      0.0001
      2pz         -0.0016      0.0088      0.9997      0.1310
      2py         -0.0003      0.0035      1.0003      0.9964
      Total        0.9938      1.8777      5.0062      3.1223
      Total              2.8715                  8.1285
 
      Charge            0.1285                 -0.1285
 
      Total electronic charge=   11.000000
 
      Total            charge=   -0.000000
--
 
 
      Input file to MOLDEN was generated!
 
 
++    Static properties:
      ------------------
 
 
      LoProp Charges per center
 

                   LI1      O2    
      Nuclear      3.0000   8.0000
      Electronic  -2.8824  -8.1176
 
      Total        0.1176  -0.1176
--
 
 
++    Natural Bond Order analysis
      ---------------------------
      Based on LoProp computed density
      -------------------------------------------------------------------------------------
      Atom A       Atom B       Bond Order
      -------------------------------------------------------------------------------------
      NBO located      1.000 non-bonded electrons on atom LI1       
      The remaining    4.508 electrons are to be considered as diffuse
--
 
 
++    Molecular orbitals:
      -------------------
 
      Title: Natural orbitals

      Molecular orbitals for symmetry species 1: a  
 
          Orbital            1         2         3         4         5         6         7         8         9        10    
          Energy          -20.6405   -2.4885   -1.2474   -0.5551   -0.2860   -0.2558   -0.0716    0.0667    0.1130    0.0658
          Occ. No.          2.0000    2.0000    1.9997    1.9997    1.4177    1.0000    0.5823    0.0003    0.0003    0.0000
 
        1 LI1    1s         0.0004    0.9998   -0.0138   -0.0000    0.0283    0.0000   -0.0079   -0.0000    0.0048   -0.0000
        2 LI1    2s        -0.0002    0.0129   -0.0070   -0.0000   -0.5452   -0.0000   -0.8670   -0.0000    0.1500   -0.0000
        3 LI1    2px       -0.0000   -0.0000    0.0000   -0.0001   -0.0000   -0.0135   -0.0000   -0.0075   -0.0000    1.0085
        4 LI1    2py        0.0000    0.0000   -0.0000    0.0103   -0.0000   -0.0001   -0.0000    1.0085    0.0000    0.0075
        5 LI1    2pz       -0.0004   -0.0000    0.0030    0.0000    0.0236    0.0000    0.0583   -0.0000    1.0642   -0.0000
        6 O2     1s         0.9998   -0.0001    0.0230    0.0000    0.0095    0.0000    0.0145    0.0000   -0.0378    0.0000
        7 O2     2s        -0.0228    0.0068    1.0001    0.0000    0.0989    0.0000    0.1512    0.0000   -0.3697    0.0000
        8 O2     2px       -0.0000   -0.0000    0.0000   -0.0075   -0.0000    1.0016   -0.0000    0.0011    0.0000   -0.1180
        9 O2     2py        0.0000    0.0000   -0.0000    0.9986   -0.0000    0.0075    0.0000   -0.1415   -0.0000   -0.0009
       10 O2     2pz       -0.0001   -0.0006   -0.0004   -0.0000    0.7764    0.0000   -0.6421   -0.0000    0.1474   -0.0000
--
 
 
++    Molecular properties:
      ---------------------
 
      Charge (e):
                      =   -0.0000
      Dipole Moment (Debye):
      Origin of the operator (Ang)=    0.0000    0.0000    0.0000
                   X= -4.0910E-13               Y= -9.0104E-13               Z= -6.7008E-01           Total=  6.7008E-01
      Quadrupole Moment (Debye*Ang):
      Origin of the operator (Ang)=    0.0000    0.0000    1.6682
                  XX= -1.2251E+01              XY=  8.7678E-03              XZ=  7.3957E-13              YY= -1.3423E+01
                  YZ=  1.0374E-12              ZZ= -1.2801E+01
      In traceless form (Debye*Ang)
                  XX=  8.6161E-01              XY=  1.3152E-02              XZ=  1.1094E-12              YY= -8.9746E-01
                  YZ=  1.5561E-12              ZZ=  3.5850E-02
--
 
 
      Input file to MOLDEN was generated!
 
 ###############################################################################
 ###############################################################################
 ###                                                                         ###
 ###                                                                         ###
 ###    WARNING: RunFile label BirthCertificate                              ###
 ###    was used       48 times                                              ###
 ###                                                                         ###
 ###                                                                         ###
 ###############################################################################
 ###############################################################################
 ###############################################################################
 ###############################################################################
 ###                                                                         ###
 ###                                                                         ###
 ###    WARNING: RunFile label nBas                                          ###
 ###    was used       87 times                                              ###
 ###                                                                         ###
 ###                                                                         ###
 ###############################################################################
 ###############################################################################
--- Stop Module: scf at Thu Apr 25 14:04:33 2024 /rc=_RC_ALL_IS_WELL_ ---
*** files: 2.40.LprOrb 2.40.LoProp.molden 2.40.scf.molden 2.40.scf.h5 2.40.UhfOrb 2.40.UnaOrb xmldump
    saved to directory /home/grierjones/DDCASPT2/delta_ML/LiO/2.40
--- Module scf spent 1 second ---

*** symbolic link created: INPORB -> 2.40.UnaOrb
--- Start Module: mbpt2 at Thu Apr 25 14:04:33 2024 ---
 
()()()()()()()()()()()()()()()()()()()()()()()()()()()()()()()()()()()()()()()()()()()()()()()()()()

                                               &MBPT2

                                   only a single process is used
                       available to each process: 2.0 GB of memory, 1 thread?
                                            pid: 115425
()()()()()()()()()()()()()()()()()()()()()()()()()()()()()()()()()()()()()()()()()()()()()()()()()()
 
 
 ###############################################################################
 ###############################################################################
 ###                                                                         ###
 ###                                                                         ###
 ###    WARNING: MP2 implementation intended for RHF references only         ###
 ###                                                                         ###
 ###                                                                         ###
 ###############################################################################
 ###############################################################################
MBPT2 WARNING: Reference function according to RunFile:UHF-SCF 
I'll assume you know what you're doing and continue
 
 
WARNING!
Default frozen orbitals as non valence orbitals is overwritten by user input.
Default values:   2
 
 
      Cartesian coordinates in Angstrom:
      -----------------------------------------------------
      No.  Label        X            Y            Z        
      -----------------------------------------------------
       1   LI1        0.00000000   0.00000000   0.00000000
       2   O2         0.00000000   0.00000000   2.40000000
      -----------------------------------------------------
      Nuclear repulsion energy =    5.29177211
 
      Contents of RUNFILE file:
      -------------------------
 
      Symmetry species                           1
                                                 a
      Number of basis functions                 10
      Frozen occupied orbitals                   0
      Active occupied orbitals                   6
      Active external orbitals                   4
      Deleted external orbitals                  0
 
 
      Energies of the active occupied orbitals
 
      symmetry species 1                   -20.683962     -2.482323     -1.384749     -0.673150     -0.670676
                                            -0.593389
 
 
      Energies of the active external orbitals
 
      symmetry species 1                     0.041808      0.083943      0.086531      0.127444
 
 
      ********************************************************************************************************
      *                                               Results                                                *
      ********************************************************************************************************
 
 Conventional algorithm used...

       SCF energy                           =      -82.2905527204 a.u.
       Second-order correlation energy      =       -0.0007828760 a.u.

       Total energy                         =      -82.2913355965 a.u.
       Reference weight ( Cref**2 )         =        0.99959
 
::    Total MBPT2 energy                              -82.2913355965
 
 
       Zeroth-order energy (E0)             =      -47.6847246609 a.u.
 
       Shanks-type energy S1(E)             =      -82.2913356142 a.u.
 
 


       Data processing and timing information:

       Section                                              time(sec)
                                                          CPU  Elapsed

      Input data processing                              0.03      0.04
      Transformation of integrals                        0.00      0.01
      MBPT2 calculations (BJAI)                          0.00      0.00
      Total MBPT2 calculations                           0.03      0.05
 
 
--- Stop Module: mbpt2 at Thu Apr 25 14:04:33 2024 /rc=_RC_ALL_IS_WELL_ ---
*** files: xmldump
    saved to directory /home/grierjones/DDCASPT2/delta_ML/LiO/2.40

*** symbolic link created: INPORB -> 2.40.UnaOrb
--- Start Module: rasscf at Thu Apr 25 14:04:33 2024 ---
 
()()()()()()()()()()()()()()()()()()()()()()()()()()()()()()()()()()()()()()()()()()()()()()()()()()

                                              &RASSCF

                                   only a single process is used
                       available to each process: 2.0 GB of memory, 1 thread?
                                            pid: 115428
()()()()()()()()()()()()()()()()()()()()()()()()()()()()()()()()()()()()()()()()()()()()()()()()()()
 
 
      Header of the ONEINT file:
      --------------------------
      
      Integrals generated by Gateway/Seward, Thu Apr 25 14:04:32 2024
 
 
      OrdInt status: non-squared
 
 
      Cartesian coordinates in Angstrom:
      -----------------------------------------------------
      No.  Label        X            Y            Z        
      -----------------------------------------------------
       1   LI1        0.00000000   0.00000000   0.00000000
       2   O2         0.00000000   0.00000000   2.40000000
      -----------------------------------------------------
      Nuclear repulsion energy =    5.29177211
 
++    Wave function specifications:
      -----------------------------
 
      Number of closed shell electrons          10
      Number of electrons in active shells       1
      Max number of holes in RAS1 space          0
      Max nr of electrons in RAS3 space          0
      Number of inactive orbitals                5
      Number of active orbitals                  2
      Number of secondary orbitals               3
      Spin quantum number                      0.5
      State symmetry                             1
--
 
++    Orbital specifications:
      -----------------------
 
      Symmetry species                           1
                                                 a
      Frozen orbitals                            0
      Inactive orbitals                          5
      Active orbitals                            2
      RAS1 orbitals                              0
      RAS2 orbitals                              2
      RAS3 orbitals                              0
      Secondary orbitals                         3
      Deleted orbitals                           0
      Number of basis functions                 10
--
 
++    CI expansion specifications:
      ----------------------------
 
      Number of CSFs                             2
      Number of determinants                     2
      Number of root(s) required                 1
      Root chosen for geometry opt.              1
      CI root used                               1
         
      highest root included in the CI            1
      max. size of the explicit Hamiltonian      2
--
 
++    Optimization specifications:
      ----------------------------
 
      RASSCF algorithm: Conventional
      Maximum number of macro iterations       200
      Maximum number of SX iterations          100
      Threshold for RASSCF energy            1.000E-08
      Threshold for max MO rotation          1.000E-01
      Threshold for max BLB element          1.000E-04
      Level shift parameter                  5.000E-01
      Make Quasi-Newton update
--
 
      The MO-coefficients are taken from the file:
      /home/grierjones/DDCASPT2/delta_ML/LiO/2.30/2.30.RasOrb                                                                                                                                                                                                         
      Title: RASSCF average (pseudo-natural) orbitals                                      
 
      Total molecular charge    0.00
 
      ************************************************************************************************************************
      *                                                                                                                      *
      *                                            Wave function control section                                             *
      *                                                                                                                      *
      ************************************************************************************************************************
 
 
                                         RASSCF iterations: Energy and convergence statistics
                                         ----------------------------------------------------
 
      Iter CI   SX   CI       RASSCF       Energy    max ROT     max BLB   max BLB  Level Ln srch  Step   QN   Walltime
          iter iter root      energy       change     param      element    value   shift minimum  type update hh:mm:ss
 Nr of preliminary CI iterations:   1
 ###############################################################################
 ###############################################################################
 ###                                                                         ###
 ###                                                                         ###
 ###    WARNING: Problems in orbital optimization.                           ###
 ###                                                                         ###
 ###                                                                         ###
 ###############################################################################
 ###############################################################################
  Warning: In symmetry  1, orbital p=   7 has diagonal density matrix element D(p,p) close to zero. D(p,p)=  1.085433E-28
        1   1    4    1   -82.23795243    0.00E+00   4.02E-03    3   6 1  2.82E-03*  0.51   0.00    SX    NO    0:00:00
 ###############################################################################
 ###############################################################################
 ###                                                                         ###
 ###                                                                         ###
 ###    WARNING: Problems in orbital optimization.                           ###
 ###                                                                         ###
 ###                                                                         ###
 ###############################################################################
 ###############################################################################
  Warning: In symmetry  1, orbital p=   7 has diagonal density matrix element D(p,p) close to zero. D(p,p)=  1.104955E-28
        2   1    4    1   -82.23798216   -2.97E-05*  2.39E-03    6  10 1  1.68E-03*  0.51   0.00    SX    NO    0:00:00
 ###############################################################################
 ###############################################################################
 ###                                                                         ###
 ###                                                                         ###
 ###    WARNING: Problems in orbital optimization.                           ###
 ###                                                                         ###
 ###                                                                         ###
 ###############################################################################
 ###############################################################################
  Warning: In symmetry  1, orbital p=   7 has diagonal density matrix element D(p,p) close to zero. D(p,p)=  1.125159E-28
        3   1    4    1   -82.23799286   -1.07E-05*  1.54E-03    6  10 1  1.08E-03*  0.51   0.00    SX    NO    0:00:00
 ###############################################################################
 ###############################################################################
 ###                                                                         ###
 ###                                                                         ###
 ###    WARNING: Problems in orbital optimization.                           ###
 ###                                                                         ###
 ###                                                                         ###
 ###############################################################################
 ###############################################################################
  Warning: In symmetry  1, orbital p=   7 has diagonal density matrix element D(p,p) close to zero. D(p,p)=  1.140787E-28
        4   1    4    1   -82.23799754   -4.68E-06*  1.06E-03    6  10 1  7.46E-04*  0.51   0.00    SX    NO    0:00:00
 ###############################################################################
 ###############################################################################
 ###                                                                         ###
 ###                                                                         ###
 ###    WARNING: Problems in orbital optimization.                           ###
 ###                                                                         ###
 ###                                                                         ###
 ###############################################################################
 ###############################################################################
  Warning: In symmetry  1, orbital p=   7 has diagonal density matrix element D(p,p) close to zero. D(p,p)=  1.151901E-28
        5   1    4    1   -82.23799988   -2.34E-06*  1.59E-03    6  10 1  5.36E-04*  0.51   2.50    LS   YES    0:00:00
 ###############################################################################
 ###############################################################################
 ###                                                                         ###
 ###                                                                         ###
 ###    WARNING: Problems in orbital optimization.                           ###
 ###                                                                         ###
 ###                                                                         ###
 ###############################################################################
 ###############################################################################
  Warning: In symmetry  1, orbital p=   7 has diagonal density matrix element D(p,p) close to zero. D(p,p)=  1.168607E-28
        6   1    4    1   -82.23800201   -2.13E-06*  1.27E-03    4   9 1  2.97E-04*  0.51   1.80    LS   YES    0:00:00
 ###############################################################################
 ###############################################################################
 ###                                                                         ###
 ###                                                                         ###
 ###    WARNING: Problems in orbital optimization.                           ###
 ###                                                                         ###
 ###                                                                         ###
 ###############################################################################
 ###############################################################################
  Warning: In symmetry  1, orbital p=   7 has diagonal density matrix element D(p,p) close to zero. D(p,p)=  1.182078E-28
        7   1    4    1   -82.23800254   -5.26E-07* -2.01E-04    3   6 1 -3.54E-04*  0.51   1.00    QN   YES    0:00:00
 ###############################################################################
 ###############################################################################
 ###                                                                         ###
 ###                                                                         ###
 ###    WARNING: Problems in orbital optimization.                           ###
 ###                                                                         ###
 ###                                                                         ###
 ###############################################################################
 ###############################################################################
  Warning: In symmetry  1, orbital p=   7 has diagonal density matrix element D(p,p) close to zero. D(p,p)=  1.182249E-28
        8   1    4    1   -82.23800285   -3.16E-07* -3.01E-04    3   6 1 -2.38E-04*  0.51   2.50    LS   YES    0:00:00
 ###############################################################################
 ###############################################################################
 ###                                                                         ###
 ###                                                                         ###
 ###    WARNING: Problems in orbital optimization.                           ###
 ###                                                                         ###
 ###                                                                         ###
 ###############################################################################
 ###############################################################################
  Warning: In symmetry  1, orbital p=   7 has diagonal density matrix element D(p,p) close to zero. D(p,p)=  1.182491E-28
        9   1    3    1   -82.23800307   -2.22E-07* -9.61E-05    3  10 1  1.12E-04*  0.51   1.24    QN   YES    0:00:00
 ###############################################################################
 ###############################################################################
 ###                                                                         ###
 ###                                                                         ###
 ###    WARNING: Problems in orbital optimization.                           ###
 ###                                                                         ###
 ###                                                                         ###
 ###############################################################################
 ###############################################################################
  Warning: In symmetry  1, orbital p=   7 has diagonal density matrix element D(p,p) close to zero. D(p,p)=  1.181017E-28
       10   1    3    1   -82.23800309   -1.71E-08*  3.11E-05    3  10 1  3.24E-05   0.51   1.19    QN   YES    0:00:00
 ###############################################################################
 ###############################################################################
 ###                                                                         ###
 ###                                                                         ###
 ###    WARNING: Problems in orbital optimization.                           ###
 ###                                                                         ###
 ###                                                                         ###
 ###############################################################################
 ###############################################################################
  Warning: In symmetry  1, orbital p=   7 has diagonal density matrix element D(p,p) close to zero. D(p,p)=  1.180259E-28
       11   1    3    1   -82.23800309   -1.54E-09  -1.43E-05    6   8 1  4.68E-06   0.51   1.27    QN   YES    0:00:00
      Convergence after 11 iterations
       12   1    3    1   -82.23800309   -1.67E-10  -1.43E-05    3  10 1 -2.28E-06   0.51   1.27    QN   YES    0:00:00
 
      ************************************************************************************************************************
                                                      Wave function printout:
                       occupation of active orbitals, and spin coupling of open shells (u,d: Spin up or down)
      ************************************************************************************************************************
 
      Note: transformation to natural orbitals
      has been made, which may change the order of the CSFs.
 
      printout of CI-coefficients larger than  0.05 for root  1
      energy=     -82.238003
      conf/sym  11     Coeff  Weight
             1  u0   1.00000 1.00000
 
      Natural orbitals and occupation numbers for root  1
      sym 1:   1.000000   0.000000
 
      ************************************************************************************************************************
      *                                                                                                                      *
      *                                                    Final results                                                     *
      *                                                                                                                      *
      ************************************************************************************************************************
 
 
++    Wave function specifications:
      -----------------------------
 
      Number of closed shell electrons          10
      Number of electrons in active shells       1
      Max number of holes in RAS1 space          0
      Max nr of electrons in RAS3 space          0
      Number of inactive orbitals                5
      Number of active orbitals                  2
      Number of secondary orbitals               3
      Spin quantum number                      0.5
      State symmetry                             1
--
 
++    Orbital specifications:
      -----------------------
 
      Symmetry species                           1
                                                 a
      Frozen orbitals                            0
      Inactive orbitals                          5
      Active orbitals                            2
      RAS1 orbitals                              0
      RAS2 orbitals                              2
      RAS3 orbitals                              0
      Secondary orbitals                         3
      Deleted orbitals                           0
      Number of basis functions                 10
--
 
++    CI expansion specifications:
      ----------------------------
 
      Number of CSFs                             2
      Number of determinants                     2
      Number of root(s) required                 1
      CI root used                               1
      highest root included in the CI            1
      Root passed to geometry opt.               1
--
 
++    Final optimization conditions:
      ------------------------------
 
      Average CI energy                             -82.23800309
      RASSCF energy for state  1                    -82.23800309
      Super-CI energy                                -0.00000000
      RASSCF energy change                           -0.00000000
      Max change in MO coefficients               1.603E-05
      Max non-diagonal density matrix element    -1.433E-05
      Maximum BLB matrix element                 -2.279E-06
      (orbital pair   3,  10 in symmetry   1)
      Norm of electronic gradient            3.222E-06
--
 
 
      Final state energy(ies):
      ------------------------
 
::    RASSCF root number  1 Total energy:    -82.23800309
 
++    Molecular orbitals:
      -------------------
 
      Pseudonatural active orbitals and approximate occupation numbers
 
 
 
 
      Molecular orbitals for symmetry species 1: a  
 
 
      Orbital                 1         2         3         4         5         6         7         8         9        10
      Energy           -20.2116   -2.5558   -0.9686   -0.2641   -0.2641   -0.0084   -0.0000   -0.0170    0.0611    0.1843
      Occ. No.           2.0000    2.0000    2.0000    2.0000    2.0000    1.0000    0.0000    0.0000    0.0000    0.0000
 
     1 LI1    1s        -0.0000    0.9999   -0.0093    0.0000    0.0000   -0.0268    0.0000   -0.0081    0.0000   -0.0069
     2 LI1    2s        -0.0003    0.0123    0.0386    0.0000   -0.0000    0.1532   -0.0000    0.8365   -0.0000   -0.5888
     3 LI1    2px       -0.0000   -0.0000    0.0000    0.0023    0.1849   -0.0000    0.9810    0.0000   -0.1437   -0.0000
     4 LI1    2py       -0.0000   -0.0000    0.0000    0.1849   -0.0023    0.0000    0.1437   -0.0000    0.9810   -0.0000
     5 LI1    2pz       -0.0004   -0.0018    0.0440    0.0000   -0.0000    0.1209   -0.0000   -0.5469   -0.0000   -0.9060
     6 O2     1s         1.0000    0.0000   -0.0029   -0.0000    0.0000   -0.0071    0.0000    0.0020    0.0000    0.0408
     7 O2     2s         0.0009    0.0015    0.9754   -0.0000    0.0000   -0.1309    0.0000   -0.0008    0.0000    0.4489
     8 O2     2px        0.0000    0.0000   -0.0000    0.0118    0.9589    0.0000   -0.3092   -0.0000    0.0453   -0.0000
     9 O2     2py        0.0000    0.0000   -0.0000    0.9589   -0.0118    0.0000   -0.0453    0.0000   -0.3092    0.0000
    10 O2     2pz       -0.0003   -0.0001   -0.0431    0.0000   -0.0000   -0.9482   -0.0000    0.1151    0.0000   -0.3502
--
 
      Von Neumann Entropy (Root   1) =  0.50000
 

      Mulliken population analysis for root number:  1
      -----------------------------------------------
 
 
++    Molecular charges:
      ------------------
 
      Mulliken charges per centre and basis function type
      ---------------------------------------------------
 
                LI1     O2    
      1s       1.9998  2.0000
      2s       0.0580  1.9534
      2px      0.1146  1.8854
      2pz      0.0536  0.9352
      2py      0.1146  1.8854
      Total    2.3406  8.6594
 
      N-E      0.6594 -0.6594
 
      Total electronic charge=   11.000000
 
      Total            charge=   -0.000000
--
 
 

      Expectation values of various properties for root number:  1
      -----------------------------------------------------------
 
 
++    Molecular properties:
      ---------------------
 
      Charge (e):
                      =    0.0000
      Dipole Moment (Debye):
      Origin of the operator (Ang)=    0.0000    0.0000    0.0000
                   X=  3.9165E-13               Y= -6.0055E-13               Z= -8.6641E+00           Total=  8.6641E+00
      Quadrupole Moment (Debye*Ang):
      Origin of the operator (Ang)=    0.0000    0.0000    1.6682
                  XX= -1.0032E+01              XY=  9.3848E-14              XZ=  3.2858E-15              YY= -1.0032E+01
                  YZ= -3.0514E-13              ZZ=  2.7176E+00
      In traceless form (Debye*Ang)
                  XX= -6.3746E+00              XY=  1.4077E-13              XZ=  4.9286E-15              YY= -6.3746E+00
                  YZ= -4.5771E-13              ZZ=  1.2749E+01
--
 

      Mulliken spin population analysis for root number:  1
      ---------------------------------------------------
 
 
++    Molecular charges:
      ------------------
 
      Mulliken spin population per centre and basis function type
      ---------------------------------------------------
 
                LI1     O2    
      1s       0.0001  0.0000
      2s       0.0390  0.0081
      2px      0.0000  0.0000
      2pz      0.0222  0.9307
      2py      0.0000  0.0000
      Total    0.0613  0.9387
 
      Total electronic spin=    1.000000
--
 
 

      LoProp population analysis for root number:  1
      -----------------------------------------------
 
 
++    LoProp analysis:
      ----------------
 
 
 
      Input file to MOLDEN was generated!
 
 
++    Static properties:
      ------------------
 
 
      LoProp Charges per center
 

                   LI1      O2    
      Nuclear      3.0000   8.0000
      Electronic  -2.2287  -8.7713
 
      Total        0.7713  -0.7713
--
 
 
      Natural Bond Order analysis for root number:  1
 
++    Natural Bond Order analysis
      ---------------------------
      Based on LoProp computed density
      -------------------------------------------------------------------------------------
      Atom A       Atom B       Bond Order
      -------------------------------------------------------------------------------------
      NBO located      1.000 non-bonded electrons on atom LI1       
      The remaining    4.658 electrons are to be considered as diffuse
--
 
--
 
 
      Input file to MOLDEN was generated!
 
 
      Input file to MOLDEN was generated!
 
      Average orbitals are written to the RASORB file
      Natural orbitals for root   1 are written to the RASORB.1 file
      Spin density orbitals for root   1 are written to the SPDORB.1 file
 
--- Stop Module: rasscf at Thu Apr 25 14:04:34 2024 /rc=_RC_ALL_IS_WELL_ ---
*** files: 2.40.LprOrb 2.40.rasscf.molden 2.40.rasscf.molden.1 2.40.LoProp.molden 2.40.RasOrb 2.40.RasOrb.1 2.40.rasscf.h5 2.40.SpdOrb.1 xmldump
    saved to directory /home/grierjones/DDCASPT2/delta_ML/LiO/2.40

*** symbolic link created: INPORB -> 2.40.RasOrb
--- Start Module: caspt2 at Thu Apr 25 14:04:34 2024 ---
 
()()()()()()()()()()()()()()()()()()()()()()()()()()()()()()()()()()()()()()()()()()()()()()()()()()

                                              &CASPT2

                                   only a single process is used
                       available to each process: 2.0 GB of memory, 1 thread?
                                            pid: 115431
()()()()()()()()()()()()()()()()()()()()()()()()()()()()()()()()()()()()()()()()()()()()()()()()()()
 
 ###############################################################################
 ###############################################################################
 ###                                                                         ###
 ###                                                                         ###
 ###    WARNING: User changed nr of frozen orbitals.                         ###
 ###                                                                         ###
 ###                                                                         ###
 ###############################################################################
 ###############################################################################
 
++    Wave function specifications:
      -----------------------------
 
      Number of closed shell electrons          10
      Number of electrons in active shells       1
      Max number of holes in RAS1 space          0
      Max number of electrons in RAS3 space      0
      Number of inactive orbitals                5
      Number of active orbitals                  2
      Number of secondary orbitals               3
      Spin quantum number                      0.5
      State symmetry                             1
      Number of CSFs                             2
      Number of CASSCF root(s) available         1
      CASPT2 state passed to geometry opt.       1
      A file JOBMIX will be created
      This is a CASSCF or RASSCF reference function
--
 
++    Orbital specifications:
      -----------------------
 
      Symmetry species                           1
                                                 a
      Frozen orbitals                            0
      Inactive orbitals                          5
      Active orbitals                            2
      Secondary orbitals                         3
      Deleted orbitals                           0
      Number of basis functions                 10
--
 
++    CASPT2 specifications:
      ----------------------
 
      Type of calculation                        SS-CASPT2
      Fock operator                              state-specific
      IPEA shift                                 0.25
      Real shift                                 0.00
      Imaginary shift                            0.00
      The input orbitals will be transformed to quasi-canonical
--
 
--------------------------------------------------------------------------------
 Estimated memory requirements:
  POLY3 :                   250056
  RHS:                      250476
  SIGMA :                   250480
  PRPCTL:                        0
 Available workspace:    230392719
 
++ CASPT2 computation for group   1
 
********************************************************************************
 Multi-State initialization phase begins for group   1
--------------------------------------------------------------------------------
********************************************************************************
 Compute H0 matrices for state    1
--------------------------------------------------------------------------------
--------------------------------------------------------------------------------
 H0 matrices have been computed.
 
********************************************************************************
  CASPT2 EQUATION SOLUTION
--------------------------------------------------------------------------------
 
  Total nr of CASPT2 parameters:
   Before reduction:         620
   After  reduction:         438
 
 Variance of |WF0>:       0.0241212726
 
 The contributions to the second order correlation energy in atomic units.
-----------------------------------------------------------------------------------------------------------------------------
  IT.      VJTU        VJTI        ATVX        AIVX        VJAI        BVAT        BJAT        BJAI        TOTAL       RNORM  
-----------------------------------------------------------------------------------------------------------------------------
   1    -0.000169   -0.003181    0.000000   -0.004026   -0.010283    0.000000   -0.004660   -0.005562   -0.027882    0.000943
   2    -0.000171   -0.003180    0.000000   -0.004077   -0.010285    0.000000   -0.004711   -0.005566   -0.027989    0.000046
   3    -0.000171   -0.003179    0.000000   -0.004077   -0.010284    0.000000   -0.004710   -0.005566   -0.027989    0.000003
-----------------------------------------------------------------------------------------------------------------------------
 
  FINAL CASPT2 RESULT:
 
      Reference energy:         -82.2380030935
      E2 (Non-variational):      -0.0279886355
      E2 (Variational):          -0.0279886381
      Total energy:             -82.2659917316
      Residual norm:              0.0000002053
      Reference weight:           0.96172
 
      Contributions to the CASPT2 correlation energy
      Active & Virtual Only:          0.0000000011
      One Inactive Excited:          -0.0089587564
      Two Inactive Excited:          -0.0190298802
 
 
++ Denominators, etc.
--------------------------------------------------------------------------------------------------------------
 Report on small energy denominators, large coefficients, and large energy contributions.
CASE  SYMM ACTIVE-MIX  NON-ACTIVE INDICES          DENOMINATOR     RHS VALUE       COEFFICIENT     CONTRIBUTION
VJTIP    1  Mu1.0001  In1.005 In1.005               0.65028760      0.04267588     -0.06562615     -0.00280065
ATVX     1  Mu1.0001  Se1.008                       0.17887396      0.00000190      0.00054928      0.00000000
ATVX     1  Mu1.0001  Se1.009                       0.25697838      0.00000000     -0.00000000     -0.00000000
AIVX     1  Mu1.0001  In1.005 Se1.008               0.39985109      0.01483181     -0.03850189     -0.00057105
AIVX     1  Mu1.0001  In1.005 Se1.010               0.60118028     -0.03464375      0.06006490     -0.00208087
AIVX     1  Mu1.0003  In1.005 Se1.010               0.76784695      0.02629904     -0.03405252     -0.00089555
VJAIP    1  Mu1.0001  Se1.009 In1.005 In1.004       0.65028760      0.03838738     -0.05903138     -0.00226606
VJAIM    1  Mu1.0001  Se1.009 In1.005 In1.004       0.65028760     -0.05866194      0.09020920     -0.00529185
BJATP    1  Mu1.0001  In1.004 Se1.009 Se1.008       0.44151776      0.01187125     -0.02652085     -0.00031484
BJATP    1  Mu1.0001  In1.004 Se1.010 Se1.009       0.64284695     -0.02629904      0.04073826     -0.00107138
BJATM    1  Mu1.0001  In1.004 Se1.009 Se1.008       0.44151776     -0.01483181      0.03482426     -0.00051651
BJATM    1  Mu1.0001  In1.004 Se1.010 Se1.009       0.64284695     -0.03464375      0.05610739     -0.00194377
BJAIP    1  Se1.009 In1.004 Se1.009 In1.004         0.65028760      0.04267588     -0.06562615     -0.00280065
--
 
   (Skipping property calculation,
    use PROP keyword to activate)
--
 
  Total CASPT2 energies:
::    CASPT2 Root  1     Total energy:    -82.26599173
 
  A NEW JOBIPH FILE NAMED 'JOBMIX' IS PREPARED.
********************************************************************************
--- Stop Module: caspt2 at Thu Apr 25 14:04:34 2024 /rc=_RC_ALL_IS_WELL_ ---
*** files: xmldump
    saved to directory /home/grierjones/DDCASPT2/delta_ML/LiO/2.40

.##################.
.# Happy landing! #.
.##################.

    Timing: Wall=2.81 User=2.01 System=0.25
************************************
*** WorkDir at /tmp/2.40 removed ***
************************************
