   This run of MOLCAS is using the pymolcas driver

                             OPE
                             OPE          NMOL  CASOP  ENMOLC A   SO
                 OPE        NMOLC        AS  OP EN  MO LC     AS  OP
                OPENM       OL CA        SO  PE NM  OL CA     SOP EN
                OP EN      MO   LC       AS  OP ENMOL  CASO   PENMOL
                OP  EN     MO   LC       AS  OP EN     MO     LC ASO
               OP   E  NMOL  C  AS       OP  EN MO     LC     AS  OP
               OP  E   NMO   LC AS        OPEN  MO     LCASOP EN   M
               O  PEN   MO  LCA  SO
            OPE   NMO   L   CAS    OP
        OPENMOL  CASOP     ENMOL   CASOPE
     OPENMOLCA   SOPENMOLCASOPEN   MOLCASOPE
    OPENMOLCAS   OP           EN   MOL    CAS
    OPENMOLCAS       OP  ENM        O     LCA
    OPENMOLCAS    OPEN  MOLCASO     P  E  NMO
    OPENMOLCAS     OP               E  N  MOL
    OPENMOLCA   SO           PENM   O  L  CAS    OPEN    MO    LCAS
    OPENMOLCA   SOP           ENM   O  L  CAS   OP  EN  MOLC  AS   O
    OPENMOLCA   SOPE           NM      O  LCA   S      OP  EN MO
    OPENMOLC                AS         O  PEN   M      OL  CA  SOPE
    OPENMO        LCASOPE  NMOL        C  ASO   P      ENMOLC     AS
    OPE     NMO      LCA  SO     P     E   NM   OL  CA SO  PE N   MO
          OPENMOLCA            SOPE   NMO        LCAS  O    P  ENMO
     OPENMOLCASOPENMOLCASOPENMOLCASOPENMOLCA
        OPENMOLCASOPENMOLCASOPENMOLCASOPE
            OPENMOLCASOPENMOLCASOPENM
               OPENMOLCASOPENMOLCA        version: 1d1d16313-dirty
                   OPENMOLCASO
                       OPE                tag:

 OpenMolcas is free software; you can redistribute it and/or modify it
 under the terms of the GNU Lesser General Public License version 2.1.
 OpenMolcas is distributed in the hope that it will be useful, but it
 is provided "as is" and without any express or implied warranties.
 For more details see the full text of the license in the file
 LICENSE or in <http://www.gnu.org/licenses/>.

                 Copyright (C) The OpenMolcas Authors
           For the author list and the recommended citation,
                   consult the file CONTRIBUTORS.md

           *************************************************
           * pymolcas version py2.28                       *
           *   build c4a6d18ded8cb6cad61d2372a9abd97c      *
           *   (after the EMIL interpreter by V. Veryazov) *
           *************************************************

configuration info
------------------
C Compiler ID: IntelLLVM
C flags: -std=gnu99
Fortran Compiler ID: IntelLLVM
Fortran flags: -standard-semantics -fltconsistency -fpp -i8 -heap-arrays
Definitions: _MOLCAS_;_I8_;_LINUX_
Parallel: OFF (GA=OFF)


   --------------------------------------------------------------------------------
  |
  |              Project: ozone_147.50
  |       Submitted from: /home/grierjones/DDCASPT2/ozone/ANO-RCC-VDZP/ozone_147.50
  |         Scratch area: /tmp/ozone_147.50
  |      Save outputs to: /home/grierjones/DDCASPT2/ozone/ANO-RCC-VDZP/ozone_147.50
  |               Molcas: /home/grierjones/Test/build
  |
  | Scratch area is empty
  |
  |       MOLCAS_DRIVER = /usr/local/pymolcas
  | MOLCAS_KEEP_WORKDIR = NO
  |  MOLCAS_NEW_WORKDIR = YES
  |       MOLCAS_NPROCS = 1
  |        MOLCAS_PRINT = NORMAL
  |       MOLCAS_SOURCE = /home/grierjones/Test
  |    MOLCAS_STRUCTURE = 0
  |
   --------------------------------------------------------------------------------

++ ---------   Input file   ---------

&GATEWAY
coord=ozone_147.50.xyz
Basis = ANO-RCC-VDZP
Group = nosymm
Expert
End of Input

&SEWARD
End of Input

&SCF

>>> COPY $WorkDir/ozone_147.50.scf.h5 $CurrDir/

&RASSCF
Title= RASSCF
FileOrb
/home/grierjones/DDCASPT2/ozone/ANO-RCC-VDZP/ozone_147.25/ozone_147.25.RasOrb
NACTEL
4 0 0
Inactive
10
RAS2
3
Symmetry
1
Spin
1
orblisting
all
ITERation
300 200

>>> COPY $WorkDir/ozone_147.50.rasscf.h5 $CurrDir/

>>> COPY $WorkDir/GMJ_Fock_MO.csv $CurrDir/ozone_147.50.GMJ_Fock_MO.csv

>>> COPY $WorkDir/GMJ_PT2_Fock_MO.csv $CurrDir/ozone_147.50.GMJ_PT2_Fock_MO.csv

&MOTRA
Frozen=0
LUMORB

>>> COPY $WorkDir/GMJ_one_int_indx.csv $CurrDir/ozone_147.50.GMJ_one_int_indx.csv

>>> COPY $WorkDir/GMJ_one_int.csv $CurrDir/ozone_147.50.GMJ_one_int.csv

>>> COPY $WorkDir/GMJ_two_int_indx.csv $CurrDir/ozone_147.50.GMJ_two_int_indx.csv

>>> COPY $WorkDir/GMJ_two_int.csv $CurrDir/ozone_147.50.GMJ_two_int.csv

&CASPT2
Frozen
0
MAXITER
50

>>> FOREACH i IN (B,E,F,G,H)

  >>> FOREACH j IN (P,M)

    >>> IF (-FILE GMJ_e2_${i}_${j}.csv)

      >>> COPY $WorkDir/GMJ_RHS_${i}_${j}.csv $CurrDir/GMJ_RHS_${i}_${j}.csv

      >>> COPY $WorkDir/GMJ_IVECW_${i}_${j}.csv $CurrDir/GMJ_IVECW_${i}_${j}.csv

      >>> COPY $WorkDir/GMJ_IVECX_${i}_${j}.csv $CurrDir/GMJ_IVECX_${i}_${j}.csv

      >>> COPY $WorkDir/GMJ_IVECC2_${i}_${j}.csv $CurrDir/GMJ_IVECC2_${i}_${j}.csv

      >>> COPY $WorkDir/GMJ_e2_${i}_${j}.csv $CurrDir/GMJ_e2_${i}_${j}.csv

    >>> END IF

  >>> END FOREACH

>>> END FOREACH

>>> FOREACH i IN (A,C,D)

  >>> IF (-FILE GMJ_e2_$i.csv)

    >>> COPY $WorkDir/GMJ_RHS_$i.csv $CurrDir/GMJ_RHS_$i.csv

    >>> COPY $WorkDir/GMJ_IVECW_$i.csv $CurrDir/GMJ_IVECW_$i.csv

    >>> COPY $WorkDir/GMJ_IVECX_$i.csv $CurrDir/GMJ_IVECX_$i.csv

    >>> COPY $WorkDir/GMJ_IVECC2_$i.csv $CurrDir/GMJ_IVECC2_$i.csv

    >>> COPY $WorkDir/GMJ_e2_$i.csv $CurrDir/GMJ_e2_$i.csv

  >>> END IF

>>> END FOREACH

-- ----------------------------------

--- Start Module: gateway at Fri Jan 24 16:48:29 2025 ---
 
()()()()()()()()()()()()()()()()()()()()()()()()()()()()()()()()()()()()()()()()()()()()()()()()()()

                                              &GATEWAY

                                   only a single process is used
                       available to each process: 2.0 GB of memory, 1 thread?
()()()()()()()()()()()()()()()()()()()()()()()()()()()()()()()()()()()()()()()()()()()()()()()()()()
 
 ###############################################################################
 ###############################################################################
 ###                                                                         ###
 ###                                                                         ###
 ###                                                                         ###
 ###    WARNING: EXPERT option is ON!                                        ###
 ###                                                                         ###
 ###                                                                         ###
 ###############################################################################
 ###############################################################################
 
++    Symmetry information:
      ---------------------
 
                    Character Table for C1 
 
                             E  
                    a        1  x, y, xy, Rz, z, xz, Ry, yz, Rx, I
--
 
 
++    Basis set information:
      ----------------------
 
 
      Basis set label: O.ANO-RCC...3S2P1D.
 
      Electronic valence basis set:
      ------------------
      Associated Effective Charge   8.000000 au
      Associated Actual Charge      8.000000 au
      Nuclear Model: Point charge
 
      Shell  nPrim  nBasis  Cartesian Spherical Contaminant
         s      14       3        X                  
         p       9       2        X                  
         d       4       1                 X         
--
 
 
++    Molecular structure info:
      -------------------------
 
                    ************************************************ 
                    **** Cartesian Coordinates / Bohr, Angstrom **** 
                    ************************************************ 
 
     Center  Label                x              y              z                     x              y              z
        1      O1               0.675806       2.318588       0.000000              0.357621       1.226944       0.000000
        2      O2               0.000000       0.000000       0.000000              0.000000       0.000000       0.000000
        3      O3               0.675806      -2.318588       0.000000              0.357621      -1.226944       0.000000
 
                    *************************************** 
                    *    InterNuclear Distances / Bohr    * 
                    *************************************** 
 
               1 O1            2 O2            3 O3    
    1 O1       0.000000
    2 O2       2.415070        0.000000
    3 O3       4.637176        2.415070        0.000000
 
                    ******************************************* 
                    *    InterNuclear Distances / Angstrom    * 
                    ******************************************* 
 
               1 O1            2 O2            3 O3    
    1 O1       0.000000
    2 O2       1.278000        0.000000
    3 O3       2.453888        1.278000        0.000000
 
                    ************************************** 
                    *    Valence Bond Angles / Degree    * 
                    ************************************** 
                          Atom centers                 Phi
                      1 O1       2 O2       3 O3       147.50
--
 
 
            Nuclear Potential Energy             66.80203113 au
 
 ###############################################################################
 ###############################################################################
 ###                                                                         ###
 ###                                                                         ###
 ###    There were warnings during the execution                             ###
 ###    Please, check the output with care!                                  ###
 ###                                                                         ###
 ###                                                                         ###
 ###############################################################################
 ###############################################################################
--- Stop Module: gateway at Fri Jan 24 16:48:30 2025 /rc=_RC_ALL_IS_WELL_ ---
*** files: xmldump
    saved to directory /home/grierjones/DDCASPT2/ozone/ANO-RCC-VDZP/ozone_147.50

--- Start Module: seward at Fri Jan 24 16:48:30 2025 ---
 
()()()()()()()()()()()()()()()()()()()()()()()()()()()()()()()()()()()()()()()()()()()()()()()()()()

                                              &SEWARD

                                   only a single process is used
                       available to each process: 2.0 GB of memory, 1 thread?
()()()()()()()()()()()()()()()()()()()()()()()()()()()()()()()()()()()()()()()()()()()()()()()()()()
 
 ###############################################################################
 ###############################################################################
 ###                                                                         ###
 ###                                                                         ###
 ###                                                                         ###
 ###    WARNING: EXPERT option is ON!                                        ###
 ###                                                                         ###
 ###                                                                         ###
 ###############################################################################
 ###############################################################################
               SEWARD will generate:
                  Multipole Moment integrals up to order  2
                  Kinetic Energy integrals
                  Nuclear Attraction integrals (point charge)
                  One-Electron Hamiltonian integrals
                  Velocity integrals
                  Relativistic Douglas-Kroll-Hess integrals:
                    - Parametrization         : EXP
                    - DKH order of Hamiltonian: 2
                    - DKH order of Properties : 0
                         - multipole moment operators
                         - electric potential operators
                         - contact operators
                  Atomic mean-field integrals
                  Two-Electron Repulsion integrals
 
                   Integrals are discarded if absolute value <: 0.10E-13
                   Integral cutoff threshold is set to       <: 0.10E-15
 
            Nuclear Potential Energy             66.80203113 au
 
 
      Basis set specifications :
      Symmetry species         a  
      Basis functions           42
 
 
  Input file to MOLDEN was generated!
 
 ###############################################################################
 ###############################################################################
 ###                                                                         ###
 ###                                                                         ###
 ###    There were warnings during the execution                             ###
 ###    Please, check the output with care!                                  ###
 ###                                                                         ###
 ###                                                                         ###
 ###############################################################################
 ###############################################################################
forrtl: warning (525): IEEE_DIVIDE_BY_ZERO is signaling
forrtl: warning (526): IEEE_INVALID is signaling
forrtl: warning (528): IEEE_UNDERFLOW is signaling
--- Stop Module: seward at Fri Jan 24 16:48:31 2025 /rc=_RC_ALL_IS_WELL_ ---
*** files: ozone_147.50.GssOrb ozone_147.50.guessorb.h5 ozone_147.50.guessorb.molden xmldump
    saved to directory /home/grierjones/DDCASPT2/ozone/ANO-RCC-VDZP/ozone_147.50
--- Module seward spent 1 second ---

*** symbolic link created: INPORB -> ozone_147.50.GssOrb
--- Start Module: scf at Fri Jan 24 16:48:31 2025 ---
 
()()()()()()()()()()()()()()()()()()()()()()()()()()()()()()()()()()()()()()()()()()()()()()()()()()

                                                &SCF

                                   only a single process is used
                       available to each process: 2.0 GB of memory, 1 thread?
()()()()()()()()()()()()()()()()()()()()()()()()()()()()()()()()()()()()()()()()()()()()()()()()()()
 
++    Input section:
      --------------
 
      Header of the integral files:
      
       Integrals generated by seward 4.2.0  , Fri Jan 24 16:48:30 2025
 
 
      Cartesian coordinates in Angstrom:
      -----------------------------------------------------
      No.  Label        X            Y            Z        
      -----------------------------------------------------
       1   O1         0.35762100   1.22694400   0.00000000
       2   O2         0.00000000   0.00000000   0.00000000
       3   O3         0.35762100  -1.22694400   0.00000000
      -----------------------------------------------------
      Nuclear repulsion energy =   66.80203113
--
 
++    Orbital specifications:
      -----------------------
 
      Symmetry species               1
                                     a
      Frozen orbitals                0
      Occupied orbitals             12
      Secondary orbitals            30
      Deleted orbitals               0
      Total number of orbitals      42
      Number of basis functions     42
--
 
      Molecular charge                           0.000
 
++    Optimization specifications:
      ----------------------------
 
      SCF Algorithm: Conventional
      Minimized density differences are used
      Number of density matrices in core                5
      Maximum number of NDDO SCF iterations           400
      Maximum number of HF SCF iterations             400
      Threshold for SCF energy change            0.10E-08
      Threshold for density matrix               0.10E-03
      Threshold for Fock matrix                  0.15E-03
      Threshold for linear dependence            0.10E-08
      Threshold at which DIIS is turned on       0.15E+00
      Threshold at which QNR/C2DIIS is turned on 0.75E-01
      Threshold for Norm(delta) (QNR/C2DIIS)     0.20E-04
      DIIS extrapolation of the SCF procedure
      All orbitals punched on: SCFORB
--
 
      Input vectors read from INPORB
      Orbital file label: *Guess orbitals
 
 
++ Convergence information
                                   SCF        iterations: Energy and convergence statistics
 
Iter     Tot. SCF        One-elec.       Two-elec.     Energy      Max Dij or  Max Fij      DNorm      TNorm      AccCon     Time
         Energy          Energy          Energy        Change      Delta Norm                                                in Sec.
   1  -223.917551760  -437.347243115   146.627660227   0.00E+00    0.58E+00*   0.26E+00*    0.73E+01   0.75E+02   None         0.
   2  -224.133312342  -443.329939852   152.394596382  -0.22E+00*   0.27E+00*   0.17E+00*    0.23E+01   0.77E+02   EDIIS        0.
   3  -224.400042759  -440.795137953   149.593064065  -0.27E+00*   0.22E+00*   0.93E-01*    0.78E+00   0.76E+02   EDIIS        0.
   4  -224.406182714  -441.601217191   150.393003349  -0.61E-02*   0.28E-01*   0.48E-01*    0.22E+00   0.76E+02   EDIIS        0.
   5  -224.442062592  -441.162783251   149.918689531  -0.36E-01*   0.12E-01*   0.57E-02*    0.45E-01   0.76E+02   c2DIIS       0.
   6  -224.442391794  -441.196589088   149.952166165  -0.33E-03*   0.53E-02*   0.30E-02*    0.10E-01   0.76E+02   QNRc2DIIS    0.
   7  -224.442474090  -441.201009974   149.956504756  -0.82E-04*   0.12E-01*   0.25E-02*    0.38E-02   0.76E+02   QNRc2DIIS    0.
   8  -224.442534890  -441.193659824   149.949093806  -0.61E-04*   0.15E-02*   0.76E-03*    0.18E-02   0.76E+02   QNRc2DIIS    0.
   9  -224.442540588  -441.199825637   149.955253921  -0.57E-05*   0.83E-03*   0.23E-03*    0.12E-02   0.76E+02   QNRc2DIIS    0.
  10  -224.442541502  -441.197994530   149.953421901  -0.91E-06*   0.18E-03*   0.53E-04     0.89E-03   0.76E+02   QNRc2DIIS    0.
  11  -224.442541545  -441.199489407   149.954916734  -0.44E-07*   0.86E-04*   0.24E-04     0.19E-03   0.76E+02   QNRc2DIIS    0.
  12  -224.442541556  -441.199061046   149.954488363  -0.10E-07*   0.33E-04*   0.83E-05     0.44E-04   0.76E+02   QNRc2DIIS    0.
  13  -224.442541557  -441.199022555   149.954449871  -0.12E-08*   0.59E-05    0.18E-05     0.95E-04   0.76E+02   QNRc2DIIS    0.
  14  -224.442541557  -441.199035680   149.954462995  -0.60E-10    0.10E-05    0.49E-06     0.21E-02   0.76E+02   QNRc2DIIS    0.
 
       Convergence after 14 Macro Iterations
--
 
 *****************************************************************************************************************************
 *                                                                                                                           *
 *                                             SCF/KS-DFT Program, Final results                                             *
 *                                                                                                                           *
 *                                                                                                                           *
 *                                                                                                                           *
 *                                                       Final Results                                                       *
 *                                                                                                                           *
 *****************************************************************************************************************************
 
::    Total SCF energy                               -224.4425415568
      One-electron energy                            -441.1990356800
      Two-electron energy                             149.9544629951
      Nuclear repulsion energy                         66.8020311281
      Kinetic energy (interpolated)                   225.4740973097
      Virial theorem                                    0.9954249479
      Total spin, S(S+1)                                0.0000000000
      Total spin, S                                     0.0000000000
      Max non-diagonal density matrix element           0.0000012898
      Max non-diagonal Fock matrix element              0.0000001903
 
 
      All orbitals with orbital energies smaller than  E(LUMO)+0.5 are printed
 
++    Molecular orbitals:
      -------------------
 
      Title: SCF orbitals

      Molecular orbitals for symmetry species 1: a  
 
          Orbital            1         2         3         4         5         6         7         8         9        10    
          Energy          -20.8851  -20.7323  -20.7322   -1.7276   -1.4672   -1.0762   -0.8358   -0.8037   -0.7676   -0.6016
          Occ. No.          2.0000    2.0000    2.0000    2.0000    2.0000    2.0000    2.0000    2.0000    2.0000    2.0000
 
        1 O1     1s         0.0022   -0.7072    0.7072   -0.0152    0.0103    0.0124   -0.0072   -0.0188    0.0000    0.0058
        2 O1     2s        -0.0001   -0.0007    0.0005    0.3228   -0.5712    0.6346   -0.1554   -0.4059    0.0000    0.0704
        3 O1     3s        -0.0001   -0.0001   -0.0001   -0.0229    0.0131    0.0162   -0.0134   -0.0264    0.0000    0.0070
        4 O1     2px        0.0001    0.0003   -0.0002   -0.0259    0.0400    0.0732    0.2828   -0.2459    0.0000   -0.6442
        5 O1     3px        0.0003    0.0001    0.0001    0.0088   -0.0053   -0.0121   -0.0260    0.0146   -0.0000   -0.0045
        6 O1     2py       -0.0000    0.0008   -0.0010   -0.1054    0.0889    0.1498   -0.2150   -0.3638   -0.0000    0.2935
        7 O1     3py        0.0001   -0.0005    0.0003    0.0247   -0.0180   -0.0225    0.0199    0.0292    0.0000    0.0008
        8 O1     2pz       -0.0000   -0.0000   -0.0000   -0.0000   -0.0000    0.0000   -0.0000    0.0000    0.3959    0.0000
        9 O1     3pz        0.0000    0.0000    0.0000   -0.0000    0.0000    0.0000    0.0000   -0.0000   -0.0242    0.0000
       10 O1     3d2-      -0.0000   -0.0000    0.0000    0.0072   -0.0095   -0.0081   -0.0132    0.0199   -0.0000    0.0099
       11 O1     3d1-       0.0000   -0.0000   -0.0000    0.0000    0.0000   -0.0000    0.0000   -0.0000   -0.0296   -0.0000
       12 O1     3d0        0.0001    0.0001   -0.0001   -0.0090    0.0087    0.0056   -0.0065   -0.0160   -0.0000    0.0049
       13 O1     3d1+       0.0000    0.0000   -0.0000    0.0000   -0.0000   -0.0000   -0.0000    0.0000   -0.0081    0.0000
       14 O1     3d2+       0.0000   -0.0002    0.0001   -0.0169    0.0119    0.0104   -0.0210   -0.0230    0.0000    0.0151
       15 O2     1s         1.0000   -0.0000   -0.0032   -0.0213   -0.0000   -0.0156   -0.0046   -0.0000   -0.0000    0.0000
       16 O2     2s         0.0004   -0.0000   -0.0008    0.6660    0.0000   -0.6333   -0.0551   -0.0000   -0.0000    0.0000
       17 O2     3s        -0.0004   -0.0000   -0.0006   -0.0413   -0.0000   -0.0099   -0.0065   -0.0000   -0.0000    0.0000
       18 O2     2px        0.0006   -0.0000   -0.0002    0.0750    0.0000    0.1480    0.7241   -0.0000    0.0000   -0.0000
       19 O2     3px       -0.0009   -0.0000   -0.0003   -0.0181   -0.0000   -0.0171   -0.0591    0.0000   -0.0000   -0.0000
       20 O2     2py        0.0000    0.0009   -0.0000    0.0000   -0.3304   -0.0000    0.0000    0.5205   -0.0000   -0.1283
       21 O2     3py        0.0000    0.0011   -0.0000    0.0000    0.0796    0.0000   -0.0000   -0.0825    0.0000    0.0042
       22 O2     2pz        0.0000    0.0000    0.0000   -0.0000    0.0000   -0.0000   -0.0000    0.0000    0.6734   -0.0000
       23 O2     3pz        0.0000   -0.0000   -0.0000    0.0000   -0.0000    0.0000    0.0000   -0.0000   -0.0220   -0.0000
       24 O2     3d2-       0.0000    0.0001   -0.0000    0.0000   -0.0280   -0.0000    0.0000    0.0186   -0.0000   -0.0412
       25 O2     3d1-      -0.0000    0.0000    0.0000   -0.0000    0.0000    0.0000    0.0000   -0.0000   -0.0000    0.0000
       26 O2     3d0       -0.0003    0.0000    0.0003   -0.0179   -0.0000   -0.0029   -0.0127    0.0000   -0.0000    0.0000
       27 O2     3d1+      -0.0000    0.0000    0.0000   -0.0000    0.0000    0.0000   -0.0000    0.0000    0.0232   -0.0000
       28 O2     3d2+      -0.0000    0.0000    0.0003   -0.0248   -0.0000   -0.0022    0.0153   -0.0000    0.0000    0.0000
       29 O3     1s         0.0022    0.7072    0.7072   -0.0152   -0.0103    0.0124   -0.0072    0.0188   -0.0000   -0.0058
       30 O3     2s        -0.0001    0.0007    0.0005    0.3228    0.5712    0.6346   -0.1554    0.4059   -0.0000   -0.0704
       31 O3     3s        -0.0001    0.0001   -0.0001   -0.0229   -0.0131    0.0162   -0.0134    0.0264   -0.0000   -0.0070
       32 O3     2px        0.0001   -0.0003   -0.0002   -0.0259   -0.0400    0.0732    0.2828    0.2459    0.0000    0.6442
       33 O3     3px        0.0003   -0.0001    0.0001    0.0088    0.0053   -0.0121   -0.0260   -0.0146   -0.0000    0.0045
       34 O3     2py        0.0000    0.0008    0.0010    0.1054    0.0889   -0.1498    0.2150   -0.3638    0.0000    0.2935
       35 O3     3py       -0.0001   -0.0005   -0.0003   -0.0247   -0.0180    0.0225   -0.0199    0.0292   -0.0000    0.0008
       36 O3     2pz       -0.0000    0.0000    0.0000    0.0000    0.0000   -0.0000   -0.0000    0.0000    0.3959   -0.0000
       37 O3     3pz       -0.0000    0.0000    0.0000    0.0000   -0.0000    0.0000    0.0000   -0.0000   -0.0242    0.0000
       38 O3     3d2-       0.0000   -0.0000   -0.0000   -0.0072   -0.0095    0.0081    0.0132    0.0199    0.0000    0.0099
       39 O3     3d1-      -0.0000    0.0000    0.0000   -0.0000    0.0000    0.0000   -0.0000    0.0000    0.0296   -0.0000
       40 O3     3d0        0.0001   -0.0001   -0.0001   -0.0090   -0.0087    0.0056   -0.0065    0.0160   -0.0000   -0.0049
       41 O3     3d1+       0.0000   -0.0000   -0.0000    0.0000    0.0000   -0.0000    0.0000   -0.0000   -0.0081    0.0000
       42 O3     3d2+       0.0000    0.0002    0.0001   -0.0169   -0.0119    0.0104   -0.0210    0.0230   -0.0000   -0.0151
 
          Orbital           11        12        13        14        15        16    
          Energy           -0.5081   -0.5077   -0.0411    0.1845    0.2864    0.4521
          Occ. No.          2.0000    2.0000    0.0000    0.0000    0.0000    0.0000
 
        1 O1     1s         0.0000   -0.0036   -0.0000    0.0352   -0.1546   -0.0334
        2 O1     2s         0.0000   -0.0147   -0.0000    0.3918   -1.1371   -0.2174
        3 O1     3s         0.0000   -0.0177    0.0000    0.0436   -0.3946   -0.1387
        4 O1     2px        0.0000   -0.6698    0.0000   -0.0293    0.2760   -0.0537
        5 O1     3px        0.0000   -0.0273    0.0000   -0.0109    0.2069    0.4140
        6 O1     2py        0.0000   -0.0389    0.0000   -0.8162    0.5684    0.1085
        7 O1     3py       -0.0000    0.0205    0.0000   -0.2382    0.6015    0.2838
        8 O1     2pz       -0.7055   -0.0000    0.6590   -0.0000    0.0000    0.0000
        9 O1     3pz       -0.0399   -0.0000    0.1291    0.0000    0.0000   -0.0000
       10 O1     3d2-      -0.0000    0.0054   -0.0000    0.0079   -0.0162    0.0161
       11 O1     3d1-       0.0243    0.0000    0.0110    0.0000    0.0000   -0.0000
       12 O1     3d0        0.0000   -0.0040    0.0000    0.0013    0.0170    0.0120
       13 O1     3d1+       0.0060    0.0000    0.0039    0.0000    0.0000   -0.0000
       14 O1     3d2+       0.0000   -0.0070    0.0000    0.0106    0.0250    0.0386
       15 O2     1s         0.0000   -0.0191    0.0000   -0.1310    0.0000    0.0930
       16 O2     2s         0.0000   -0.2434    0.0000   -1.1693    0.0000    0.5579
       17 O2     3s         0.0000   -0.0350    0.0000   -0.2718   -0.0000    0.2354
       18 O2     2px       -0.0000    0.6119   -0.0000   -0.5051    0.0000   -0.0311
       19 O2     3px       -0.0000    0.0283   -0.0000   -0.1349    0.0000    0.5313
       20 O2     2py        0.0000    0.0000   -0.0000    0.0000    1.3111    0.0000
       21 O2     3py        0.0000    0.0000    0.0000    0.0000    1.0342   -0.0000
       22 O2     2pz        0.0000   -0.0000   -0.8692   -0.0000    0.0000    0.0000
       23 O2     3pz        0.0000   -0.0000   -0.1491   -0.0000    0.0000   -0.0000
       24 O2     3d2-      -0.0000   -0.0000    0.0000    0.0000    0.0375   -0.0000
       25 O2     3d1-      -0.0545   -0.0000   -0.0000    0.0000   -0.0000    0.0000
       26 O2     3d0        0.0000   -0.0186    0.0000   -0.0317   -0.0000   -0.0489
       27 O2     3d1+      -0.0000   -0.0000   -0.0025    0.0000    0.0000    0.0000
       28 O2     3d2+       0.0000   -0.0306    0.0000   -0.0522   -0.0000   -0.1062
       29 O3     1s         0.0000   -0.0036    0.0000    0.0352    0.1546   -0.0334
       30 O3     2s         0.0000   -0.0147   -0.0000    0.3918    1.1371   -0.2174
       31 O3     3s         0.0000   -0.0177    0.0000    0.0436    0.3946   -0.1387
       32 O3     2px        0.0000   -0.6698    0.0000   -0.0293   -0.2760   -0.0537
       33 O3     3px        0.0000   -0.0273    0.0000   -0.0109   -0.2069    0.4140
       34 O3     2py       -0.0000    0.0389   -0.0000    0.8162    0.5684   -0.1085
       35 O3     3py        0.0000   -0.0205   -0.0000    0.2382    0.6015   -0.2838
       36 O3     2pz        0.7055    0.0000    0.6590    0.0000   -0.0000    0.0000
       37 O3     3pz        0.0399    0.0000    0.1291    0.0000    0.0000   -0.0000
       38 O3     3d2-       0.0000   -0.0054   -0.0000   -0.0079   -0.0162   -0.0161
       39 O3     3d1-       0.0243    0.0000   -0.0110   -0.0000   -0.0000    0.0000
       40 O3     3d0        0.0000   -0.0040    0.0000    0.0013   -0.0170    0.0120
       41 O3     3d1+      -0.0060   -0.0000    0.0039    0.0000    0.0000   -0.0000
       42 O3     3d2+       0.0000   -0.0070    0.0000    0.0106   -0.0250    0.0386
--
 
 
++    Molecular charges:
      ------------------
 
      Mulliken charges per centre and basis function type
      ---------------------------------------------------
 
                O1      O2      O3    
      1s       2.0003  2.0001  2.0003
      2s       1.9298  1.7296  1.9298
      2px      1.9505  1.7655  1.9505
      2pz      1.4094  1.1349  1.4094
      2py      0.8486  0.9995  0.8486
      3s      -0.0102 -0.0196 -0.0102
      3px     -0.0178 -0.0328 -0.0178
      3pz     -0.0118 -0.0078 -0.0118
      3py     -0.0066  0.0245 -0.0066
      3d2+     0.0190  0.0305  0.0190
      3d1+     0.0010  0.0039  0.0010
      3d0      0.0056  0.0074  0.0056
      3d1-     0.0129  0.0460  0.0129
      3d2-     0.0100  0.0366  0.0100
      Total    8.1409  7.7182  8.1409
 
      N-E     -0.1409  0.2818 -0.1409
 
      Total electronic charge=   24.000000
 
      Total            charge=   -0.000000
--
 
 
  Input file to MOLDEN was generated!
 
 
++    Static properties:
      ------------------
 
 
      LoProp Charges per center
 

                   O1       O2       O3    
      Nuclear      8.0000   8.0000   8.0000
      Electronic  -8.1855  -7.6291  -8.1855
 
      Total       -0.1855   0.3709  -0.1855
--
 
 
++    Natural Bond Order analysis
      ---------------------------
      Based on LoProp computed density
      -------------------------------------------------------------------------------------
      Atom A       Atom B       Bond Order | Atom A       Atom B       Bond Order
        O1           O2             2.000  |   O2           O3             2.000
      -------------------------------------------------------------------------------------
      NBO located     12.000 core electrons.
      NBO located      3.969 lone pair electrons.
      NBO located      8.000 electrons involved in    2 bonds.
      The remaining    0.031 electrons are to be considered as diffuse
--
 
 
++    Molecular properties:
      ---------------------
 
      Charge (e):
                      =   -0.0000
      Dipole Moment (Debye):
      Origin of the operator (Ang)=    0.0000    0.0000    0.0000
                   X= -2.2142E-01               Y=  2.4090E-11               Z=  8.2405E-14           Total=  2.2142E-01
      Quadrupole Moment (Debye*Ang):
      Origin of the operator (Ang)=    0.2384    0.0000    0.0000
                  XX= -1.6458E+01              XY=  8.7806E-12              XZ=  3.1621E-13              YY= -1.7294E+01
                  YZ=  7.9049E-14              ZZ= -1.5180E+01
      In traceless form (Debye*Ang)
                  XX= -2.2120E-01              XY=  1.3171E-11              XZ=  4.7431E-13              YY= -1.4749E+00
                  YZ=  1.1857E-13              ZZ=  1.6961E+00
--
 
 
  Input file to MOLDEN was generated!
 
 ###############################################################################
 ###############################################################################
 ###                                                                         ###
 ###                                                                         ###
 ###    RunFile label nBas                                                   ###
 ###    was used       78 times                                              ###
 ###                                                                         ###
 ###                                                                         ###
 ###############################################################################
 ###############################################################################
forrtl: warning (528): IEEE_UNDERFLOW is signaling
--- Stop Module: scf at Fri Jan 24 16:48:31 2025 /rc=_RC_ALL_IS_WELL_ ---
*** files: ozone_147.50.LprOrb ozone_147.50.LoProp.molden ozone_147.50.scf.molden ozone_147.50.ScfOrb ozone_147.50.scf.h5 xmldump
    saved to directory /home/grierjones/DDCASPT2/ozone/ANO-RCC-VDZP/ozone_147.50

>>> COPY /tmp/ozone_147.50/ozone_147.50.scf.h5 /home/grierjones/DDCASPT2/ozone/ANO-RCC-VDZP/ozone_147.50/

*** symbolic link created: INPORB -> ozone_147.50.ScfOrb
--- Start Module: rasscf at Fri Jan 24 16:48:31 2025 ---
 
()()()()()()()()()()()()()()()()()()()()()()()()()()()()()()()()()()()()()()()()()()()()()()()()()()

                                              &RASSCF

                                   only a single process is used
                       available to each process: 2.0 GB of memory, 1 thread?
()()()()()()()()()()()()()()()()()()()()()()()()()()()()()()()()()()()()()()()()()()()()()()()()()()
 
 
 *************** WARNING ****************
 ###############################################################################
 ###############################################################################
 ###                                                                         ###
 ###                                                                         ###
 ###    Too many macro-iterations.                                           ###
 ###                                                                         ###
 ###                                                                         ###
 ###############################################################################
 ###############################################################################
 Too many macro-iterations requested.
 Reset to maximum, new MAXIT=     200
 ****************************************
 
 *************** WARNING ****************
 ###############################################################################
 ###############################################################################
 ###                                                                         ###
 ###                                                                         ###
 ###    Too many SX-iterations.                                              ###
 ###                                                                         ###
 ###                                                                         ###
 ###############################################################################
 ###############################################################################
 Too many SX-iterations requested.
 Reset to maximum, new ITMAX=     100
 ****************************************
 
      Header of the ONEINT file:
      --------------------------
      
      Integrals generated by seward 4.2.0  , Fri Jan 24 16:48:30 2025
 
 
      OrdInt status: non-squared
 
 
      Cartesian coordinates in Angstrom:
      -----------------------------------------------------
      No.  Label        X            Y            Z        
      -----------------------------------------------------
       1   O1         0.35762100   1.22694400   0.00000000
       2   O2         0.00000000   0.00000000   0.00000000
       3   O3         0.35762100  -1.22694400   0.00000000
      -----------------------------------------------------
      Nuclear repulsion energy =   66.80203113
 
++    Wave function specifications:
      -----------------------------
 
      Number of closed shell electrons          20
      Number of electrons in active shells       4
      Max number of holes in RAS1 space          0
      Max nr of electrons in RAS3 space          0
      Number of inactive orbitals               10
      Number of active orbitals                  3
      Number of secondary orbitals              29
      Spin quantum number                      0.0
      State symmetry                             1
--
 
++    Orbital specifications:
      -----------------------
 
      Symmetry species                           1
                                                 a
      Frozen orbitals                            0
      Inactive orbitals                         10
      Active orbitals                            3
      RAS1 orbitals                              0
      RAS2 orbitals                              3
      RAS3 orbitals                              0
      Secondary orbitals                        29
      Deleted orbitals                           0
      Number of basis functions                 42
--
 
++    CI expansion specifications:
      ----------------------------
 
      Number of CSFs                             6
      Number of determinants                     6
      Number of root(s) required                 1
      Root chosen for geometry opt.              1
      CI root used                               1
         
      highest root included in the CI            1
      max. size of the explicit Hamiltonian      6
--
 
++    Optimization specifications:
      ----------------------------
 
      RASSCF algorithm: Conventional
      Maximum number of macro iterations       200
      Maximum number of SX iterations          100
      Threshold for RASSCF energy            0.100E-07
      Threshold for max MO rotation          0.100E+00
      Threshold for max BLB element          0.100E-03
      Level shift parameter                  0.500E+00
      Make Quasi-Newton update
--
 
      The MO-coefficients are taken from the file:
      /home/grierjones/DDCASPT2/ozone/ANO-RCC-VDZP/ozone_147.25/ozone_147.25.RasOrb                                                   
      Title: RASSCF average (pseudo-natural) orbitals                                      
 
      Total molecular charge    0.00
 
      ************************************************************************************************************************
      *                                                                                                                      *
      *                                            Wave function control section                                             *
      *                                                                                                                      *
      ************************************************************************************************************************
 
 
                                         RASSCF iterations: Energy and convergence statistics
                                         ----------------------------------------------------
 
      Iter CI   SX   CI       RASSCF       Energy    max ROT     max BLB   max BLB  Level Ln srch  Step   QN   Walltime
          iter iter root      energy       change     param      element    value   shift minimum  type update hh:mm:ss
 Nr of preliminary CI iterations:   1
        1   1    3    1  -224.52701680    0.00E+00   0.61E-03    9  19 1 -0.15E-02*  0.20   0.00    SX    NO    0:00:00
        2   1    3    1  -224.52702202   -0.52E-05*  0.34E-03    7  14 1 -0.81E-03*  0.20   0.00    SX    NO    0:00:00
        3   1    3    1  -224.52702315   -0.11E-05*  0.23E-03    7  14 1 -0.55E-03*  0.20   0.00    SX    NO    0:00:00
        4   1    3    1  -224.52702353   -0.38E-06*  0.11E-03    7  14 1 -0.26E-03*  0.20   0.00    SX    NO    0:00:00
        5   1    3    1  -224.52702364   -0.11E-06*  0.32E-03    7  14 1 -0.21E-03*  0.20   2.44    QN   YES    0:00:00
        6   1    3    1  -224.52702369   -0.53E-07* -0.14E-03    7  14 1  0.18E-03*  0.20   0.64    QN   YES    0:00:00
        7   1    3    1  -224.52702372   -0.24E-07*  0.20E-04    8  19 1  0.96E-04   0.20   0.67    QN   YES    0:00:00
        8   1    2    1  -224.52702372   -0.31E-08   0.47E-05   10  14 1 -0.11E-04   0.20   0.72    QN   YES    0:00:00
      Convergence after  8 iterations
 
  Dmat in MO in SXCTL bf call to SXHAM                                                                                    
  mat. size =     3x    3
 
        1.9893180920499658
        0.0000000000004036      1.6988894282899114
        0.0010543649000916      0.0000000000007833      0.3117924796601217
        9   1    2    1  -224.52702372   -0.67E-10   0.47E-05    8  19 1  0.15E-04   0.20   0.72    QN   YES    0:00:00
 
      ************************************************************************************************************************
                                                      Wave function printout:
                       occupation of active orbitals, and spin coupling of open shells (u,d: Spin up or down)
      ************************************************************************************************************************
 
      Note: transformation to natural orbitals
      has been made, which may change the order of the CSFs.
 
      printout of CI-coefficients larger than  0.05 for root  1
      energy=    -224.527024
      conf/sym  111     Coeff  Weight
             1  220  -0.91875 0.84410
             3  202   0.38801 0.15056
             6  022   0.07308 0.00534
 
      Natural orbitals and occupation numbers for root  1
      sym 1:   1.989319   1.698889   0.311792
 
      ************************************************************************************************************************
      *                                                                                                                      *
      *                                                    Final results                                                     *
      *                                                                                                                      *
      ************************************************************************************************************************
 
 
++    Wave function specifications:
      -----------------------------
 
      Number of closed shell electrons          20
      Number of electrons in active shells       4
      Max number of holes in RAS1 space          0
      Max nr of electrons in RAS3 space          0
      Number of inactive orbitals               10
      Number of active orbitals                  3
      Number of secondary orbitals              29
      Spin quantum number                      0.0
      State symmetry                             1
--
 
++    Orbital specifications:
      -----------------------
 
      Symmetry species                           1
                                                 a
      Frozen orbitals                            0
      Inactive orbitals                         10
      Active orbitals                            3
      RAS1 orbitals                              0
      RAS2 orbitals                              3
      RAS3 orbitals                              0
      Secondary orbitals                        29
      Deleted orbitals                           0
      Number of basis functions                 42
--
 
++    CI expansion specifications:
      ----------------------------
 
      Number of CSFs                             6
      Number of determinants                     6
      Number of root(s) required                 1
      CI root used                               1
      highest root included in the CI            1
      Root passed to geometry opt.               1
--
 
++    Final optimization conditions:
      ------------------------------
 
      Average CI energy                            -224.52702372
      RASSCF energy for state  1                   -224.52702372
      Super-CI energy                                -0.00000000
      RASSCF energy change                           -0.00000000
      Max change in MO coefficients              -0.379E-05
      Max non-diagonal density matrix element     0.473E-05
      Maximum BLB matrix element                  0.154E-04
      (orbital pair   8,  19 in symmetry   1)
      Norm of electronic gradient            0.296E-04
--
 
 
      Final state energy(ies):
      ------------------------
 
::    RASSCF root number  1 Total energy:   -224.52702372
 
++    Molecular orbitals:
      -------------------
 
      Pseudonatural active orbitals and approximate occupation numbers
 
 
 
 
      Molecular orbitals for symmetry species 1: a  
 
 
      Orbital                1         2         3         4         5         6         7         8         9        10
      Energy          -20.7901  -20.7291  -20.7291   -1.6925   -1.4492   -1.0622   -0.7958   -0.7894   -0.6013   -0.4878
      Occ. No.          2.0000    2.0000    2.0000    2.0000    2.0000    2.0000    2.0000    2.0000    2.0000    2.0000
 
    1 O1     1s         0.0051   -0.7072    0.7072   -0.0149    0.0091    0.0133   -0.0061   -0.0177    0.0062    0.0031
    2 O1     2s         0.0000   -0.0007    0.0005    0.3433   -0.5894    0.6290   -0.1201   -0.3740    0.0732    0.0032
    3 O1     3s        -0.0000   -0.0000   -0.0001   -0.0237    0.0120    0.0173   -0.0115   -0.0252    0.0076    0.0201
    4 O1     2px        0.0002    0.0002   -0.0002   -0.0261    0.0387    0.0750    0.3407   -0.2649   -0.6397    0.6460
    5 O1     3px        0.0004    0.0001    0.0001    0.0087   -0.0050   -0.0111   -0.0276    0.0145   -0.0045    0.0326
    6 O1     2py       -0.0001    0.0008   -0.0009   -0.1086    0.0869    0.1729   -0.2243   -0.3864    0.3041    0.0829
    7 O1     3py        0.0001   -0.0005    0.0003    0.0250   -0.0170   -0.0238    0.0165    0.0273    0.0015   -0.0217
    8 O1     2pz        0.0000    0.0000   -0.0000    0.0000   -0.0000    0.0000   -0.0000    0.0000    0.0000   -0.0000
    9 O1     3pz        0.0000    0.0000    0.0000    0.0000    0.0000    0.0000    0.0000    0.0000   -0.0000   -0.0000
   10 O1     3d2-      -0.0000   -0.0000    0.0000    0.0068   -0.0089   -0.0080   -0.0144    0.0194    0.0092   -0.0026
   11 O1     3d1-       0.0000   -0.0000   -0.0000   -0.0000   -0.0000    0.0000   -0.0000    0.0000   -0.0000   -0.0000
   12 O1     3d0        0.0001    0.0001   -0.0002   -0.0099    0.0093    0.0061   -0.0064   -0.0161    0.0055    0.0043
   13 O1     3d1+       0.0000   -0.0000    0.0000   -0.0000    0.0000   -0.0000   -0.0000    0.0000    0.0000    0.0000
   14 O1     3d2+       0.0000   -0.0002    0.0001   -0.0171    0.0116    0.0120   -0.0202   -0.0233    0.0148    0.0093
   15 O2     1s         1.0000   -0.0000   -0.0074   -0.0226   -0.0000   -0.0131   -0.0060    0.0000   -0.0000    0.0230
   16 O2     2s         0.0005   -0.0000   -0.0007    0.6384    0.0000   -0.6346   -0.0852    0.0000   -0.0000    0.2998
   17 O2     3s        -0.0006   -0.0000   -0.0006   -0.0354   -0.0000   -0.0145   -0.0076   -0.0000   -0.0000    0.0433
   18 O2     2px        0.0006   -0.0000   -0.0001    0.0763    0.0000    0.1072    0.6604   -0.0000    0.0000   -0.6636
   19 O2     3px       -0.0011   -0.0000   -0.0003   -0.0171   -0.0000   -0.0119   -0.0433    0.0000   -0.0000   -0.0447
   20 O2     2py        0.0000    0.0009   -0.0000    0.0000   -0.2994   -0.0000    0.0000    0.4901   -0.1316   -0.0000
   21 O2     3py        0.0000    0.0011   -0.0000    0.0000    0.0761    0.0000   -0.0000   -0.0759   -0.0003   -0.0000
   22 O2     2pz       -0.0000   -0.0000   -0.0000    0.0000    0.0000    0.0000    0.0000   -0.0000   -0.0000   -0.0000
   23 O2     3pz       -0.0000   -0.0000   -0.0000   -0.0000    0.0000   -0.0000    0.0000   -0.0000   -0.0000    0.0000
   24 O2     3d2-       0.0000    0.0001   -0.0000    0.0000   -0.0280   -0.0000    0.0000    0.0210   -0.0399   -0.0000
   25 O2     3d1-      -0.0000   -0.0000    0.0000   -0.0000   -0.0000    0.0000    0.0000   -0.0000    0.0000   -0.0000
   26 O2     3d0       -0.0001    0.0000    0.0003   -0.0173   -0.0000   -0.0027   -0.0135    0.0000   -0.0000    0.0223
   27 O2     3d1+      -0.0000    0.0000   -0.0000   -0.0000   -0.0000   -0.0000    0.0000    0.0000    0.0000   -0.0000
   28 O2     3d2+      -0.0000    0.0000    0.0003   -0.0244   -0.0000   -0.0001    0.0176   -0.0000   -0.0000    0.0278
   29 O3     1s         0.0051    0.7072    0.7072   -0.0149   -0.0091    0.0133   -0.0061    0.0177   -0.0062    0.0031
   30 O3     2s         0.0000    0.0007    0.0005    0.3433    0.5894    0.6290   -0.1201    0.3740   -0.0732    0.0032
   31 O3     3s        -0.0000    0.0000   -0.0001   -0.0237   -0.0120    0.0173   -0.0115    0.0252   -0.0076    0.0201
   32 O3     2px        0.0002   -0.0002   -0.0002   -0.0261   -0.0387    0.0750    0.3407    0.2649    0.6397    0.6460
   33 O3     3px        0.0004   -0.0001    0.0001    0.0087    0.0050   -0.0111   -0.0276   -0.0145    0.0045    0.0326
   34 O3     2py        0.0001    0.0008    0.0009    0.1086    0.0869   -0.1729    0.2243   -0.3864    0.3041   -0.0829
   35 O3     3py       -0.0001   -0.0005   -0.0003   -0.0250   -0.0170    0.0238   -0.0165    0.0273    0.0015    0.0217
   36 O3     2pz        0.0000   -0.0000    0.0000    0.0000   -0.0000    0.0000    0.0000    0.0000    0.0000    0.0000
   37 O3     3pz        0.0000    0.0000   -0.0000    0.0000   -0.0000   -0.0000    0.0000    0.0000   -0.0000   -0.0000
   38 O3     3d2-       0.0000   -0.0000   -0.0000   -0.0068   -0.0089    0.0080    0.0144    0.0194    0.0092    0.0026
   39 O3     3d1-       0.0000   -0.0000    0.0000    0.0000    0.0000    0.0000   -0.0000   -0.0000    0.0000   -0.0000
   40 O3     3d0        0.0001   -0.0001   -0.0002   -0.0099   -0.0093    0.0061   -0.0064    0.0161   -0.0055    0.0043
   41 O3     3d1+      -0.0000   -0.0000    0.0000   -0.0000    0.0000    0.0000   -0.0000    0.0000   -0.0000    0.0000
   42 O3     3d2+       0.0000    0.0002    0.0001   -0.0171   -0.0116    0.0120   -0.0202    0.0233   -0.0148    0.0093
 
 
      Orbital               11        12        13        14        15        16        17        18        19        20
      Energy            0.0000    0.0000    0.0000    0.1951    0.2899    0.4649    0.4651    0.5422    0.6188    0.6871
      Occ. No.          1.9893    1.6989    0.3118    0.0000    0.0000    0.0000    0.0000    0.0000    0.0000    0.0000
 
    1 O1     1s         0.0000   -0.0000   -0.0000   -0.0376   -0.1557    0.0000   -0.0314    0.0257   -0.0327    0.0057
    2 O1     2s        -0.0000    0.0000   -0.0000   -0.4107   -1.1400    0.0000   -0.2044    0.1782   -0.0840    0.0077
    3 O1     3s        -0.0000   -0.0000   -0.0000   -0.0458   -0.3984    0.0000   -0.1244    0.2082   -0.1140    0.0466
    4 O1     2px        0.0000   -0.0000    0.0000    0.0081    0.2675    0.0000   -0.0334   -0.1036   -0.1445   -0.0443
    5 O1     3px        0.0000    0.0000    0.0000    0.0069    0.2121   -0.0000    0.4527    0.1483   -0.1711   -0.8100
    6 O1     2py       -0.0000   -0.0000    0.0000    0.8083    0.5461   -0.0000    0.0964   -0.1698   -0.4220    0.1141
    7 O1     3py        0.0000    0.0000    0.0000    0.2424    0.6098   -0.0000    0.2629   -0.7743    0.1443   -0.0648
    8 O1     2pz        0.2925   -0.7066    0.6815   -0.0000   -0.0000    0.0105    0.0000   -0.0000    0.0000   -0.0000
    9 O1     3pz       -0.0296   -0.0085   -0.0524   -0.0000    0.0000    0.4820    0.0000   -0.0000   -0.0000   -0.0000
   10 O1     3d2-       0.0000    0.0000   -0.0000   -0.0079   -0.0173   -0.0000    0.0162   -0.0110   -0.0825   -0.0004
   11 O1     3d1-      -0.0284    0.0190    0.0067   -0.0000    0.0000    0.0316    0.0000   -0.0000   -0.0000   -0.0000
   12 O1     3d0        0.0000   -0.0000    0.0000   -0.0019    0.0173   -0.0000    0.0124    0.0036    0.0579   -0.0162
   13 O1     3d1+      -0.0073    0.0041    0.0015   -0.0000    0.0000    0.0114    0.0000   -0.0000    0.0000   -0.0000
   14 O1     3d2+       0.0000   -0.0000    0.0000   -0.0128    0.0256   -0.0000    0.0403   -0.0009    0.0663   -0.0172
   15 O2     1s         0.0000   -0.0000   -0.0000    0.1308    0.0000   -0.0000    0.0894   -0.1495    0.0000   -0.0000
   16 O2     2s         0.0000   -0.0000    0.0000    1.1823    0.0000   -0.0000    0.5333   -0.8646    0.0000   -0.0000
   17 O2     3s         0.0000   -0.0000    0.0000    0.2859    0.0000   -0.0000    0.2400   -0.2917   -0.0000    0.0000
   18 O2     2px       -0.0000    0.0000    0.0000    0.5545    0.0000    0.0000   -0.0856   -0.0953    0.0000   -0.0000
   19 O2     3px       -0.0000   -0.0000    0.0000    0.1592    0.0000   -0.0000    0.4697   -0.1024    0.0000    0.0000
   20 O2     2py        0.0000    0.0000    0.0000   -0.0000    1.3009   -0.0000   -0.0000    0.0000   -0.4396    0.1253
   21 O2     3py       -0.0000    0.0000   -0.0000   -0.0000    1.0531   -0.0000    0.0000    0.0000    0.6783   -0.1418
   22 O2     2pz        0.7932    0.0000   -0.6542    0.0000    0.0000   -0.2582   -0.0000    0.0000    0.0000    0.0000
   23 O2     3pz       -0.0112    0.0000   -0.0723    0.0000    0.0000    0.3541    0.0000    0.0000   -0.0000    0.0000
   24 O2     3d2-       0.0000    0.0000    0.0000   -0.0000    0.0424   -0.0000   -0.0000    0.0000    0.0776    0.0027
   25 O2     3d1-       0.0000   -0.0438   -0.0000   -0.0000    0.0000   -0.0000    0.0000    0.0000   -0.0000    0.0000
   26 O2     3d0       -0.0000    0.0000   -0.0000    0.0289   -0.0000    0.0000   -0.0458    0.0967    0.0000   -0.0000
   27 O2     3d1+       0.0246    0.0000   -0.0120    0.0000    0.0000   -0.0241   -0.0000   -0.0000   -0.0000   -0.0000
   28 O2     3d2+      -0.0000    0.0000    0.0000    0.0491   -0.0000    0.0000   -0.1026    0.1117    0.0000   -0.0000
   29 O3     1s         0.0000    0.0000    0.0000   -0.0376    0.1557    0.0000   -0.0314    0.0257    0.0327   -0.0057
   30 O3     2s        -0.0000    0.0000   -0.0000   -0.4107    1.1400    0.0000   -0.2044    0.1782    0.0840   -0.0077
   31 O3     3s        -0.0000    0.0000   -0.0000   -0.0458    0.3984    0.0000   -0.1244    0.2082    0.1140   -0.0466
   32 O3     2px       -0.0000   -0.0000   -0.0000    0.0081   -0.2675    0.0000   -0.0334   -0.1036    0.1445    0.0443
   33 O3     3px        0.0000   -0.0000    0.0000    0.0069   -0.2121   -0.0000    0.4527    0.1483    0.1711    0.8100
   34 O3     2py       -0.0000    0.0000   -0.0000   -0.8083    0.5461    0.0000   -0.0964    0.1698   -0.4220    0.1141
   35 O3     3py       -0.0000    0.0000    0.0000   -0.2424    0.6098    0.0000   -0.2629    0.7743    0.1443   -0.0648
   36 O3     2pz        0.2925    0.7066    0.6815    0.0000   -0.0000    0.0105    0.0000   -0.0000    0.0000    0.0000
   37 O3     3pz       -0.0296    0.0085   -0.0524    0.0000    0.0000    0.4820    0.0000    0.0000   -0.0000    0.0000
   38 O3     3d2-       0.0000   -0.0000    0.0000    0.0079   -0.0173    0.0000   -0.0162    0.0110   -0.0825   -0.0004
   39 O3     3d1-       0.0284    0.0190   -0.0067    0.0000   -0.0000   -0.0316   -0.0000   -0.0000    0.0000   -0.0000
   40 O3     3d0        0.0000    0.0000    0.0000   -0.0019   -0.0173   -0.0000    0.0124    0.0036   -0.0579    0.0162
   41 O3     3d1+      -0.0073   -0.0041    0.0015   -0.0000    0.0000    0.0114    0.0000   -0.0000   -0.0000    0.0000
   42 O3     3d2+       0.0000    0.0000    0.0000   -0.0128   -0.0256   -0.0000    0.0403   -0.0009   -0.0663    0.0172
 
 
      Orbital               21        22        23        24        25        26        27        28        29        30
      Energy            0.6938    0.8530    0.9642    0.9911    1.0166    1.6908    1.7190    1.7216    1.7733    1.9756
      Occ. No.          0.0000    0.0000    0.0000    0.0000    0.0000    0.0000    0.0000    0.0000    0.0000    0.0000
 
    1 O1     1s        -0.0000   -0.0185   -0.0328    0.0000    0.0906   -0.0000   -0.0062    0.0000   -0.1160   -0.0960
    2 O1     2s        -0.0000   -0.1000   -0.1767   -0.0000    0.5201   -0.0000   -0.0481    0.0000   -0.8483   -0.7359
    3 O1     3s        -0.0000    0.4604   -0.0419    0.0000    0.0040   -0.0000   -0.0472    0.0000   -1.1033   -0.8655
    4 O1     2px        0.0000   -0.0056   -0.4311   -0.0000   -0.2117    0.0000    0.0807   -0.0000    0.2276    0.0905
    5 O1     3px        0.0000    0.0544   -0.8508   -0.0000   -0.2241    0.0000    0.0434   -0.0000    0.1607    0.1661
    6 O1     2py       -0.0000   -0.0276    0.0612    0.0000    0.0685    0.0000    0.0182   -0.0000    0.2573    0.4877
    7 O1     3py        0.0000    0.3118    0.0153    0.0000    0.6834    0.0000    0.0250   -0.0000    0.2954    0.5266
    8 O1     2pz       -0.0934    0.0000   -0.0000    0.4851   -0.0000   -0.1731    0.0000   -0.0709    0.0000   -0.0000
    9 O1     3pz       -0.8361   -0.0000   -0.0000    0.8890   -0.0000    0.0262   -0.0000   -0.0506   -0.0000   -0.0000
   10 O1     3d2-      -0.0000   -0.0527   -0.0441   -0.0000   -0.0070    0.0000    0.2569   -0.0000    0.2592   -0.1660
   11 O1     3d1-      -0.0284   -0.0000   -0.0000    0.0153   -0.0000   -0.3992    0.0000   -0.2709   -0.0000    0.0000
   12 O1     3d0        0.0000    0.0458    0.0509    0.0000   -0.0674    0.0000    0.3505    0.0000   -0.1195    0.0566
   13 O1     3d1+      -0.0012    0.0000   -0.0000    0.0300   -0.0000   -0.2159    0.0000    0.3524    0.0000   -0.0000
   14 O1     3d2+       0.0000    0.0571    0.0212   -0.0000   -0.1381    0.0000   -0.0905   -0.0000    0.1684   -0.1885
   15 O2     1s         0.0000    0.0127   -0.0178   -0.0000    0.0000    0.0000    0.0147   -0.0000    0.0000    0.2458
   16 O2     2s         0.0000    0.0662   -0.0588   -0.0000    0.0000    0.0000    0.1079   -0.0000    0.0000    1.7425
   17 O2     3s         0.0000    0.5596   -0.0127    0.0000    0.0000    0.0000    0.1179   -0.0000    0.0000    1.7149
   18 O2     2px        0.0000   -0.0129    0.6295    0.0000   -0.0000    0.0000    0.0746    0.0000    0.0000    0.1052
   19 O2     3px        0.0000   -0.0627    1.5564    0.0000   -0.0000    0.0000   -0.0767   -0.0000    0.0000    0.1550
   20 O2     2py       -0.0000   -0.0000   -0.0000   -0.0000   -0.7528    0.0000    0.0000   -0.0000    0.8324    0.0000
   21 O2     3py        0.0000    0.0000   -0.0000   -0.0000   -1.1074    0.0000    0.0000   -0.0000    1.0054    0.0000
   22 O2     2pz        0.0000   -0.0000    0.0000   -0.6646    0.0000   -0.0000    0.0000   -0.0609   -0.0000   -0.0000
   23 O2     3pz        0.0000    0.0000    0.0000   -1.6225    0.0000   -0.0000    0.0000    0.1119    0.0000    0.0000
   24 O2     3d2-      -0.0000    0.0000    0.0000    0.0000    0.1815   -0.0000   -0.0000    0.0000   -0.2873    0.0000
   25 O2     3d1-       0.0756    0.0000   -0.0000   -0.0000    0.0000    0.5790   -0.0000   -0.0000   -0.0000    0.0000
   26 O2     3d0       -0.0000    0.0486    0.0771    0.0000   -0.0000    0.0000    0.5356    0.0000    0.0000    0.1136
   27 O2     3d1+      -0.0000   -0.0000   -0.0000    0.0481   -0.0000    0.0000   -0.0000    0.6473    0.0000    0.0000
   28 O2     3d2+      -0.0000    0.0680    0.0367    0.0000    0.0000   -0.0000   -0.3604   -0.0000    0.0000    0.2384
   29 O3     1s         0.0000   -0.0185   -0.0328   -0.0000   -0.0906   -0.0000   -0.0062   -0.0000    0.1160   -0.0960
   30 O3     2s         0.0000   -0.1000   -0.1767   -0.0000   -0.5201    0.0000   -0.0481   -0.0000    0.8483   -0.7359
   31 O3     3s         0.0000    0.4604   -0.0419   -0.0000   -0.0040    0.0000   -0.0472   -0.0000    1.1033   -0.8655
   32 O3     2px       -0.0000   -0.0056   -0.4311   -0.0000    0.2117   -0.0000    0.0807   -0.0000   -0.2276    0.0905
   33 O3     3px       -0.0000    0.0544   -0.8508   -0.0000    0.2241   -0.0000    0.0434    0.0000   -0.1607    0.1661
   34 O3     2py       -0.0000    0.0276   -0.0612    0.0000    0.0685   -0.0000   -0.0182   -0.0000    0.2573   -0.4877
   35 O3     3py       -0.0000   -0.3118   -0.0153    0.0000    0.6834    0.0000   -0.0250   -0.0000    0.2954   -0.5266
   36 O3     2pz        0.0934   -0.0000   -0.0000    0.4851   -0.0000    0.1731   -0.0000   -0.0709   -0.0000   -0.0000
   37 O3     3pz        0.8361    0.0000   -0.0000    0.8890   -0.0000   -0.0262    0.0000   -0.0506    0.0000   -0.0000
   38 O3     3d2-       0.0000    0.0527    0.0441    0.0000   -0.0070   -0.0000   -0.2569   -0.0000    0.2592    0.1660
   39 O3     3d1-      -0.0284   -0.0000    0.0000   -0.0153   -0.0000   -0.3992    0.0000    0.2709    0.0000    0.0000
   40 O3     3d0       -0.0000    0.0458    0.0509    0.0000    0.0674    0.0000    0.3505    0.0000    0.1195    0.0566
   41 O3     3d1+       0.0012   -0.0000   -0.0000    0.0300   -0.0000    0.2159   -0.0000    0.3524    0.0000    0.0000
   42 O3     3d2+      -0.0000    0.0571    0.0212    0.0000    0.1381   -0.0000   -0.0905    0.0000   -0.1684   -0.1885
 
 
      Orbital               31        32        33        34        35        36        37        38        39        40
      Energy            2.0641    2.1102    2.1483    2.3512    2.3553    2.6611    2.8707    2.9104    2.9533    3.5224
      Occ. No.          0.0000    0.0000    0.0000    0.0000    0.0000    0.0000    0.0000    0.0000    0.0000    0.0000
 
    1 O1     1s        -0.1862    0.0000    0.1433    0.0736   -0.0000    0.0428    0.0000   -0.0894    0.0356   -0.0671
    2 O1     2s        -1.2486    0.0000    0.9453    0.4955   -0.0000    0.1726    0.0000   -0.6639    0.3859   -0.4329
    3 O1     3s        -1.0187    0.0000    0.6918    0.3415   -0.0000   -0.1224    0.0000   -0.5290    0.4866   -0.1901
    4 O1     2px        0.1902   -0.0000   -0.1510    0.0280   -0.0000    0.0962   -0.0000   -0.1664   -0.1573   -0.1857
    5 O1     3px        0.2198   -0.0000   -0.2185    0.1751   -0.0000    0.2338    0.0000   -0.2567   -0.1265   -0.1648
    6 O1     2py        0.4150   -0.0000   -0.3021   -0.2953    0.0000    0.0008   -0.0000    0.5193   -0.3867    0.3675
    7 O1     3py       -0.0083   -0.0000    0.0784   -0.1770    0.0000    0.2173   -0.0000    0.3956   -0.4062    0.1057
    8 O1     2pz        0.0000    0.0032   -0.0000   -0.0000   -0.1046   -0.0000   -0.3340   -0.0000    0.0000    0.0000
    9 O1     3pz       -0.0000   -0.0406   -0.0000   -0.0000   -0.2044    0.0000   -0.4244   -0.0000    0.0000    0.0000
   10 O1     3d2-      -0.0574    0.0000    0.4250   -0.2032    0.0000   -0.4156   -0.0000    0.3901    0.4977    0.3592
   11 O1     3d1-       0.0000    0.3056    0.0000    0.0000    0.2529   -0.0000    0.7263    0.0000   -0.0000   -0.0000
   12 O1     3d0        0.3963   -0.0000    0.4504    0.4927   -0.0000    0.1013   -0.0000    0.3523   -0.4089    0.0845
   13 O1     3d1+      -0.0000   -0.6423   -0.0000    0.0000    0.6295   -0.0000   -0.0399   -0.0000    0.0000   -0.0000
   14 O1     3d2+      -0.3323    0.0000   -0.0417   -0.3266    0.0000    0.4465   -0.0000    0.5352   -0.4654    0.5555
   15 O2     1s        -0.0000    0.0000    0.0000   -0.0879    0.0000    0.1230   -0.0000    0.2233    0.0000   -0.0000
   16 O2     2s        -0.0000   -0.0000    0.0000   -0.7316    0.0000    0.5669   -0.0000    1.5159    0.0000   -0.0000
   17 O2     3s        -0.0000   -0.0000    0.0000   -0.8439    0.0000   -0.2125   -0.0000    0.9602    0.0000   -0.0000
   18 O2     2px       -0.0000    0.0000   -0.0000   -0.4921    0.0000   -0.1599   -0.0000    0.8804    0.0000   -0.0000
   19 O2     3px       -0.0000    0.0000    0.0000   -0.4623    0.0000   -0.4000   -0.0000    0.7124    0.0000   -0.0000
   20 O2     2py        1.3645   -0.0000   -1.0720    0.0000    0.0000    0.0000   -0.0000    0.0000   -0.7910    0.4104
   21 O2     3py        1.4828   -0.0000   -1.1422    0.0000    0.0000   -0.0000   -0.0000   -0.0000    0.1695    0.0979
   22 O2     2pz        0.0000   -0.0000    0.0000    0.0000    0.4041   -0.0000    0.7427    0.0000   -0.0000   -0.0000
   23 O2     3pz        0.0000   -0.0000    0.0000    0.0000    0.3211   -0.0000    0.7428    0.0000   -0.0000    0.0000
   24 O2     3d2-       0.3562   -0.0000   -0.3239    0.0000   -0.0000   -0.0000    0.0000   -0.0000    0.1784    1.1071
   25 O2     3d1-       0.0000   -0.0406   -0.0000    0.0000    0.0000   -0.0000    0.0000    0.0000    0.0000   -0.0000
   26 O2     3d0       -0.0000   -0.0000   -0.0000   -0.3003    0.0000    0.5604    0.0000   -0.4690   -0.0000    0.0000
   27 O2     3d1+       0.0000    0.0000   -0.0000   -0.0000   -0.4706   -0.0000    0.6794    0.0000   -0.0000   -0.0000
   28 O2     3d2+      -0.0000   -0.0000    0.0000    0.3284   -0.0000    0.1788   -0.0000    0.3740    0.0000    0.0000
   29 O3     1s         0.1862    0.0000   -0.1433    0.0736   -0.0000    0.0428   -0.0000   -0.0894   -0.0356    0.0671
   30 O3     2s         1.2486   -0.0000   -0.9453    0.4955   -0.0000    0.1726    0.0000   -0.6639   -0.3859    0.4329
   31 O3     3s         1.0187    0.0000   -0.6918    0.3415   -0.0000   -0.1224    0.0000   -0.5290   -0.4866    0.1901
   32 O3     2px       -0.1902    0.0000    0.1510    0.0280   -0.0000    0.0962    0.0000   -0.1664    0.1573    0.1857
   33 O3     3px       -0.2198   -0.0000    0.2185    0.1751   -0.0000    0.2338    0.0000   -0.2567    0.1265    0.1648
   34 O3     2py        0.4150    0.0000   -0.3021    0.2953   -0.0000   -0.0008    0.0000   -0.5193   -0.3867    0.3675
   35 O3     3py       -0.0083    0.0000    0.0784    0.1770   -0.0000   -0.2173    0.0000   -0.3956   -0.4062    0.1057
   36 O3     2pz       -0.0000   -0.0032    0.0000   -0.0000   -0.1046   -0.0000   -0.3340   -0.0000   -0.0000   -0.0000
   37 O3     3pz        0.0000    0.0406   -0.0000   -0.0000   -0.2044    0.0000   -0.4244   -0.0000    0.0000   -0.0000
   38 O3     3d2-      -0.0574   -0.0000    0.4250    0.2032   -0.0000    0.4156    0.0000   -0.3901    0.4977    0.3592
   39 O3     3d1-       0.0000    0.3056    0.0000   -0.0000   -0.2529    0.0000   -0.7263   -0.0000    0.0000   -0.0000
   40 O3     3d0       -0.3963    0.0000   -0.4504    0.4927   -0.0000    0.1013   -0.0000    0.3523    0.4089   -0.0845
   41 O3     3d1+       0.0000    0.6423    0.0000    0.0000    0.6295   -0.0000   -0.0399   -0.0000    0.0000    0.0000
   42 O3     3d2+       0.3323   -0.0000    0.0417   -0.3266    0.0000    0.4465   -0.0000    0.5352    0.4654   -0.5555
 
 
      Orbital               41        42
      Energy            3.5261    4.2406
      Occ. No.          0.0000    0.0000
 
    1 O1     1s        -0.0000    0.2085
    2 O1     2s        -0.0000    1.3876
    3 O1     3s        -0.0000    0.7164
    4 O1     2px       -0.0000   -0.4580
    5 O1     3px       -0.0000   -0.2165
    6 O1     2py        0.0000   -0.9550
    7 O1     3py        0.0000   -0.4100
    8 O1     2pz       -0.3217    0.0000
    9 O1     3pz       -0.2081   -0.0000
   10 O1     3d2-       0.0000    0.5456
   11 O1     3d1-       0.6290   -0.0000
   12 O1     3d0        0.0000   -0.3292
   13 O1     3d1+       0.2560   -0.0000
   14 O1     3d2+       0.0000   -0.3012
   15 O2     1s        -0.0000   -0.3866
   16 O2     2s         0.0000   -2.7173
   17 O2     3s        -0.0000   -1.7250
   18 O2     2px       -0.0000   -0.2401
   19 O2     3px       -0.0000    0.0233
   20 O2     2py        0.0000    0.0000
   21 O2     3py        0.0000    0.0000
   22 O2     2pz       -0.0000    0.0000
   23 O2     3pz       -0.0000   -0.0000
   24 O2     3d2-       0.0000   -0.0000
   25 O2     3d1-       1.0832    0.0000
   26 O2     3d0        0.0000    0.6444
   27 O2     3d1+      -0.0000   -0.0000
   28 O2     3d2+       0.0000    1.1703
   29 O3     1s         0.0000    0.2085
   30 O3     2s         0.0000    1.3876
   31 O3     3s         0.0000    0.7164
   32 O3     2px        0.0000   -0.4580
   33 O3     3px        0.0000   -0.2165
   34 O3     2py        0.0000    0.9550
   35 O3     3py        0.0000    0.4100
   36 O3     2pz        0.3217   -0.0000
   37 O3     3pz        0.2081    0.0000
   38 O3     3d2-       0.0000   -0.5456
   39 O3     3d1-       0.6290    0.0000
   40 O3     3d0       -0.0000   -0.3292
   41 O3     3d1+      -0.2560   -0.0000
   42 O3     3d2+      -0.0000   -0.3012
--
 
      Von Neumann Entropy (Root  1) =  0.62566
 

      Mulliken population analysis for root number:  1
      -----------------------------------------------
 
 
++    Molecular charges:
      ------------------
 
      Mulliken charges per centre and basis function type
      ---------------------------------------------------
 
                O1      O2      O3    
      1s       2.0003  2.0001  2.0003
      2s       1.9269  1.7209  1.9269
      2px      1.9591  1.7164  1.9591
      2pz      1.2196  1.5255  1.2196
      2py      0.9278  0.9190  0.9278
      3s      -0.0091 -0.0229 -0.0091
      3px     -0.0205 -0.0438 -0.0205
      3pz     -0.0095 -0.0085 -0.0095
      3py     -0.0064  0.0116 -0.0064
      3d2+     0.0186  0.0294  0.0186
      3d1+     0.0010  0.0031  0.0010
      3d0      0.0056  0.0086  0.0056
      3d1-     0.0138  0.0301  0.0138
      3d2-     0.0101  0.0358  0.0101
      Total    8.0373  7.9254  8.0373
 
      N-E     -0.0373  0.0746 -0.0373
 
      Total electronic charge=   24.000000
 
      Total            charge=   -0.000000
--
 
 

      Expectation values of various properties for root number:  1
      -----------------------------------------------------------
 
 
++    Molecular properties:
      ---------------------
 
      Charge (e):
                      =   -0.0000
      Dipole Moment (Debye):
      Origin of the operator (Ang)=    0.0000    0.0000    0.0000
                   X=  1.7244E-01               Y=  1.5117E-11               Z=  6.8966E-14           Total=  1.7244E-01
      Quadrupole Moment (Debye*Ang):
      Origin of the operator (Ang)=    0.2384    0.0000    0.0000
                  XX= -1.6501E+01              XY=  7.7332E-12              XZ= -2.4640E-13              YY= -1.6177E+01
                  YZ=  5.2814E-13              ZZ= -1.4715E+01
      In traceless form (Debye*Ang)
                  XX= -1.0554E+00              XY=  1.1600E-11              XZ= -3.6959E-13              YY= -5.6906E-01
                  YZ=  7.9221E-13              ZZ=  1.6244E+00
--
 

      LoProp population analysis for root number:  1
      -----------------------------------------------
 
 
++    LoProp analysis:
      ----------------
 
 
 
  Input file to MOLDEN was generated!
 
 
++    Static properties:
      ------------------
 
 
      LoProp Charges per center
 

                   O1       O2       O3    
      Nuclear      8.0000   8.0000   8.0000
      Electronic  -8.0676  -7.8648  -8.0676
 
      Total       -0.0676   0.1352  -0.0676
--
 
 
      Natural Bond Order analysis for root number:  1
 
++    Natural Bond Order analysis
      ---------------------------
      Based on LoProp computed density
      -------------------------------------------------------------------------------------
      Atom A       Atom B       Bond Order | Atom A       Atom B       Bond Order
        O1           O2             1.967  |   O2           O3             1.967
      -------------------------------------------------------------------------------------
      NBO located     12.000 core electrons.
      NBO located      3.972 lone pair electrons.
      NBO located      7.870 electrons involved in    2 bonds.
      The remaining    0.158 electrons are to be considered as diffuse
--
 
--
 
 
  Input file to MOLDEN was generated!
 
      Average orbitals are written to the RASORB file
      Natural orbitals for root   1 are written to the RASORB.1 file
      Spin density orbitals for root   1 are written to the SPDORB.1 file
 
forrtl: warning (525): IEEE_DIVIDE_BY_ZERO is signaling
forrtl: warning (526): IEEE_INVALID is signaling
forrtl: warning (528): IEEE_UNDERFLOW is signaling
--- Stop Module: rasscf at Fri Jan 24 16:48:32 2025 /rc=_RC_ALL_IS_WELL_ ---
*** files: ozone_147.50.LprOrb ozone_147.50.rasscf.molden ozone_147.50.LoProp.molden ozone_147.50.RasOrb ozone_147.50.RasOrb.1 ozone_147.50.rasscf.h5 ozone_147.50.SpdOrb.1 xmldump
    saved to directory /home/grierjones/DDCASPT2/ozone/ANO-RCC-VDZP/ozone_147.50

>>> COPY /tmp/ozone_147.50/ozone_147.50.rasscf.h5 /home/grierjones/DDCASPT2/ozone/ANO-RCC-VDZP/ozone_147.50/

>>> COPY /tmp/ozone_147.50/GMJ_Fock_MO.csv /home/grierjones/DDCASPT2/ozone/ANO-RCC-VDZP/ozone_147.50/ozone_147.50.GMJ_Fock_MO.csv

>>> COPY /tmp/ozone_147.50/GMJ_PT2_Fock_MO.csv /home/grierjones/DDCASPT2/ozone/ANO-RCC-VDZP/ozone_147.50/ozone_147.50.GMJ_PT2_Fock_MO.csv

*** symbolic link created: INPORB -> ozone_147.50.RasOrb
--- Start Module: motra at Fri Jan 24 16:48:32 2025 ---
 
()()()()()()()()()()()()()()()()()()()()()()()()()()()()()()()()()()()()()()()()()()()()()()()()()()

                                               &MOTRA

                                   only a single process is used
                       available to each process: 2.0 GB of memory, 1 thread?
()()()()()()()()()()()()()()()()()()()()()()()()()()()()()()()()()()()()()()()()()()()()()()()()()()
 
 
      *** WARNING: Default frozen orbitals is overwritten by user input.
      *** Default values:   3
 
      Header of the integral files:
      
       Integrals generated by seward 4.2.0  , Fri Jan 24 16:48:30 2025
 
 
      Header of MO coefficients source file:
      * RASSCF average (pseudo-natural) orbitals                                      
 
 
      Cartesian coordinates in Angstrom:
      -----------------------------------------------------
      No.  Label        X            Y            Z        
      -----------------------------------------------------
       1   O1         0.35762100   1.22694400   0.00000000
       2   O2         0.00000000   0.00000000   0.00000000
       3   O3         0.35762100  -1.22694400   0.00000000
      -----------------------------------------------------
      Nuclear repulsion energy =   66.80203113
 
      Orbital specifications:
      -----------------------
 
      Symmetry species:              1
      Number of basis functions:    42
      Frozen orbitals:               0
      Deleted orbitals:              0
      Number of orbitals used:      42

       SYMMETRY  BASIS FUNCTIONS       ORBITALS      INTEGRALS   CPU(SEC)  I/O(SEC)
 
        1 1 1 1   42  42  42  42    42  42  42  42      408156       0.00      0.00

       TOTAL CPU TIME(SEC)    0.36TOTAL I/O TIME(SEC)    0.76
 
--- Stop Module: motra at Fri Jan 24 16:48:33 2025 /rc=_RC_ALL_IS_WELL_ ---
*** files: xmldump
    saved to directory /home/grierjones/DDCASPT2/ozone/ANO-RCC-VDZP/ozone_147.50

>>> COPY /tmp/ozone_147.50/GMJ_one_int_indx.csv /home/grierjones/DDCASPT2/ozone/ANO-RCC-VDZP/ozone_147.50/ozone_147.50.GMJ_one_int_indx.csv

>>> COPY /tmp/ozone_147.50/GMJ_one_int.csv /home/grierjones/DDCASPT2/ozone/ANO-RCC-VDZP/ozone_147.50/ozone_147.50.GMJ_one_int.csv

>>> COPY /tmp/ozone_147.50/GMJ_two_int_indx.csv /home/grierjones/DDCASPT2/ozone/ANO-RCC-VDZP/ozone_147.50/ozone_147.50.GMJ_two_int_indx.csv

>>> COPY /tmp/ozone_147.50/GMJ_two_int.csv /home/grierjones/DDCASPT2/ozone/ANO-RCC-VDZP/ozone_147.50/ozone_147.50.GMJ_two_int.csv

*** symbolic link created: INPORB -> ozone_147.50.RasOrb
--- Start Module: caspt2 at Fri Jan 24 16:48:33 2025 ---
 
()()()()()()()()()()()()()()()()()()()()()()()()()()()()()()()()()()()()()()()()()()()()()()()()()()

                                              &CASPT2

                                   only a single process is used
                       available to each process: 2.0 GB of memory, 1 thread?
()()()()()()()()()()()()()()()()()()()()()()()()()()()()()()()()()()()()()()()()()()()()()()()()()()
 
 Cholesky algorithm in CASPT2 =    1
 
 ###############################################################################
 ###############################################################################
 ###                                                                         ###
 ###                                                                         ###
 ###    User changed nr of frozen orbitals.                                  ###
 ###                                                                         ###
 ###                                                                         ###
 ###############################################################################
 ###############################################################################
 
++    Wave function specifications:
      -----------------------------
 
      Number of closed shell electrons          20
      Number of electrons in active shells       4
      Max number of holes in RAS1 space          0
      Max number of electrons in RAS3 space      0
      Number of inactive orbitals               10
      Number of active orbitals                  3
      Number of secondary orbitals              29
      Spin quantum number                      0.0
      State symmetry                             1
      Number of CSFs                             6
      Number of root(s) available                1
      Root passed to geometry opt.               1
      A file JOBMIX will be created.
      This is a CASSCF or RASSCF reference function
--
 
++    Orbital specifications:
      -----------------------
 
      Symmetry species                           1
                                                 a
      Frozen orbitals                            0
      Inactive orbitals                         10
      Active orbitals                            3
      Secondary orbitals                        29
      Deleted orbitals                           0
      Number of basis functions                 42
--
 
      Type of Fock operator: STANDARD
      Type of 0-order Hamiltonian: STANDARD WITH DEFAULT IPEA
        "IP-EA" denominator shift =      0.25
      The input orbitals and the CI vector will be transformed.
 
--------------------------------------------------------------------------------
 Estimated memory requirements:
  POLY3 :                   250202
  RHS:                      279634
  SIGMA :                   302200
  PRPCTL:                        0
 Available workspace:    230396563
 
++ CASPT2 computation for group   1
 
********************************************************************************
 Multi-State initialization phase begins for group   1
--------------------------------------------------------------------------------
********************************************************************************
 Compute H0 matrices for state    1
--------------------------------------------------------------------------------
--------------------------------------------------------------------------------
 H0 matrices have been computed.
 
********************************************************************************
  CASPT2 EQUATION SOLUTION
--------------------------------------------------------------------------------
 
  Total nr of CASPT2 parameters:
   Before reduction:       86691
   After  reduction:       82880
 
 The contributions to the second order correlation energy in atomic units.
-----------------------------------------------------------------------------------------------------------------------------
  IT.      VJTU        VJTI        ATVX        AIVX        VJAI        BVAT        BJAT        BJAI        TOTAL       RNORM  
-----------------------------------------------------------------------------------------------------------------------------
   1    -0.000000   -0.001417   -0.013849   -0.098995   -0.017228   -0.016891   -0.123588   -0.269210   -0.541179    0.002160
   2    -0.000000   -0.001435   -0.013899   -0.099334   -0.017244   -0.016896   -0.123612   -0.269213   -0.541634    0.000172
   3    -0.000000   -0.001435   -0.013899   -0.099338   -0.017245   -0.016896   -0.123613   -0.269213   -0.541639    0.000023
   4    -0.000000   -0.001436   -0.013899   -0.099336   -0.017245   -0.016896   -0.123612   -0.269213   -0.541637    0.000003
-------------------------------------------------------------------------------------------------------------------
 
  FINAL CASPT2 RESULT:
 
  Correlation energy /Case, /Symm, and sums:
 VJTU     -0.00000000 -0.00000000
 VJTIP    -0.00143568 -0.00143568
 VJTIM     0.00000000  0.00000000
 ATVX     -0.01389866 -0.01389866
 AIVX     -0.09933559 -0.09933559
 VJAIP    -0.01201638 -0.01201638
 VJAIM    -0.00522815 -0.00522815
 BVATP    -0.01597513 -0.01597513
 BVATM    -0.00092121 -0.00092121
 BJATP    -0.04573267 -0.04573267
 BJATM    -0.07787968 -0.07787968
 BJAIP    -0.18106164 -0.18106164
 BJAIM    -0.08815166 -0.08815166
 Summed:  -0.54163646 -0.54163646
 
      Reference energy:        -224.5270237182
      E2 (Non-variational):      -0.5416364630
      E2 (Variational):          -0.5416364897
      Total energy:            -225.0686602079
      Residual norm:              0.0000002763
      Reference weight:           0.85352
 
      Contributions to the CASPT2 correlation energy
      Active & Virtual Only:         -0.0307950023
      One Inactive Excited:          -0.2229479462
      Two Inactive Excited:          -0.2878935145
 
 
++ Denominators, etc.
----------------------------------------------------------------------------------------------------
 Report on small energy denominators, large coefficients, and large energy contributions.
CASE  SYMM ACTIVE-MIX  NON-ACTIVE INDICES          DENOMINATOR     RHS VALUE       COEFFICIENT     CONTRIBUTION
ATVX     1  Mu1.0006  Se1.016                       1.88976393      0.06612200     -0.03568196     -0.00235936
ATVX     1  Mu1.0005  Se1.021                       1.83558467     -0.10081558      0.05385411     -0.00542933
ATVX     1  Mu1.0006  Se1.024                       2.41598815     -0.06161517      0.02557638     -0.00157589
ATVX     1  Mu1.0005  Se1.026                       2.83258458      0.07079929     -0.02508032     -0.00177567
AIVX     1  Mu1.0005  In1.004 Se1.014               2.66257344     -0.07887125      0.02970865     -0.00234316
AIVX     1  Mu1.0003  In1.005 Se1.014               2.06172374      0.06491004     -0.03106197     -0.00201623
AIVX     1  Mu1.0004  In1.007 Se1.014               1.60331636      0.06731248     -0.04242559     -0.00285577
AIVX     1  Mu1.0002  In1.008 Se1.014               1.31065927      0.08502892     -0.06428193     -0.00546582
AIVX     1  Mu1.0003  In1.008 Se1.014               1.40192049     -0.04332204      0.03065865     -0.00132820
AIVX     1  Mu1.0002  In1.009 Se1.014               1.12247188     -0.06102049      0.05366810     -0.00327485
AIVX     1  Mu1.0003  In1.009 Se1.014               1.21373310      0.04076313     -0.03326825     -0.00135612
AIVX     1  Mu1.0004  In1.010 Se1.017               1.56529527      0.05514777     -0.03518941     -0.00194062
AIVX     1  Mu1.0002  In1.009 Se1.018               1.46955084     -0.05885414      0.03902709     -0.00229691
AIVX     1  Mu1.0003  In1.009 Se1.018               1.56081207      0.04118287     -0.02572967     -0.00105962
AIVX     1  Mu1.0004  In1.008 Se1.019               2.02061618     -0.11668320      0.05818211     -0.00678888
AIVX     1  Mu1.0005  In1.008 Se1.019               2.18318936      0.07386319     -0.03419536     -0.00252578
AIVX     1  Mu1.0002  In1.010 Se1.020               1.50101449     -0.07561252      0.04907492     -0.00371068
AIVX     1  Mu1.0003  In1.010 Se1.020               1.59227572      0.05041167     -0.03073974     -0.00154964
AIVX     1  Mu1.0004  In1.006 Se1.022               2.52761136      0.06386350     -0.02526976     -0.00161382
BJAIP    1  Se1.014 In1.007 Se1.014 In1.007         1.98179249      0.04968549     -0.02507098     -0.00124566
BJAIP    1  Se1.014 In1.006 Se1.019 In1.008         2.66544214      0.07413009     -0.02781155     -0.00206167
BJAIP    1  Se1.014 In1.007 Se1.019 In1.008         2.39909231     -0.06145921      0.02561768     -0.00157444
BJAIP    1  Se1.014 In1.008 Se1.014 In1.008         1.96903730      0.05874496     -0.02983435     -0.00175262
BJAIP    1  Se1.019 In1.008 Se1.019 In1.008         2.81639213      0.10530775     -0.03739099     -0.00393756
BJAIP    1  Se1.014 In1.009 Se1.014 In1.009         1.59266251      0.04170495     -0.02618568     -0.00109207
BJAIM    1  Se1.014 In1.009 Se1.019 In1.010         1.97120513      0.05003532     -0.02538311     -0.00127005
--
 
   (Skipping property calculation,
    use PROP keyword to activate)
--
 
  Total CASPT2 energies:
::    CASPT2 Root  1     Total energy:   -225.06866021
 
  A NEW JOBIPH FILE NAMED 'JOBMIX' IS PREPARED.
********************************************************************************
forrtl: warning (528): IEEE_UNDERFLOW is signaling
--- Stop Module: caspt2 at Fri Jan 24 16:48:33 2025 /rc=_RC_ALL_IS_WELL_ ---
*** files: xmldump
    saved to directory /home/grierjones/DDCASPT2/ozone/ANO-RCC-VDZP/ozone_147.50

>>> EXPORT i = B

>>> EXPORT j = P

>>> IF (-FILE GMJ_e2_${i}_${j}.csv)

>>> COPY /tmp/ozone_147.50/GMJ_RHS_B_P.csv /home/grierjones/DDCASPT2/ozone/ANO-RCC-VDZP/ozone_147.50/GMJ_RHS_B_P.csv

>>> COPY /tmp/ozone_147.50/GMJ_IVECW_B_P.csv /home/grierjones/DDCASPT2/ozone/ANO-RCC-VDZP/ozone_147.50/GMJ_IVECW_B_P.csv

>>> COPY /tmp/ozone_147.50/GMJ_IVECX_B_P.csv /home/grierjones/DDCASPT2/ozone/ANO-RCC-VDZP/ozone_147.50/GMJ_IVECX_B_P.csv

>>> COPY /tmp/ozone_147.50/GMJ_IVECC2_B_P.csv /home/grierjones/DDCASPT2/ozone/ANO-RCC-VDZP/ozone_147.50/GMJ_IVECC2_B_P.csv

>>> COPY /tmp/ozone_147.50/GMJ_e2_B_P.csv /home/grierjones/DDCASPT2/ozone/ANO-RCC-VDZP/ozone_147.50/GMJ_e2_B_P.csv

>>> END FOREACH

>>> EXPORT j = M

>>> IF (-FILE GMJ_e2_${i}_${j}.csv)
(Skipped)

>>> END FOREACH

>>> END FOREACH

>>> EXPORT i = E

>>> EXPORT j = P

>>> IF (-FILE GMJ_e2_${i}_${j}.csv)

>>> COPY /tmp/ozone_147.50/GMJ_RHS_E_P.csv /home/grierjones/DDCASPT2/ozone/ANO-RCC-VDZP/ozone_147.50/GMJ_RHS_E_P.csv

>>> COPY /tmp/ozone_147.50/GMJ_IVECW_E_P.csv /home/grierjones/DDCASPT2/ozone/ANO-RCC-VDZP/ozone_147.50/GMJ_IVECW_E_P.csv

>>> COPY /tmp/ozone_147.50/GMJ_IVECX_E_P.csv /home/grierjones/DDCASPT2/ozone/ANO-RCC-VDZP/ozone_147.50/GMJ_IVECX_E_P.csv

>>> COPY /tmp/ozone_147.50/GMJ_IVECC2_E_P.csv /home/grierjones/DDCASPT2/ozone/ANO-RCC-VDZP/ozone_147.50/GMJ_IVECC2_E_P.csv

>>> COPY /tmp/ozone_147.50/GMJ_e2_E_P.csv /home/grierjones/DDCASPT2/ozone/ANO-RCC-VDZP/ozone_147.50/GMJ_e2_E_P.csv

>>> END FOREACH

>>> EXPORT j = M

>>> IF (-FILE GMJ_e2_${i}_${j}.csv)

>>> COPY /tmp/ozone_147.50/GMJ_RHS_E_M.csv /home/grierjones/DDCASPT2/ozone/ANO-RCC-VDZP/ozone_147.50/GMJ_RHS_E_M.csv

>>> COPY /tmp/ozone_147.50/GMJ_IVECW_E_M.csv /home/grierjones/DDCASPT2/ozone/ANO-RCC-VDZP/ozone_147.50/GMJ_IVECW_E_M.csv

>>> COPY /tmp/ozone_147.50/GMJ_IVECX_E_M.csv /home/grierjones/DDCASPT2/ozone/ANO-RCC-VDZP/ozone_147.50/GMJ_IVECX_E_M.csv

>>> COPY /tmp/ozone_147.50/GMJ_IVECC2_E_M.csv /home/grierjones/DDCASPT2/ozone/ANO-RCC-VDZP/ozone_147.50/GMJ_IVECC2_E_M.csv

>>> COPY /tmp/ozone_147.50/GMJ_e2_E_M.csv /home/grierjones/DDCASPT2/ozone/ANO-RCC-VDZP/ozone_147.50/GMJ_e2_E_M.csv

>>> END FOREACH

>>> END FOREACH

>>> EXPORT i = F

>>> EXPORT j = P

>>> IF (-FILE GMJ_e2_${i}_${j}.csv)

>>> COPY /tmp/ozone_147.50/GMJ_RHS_F_P.csv /home/grierjones/DDCASPT2/ozone/ANO-RCC-VDZP/ozone_147.50/GMJ_RHS_F_P.csv

>>> COPY /tmp/ozone_147.50/GMJ_IVECW_F_P.csv /home/grierjones/DDCASPT2/ozone/ANO-RCC-VDZP/ozone_147.50/GMJ_IVECW_F_P.csv

>>> COPY /tmp/ozone_147.50/GMJ_IVECX_F_P.csv /home/grierjones/DDCASPT2/ozone/ANO-RCC-VDZP/ozone_147.50/GMJ_IVECX_F_P.csv

>>> COPY /tmp/ozone_147.50/GMJ_IVECC2_F_P.csv /home/grierjones/DDCASPT2/ozone/ANO-RCC-VDZP/ozone_147.50/GMJ_IVECC2_F_P.csv

>>> COPY /tmp/ozone_147.50/GMJ_e2_F_P.csv /home/grierjones/DDCASPT2/ozone/ANO-RCC-VDZP/ozone_147.50/GMJ_e2_F_P.csv

>>> END FOREACH

>>> EXPORT j = M

>>> IF (-FILE GMJ_e2_${i}_${j}.csv)

>>> COPY /tmp/ozone_147.50/GMJ_RHS_F_M.csv /home/grierjones/DDCASPT2/ozone/ANO-RCC-VDZP/ozone_147.50/GMJ_RHS_F_M.csv

>>> COPY /tmp/ozone_147.50/GMJ_IVECW_F_M.csv /home/grierjones/DDCASPT2/ozone/ANO-RCC-VDZP/ozone_147.50/GMJ_IVECW_F_M.csv

>>> COPY /tmp/ozone_147.50/GMJ_IVECX_F_M.csv /home/grierjones/DDCASPT2/ozone/ANO-RCC-VDZP/ozone_147.50/GMJ_IVECX_F_M.csv

>>> COPY /tmp/ozone_147.50/GMJ_IVECC2_F_M.csv /home/grierjones/DDCASPT2/ozone/ANO-RCC-VDZP/ozone_147.50/GMJ_IVECC2_F_M.csv

>>> COPY /tmp/ozone_147.50/GMJ_e2_F_M.csv /home/grierjones/DDCASPT2/ozone/ANO-RCC-VDZP/ozone_147.50/GMJ_e2_F_M.csv

>>> END FOREACH

>>> END FOREACH

>>> EXPORT i = G

>>> EXPORT j = P

>>> IF (-FILE GMJ_e2_${i}_${j}.csv)

>>> COPY /tmp/ozone_147.50/GMJ_RHS_G_P.csv /home/grierjones/DDCASPT2/ozone/ANO-RCC-VDZP/ozone_147.50/GMJ_RHS_G_P.csv

>>> COPY /tmp/ozone_147.50/GMJ_IVECW_G_P.csv /home/grierjones/DDCASPT2/ozone/ANO-RCC-VDZP/ozone_147.50/GMJ_IVECW_G_P.csv

>>> COPY /tmp/ozone_147.50/GMJ_IVECX_G_P.csv /home/grierjones/DDCASPT2/ozone/ANO-RCC-VDZP/ozone_147.50/GMJ_IVECX_G_P.csv

>>> COPY /tmp/ozone_147.50/GMJ_IVECC2_G_P.csv /home/grierjones/DDCASPT2/ozone/ANO-RCC-VDZP/ozone_147.50/GMJ_IVECC2_G_P.csv

>>> COPY /tmp/ozone_147.50/GMJ_e2_G_P.csv /home/grierjones/DDCASPT2/ozone/ANO-RCC-VDZP/ozone_147.50/GMJ_e2_G_P.csv

>>> END FOREACH

>>> EXPORT j = M

>>> IF (-FILE GMJ_e2_${i}_${j}.csv)

>>> COPY /tmp/ozone_147.50/GMJ_RHS_G_M.csv /home/grierjones/DDCASPT2/ozone/ANO-RCC-VDZP/ozone_147.50/GMJ_RHS_G_M.csv

>>> COPY /tmp/ozone_147.50/GMJ_IVECW_G_M.csv /home/grierjones/DDCASPT2/ozone/ANO-RCC-VDZP/ozone_147.50/GMJ_IVECW_G_M.csv

>>> COPY /tmp/ozone_147.50/GMJ_IVECX_G_M.csv /home/grierjones/DDCASPT2/ozone/ANO-RCC-VDZP/ozone_147.50/GMJ_IVECX_G_M.csv

>>> COPY /tmp/ozone_147.50/GMJ_IVECC2_G_M.csv /home/grierjones/DDCASPT2/ozone/ANO-RCC-VDZP/ozone_147.50/GMJ_IVECC2_G_M.csv

>>> COPY /tmp/ozone_147.50/GMJ_e2_G_M.csv /home/grierjones/DDCASPT2/ozone/ANO-RCC-VDZP/ozone_147.50/GMJ_e2_G_M.csv

>>> END FOREACH

>>> END FOREACH

>>> EXPORT i = H

>>> EXPORT j = P

>>> IF (-FILE GMJ_e2_${i}_${j}.csv)

>>> COPY /tmp/ozone_147.50/GMJ_RHS_H_P.csv /home/grierjones/DDCASPT2/ozone/ANO-RCC-VDZP/ozone_147.50/GMJ_RHS_H_P.csv

>>> COPY /tmp/ozone_147.50/GMJ_IVECW_H_P.csv /home/grierjones/DDCASPT2/ozone/ANO-RCC-VDZP/ozone_147.50/GMJ_IVECW_H_P.csv

>>> COPY /tmp/ozone_147.50/GMJ_IVECX_H_P.csv /home/grierjones/DDCASPT2/ozone/ANO-RCC-VDZP/ozone_147.50/GMJ_IVECX_H_P.csv

>>> COPY /tmp/ozone_147.50/GMJ_IVECC2_H_P.csv /home/grierjones/DDCASPT2/ozone/ANO-RCC-VDZP/ozone_147.50/GMJ_IVECC2_H_P.csv

>>> COPY /tmp/ozone_147.50/GMJ_e2_H_P.csv /home/grierjones/DDCASPT2/ozone/ANO-RCC-VDZP/ozone_147.50/GMJ_e2_H_P.csv

>>> END FOREACH

>>> EXPORT j = M

>>> IF (-FILE GMJ_e2_${i}_${j}.csv)

>>> COPY /tmp/ozone_147.50/GMJ_RHS_H_M.csv /home/grierjones/DDCASPT2/ozone/ANO-RCC-VDZP/ozone_147.50/GMJ_RHS_H_M.csv

>>> COPY /tmp/ozone_147.50/GMJ_IVECW_H_M.csv /home/grierjones/DDCASPT2/ozone/ANO-RCC-VDZP/ozone_147.50/GMJ_IVECW_H_M.csv

>>> COPY /tmp/ozone_147.50/GMJ_IVECX_H_M.csv /home/grierjones/DDCASPT2/ozone/ANO-RCC-VDZP/ozone_147.50/GMJ_IVECX_H_M.csv

>>> COPY /tmp/ozone_147.50/GMJ_IVECC2_H_M.csv /home/grierjones/DDCASPT2/ozone/ANO-RCC-VDZP/ozone_147.50/GMJ_IVECC2_H_M.csv

>>> COPY /tmp/ozone_147.50/GMJ_e2_H_M.csv /home/grierjones/DDCASPT2/ozone/ANO-RCC-VDZP/ozone_147.50/GMJ_e2_H_M.csv

>>> END FOREACH

>>> END FOREACH

>>> EXPORT i = A

>>> IF (-FILE GMJ_e2_$i.csv)

>>> COPY /tmp/ozone_147.50/GMJ_RHS_A.csv /home/grierjones/DDCASPT2/ozone/ANO-RCC-VDZP/ozone_147.50/GMJ_RHS_A.csv

>>> COPY /tmp/ozone_147.50/GMJ_IVECW_A.csv /home/grierjones/DDCASPT2/ozone/ANO-RCC-VDZP/ozone_147.50/GMJ_IVECW_A.csv

>>> COPY /tmp/ozone_147.50/GMJ_IVECX_A.csv /home/grierjones/DDCASPT2/ozone/ANO-RCC-VDZP/ozone_147.50/GMJ_IVECX_A.csv

>>> COPY /tmp/ozone_147.50/GMJ_IVECC2_A.csv /home/grierjones/DDCASPT2/ozone/ANO-RCC-VDZP/ozone_147.50/GMJ_IVECC2_A.csv

>>> COPY /tmp/ozone_147.50/GMJ_e2_A.csv /home/grierjones/DDCASPT2/ozone/ANO-RCC-VDZP/ozone_147.50/GMJ_e2_A.csv

>>> END FOREACH

>>> EXPORT i = C

>>> IF (-FILE GMJ_e2_$i.csv)

>>> COPY /tmp/ozone_147.50/GMJ_RHS_C.csv /home/grierjones/DDCASPT2/ozone/ANO-RCC-VDZP/ozone_147.50/GMJ_RHS_C.csv

>>> COPY /tmp/ozone_147.50/GMJ_IVECW_C.csv /home/grierjones/DDCASPT2/ozone/ANO-RCC-VDZP/ozone_147.50/GMJ_IVECW_C.csv

>>> COPY /tmp/ozone_147.50/GMJ_IVECX_C.csv /home/grierjones/DDCASPT2/ozone/ANO-RCC-VDZP/ozone_147.50/GMJ_IVECX_C.csv

>>> COPY /tmp/ozone_147.50/GMJ_IVECC2_C.csv /home/grierjones/DDCASPT2/ozone/ANO-RCC-VDZP/ozone_147.50/GMJ_IVECC2_C.csv

>>> COPY /tmp/ozone_147.50/GMJ_e2_C.csv /home/grierjones/DDCASPT2/ozone/ANO-RCC-VDZP/ozone_147.50/GMJ_e2_C.csv

>>> END FOREACH

>>> EXPORT i = D

>>> IF (-FILE GMJ_e2_$i.csv)

>>> COPY /tmp/ozone_147.50/GMJ_RHS_D.csv /home/grierjones/DDCASPT2/ozone/ANO-RCC-VDZP/ozone_147.50/GMJ_RHS_D.csv

>>> COPY /tmp/ozone_147.50/GMJ_IVECW_D.csv /home/grierjones/DDCASPT2/ozone/ANO-RCC-VDZP/ozone_147.50/GMJ_IVECW_D.csv

>>> COPY /tmp/ozone_147.50/GMJ_IVECX_D.csv /home/grierjones/DDCASPT2/ozone/ANO-RCC-VDZP/ozone_147.50/GMJ_IVECX_D.csv

>>> COPY /tmp/ozone_147.50/GMJ_IVECC2_D.csv /home/grierjones/DDCASPT2/ozone/ANO-RCC-VDZP/ozone_147.50/GMJ_IVECC2_D.csv

>>> COPY /tmp/ozone_147.50/GMJ_e2_D.csv /home/grierjones/DDCASPT2/ozone/ANO-RCC-VDZP/ozone_147.50/GMJ_e2_D.csv

>>> END FOREACH

.########################.
.# Non-zero return code #.
.########################.

    Timing: Wall=3.53 User=2.59 System=0.93
********************************************
*** WorkDir at /tmp/ozone_147.50 cleaned ***
********************************************
