[Molden Format]
[N_Atoms]
                     2
[Atoms] (AU)
BE1         1      4           0.00000000      0.00000000      0.00000000
LI2         2      3           0.00000000      0.00000000      4.91328792
[Charge] (Mulliken)
 -8.853024663567410E-002
  8.853024663567188E-002
[GTO] (AU)
   1
   s  14
  2.262859900E+04  8.443999941E-05
  3.372318100E+03  4.601499968E-04
  7.603504000E+02  2.285389984E-03
  2.117404800E+02  9.648129932E-03
  6.722346800E+01  3.494469975E-02
  2.337217700E+01  1.061099893E-01
  8.721373000E+00  2.458240383E-01
  3.468091000E+00  3.862428773E-01
  1.452144000E+00  3.105526078E-01
  6.086150000E-01  6.415933955E-02
  2.576860000E-01 -2.265049984E-03
  1.041760000E-01 -5.217499963E-04
  4.242700000E-02 -8.757499938E-04
  1.484900000E-02  1.242199991E-04
   s  14
  2.262859900E+04 -1.586999994E-05
  3.372318100E+03 -8.656999968E-05
  7.603504000E+02 -4.302199984E-04
  2.117404800E+02 -1.825079993E-03
  6.722346800E+01 -6.682749976E-03
  2.337217700E+01 -2.095119992E-02
  8.721373000E+00 -5.200308981E-02
  3.468091000E+00 -9.849176964E-02
  1.452144000E+00 -1.355800695E-01
  6.086150000E-01 -6.429875976E-02
  2.576860000E-01  3.125414989E-01
  1.041760000E-01  6.270468577E-01
  4.242700000E-02  2.110231492E-01
  1.484900000E-02 -4.104669985E-03
   p   9
  3.371018400E+01  1.069960000E-03
  8.057649500E+00  6.828550001E-03
  2.836471400E+00  2.119065000E-02
  1.099965700E+00  5.843696001E-02
  4.433964000E-01  2.020920800E-01
  1.822264000E-01  4.582953101E-01
  7.572410000E-02  3.691239601E-01
  3.168540000E-02  6.611471001E-02
  1.108990000E-02  1.405160000E-03
 
   2
   s  14
  9.497934400E+03  9.668999974E-05
  1.416811200E+03  6.087099984E-04
  3.214599400E+02  3.101519992E-03
  9.112416300E+01  1.266904997E-02
  2.999989100E+01  4.248012989E-02
  1.101763100E+01  1.150183297E-01
  4.372801000E+00  2.398650094E-01
  1.831256000E+00  3.584300090E-01
  8.022610000E-01  3.048527792E-01
  3.626480000E-01  8.824261976E-02
  1.139950000E-01 -8.445899977E-04
  5.123700000E-02 -7.943959979E-03
  2.246800000E-02 -3.764419990E-03
  7.860000000E-03 -8.868999976E-05
   s  14
  9.497934400E+03 -1.244999993E-05
  1.416811200E+03 -7.838999954E-05
  3.214599400E+02 -4.007099976E-04
  9.112416300E+01 -1.645249990E-03
  2.999989100E+01 -5.634599967E-03
  1.101763100E+01 -1.590780991E-02
  4.372801000E+00 -3.612581979E-02
  1.831256000E+00 -6.459927962E-02
  8.022610000E-01 -1.008321794E-01
  3.626480000E-01 -9.757613942E-02
  1.139950000E-01  2.301215886E-01
  5.123700000E-02  6.102389764E-01
  2.246800000E-02  2.849406083E-01
  7.860000000E-03  4.026899976E-03
   p   9
  1.311950400E+01  1.524940000E-03
  3.077424200E+00  8.314830000E-03
  1.098800500E+00  1.933203000E-02
  4.357784000E-01  4.934293000E-02
  1.802432000E-01  1.623554000E-01
  7.613330000E-02  3.847505400E-01
  3.254650000E-02  4.336100400E-01
  1.401820000E-02  1.287005900E-01
  4.906400000E-03 -1.018520000E-03
 
[MO]
Sym=     1a  
Ene=    -4.6683
Spin= Alpha
Occup=    1.00000
   1         1.00000030
   2         0.00284323
   3         0.00000000
   4         0.00000000
   5         0.00059067
   6        -0.00006243
   7         0.00011842
   8         0.00000000
   9         0.00000000
  10         0.00011976
Sym=     1a  
Ene=    -4.6683
Spin= Beta
Occup=    1.00000
   1         1.00000030
   2         0.00284323
   3         0.00000000
   4         0.00000000
   5         0.00059067
   6        -0.00006243
   7         0.00011842
   8         0.00000000
   9         0.00000000
  10         0.00011976
Sym=     2a  
Ene=    -2.4700
Spin= Alpha
Occup=    1.00000
   1         0.00013976
   2         0.00201318
   3         0.00000000
   4         0.00000000
   5         0.00087400
   6         0.99976409
   7         0.01189346
   8        -0.00000000
   9        -0.00000000
  10         0.00236285
Sym=     2a  
Ene=    -2.4700
Spin= Beta
Occup=    1.00000
   1         0.00013976
   2         0.00201318
   3         0.00000000
   4         0.00000000
   5         0.00087400
   6         0.99976409
   7         0.01189346
   8        -0.00000000
   9        -0.00000000
  10         0.00236285
Sym=     3a  
Ene=    -0.2803
Spin= Alpha
Occup=    1.00000
   1        -0.03384671
   2         0.64594829
   3         0.00000000
   4         0.00000000
   5         0.18035288
   6        -0.04912561
   7         0.38247972
   8         0.00000000
   9         0.00000000
  10        -0.15517288
Sym=     3a  
Ene=    -0.2803
Spin= Beta
Occup=    1.00000
   1        -0.03384671
   2         0.64594829
   3         0.00000000
   4         0.00000000
   5         0.18035288
   6        -0.04912561
   7         0.38247972
   8         0.00000000
   9         0.00000000
  10        -0.15517288
Sym=     4a  
Ene=    -0.0468
Spin= Alpha
Occup=    1.00000
   1        -0.02567940
   2        -0.65860516
   3         0.00000000
   4         0.00000000
   5         0.64561582
   6        -0.03225759
   7         0.47745850
   8        -0.00000000
   9        -0.00000000
  10        -0.04612995
Sym=     4a  
Ene=    -0.0468
Spin= Beta
Occup=    0.00000
   1        -0.02567940
   2        -0.65860516
   3         0.00000000
   4         0.00000000
   5         0.64561582
   6        -0.03225759
   7         0.47745850
   8        -0.00000000
   9        -0.00000000
  10        -0.04612995
Sym=     5a  
Ene=     0.0000
Spin= Alpha
Occup=    0.00000
   1         0.00000001
   2         0.00000002
   3         0.53772182
   4         0.40814583
   5        -0.00000006
   6         0.00000000
   7         0.00000009
   8         0.43973453
   9         0.33377075
  10         0.00000012
Sym=     5a  
Ene=     0.0000
Spin= Beta
Occup=    0.00000
   1         0.00000001
   2         0.00000002
   3         0.53772182
   4         0.40814583
   5        -0.00000006
   6         0.00000000
   7         0.00000009
   8         0.43973453
   9         0.33377075
  10         0.00000012
Sym=     6a  
Ene=     0.0416
Spin= Alpha
Occup=    0.00000
   1         0.03926503
   2         0.16585303
   3        -0.00000004
   4        -0.00000003
   5        -0.38113974
   6         0.01715499
   7         0.56240540
   8        -0.00000012
   9        -0.00000009
  10         0.77789844
Sym=     6a  
Ene=     0.0416
Spin= Beta
Occup=    0.00000
   1         0.03926503
   2         0.16585303
   3        -0.00000004
   4        -0.00000003
   5        -0.38113974
   6         0.01715499
   7         0.56240540
   8        -0.00000012
   9        -0.00000009
  10         0.77789844
Sym=     7a  
Ene=     0.0484
Spin= Alpha
Occup=    0.00000
   1         0.00000000
   2         0.00000000
   3        -0.16548564
   4         0.21802315
   5        -0.00000000
   6         0.00000000
   7         0.00000000
   8        -0.53075529
   9         0.69925667
  10         0.00000000
Sym=     7a  
Ene=     0.0484
Spin= Beta
Occup=    0.00000
   1         0.00000000
   2         0.00000000
   3        -0.16548564
   4         0.21802315
   5        -0.00000000
   6         0.00000000
   7         0.00000000
   8        -0.53075529
   9         0.69925667
  10         0.00000000
Sym=     8a  
Ene=     0.1511
Spin= Alpha
Occup=    0.00000
   1         0.00000000
   2         0.00000001
   3        -0.64681818
   4        -0.49095301
   5        -0.00000003
   6         0.00000000
   7         0.00000004
   8         0.71704397
   9         0.54425634
  10         0.00000005
Sym=     8a  
Ene=     0.1511
Spin= Beta
Occup=    0.00000
   1         0.00000000
   2         0.00000001
   3        -0.64681818
   4        -0.49095301
   5        -0.00000003
   6         0.00000000
   7         0.00000004
   8         0.71704397
   9         0.54425634
  10         0.00000005
Sym=     9a  
Ene=     0.1728
Spin= Alpha
Occup=    0.00000
   1        -0.00000000
   2        -0.00000000
   3         0.61662986
   4        -0.81239425
   5         0.00000000
   6        -0.00000000
   7         0.00000000
   8        -0.35484744
   9         0.46750253
  10        -0.00000000
Sym=     9a  
Ene=     0.1728
Spin= Beta
Occup=    0.00000
   1        -0.00000000
   2        -0.00000000
   3         0.61662986
   4        -0.81239425
   5         0.00000000
   6        -0.00000000
   7         0.00000000
   8        -0.35484744
   9         0.46750253
  10        -0.00000000
Sym=    10a  
Ene=     0.2552
Spin= Alpha
Occup=    0.00000
   1        -0.14797973
   2        -1.22739934
   3        -0.00000000
   4        -0.00000000
   5        -0.91993259
   6         0.12084861
   7         1.07761516
   8        -0.00000000
   9        -0.00000000
  10        -1.16189644
Sym=    10a  
Ene=     0.2552
Spin= Beta
Occup=    0.00000
   1        -0.14797973
   2        -1.22739934
   3        -0.00000000
   4        -0.00000000
   5        -0.91993259
   6         0.12084861
   7         1.07761516
   8        -0.00000000
   9        -0.00000000
  10        -1.16189644
