[Molden Format]
[N_Atoms]
                     2
[Atoms] (AU)
O1          1      8           0.00000000      0.00000000      0.00000000
O2          2      8           0.00000000      0.00000000      5.10226054
[Charge] (Mulliken)
  6.902028599140131E-003
 -6.902028599171217E-003
[GTO] (AU)
   1
   s  14
  1.053749500E+05  1.238600013E-04
  1.567924000E+04  5.120100053E-04
  3.534544700E+03  2.152910022E-03
  9.873651600E+02  8.528440089E-03
  3.159787500E+02  3.018049031E-02
  1.116542800E+02  9.099702095E-02
  4.269945100E+01  2.177936423E-01
  1.739559600E+01  3.686245738E-01
  7.438309000E+00  3.366707335E-01
  3.222862000E+00  9.657630101E-02
  1.253877000E+00  2.144520022E-03
  4.951550000E-01  1.194350012E-03
  1.916650000E-01  5.390200056E-04
  6.708300000E-02  2.103400022E-04
   s  14
  1.053749500E+05 -2.815000008E-05
  1.567924000E+04 -1.163000003E-04
  3.534544700E+03 -4.909200013E-04
  9.873651600E+02 -1.946160005E-03
  3.159787500E+02 -7.005300019E-03
  1.116542800E+02 -2.167814006E-02
  4.269945100E+01 -5.641213015E-02
  1.739559600E+01 -1.127053003E-01
  7.438309000E+00 -1.589119704E-01
  3.222862000E+00 -3.355083009E-02
  1.253877000E+00  3.531902810E-01
  4.951550000E-01  5.534199315E-01
  1.916650000E-01  2.301839106E-01
  6.708300000E-02  1.127267003E-02
   p   9
  2.000000000E+02  9.173000030E-04
  4.653336700E+01  7.377140024E-03
  1.462180900E+01  3.483515011E-02
  5.313064000E+00  1.144397004E-01
  2.102525000E+00  2.554966408E-01
  8.502230000E-01  3.722557412E-01
  3.375970000E-01  3.323314911E-01
  1.288920000E-01  1.400847905E-01
  4.511200000E-02  2.395784008E-02
 
   2
   s  14
  1.053749500E+05  1.238600013E-04
  1.567924000E+04  5.120100053E-04
  3.534544700E+03  2.152910022E-03
  9.873651600E+02  8.528440089E-03
  3.159787500E+02  3.018049031E-02
  1.116542800E+02  9.099702095E-02
  4.269945100E+01  2.177936423E-01
  1.739559600E+01  3.686245738E-01
  7.438309000E+00  3.366707335E-01
  3.222862000E+00  9.657630101E-02
  1.253877000E+00  2.144520022E-03
  4.951550000E-01  1.194350012E-03
  1.916650000E-01  5.390200056E-04
  6.708300000E-02  2.103400022E-04
   s  14
  1.053749500E+05 -2.815000008E-05
  1.567924000E+04 -1.163000003E-04
  3.534544700E+03 -4.909200013E-04
  9.873651600E+02 -1.946160005E-03
  3.159787500E+02 -7.005300019E-03
  1.116542800E+02 -2.167814006E-02
  4.269945100E+01 -5.641213015E-02
  1.739559600E+01 -1.127053003E-01
  7.438309000E+00 -1.589119704E-01
  3.222862000E+00 -3.355083009E-02
  1.253877000E+00  3.531902810E-01
  4.951550000E-01  5.534199315E-01
  1.916650000E-01  2.301839106E-01
  6.708300000E-02  1.127267003E-02
   p   9
  2.000000000E+02  9.173000030E-04
  4.653336700E+01  7.377140024E-03
  1.462180900E+01  3.483515011E-02
  5.313064000E+00  1.144397004E-01
  2.102525000E+00  2.554966408E-01
  8.502230000E-01  3.722557412E-01
  3.375970000E-01  3.323314911E-01
  1.288920000E-01  1.400847905E-01
  4.511200000E-02  2.395784008E-02
 
[MO]
Sym=     1a  
Ene=   -20.7420
Spin= Alpha
Occup=    2.00000
   1        -1.00000011
   2         0.00030228
   3         0.00000000
   4         0.00000000
   5        -0.00003152
   6        -0.00001379
   7         0.00004191
   8        -0.00000000
   9        -0.00000000
  10        -0.00004784
Sym=     2a  
Ene=   -20.7130
Spin= Alpha
Occup=    2.00000
   1        -0.00001988
   2        -0.00004520
   3        -0.00000000
   4         0.00000000
   5        -0.00006349
   6         1.00000016
   7        -0.00028396
   8         0.00000000
   9         0.00000000
  10        -0.00001812
Sym=     3a  
Ene=    -1.2824
Spin= Alpha
Occup=    2.00000
   1        -0.00020440
   2        -0.97280635
   3        -0.00000000
   4        -0.00000000
   5        -0.00863283
   6         0.00034023
   7        -0.21666337
   8         0.00000000
   9         0.00000000
  10         0.00249700
Sym=     4a  
Ene=    -1.2564
Spin= Alpha
Occup=    2.00000
   1        -0.00044655
   2        -0.23141065
   3        -0.00000000
   4        -0.00000000
   5         0.00651478
   6         0.00035183
   7         0.97594494
   8         0.00000000
   9         0.00000000
  10         0.00235971
Sym=     5a  
Ene=    -0.6056
Spin= Alpha
Occup=    2.00000
   1         0.00010824
   2         0.00807299
   3         0.00000000
   4         0.00000000
   5        -0.99805344
   6         0.00286490
   7         0.05266154
   8         0.00000000
   9         0.00000000
  10         0.03479209
Sym=     6a  
Ene=    -0.5812
Spin= Alpha
Occup=    2.00000
   1         0.00000000
   2         0.00000000
   3        -0.00012491
   4         0.00618983
   5         0.00000000
   6        -0.00000000
   7        -0.00000000
   8        -0.02017243
   9         0.99965693
  10         0.00000000
Sym=     7a  
Ene=    -0.5812
Spin= Alpha
Occup=    2.00000
   1         0.00000000
   2         0.00000000
   3         0.00618983
   4         0.00012491
   5         0.00000000
   6        -0.00000000
   7        -0.00000000
   8         0.99965693
   9         0.02017243
  10         0.00000000
Sym=     8a  
Ene=    -0.3033
Spin= Alpha
Occup=    1.00000
   1         0.00000000
   2         0.00000000
   3        -0.53373607
   4        -0.84585213
   5        -0.00000000
   6         0.00000000
   7         0.00000000
   8         0.01368313
   9         0.02168470
  10         0.00000000
Sym=     9a  
Ene=     0.0000
Spin= Alpha
Occup=    1.00000
   1         0.00000000
   2         0.00000000
   3        -0.84585213
   4         0.53373607
   5        -0.00000000
   6         0.00000000
   7         0.00000000
   8         0.02168470
   9        -0.01368313
  10         0.00000000
Sym=    10a  
Ene=     0.0230
Spin= Alpha
Occup=    0.00000
   1         0.00289583
   2         0.04762831
   3         0.00000000
   4         0.00000000
   5         0.10074399
   6        -0.00029656
   7        -0.00720707
   8        -0.00000000
   9        -0.00000000
  10         1.00257404
