[Molden Format]
[N_Atoms]
                     2
[Atoms] (AU)
O1          1      8           0.00000000      0.00000000      0.00000000
O2          2      8           0.00000000      0.00000000      5.10226054
[Charge] (Mulliken)
   1.00050947678340     
  0.999490523216570     
[GTO] (AU)
   1
   s  14
  1.053749500E+05  1.238600013E-04
  1.567924000E+04  5.120100053E-04
  3.534544700E+03  2.152910022E-03
  9.873651600E+02  8.528440089E-03
  3.159787500E+02  3.018049031E-02
  1.116542800E+02  9.099702095E-02
  4.269945100E+01  2.177936423E-01
  1.739559600E+01  3.686245738E-01
  7.438309000E+00  3.366707335E-01
  3.222862000E+00  9.657630101E-02
  1.253877000E+00  2.144520022E-03
  4.951550000E-01  1.194350012E-03
  1.916650000E-01  5.390200056E-04
  6.708300000E-02  2.103400022E-04
   s  14
  1.053749500E+05 -2.815000008E-05
  1.567924000E+04 -1.163000003E-04
  3.534544700E+03 -4.909200013E-04
  9.873651600E+02 -1.946160005E-03
  3.159787500E+02 -7.005300019E-03
  1.116542800E+02 -2.167814006E-02
  4.269945100E+01 -5.641213015E-02
  1.739559600E+01 -1.127053003E-01
  7.438309000E+00 -1.589119704E-01
  3.222862000E+00 -3.355083009E-02
  1.253877000E+00  3.531902810E-01
  4.951550000E-01  5.534199315E-01
  1.916650000E-01  2.301839106E-01
  6.708300000E-02  1.127267003E-02
   p   9
  2.000000000E+02  9.173000030E-04
  4.653336700E+01  7.377140024E-03
  1.462180900E+01  3.483515011E-02
  5.313064000E+00  1.144397004E-01
  2.102525000E+00  2.554966408E-01
  8.502230000E-01  3.722557412E-01
  3.375970000E-01  3.323314911E-01
  1.288920000E-01  1.400847905E-01
  4.511200000E-02  2.395784008E-02
 
   2
   s  14
  1.053749500E+05  1.238600013E-04
  1.567924000E+04  5.120100053E-04
  3.534544700E+03  2.152910022E-03
  9.873651600E+02  8.528440089E-03
  3.159787500E+02  3.018049031E-02
  1.116542800E+02  9.099702095E-02
  4.269945100E+01  2.177936423E-01
  1.739559600E+01  3.686245738E-01
  7.438309000E+00  3.366707335E-01
  3.222862000E+00  9.657630101E-02
  1.253877000E+00  2.144520022E-03
  4.951550000E-01  1.194350012E-03
  1.916650000E-01  5.390200056E-04
  6.708300000E-02  2.103400022E-04
   s  14
  1.053749500E+05 -2.815000008E-05
  1.567924000E+04 -1.163000003E-04
  3.534544700E+03 -4.909200013E-04
  9.873651600E+02 -1.946160005E-03
  3.159787500E+02 -7.005300019E-03
  1.116542800E+02 -2.167814006E-02
  4.269945100E+01 -5.641213015E-02
  1.739559600E+01 -1.127053003E-01
  7.438309000E+00 -1.589119704E-01
  3.222862000E+00 -3.355083009E-02
  1.253877000E+00  3.531902810E-01
  4.951550000E-01  5.534199315E-01
  1.916650000E-01  2.301839106E-01
  6.708300000E-02  1.127267003E-02
   p   9
  2.000000000E+02  9.173000030E-04
  4.653336700E+01  7.377140024E-03
  1.462180900E+01  3.483515011E-02
  5.313064000E+00  1.144397004E-01
  2.102525000E+00  2.554966408E-01
  8.502230000E-01  3.722557412E-01
  3.375970000E-01  3.323314911E-01
  1.288920000E-01  1.400847905E-01
  4.511200000E-02  2.395784008E-02
 
[MO]
Sym=     1a  
Ene=   -22.0180
Spin= Alpha
Occup=    2.00000
   1         0.01123142
   2        -0.00018235
   3         0.00000000
   4         0.00000000
   5         0.00004485
   6         0.99993479
   7        -0.00199732
   8         0.00000000
   9         0.00000000
  10        -0.00013256
Sym=     2a  
Ene=   -22.0160
Spin= Alpha
Occup=    2.00000
   1        -0.99981588
   2         0.01542125
   3        -0.00000000
   4        -0.00000000
   5        -0.00056601
   6         0.01123365
   7        -0.00016554
   8        -0.00000000
   9        -0.00000000
  10         0.00072015
Sym=     3a  
Ene=    -2.1614
Spin= Alpha
Occup=    2.00000
   1         0.00047652
   2         0.00060681
   3        -0.00000000
   4        -0.00000000
   5        -0.01026235
   6        -0.00196268
   7        -0.99908631
   8         0.00000000
   9         0.00000000
  10         0.02796325
Sym=     4a  
Ene=    -1.4908
Spin= Alpha
Occup=    2.00000
   1         0.00000000
   2        -0.00000000
   3         0.84578840
   4        -0.53369831
   5        -0.00000000
   6         0.00000000
   7         0.00000000
   8        -0.00490290
   9         0.00309372
  10         0.00000000
Sym=     5a  
Ene=    -1.4906
Spin= Alpha
Occup=    2.00000
   1         0.00000000
   2         0.00000000
   3        -0.00304679
   4        -0.00482853
   5        -0.00000001
   6         0.00000000
   7         0.00000001
   8         0.53369769
   9         0.84578737
  10         0.00000023
Sym=     6a  
Ene=    -1.3193
Spin= Alpha
Occup=    2.00000
   1         0.00191775
   2        -0.03482288
   3        -0.00000002
   4        -0.00000004
   5        -0.68452549
   6         0.00219683
   7         0.05897582
   8        -0.00000009
   9        -0.00000015
  10         0.68325507
Sym=     7a  
Ene=    -2.1508
Spin= Alpha
Occup=    1.97506
   1        -0.01557930
   2        -1.00017150
   3         0.00000000
   4         0.00000000
   5         0.03559877
   6         0.00031809
   7         0.01188503
   8         0.00000000
   9         0.00000000
  10        -0.05340563
Sym=     8a  
Ene=    -0.0000
Spin= Alpha
Occup=    0.02494
   1         0.00000000
   2        -0.00000000
   3        -0.53373936
   4        -0.84585345
   5         0.00000007
   6        -0.00000000
   7        -0.00000000
   8         0.00733372
   9         0.01162226
  10         0.00000001
Sym=     9a  
Ene=    -1.0756
Spin= Alpha
Occup=    0.00000
   1         0.00207522
   2         0.02104572
   3         0.00000003
   4         0.00000005
   5         0.73241309
   6        -0.00207464
   7        -0.02097480
   8        -0.00000008
   9        -0.00000013
  10         0.73205524
Sym=    10a  
Ene=    -0.8899
Spin= Alpha
Occup=    0.00000
   1        -0.00000000
   2         0.00000000
   3        -0.01154789
   4         0.00728680
   5         0.00000000
   6        -0.00000000
   7         0.00000000
   8         0.84585301
   9        -0.53373911
  10         0.00000000
