[Molden Format]
[N_Atoms]
                     2
[Atoms] (AU)
O1          1      8           0.00000000      0.00000000      0.00000000
O2          2      8           0.00000000      0.00000000      5.10226054
[Charge] (Mulliken)
 -6.489297987855025E-010
  6.489164761092070E-010
[GTO] (AU)
   1
   s  14
  1.053749500E+05  1.238600013E-04
  1.567924000E+04  5.120100053E-04
  3.534544700E+03  2.152910022E-03
  9.873651600E+02  8.528440089E-03
  3.159787500E+02  3.018049031E-02
  1.116542800E+02  9.099702095E-02
  4.269945100E+01  2.177936423E-01
  1.739559600E+01  3.686245738E-01
  7.438309000E+00  3.366707335E-01
  3.222862000E+00  9.657630101E-02
  1.253877000E+00  2.144520022E-03
  4.951550000E-01  1.194350012E-03
  1.916650000E-01  5.390200056E-04
  6.708300000E-02  2.103400022E-04
   s  14
  1.053749500E+05 -2.815000008E-05
  1.567924000E+04 -1.163000003E-04
  3.534544700E+03 -4.909200013E-04
  9.873651600E+02 -1.946160005E-03
  3.159787500E+02 -7.005300019E-03
  1.116542800E+02 -2.167814006E-02
  4.269945100E+01 -5.641213015E-02
  1.739559600E+01 -1.127053003E-01
  7.438309000E+00 -1.589119704E-01
  3.222862000E+00 -3.355083009E-02
  1.253877000E+00  3.531902810E-01
  4.951550000E-01  5.534199315E-01
  1.916650000E-01  2.301839106E-01
  6.708300000E-02  1.127267003E-02
   p   9
  2.000000000E+02  9.173000030E-04
  4.653336700E+01  7.377140024E-03
  1.462180900E+01  3.483515011E-02
  5.313064000E+00  1.144397004E-01
  2.102525000E+00  2.554966408E-01
  8.502230000E-01  3.722557412E-01
  3.375970000E-01  3.323314911E-01
  1.288920000E-01  1.400847905E-01
  4.511200000E-02  2.395784008E-02
 
   2
   s  14
  1.053749500E+05  1.238600013E-04
  1.567924000E+04  5.120100053E-04
  3.534544700E+03  2.152910022E-03
  9.873651600E+02  8.528440089E-03
  3.159787500E+02  3.018049031E-02
  1.116542800E+02  9.099702095E-02
  4.269945100E+01  2.177936423E-01
  1.739559600E+01  3.686245738E-01
  7.438309000E+00  3.366707335E-01
  3.222862000E+00  9.657630101E-02
  1.253877000E+00  2.144520022E-03
  4.951550000E-01  1.194350012E-03
  1.916650000E-01  5.390200056E-04
  6.708300000E-02  2.103400022E-04
   s  14
  1.053749500E+05 -2.815000008E-05
  1.567924000E+04 -1.163000003E-04
  3.534544700E+03 -4.909200013E-04
  9.873651600E+02 -1.946160005E-03
  3.159787500E+02 -7.005300019E-03
  1.116542800E+02 -2.167814006E-02
  4.269945100E+01 -5.641213015E-02
  1.739559600E+01 -1.127053003E-01
  7.438309000E+00 -1.589119704E-01
  3.222862000E+00 -3.355083009E-02
  1.253877000E+00  3.531902810E-01
  4.951550000E-01  5.534199315E-01
  1.916650000E-01  2.301839106E-01
  6.708300000E-02  1.127267003E-02
   p   9
  2.000000000E+02  9.173000030E-04
  4.653336700E+01  7.377140024E-03
  1.462180900E+01  3.483515011E-02
  5.313064000E+00  1.144397004E-01
  2.102525000E+00  2.554966408E-01
  8.502230000E-01  3.722557412E-01
  3.375970000E-01  3.323314911E-01
  1.288920000E-01  1.400847905E-01
  4.511200000E-02  2.395784008E-02
 
[MO]
Sym=     1a  
Ene=   -20.7670
Spin= Alpha
Occup=    1.00000
   1         0.70710516
   2        -0.00030277
   3        -0.00000000
   4        -0.00000000
   5         0.00009814
   6         0.70710358
   7        -0.00030277
   8        -0.00000000
   9        -0.00000000
  10        -0.00009814
Sym=     1a  
Ene=   -20.7670
Spin= Beta
Occup=    1.00000
   1         0.70710516
   2        -0.00030277
   3        -0.00000000
   4        -0.00000000
   5         0.00009814
   6         0.70710358
   7        -0.00030277
   8        -0.00000000
   9        -0.00000000
  10        -0.00009814
Sym=     2a  
Ene=   -20.7670
Spin= Alpha
Occup=    1.00000
   1        -0.70710830
   2         0.00026782
   3        -0.00000000
   4        -0.00000000
   5        -0.00010181
   6         0.70710988
   7        -0.00026782
   8        -0.00000000
   9        -0.00000000
  10        -0.00010181
Sym=     2a  
Ene=   -20.7670
Spin= Beta
Occup=    1.00000
   1        -0.70710830
   2         0.00026782
   3        -0.00000000
   4        -0.00000000
   5        -0.00010181
   6         0.70710988
   7        -0.00026782
   8        -0.00000000
   9        -0.00000000
  10        -0.00010181
Sym=     3a  
Ene=    -1.2960
Spin= Alpha
Occup=    1.00000
   1        -0.00003814
   2         0.70138996
   3         0.00000000
   4         0.00000000
   5         0.01047157
   6        -0.00003814
   7         0.70138996
   8        -0.00000000
   9        -0.00000000
  10        -0.01047157
Sym=     3a  
Ene=    -1.2960
Spin= Beta
Occup=    1.00000
   1        -0.00003814
   2         0.70138996
   3         0.00000000
   4         0.00000000
   5         0.01047157
   6        -0.00003814
   7         0.70138996
   8        -0.00000000
   9        -0.00000000
  10        -0.01047157
Sym=     4a  
Ene=    -1.2755
Spin= Alpha
Occup=    1.00000
   1        -0.00053626
   2        -0.71149523
   3         0.00000000
   4         0.00000000
   5         0.01607361
   6         0.00053626
   7         0.71149523
   8         0.00000000
   9        -0.00000000
  10         0.01607361
Sym=     4a  
Ene=    -1.2755
Spin= Beta
Occup=    1.00000
   1        -0.00053626
   2        -0.71149523
   3         0.00000000
   4         0.00000000
   5         0.01607361
   6         0.00053626
   7         0.71149523
   8         0.00000000
   9        -0.00000000
  10         0.01607361
Sym=     5a  
Ene=    -0.6134
Spin= Alpha
Occup=    1.00000
   1         0.00000000
   2         0.00000000
   3        -0.24910324
   4         0.65452980
   5        -0.00000000
   6        -0.00000000
   7         0.00000000
   8        -0.24910324
   9         0.65452979
  10         0.00000000
Sym=     5a  
Ene=    -0.6134
Spin= Beta
Occup=    1.00000
   1         0.00000000
   2         0.00000000
   3        -0.24910324
   4         0.65452980
   5        -0.00000000
   6        -0.00000000
   7         0.00000000
   8        -0.24910324
   9         0.65452979
  10         0.00000000
Sym=     6a  
Ene=    -0.6039
Spin= Alpha
Occup=    1.00000
   1        -0.00000000
   2        -0.00000000
   3         0.25399575
   4        -0.66738507
   5         0.00000000
   6         0.00000000
   7         0.00000000
   8        -0.25399575
   9         0.66738508
  10        -0.00000000
Sym=     6a  
Ene=    -0.6039
Spin= Beta
Occup=    1.00000
   1        -0.00000000
   2        -0.00000000
   3         0.25399575
   4        -0.66738507
   5         0.00000000
   6         0.00000000
   7         0.00000000
   8        -0.25399575
   9         0.66738508
  10        -0.00000000
Sym=     7a  
Ene=    -0.4357
Spin= Alpha
Occup=    1.00000
   1         0.00209856
   2         0.04092812
   3        -0.00000000
   4        -0.00000000
   5        -0.68552349
   6         0.00209856
   7         0.04092812
   8         0.00000000
   9         0.00000000
  10         0.68552349
Sym=     7a  
Ene=    -0.4357
Spin= Beta
Occup=    1.00000
   1         0.00209856
   2         0.04092812
   3        -0.00000000
   4        -0.00000000
   5        -0.68552349
   6         0.00209856
   7         0.04092812
   8         0.00000000
   9         0.00000000
  10         0.68552349
Sym=     8a  
Ene=    -0.4086
Spin= Alpha
Occup=    1.00000
   1         0.00000000
   2         0.00000000
   3         0.65452980
   4         0.24910324
   5         0.00000000
   6        -0.00000000
   7        -0.00000000
   8         0.65452980
   9         0.24910324
  10         0.00000000
Sym=     8a  
Ene=    -0.4086
Spin= Beta
Occup=    1.00000
   1         0.00000000
   2         0.00000000
   3         0.65452980
   4         0.24910324
   5         0.00000000
   6        -0.00000000
   7        -0.00000000
   8         0.65452980
   9         0.24910324
  10         0.00000000
Sym=     9a  
Ene=    -0.2054
Spin= Alpha
Occup=    0.00000
   1        -0.00000000
   2        -0.00000000
   3        -0.66738507
   4        -0.25399575
   5         0.00000000
   6        -0.00000000
   7        -0.00000000
   8         0.66738507
   9         0.25399575
  10        -0.00000000
Sym=     9a  
Ene=    -0.2054
Spin= Beta
Occup=    0.00000
   1        -0.00000000
   2        -0.00000000
   3        -0.66738507
   4        -0.25399575
   5         0.00000000
   6        -0.00000000
   7        -0.00000000
   8         0.66738507
   9         0.25399575
  10        -0.00000000
Sym=    10a  
Ene=    -0.1710
Spin= Alpha
Occup=    0.00000
   1         0.00207649
   2         0.04886922
   3        -0.00000000
   4        -0.00000000
   5         0.73216563
   6        -0.00207649
   7        -0.04886922
   8        -0.00000000
   9        -0.00000000
  10         0.73216563
Sym=    10a  
Ene=    -0.1710
Spin= Beta
Occup=    0.00000
   1         0.00207649
   2         0.04886922
   3        -0.00000000
   4        -0.00000000
   5         0.73216563
   6        -0.00207649
   7        -0.04886922
   8        -0.00000000
   9        -0.00000000
  10         0.73216563
