[Molden Format]
[N_Atoms]
                     2
[Atoms] (AU)
LI1         1      3           0.00000000      0.00000000      0.00000000
N2          2      7           0.00000000      0.00000000      1.32280829
[Charge] (Mulliken)
  0.727955172518816     
 -0.727955172518841     
[GTO] (AU)
   1
   s  14
  9.497934400E+03  9.668999974E-05
  1.416811200E+03  6.087099984E-04
  3.214599400E+02  3.101519992E-03
  9.112416300E+01  1.266904997E-02
  2.999989100E+01  4.248012989E-02
  1.101763100E+01  1.150183297E-01
  4.372801000E+00  2.398650094E-01
  1.831256000E+00  3.584300090E-01
  8.022610000E-01  3.048527792E-01
  3.626480000E-01  8.824261976E-02
  1.139950000E-01 -8.445899977E-04
  5.123700000E-02 -7.943959979E-03
  2.246800000E-02 -3.764419990E-03
  7.860000000E-03 -8.868999976E-05
   s  14
  9.497934400E+03 -1.244999993E-05
  1.416811200E+03 -7.838999954E-05
  3.214599400E+02 -4.007099976E-04
  9.112416300E+01 -1.645249990E-03
  2.999989100E+01 -5.634599967E-03
  1.101763100E+01 -1.590780991E-02
  4.372801000E+00 -3.612581979E-02
  1.831256000E+00 -6.459927962E-02
  8.022610000E-01 -1.008321794E-01
  3.626480000E-01 -9.757613942E-02
  1.139950000E-01  2.301215886E-01
  5.123700000E-02  6.102389764E-01
  2.246800000E-02  2.849406083E-01
  7.860000000E-03  4.026899976E-03
   p   9
  1.311950400E+01  1.524940000E-03
  3.077424200E+00  8.314830000E-03
  1.098800500E+00  1.933203000E-02
  4.357784000E-01  4.934293000E-02
  1.802432000E-01  1.623554000E-01
  7.613330000E-02  3.847505400E-01
  3.254650000E-02  4.336100400E-01
  1.401820000E-02  1.287005900E-01
  4.906400000E-03 -1.018520000E-03
 
   2
   s  14
  7.476171500E+04  1.182599996E-04
  1.112365400E+04  5.172899983E-04
  2.512685700E+03  2.266659992E-03
  7.037772900E+02  9.145289970E-03
  2.254787900E+02  3.239342989E-02
  7.961581000E+01  9.770792967E-02
  3.023728300E+01  2.317036792E-01
  1.226362200E+01  3.768898887E-01
  5.265086000E+00  3.177420689E-01
  2.333471000E+00  8.211308973E-02
  9.018560000E-01  3.312089989E-03
  3.583360000E-01  3.720819988E-03
  1.410930000E-01  3.165419989E-03
  4.938300000E-02  4.595799985E-04
   s  14
  7.476171500E+04 -2.707000010E-05
  1.112365400E+04 -1.183700004E-04
  2.512685700E+03 -5.203800020E-04
  7.037772900E+02 -2.102930008E-03
  2.254787900E+02 -7.568200028E-03
  7.961581000E+01 -2.346767009E-02
  3.023728300E+01 -6.042901023E-02
  1.226362200E+01 -1.170549104E-01
  5.265086000E+00 -1.555321506E-01
  2.333471000E+00 -2.468935009E-02
  9.018560000E-01  3.625054514E-01
  3.583360000E-01  5.550845021E-01
  1.410930000E-01  2.148376908E-01
  4.938300000E-02  8.983850034E-03
   p   9
  1.266665700E+02  1.233630000E-03
  2.983738900E+01  9.493409996E-03
  9.394038000E+00  4.293961998E-02
  3.405104000E+00  1.362925399E-01
  1.350000000E+00  2.921362499E-01
  5.576960000E-01  3.887887598E-01
  2.324490000E-01  2.946801399E-01
  9.426400000E-02  8.012875997E-02
  3.299200000E-02  5.405199998E-04
 
[MO]
Sym=     1a  
Ene=   -15.6470
Spin= Alpha
Occup=    2.00000
   1        -0.00112040
   2        -0.00254016
   3         0.00000002
   4        -0.00000000
   5         0.00072769
   6         1.00011457
   7        -0.00231498
   8         0.00000012
   9        -0.00000000
  10        -0.00625882
Sym=     2a  
Ene=    -3.2360
Spin= Alpha
Occup=    2.00000
   1        -0.93841479
   2         0.01568121
   3         0.00000036
   4        -0.00000001
   5        -0.02536445
   6         0.07371048
   7        -0.05440429
   8         0.00000242
   9        -0.00000008
  10         0.07571569
Sym=     3a  
Ene=    -0.7513
Spin= Alpha
Occup=    2.00000
   1        -0.34970748
   2         0.05603075
   3         0.00000068
   4        -0.00000002
   5         0.05179152
   6         0.02581695
   7         0.98814346
   8         0.00000460
   9        -0.00000015
  10         0.18534603
Sym=     4a  
Ene=    -0.5134
Spin= Alpha
Occup=    2.00000
   1         0.00000000
   2         0.00000000
   3         0.00457891
   4         0.13919682
   5         0.00000000
   6        -0.00000000
   7        -0.00000000
   8         0.03074676
   9         0.93468684
  10        -0.00000000
Sym=     5a  
Ene=    -0.5132
Spin= Alpha
Occup=    1.99838
   1         0.00000416
   2        -0.00000031
   3         0.13812871
   4        -0.00454378
   5        -0.00000019
   6        -0.00000044
   7        -0.00000473
   8         0.93524620
   9        -0.03076516
  10        -0.00000110
Sym=     6a  
Ene=    -0.0007
Spin= Alpha
Occup=    0.00162
   1         0.93560034
   2         0.21087225
   3         0.00000105
   4        -0.00000003
   5        -0.02539826
   6        -0.07384321
   7        -0.59678358
   8        -0.00000056
   9         0.00000002
  10         1.20281138
Sym=     7a  
Ene=    -0.0027
Spin= Alpha
Occup=    0.00000
   1         0.10962462
   2         0.79957144
   3         0.00000024
   4        -0.00000001
   5        -0.63139070
   6         0.00476208
   7        -0.14488676
   8        -0.00000013
   9         0.00000000
  10         0.06137563
Sym=     8a  
Ene=     0.1536
Spin= Alpha
Occup=    0.00000
   1         0.00000100
   2         0.00000070
   3        -1.08542725
   4         0.03570540
   5         0.00000020
   6        -0.00000012
   7        -0.00000091
   8         0.56793169
   9        -0.01868226
  10         0.00000107
Sym=     9a  
Ene=     0.1537
Spin= Alpha
Occup=    0.00000
   1        -0.00000000
   2        -0.00000000
   3        -0.03570091
   4        -1.08529079
   5        -0.00000000
   6         0.00000000
   7         0.00000000
   8         0.01871252
   9         0.56885180
  10        -0.00000000
Sym=    10a  
Ene=     0.2317
Spin= Alpha
Occup=    0.00000
   1         0.18596484
   2         0.81852870
   3         0.00000041
   4        -0.00000001
   5         0.95104132
   6        -0.11625412
   7        -0.79559463
   8        -0.00000022
   9         0.00000001
  10        -0.28924385
