[Molden Format]
[N_Atoms]
                     2
[Atoms] (AU)
BE1         1      4           0.00000000      0.00000000      0.00000000
H2          2      1           0.00000000      0.00000000      4.91328792
[Charge] (Mulliken)
  7.632203729995624E-003
 -7.632203730007836E-003
[GTO] (AU)
   1
   s  14
  2.262859900E+04  8.443999941E-05
  3.372318100E+03  4.601499968E-04
  7.603504000E+02  2.285389984E-03
  2.117404800E+02  9.648129932E-03
  6.722346800E+01  3.494469975E-02
  2.337217700E+01  1.061099893E-01
  8.721373000E+00  2.458240383E-01
  3.468091000E+00  3.862428773E-01
  1.452144000E+00  3.105526078E-01
  6.086150000E-01  6.415933955E-02
  2.576860000E-01 -2.265049984E-03
  1.041760000E-01 -5.217499963E-04
  4.242700000E-02 -8.757499938E-04
  1.484900000E-02  1.242199991E-04
   s  14
  2.262859900E+04 -1.586999994E-05
  3.372318100E+03 -8.656999968E-05
  7.603504000E+02 -4.302199984E-04
  2.117404800E+02 -1.825079993E-03
  6.722346800E+01 -6.682749976E-03
  2.337217700E+01 -2.095119992E-02
  8.721373000E+00 -5.200308981E-02
  3.468091000E+00 -9.849176964E-02
  1.452144000E+00 -1.355800695E-01
  6.086150000E-01 -6.429875976E-02
  2.576860000E-01  3.125414989E-01
  1.041760000E-01  6.270468577E-01
  4.242700000E-02  2.110231492E-01
  1.484900000E-02 -4.104669985E-03
   p   9
  3.371018400E+01  1.069960000E-03
  8.057649500E+00  6.828550001E-03
  2.836471400E+00  2.119065000E-02
  1.099965700E+00  5.843696001E-02
  4.433964000E-01  2.020920800E-01
  1.822264000E-01  4.582953101E-01
  7.572410000E-02  3.691239601E-01
  3.168540000E-02  6.611471001E-02
  1.108990000E-02  1.405160000E-03
 
   2
   s   8
  1.886144500E+02  9.638500027E-04
  2.827659600E+01  7.491960021E-03
  6.424830000E+00  3.759541011E-02
  1.815041000E+00  1.433949804E-01
  5.910630000E-01  3.486363010E-01
  2.121490000E-01  4.382973612E-01
  7.989100000E-02  1.651066105E-01
  2.796200000E-02  2.102287006E-02
 
[MO]
Sym=     1a  
Ene=    -4.7143
Spin= Alpha
Occup=    1.00000
   1         0.99999523
   2         0.00232495
   3         0.00000000
   4         0.00000000
   5        -0.00058556
   6         0.00022078
Sym=     1a  
Ene=    -4.7128
Spin= Beta
Occup=    1.00000
   1         0.99999744
   2         0.00235501
   3        -0.00000000
   4        -0.00000000
   5         0.00066629
   6        -0.00004893
Sym=     2a  
Ene=    -0.4842
Spin= Alpha
Occup=    1.00000
   1        -0.00864009
   2         0.11938316
   3        -0.00000000
   4         0.00000000
   5         0.03946057
   6         0.96110329
Sym=     2a  
Ene=    -0.3186
Spin= Beta
Occup=    1.00000
   1        -0.00327371
   2         0.92275746
   3        -0.00000000
   4         0.00000000
   5         0.29567363
   6         0.10422586
Sym=     3a  
Ene=    -0.3158
Spin= Alpha
Occup=    1.00000
   1         0.00083016
   2        -0.94502326
   3        -0.00000000
   4         0.00000000
   5         0.32257212
   6         0.18055569
Sym=     3a  
Ene=     0.0902
Spin= Beta
Occup=    0.00000
   1        -0.00317807
   2        -0.40864009
   3         0.00000000
   4         0.00000000
   5         0.74653711
   6         0.41549061
Sym=     4a  
Ene=     0.1032
Spin= Alpha
Occup=    0.00000
   1         0.00000000
   2         0.00000000
   3         0.97077748
   4         0.23998144
   5         0.00000000
   6        -0.00000000
Sym=     4a  
Ene=     0.1072
Spin= Beta
Occup=    0.00000
   1         0.00000000
   2         0.00000000
   3         0.97077748
   4         0.23998144
   5        -0.00000000
   6        -0.00000000
Sym=     5a  
Ene=     0.1032
Spin= Alpha
Occup=    0.00000
   1         0.00000000
   2         0.00000000
   3        -0.23998144
   4         0.97077748
   5         0.00000000
   6        -0.00000000
Sym=     5a  
Ene=     0.1072
Spin= Beta
Occup=    0.00000
   1         0.00000000
   2         0.00000000
   3        -0.23998144
   4         0.97077748
   5        -0.00000000
   6        -0.00000000
Sym=     6a  
Ene=     0.1497
Spin= Alpha
Occup=    0.00000
   1         0.00311263
   2         0.35700081
   3        -0.00000000
   4        -0.00000000
   5         0.98552890
   6        -0.39421986
Sym=     6a  
Ene=     0.2584
Spin= Beta
Occup=    0.00000
   1        -0.00773245
   2        -0.12768195
   3         0.00000000
   4         0.00000000
   5        -0.65737088
   6         0.96344888
