[Molden Format]
[N_Atoms]
                     2
[Atoms] (AU)
C1          1      6           0.00000000      0.00000000      0.00000000
F2          2      9           0.00000000      0.00000000      3.21253441
[Charge] (Mulliken)
  0.357347163689391     
 -0.357347163689409     
[GTO] (AU)
   1
   s  14
  5.055750100E+04  1.128874000E-04
  7.524785600E+03  5.295373000E-04
  1.694327600E+03  2.450038300E-03
  4.728227900E+02  1.005398470E-02
  1.517107500E+02  3.545398060E-02
  5.391874600E+01  1.044071086E-01
  2.065931100E+01  2.412894918E-01
  8.383976000E+00  3.834225483E-01
  3.577015000E+00  3.078514393E-01
  1.547118000E+00  6.872442990E-02
  6.130130000E-01  2.224445000E-04
  2.460680000E-01  1.976748900E-03
  9.908700000E-02  2.057859400E-03
  3.468000000E-02  4.182020000E-04
   s  14
  5.055750100E+04 -2.507420000E-05
  7.524785600E+03 -1.175945000E-04
  1.694327600E+03 -5.456275000E-04
  4.728227900E+02 -2.245077100E-03
  1.517107500E+02 -8.043471800E-03
  5.391874600E+01 -2.442588710E-02
  2.065931100E+01 -6.136791180E-02
  8.383976000E+00 -1.177767835E-01
  3.577015000E+00 -1.550487783E-01
  1.547118000E+00 -1.933316860E-02
  6.130130000E-01  3.996930678E-01
  2.460680000E-01  5.589420949E-01
  9.908700000E-02  1.711195023E-01
  3.468000000E-02  7.456244600E-03
   p   9
  8.333315500E+01  1.344656000E-03
  1.955761100E+01  1.023555500E-02
  6.080365000E+00  4.520067100E-02
  2.179317000E+00  1.410756198E-01
  8.651500000E-01  3.047388085E-01
  3.619440000E-01  3.995281011E-01
  1.547400000E-01  2.719163432E-01
  6.542900000E-02  5.857669330E-02
  2.290000000E-02 -1.263813000E-04
 
   2
   s  14
  1.031094600E+05  1.713099991E-04
  1.528100700E+04  7.123999962E-04
  3.441539200E+03  2.990479984E-03
  9.670948300E+02  1.164036994E-02
  3.140353400E+02  3.968642979E-02
  1.134423000E+02  1.128546094E-01
  4.464472700E+01  2.473650687E-01
  1.894287400E+01  3.672702681E-01
  8.532743000E+00  2.896286985E-01
  3.919401000E+00  7.786681959E-02
  1.568157000E+00  4.562139976E-03
  6.232900000E-01  2.468879987E-03
  2.408610000E-01  1.106309994E-03
  8.430100000E-02  1.739699991E-04
   s  14
  1.031094600E+05 -4.044999995E-05
  1.528100700E+04 -1.682299998E-04
  3.441539200E+03 -7.084299991E-04
  9.670948300E+02 -2.767999996E-03
  3.140353400E+02 -9.611379987E-03
  1.134423000E+02 -2.833957996E-02
  4.464472700E+01 -6.839343991E-02
  1.894287400E+01 -1.237379298E-01
  8.532743000E+00 -1.512859698E-01
  3.919401000E+00 -9.099909988E-03
  1.568157000E+00  3.716257695E-01
  6.232900000E-01  5.500214393E-01
  2.408610000E-01  2.092318697E-01
  8.430100000E-02  8.074639989E-03
   p   9
  2.453302900E+02  1.024860004E-03
  5.691900500E+01  8.344290032E-03
  1.760456800E+01  4.078927016E-02
  6.274995000E+00  1.351370605E-01
  2.447030000E+00  2.798830811E-01
  9.950600000E-01  3.597966414E-01
  4.039730000E-01  3.055347412E-01
  1.548100000E-01  1.354703905E-01
  5.418400000E-02  2.804449011E-02
 
[MO]
Sym=     1a  
Ene=   -26.2040
Spin= Alpha
Occup=    1.00000
   1        -0.00002728
   2        -0.00023844
   3        -0.00000000
   4         0.00000000
   5        -0.00017620
   6         1.00000216
   7        -0.00311844
   8         0.00000000
   9        -0.00000000
  10        -0.00059192
Sym=     1a  
Ene=   -26.2180
Spin= Beta
Occup=    1.00000
   1        -0.00003435
   2        -0.00031425
   3        -0.00000000
   4         0.00000000
   5        -0.00027461
   6         1.00000727
   7        -0.00248962
   8         0.00000000
   9        -0.00000000
  10        -0.00065774
Sym=     2a  
Ene=   -11.4570
Spin= Alpha
Occup=    1.00000
   1         1.00000663
   2        -0.00136934
   3        -0.00000000
   4         0.00000000
   5         0.00135336
   6        -0.00011609
   7        -0.00073474
   8         0.00000000
   9        -0.00000000
  10         0.00013015
Sym=     2a  
Ene=   -11.4260
Spin= Beta
Occup=    1.00000
   1         0.99998793
   2        -0.00482580
   3        -0.00000000
   4         0.00000000
   5         0.00117537
   6        -0.00006883
   7        -0.00033553
   8         0.00000000
   9         0.00000000
  10        -0.00008166
Sym=     3a  
Ene=    -1.4920
Spin= Alpha
Occup=    1.00000
   1        -0.00715491
   2         0.10449091
   3         0.00000000
   4         0.00000000
   5         0.07356383
   6         0.00000127
   7         0.95634023
   8         0.00000000
   9        -0.00000000
  10        -0.03173594
Sym=     3a  
Ene=    -1.5404
Spin= Beta
Occup=    1.00000
   1        -0.00767501
   2         0.05994250
   3         0.00000000
   4         0.00000000
   5         0.04747048
   6         0.00062161
   7         0.97284875
   8        -0.00000000
   9         0.00000000
  10        -0.06325660
Sym=     4a  
Ene=    -0.8620
Spin= Alpha
Occup=    1.00000
   1         0.00274865
   2        -0.92500070
   3         0.00000000
   4         0.00000000
   5        -0.00901443
   6         0.01204943
   7         0.26233007
   8        -0.00000000
   9         0.00000000
  10         0.23638924
Sym=     4a  
Ene=    -0.7685
Spin= Beta
Occup=    1.00000
   1         0.00974643
   2        -0.67757944
   3        -0.00000000
   4         0.00000000
   5        -0.06389240
   6         0.01046418
   7         0.22395640
   8         0.00000000
   9        -0.00000000
  10         0.59174295
Sym=     5a  
Ene=    -0.6279
Spin= Alpha
Occup=    1.00000
   1         0.00000000
   2         0.00000000
   3         0.07970113
   4         0.32409997
   5        -0.00000000
   6         0.00000000
   7        -0.00000000
   8         0.21582359
   9         0.87763402
  10         0.00000000
Sym=     5a  
Ene=    -0.6160
Spin= Beta
Occup=    1.00000
   1         0.00000000
   2         0.00000000
   3         0.08877080
   4        -0.02183009
   5        -0.00000000
   6        -0.00000000
   7        -0.00000000
   8         0.95649734
   9        -0.23521729
  10         0.00000000
Sym=     6a  
Ene=    -0.5980
Spin= Alpha
Occup=    1.00000
   1        -0.00000000
   2        -0.00000000
   3         0.11702474
   4        -0.02877817
   5         0.00000000
   6        -0.00000000
   7        -0.00000000
   8         0.95016709
   9        -0.23366058
  10        -0.00000000
Sym=     6a  
Ene=    -0.6118
Spin= Beta
Occup=    1.00000
   1        -0.00000000
   2        -0.00000000
   3         0.01778658
   4         0.07232810
   5         0.00000000
   6         0.00000000
   7        -0.00000000
   8         0.23603022
   9         0.95980311
  10        -0.00000000
Sym=     7a  
Ene=    -0.5044
Spin= Alpha
Occup=    1.00000
   1         0.01611869
   2         0.31827465
   3        -0.00000000
   4        -0.00000000
   5        -0.64137559
   6         0.01293680
   7         0.16606534
   8         0.00000000
   9         0.00000000
  10         0.64150980
Sym=     7a  
Ene=    -0.5471
Spin= Beta
Occup=    1.00000
   1         0.02130706
   2         0.74054447
   3         0.00000000
   4         0.00000000
   5        -0.30085743
   6        -0.00095092
   7        -0.01532849
   8        -0.00000000
   9         0.00000000
  10         0.70803778
Sym=     8a  
Ene=    -0.4753
Spin= Alpha
Occup=    1.00000
   1        -0.00000000
   2        -0.00000000
   3        -0.22691952
   4        -0.92275497
   5         0.00000000
   6        -0.00000000
   7        -0.00000000
   8         0.10613631
   9         0.43159709
  10        -0.00000000
Sym=     8a  
Ene=     0.0661
Spin= Beta
Occup=    0.00000
   1        -0.00000000
   2        -0.00000000
   3         0.97398012
   4        -0.23951657
   5         0.00000000
   6         0.00000000
   7         0.00000000
   8        -0.20403520
   9         0.05017537
  10        -0.00000000
Sym=     9a  
Ene=     0.0255
Spin= Alpha
Occup=    0.00000
   1         0.00000000
   2         0.00000000
   3         0.97099060
   4        -0.23878140
   5        -0.00000000
   6         0.00000000
   7        -0.00000000
   8        -0.23173267
   9         0.05698660
  10         0.00000000
Sym=     9a  
Ene=     0.1275
Spin= Beta
Occup=    0.00000
   1        -0.00000000
   2        -0.00000000
   3         0.23985074
   4         0.97533900
   5        -0.00000000
   6        -0.00000000
   7        -0.00000000
   8        -0.04620035
   9        -0.18787101
  10        -0.00000000
Sym=    10a  
Ene=     0.1718
Spin= Alpha
Occup=    0.00000
   1         0.02163970
   2         0.34512544
   3        -0.00000000
   4         0.00000000
   5         0.84340273
   6        -0.02543285
   7        -0.30271237
   8         0.00000000
   9        -0.00000000
  10         0.80245261
Sym=    10a  
Ene=     0.1983
Spin= Beta
Occup=    0.00000
   1         0.01470852
   2         0.27535504
   3         0.00000000
   4         0.00000000
   5         1.01554579
   6        -0.02895458
   7        -0.32525990
   8        -0.00000000
   9         0.00000000
  10         0.50682677
