[Molden Format]
[N_Atoms]
                     2
[Atoms] (AU)
C1          1      6           0.00000000      0.00000000      0.00000000
LI2         2      3           0.00000000      0.00000000      5.10226054
[Charge] (Mulliken)
  4.017820438793684E-002
 -4.017820438798481E-002
[GTO] (AU)
   1
   s  14
  5.055750100E+04  1.128874000E-04
  7.524785600E+03  5.295373000E-04
  1.694327600E+03  2.450038300E-03
  4.728227900E+02  1.005398470E-02
  1.517107500E+02  3.545398060E-02
  5.391874600E+01  1.044071086E-01
  2.065931100E+01  2.412894918E-01
  8.383976000E+00  3.834225483E-01
  3.577015000E+00  3.078514393E-01
  1.547118000E+00  6.872442990E-02
  6.130130000E-01  2.224445000E-04
  2.460680000E-01  1.976748900E-03
  9.908700000E-02  2.057859400E-03
  3.468000000E-02  4.182020000E-04
   s  14
  5.055750100E+04 -2.507420000E-05
  7.524785600E+03 -1.175945000E-04
  1.694327600E+03 -5.456275000E-04
  4.728227900E+02 -2.245077100E-03
  1.517107500E+02 -8.043471800E-03
  5.391874600E+01 -2.442588710E-02
  2.065931100E+01 -6.136791180E-02
  8.383976000E+00 -1.177767835E-01
  3.577015000E+00 -1.550487783E-01
  1.547118000E+00 -1.933316860E-02
  6.130130000E-01  3.996930678E-01
  2.460680000E-01  5.589420949E-01
  9.908700000E-02  1.711195023E-01
  3.468000000E-02  7.456244600E-03
   p   9
  8.333315500E+01  1.344656000E-03
  1.955761100E+01  1.023555500E-02
  6.080365000E+00  4.520067100E-02
  2.179317000E+00  1.410756198E-01
  8.651500000E-01  3.047388085E-01
  3.619440000E-01  3.995281011E-01
  1.547400000E-01  2.719163432E-01
  6.542900000E-02  5.857669330E-02
  2.290000000E-02 -1.263813000E-04
 
   2
   s  14
  9.497934400E+03  9.668999974E-05
  1.416811200E+03  6.087099984E-04
  3.214599400E+02  3.101519992E-03
  9.112416300E+01  1.266904997E-02
  2.999989100E+01  4.248012989E-02
  1.101763100E+01  1.150183297E-01
  4.372801000E+00  2.398650094E-01
  1.831256000E+00  3.584300090E-01
  8.022610000E-01  3.048527792E-01
  3.626480000E-01  8.824261976E-02
  1.139950000E-01 -8.445899977E-04
  5.123700000E-02 -7.943959979E-03
  2.246800000E-02 -3.764419990E-03
  7.860000000E-03 -8.868999976E-05
   s  14
  9.497934400E+03 -1.244999993E-05
  1.416811200E+03 -7.838999954E-05
  3.214599400E+02 -4.007099976E-04
  9.112416300E+01 -1.645249990E-03
  2.999989100E+01 -5.634599967E-03
  1.101763100E+01 -1.590780991E-02
  4.372801000E+00 -3.612581979E-02
  1.831256000E+00 -6.459927962E-02
  8.022610000E-01 -1.008321794E-01
  3.626480000E-01 -9.757613942E-02
  1.139950000E-01  2.301215886E-01
  5.123700000E-02  6.102389764E-01
  2.246800000E-02  2.849406083E-01
  7.860000000E-03  4.026899976E-03
   p   9
  1.311950400E+01  1.524940000E-03
  3.077424200E+00  8.314830000E-03
  1.098800500E+00  1.933203000E-02
  4.357784000E-01  4.934293000E-02
  1.802432000E-01  1.623554000E-01
  7.613330000E-02  3.847505400E-01
  3.254650000E-02  4.336100400E-01
  1.401820000E-02  1.287005900E-01
  4.906400000E-03 -1.018520000E-03
 
[MO]
Sym=     1a  
Ene=   -11.3170
Spin= Alpha
Occup=    1.00000
   1         1.00008878
   2         0.00073027
   3         0.00000000
   4        -0.00000000
   5         0.00051144
   6        -0.00011879
   7        -0.00114821
   8        -0.00000000
   9        -0.00000000
  10         0.00141269
Sym=     1a  
Ene=   -11.2700
Spin= Beta
Occup=    1.00000
   1         1.00002534
   2        -0.00457311
   3         0.00000000
   4        -0.00000000
   5         0.00031166
   6        -0.00007572
   7        -0.00052989
   8         0.00000000
   9        -0.00000000
  10         0.00056317
Sym=     2a  
Ene=    -2.4626
Spin= Alpha
Occup=    1.00000
   1        -0.00007027
   2         0.00024657
   3        -0.00000000
   4         0.00000000
   5         0.00065962
   6         0.99989351
   7         0.01317045
   8        -0.00000000
   9        -0.00000000
  10        -0.00093435
Sym=     2a  
Ene=    -2.4753
Spin= Beta
Occup=    1.00000
   1        -0.00001434
   2         0.00039652
   3        -0.00000000
   4         0.00000000
   5         0.00007377
   6         0.99992127
   7         0.01207530
   8        -0.00000000
   9        -0.00000000
  10        -0.00039649
Sym=     3a  
Ene=    -0.8357
Spin= Alpha
Occup=    1.00000
   1        -0.00063309
   2         0.99345268
   3         0.00000000
   4        -0.00000000
   5         0.00879333
   6        -0.01063839
   7         0.00818292
   8         0.00000000
   9         0.00000000
  10        -0.01189774
Sym=     3a  
Ene=    -0.6020
Spin= Beta
Occup=    1.00000
   1         0.00098471
   2         0.96050801
   3        -0.00000000
   4         0.00000000
   5         0.03081847
   6        -0.01121053
   7         0.06260322
   8         0.00000000
   9        -0.00000000
  10        -0.05515866
Sym=     4a  
Ene=    -0.4517
Spin= Alpha
Occup=    1.00000
   1        -0.00398788
   2        -0.04858623
   3         0.00000000
   4         0.00000000
   5         0.97876102
   6        -0.02557845
   7         0.05654297
   8         0.00000000
   9         0.00000000
  10        -0.05965851
Sym=     4a  
Ene=    -0.1834
Spin= Beta
Occup=    1.00000
   1        -0.01455169
   2        -0.20809544
   3        -0.00000000
   4        -0.00000000
   5         0.10474643
   6        -0.01223385
   7         0.97060854
   8         0.00000000
   9        -0.00000000
  10         0.20198856
Sym=     5a  
Ene=    -0.4490
Spin= Alpha
Occup=    1.00000
   1        -0.00000000
   2        -0.00000000
   3        -0.98825457
   4        -0.12558355
   5         0.00000000
   6        -0.00000000
   7         0.00000000
   8        -0.02452912
   9        -0.00311706
  10        -0.00000000
Sym=     5a  
Ene=     0.0321
Spin= Beta
Occup=    0.00000
   1        -0.00000000
   2        -0.00000000
   3        -0.03700770
   4         0.29122464
   5        -0.00000000
   6        -0.00000000
   7         0.00000000
   8        -0.11538549
   9         0.90800302
  10         0.00000000
Sym=     6a  
Ene=     0.0398
Spin= Alpha
Occup=    0.00000
   1        -0.00000000
   2         0.00000000
   3        -0.09422634
   4         0.74149527
   5         0.00000000
   6         0.00000000
   7        -0.00000000
   8        -0.07146716
   9         0.56239647
  10        -0.00000000
Sym=     6a  
Ene=     0.0393
Spin= Beta
Occup=    0.00000
   1         0.00000000
   2         0.00000000
   3         0.17476683
   4         0.02220869
   5         0.00000000
   6         0.00000000
   7        -0.00000000
   8         0.95209243
   9         0.12098821
  10        -0.00000000
Sym=     7a  
Ene=     0.0619
Spin= Alpha
Occup=    0.00000
   1         0.01667627
   2         0.18431888
   3        -0.00000000
   4        -0.00000000
   5         0.18232833
   6         0.00671107
   7        -1.01279397
   8         0.00000000
   9        -0.00000000
  10        -0.16097870
Sym=     7a  
Ene=     0.0704
Spin= Beta
Occup=    0.00000
   1         0.04377275
   2         0.44765238
   3        -0.00000000
   4         0.00000000
   5        -0.38532929
   6         0.00728988
   7        -0.13663881
   8         0.00000000
   9        -0.00000000
  10         0.91822946
Sym=     8a  
Ene=     0.0940
Spin= Alpha
Occup=    0.00000
   1         0.00000000
   2         0.00000000
   3        -0.16602332
   4        -0.02109760
   5         0.00000000
   6         0.00000000
   7        -0.00000000
   8         1.00180295
   9         0.12730523
  10         0.00000000
Sym=     8a  
Ene=     0.1470
Spin= Beta
Occup=    0.00000
   1        -0.00000000
   2        -0.00000000
   3        -0.12184731
   4         0.95885298
   5         0.00000000
   6        -0.00000000
   7         0.00000000
   8         0.05387508
   9        -0.42395914
  10        -0.00000000
Sym=     9a  
Ene=     0.1200
Spin= Alpha
Occup=    0.00000
   1         0.00000000
   2         0.00000000
   3         0.08566057
   4        -0.67408871
   5         0.00000000
   6         0.00000000
   7        -0.00000000
   8        -0.10539821
   9         0.82941006
  10        -0.00000000
Sym=     9a  
Ene=     0.2045
Spin= Beta
Occup=    0.00000
   1         0.00000000
   2         0.00000000
   3         0.98674586
   4         0.12539183
   5         0.00000000
   6        -0.00000000
   7        -0.00000000
   8        -0.31261932
   9        -0.03972645
  10         0.00000000
Sym=    10a  
Ene=     0.1406
Spin= Alpha
Occup=    0.00000
   1         0.05375446
   2         0.48994220
   3        -0.00000000
   4         0.00000000
   5         0.28094154
   6        -0.00724804
   7        -0.28867383
   8        -0.00000000
   9         0.00000000
  10         1.09275701
Sym=    10a  
Ene=     0.2326
Spin= Beta
Occup=    0.00000
   1         0.03438107
   2         0.31150147
   3        -0.00000000
   4        -0.00000000
   5         0.95384620
   6        -0.02193193
   7        -0.38432629
   8         0.00000000
   9         0.00000000
  10         0.58029984
