[Molden Format]
[N_Atoms]
                     2
[Atoms] (AU)
BE1         1      4           0.00000000      0.00000000      0.00000000
LI2         2      3           0.00000000      0.00000000      3.77945225
[Charge] (Mulliken)
 -0.194279891537455     
  0.194279891537435     
[GTO] (AU)
   1
   s  14
  2.262859900E+04  8.443999941E-05
  3.372318100E+03  4.601499968E-04
  7.603504000E+02  2.285389984E-03
  2.117404800E+02  9.648129932E-03
  6.722346800E+01  3.494469975E-02
  2.337217700E+01  1.061099893E-01
  8.721373000E+00  2.458240383E-01
  3.468091000E+00  3.862428773E-01
  1.452144000E+00  3.105526078E-01
  6.086150000E-01  6.415933955E-02
  2.576860000E-01 -2.265049984E-03
  1.041760000E-01 -5.217499963E-04
  4.242700000E-02 -8.757499938E-04
  1.484900000E-02  1.242199991E-04
   s  14
  2.262859900E+04 -1.586999994E-05
  3.372318100E+03 -8.656999968E-05
  7.603504000E+02 -4.302199984E-04
  2.117404800E+02 -1.825079993E-03
  6.722346800E+01 -6.682749976E-03
  2.337217700E+01 -2.095119992E-02
  8.721373000E+00 -5.200308981E-02
  3.468091000E+00 -9.849176964E-02
  1.452144000E+00 -1.355800695E-01
  6.086150000E-01 -6.429875976E-02
  2.576860000E-01  3.125414989E-01
  1.041760000E-01  6.270468577E-01
  4.242700000E-02  2.110231492E-01
  1.484900000E-02 -4.104669985E-03
   p   9
  3.371018400E+01  1.069960000E-03
  8.057649500E+00  6.828550001E-03
  2.836471400E+00  2.119065000E-02
  1.099965700E+00  5.843696001E-02
  4.433964000E-01  2.020920800E-01
  1.822264000E-01  4.582953101E-01
  7.572410000E-02  3.691239601E-01
  3.168540000E-02  6.611471001E-02
  1.108990000E-02  1.405160000E-03
 
   2
   s  14
  9.497934400E+03  9.668999974E-05
  1.416811200E+03  6.087099984E-04
  3.214599400E+02  3.101519992E-03
  9.112416300E+01  1.266904997E-02
  2.999989100E+01  4.248012989E-02
  1.101763100E+01  1.150183297E-01
  4.372801000E+00  2.398650094E-01
  1.831256000E+00  3.584300090E-01
  8.022610000E-01  3.048527792E-01
  3.626480000E-01  8.824261976E-02
  1.139950000E-01 -8.445899977E-04
  5.123700000E-02 -7.943959979E-03
  2.246800000E-02 -3.764419990E-03
  7.860000000E-03 -8.868999976E-05
   s  14
  9.497934400E+03 -1.244999993E-05
  1.416811200E+03 -7.838999954E-05
  3.214599400E+02 -4.007099976E-04
  9.112416300E+01 -1.645249990E-03
  2.999989100E+01 -5.634599967E-03
  1.101763100E+01 -1.590780991E-02
  4.372801000E+00 -3.612581979E-02
  1.831256000E+00 -6.459927962E-02
  8.022610000E-01 -1.008321794E-01
  3.626480000E-01 -9.757613942E-02
  1.139950000E-01  2.301215886E-01
  5.123700000E-02  6.102389764E-01
  2.246800000E-02  2.849406083E-01
  7.860000000E-03  4.026899976E-03
   p   9
  1.311950400E+01  1.524940000E-03
  3.077424200E+00  8.314830000E-03
  1.098800500E+00  1.933203000E-02
  4.357784000E-01  4.934293000E-02
  1.802432000E-01  1.623554000E-01
  7.613330000E-02  3.847505400E-01
  3.254650000E-02  4.336100400E-01
  1.401820000E-02  1.287005900E-01
  4.906400000E-03 -1.018520000E-03
 
[MO]
Sym=     1a  
Ene=    -4.6925
Spin= Alpha
Occup=    1.00000
   1         1.00010489
   2         0.00436334
   3        -0.00000000
   4        -0.00000000
   5         0.00033206
   6        -0.00012693
   7        -0.00054285
   8        -0.00000000
   9         0.00000000
  10         0.00059314
Sym=     1a  
Ene=    -4.6862
Spin= Beta
Occup=    1.00000
   1         1.00008662
   2         0.00339198
   3        -0.00000000
   4        -0.00000000
   5         0.00140149
   6        -0.00017399
   7        -0.00071182
   8         0.00000000
   9         0.00000000
  10         0.00031128
Sym=     2a  
Ene=    -2.4627
Spin= Alpha
Occup=    1.00000
   1        -0.00094007
   2         0.00262524
   3         0.00000000
   4         0.00000000
   5         0.00153480
   6         0.99941236
   7         0.01118091
   8         0.00000000
   9        -0.00000000
  10         0.00085879
Sym=     2a  
Ene=    -2.4544
Spin= Beta
Occup=    1.00000
   1        -0.00089751
   2         0.00457325
   3         0.00000000
   4         0.00000000
   5         0.00319999
   6         0.99892864
   7         0.01102886
   8         0.00000000
   9        -0.00000000
  10         0.00148949
Sym=     3a  
Ene=    -0.3397
Spin= Alpha
Occup=    1.00000
   1        -0.02822141
   2         0.82883993
   3        -0.00000000
   4         0.00000000
   5        -0.12272985
   6        -0.06499881
   7         0.21307986
   8        -0.00000000
   9        -0.00000000
  10        -0.07037339
Sym=     3a  
Ene=    -0.3217
Spin= Beta
Occup=    1.00000
   1        -0.02908043
   2         0.77054696
   3         0.00000000
   4         0.00000000
   5         0.33927024
   6        -0.13982873
   7         0.12734061
   8         0.00000000
   9         0.00000000
  10        -0.13826361
Sym=     4a  
Ene=    -0.1873
Spin= Alpha
Occup=    1.00000
   1        -0.03912139
   2        -0.33501388
   3        -0.00000000
   4        -0.00000000
   5         0.63193415
   6        -0.08399566
   7         0.64563602
   8        -0.00000000
   9        -0.00000000
  10         0.08503193
Sym=     4a  
Ene=     0.0439
Spin= Beta
Occup=    0.00000
   1         0.00000000
   2        -0.00000000
   3        -0.08671166
   4         0.37691077
   5         0.00000000
   6         0.00000000
   7         0.00000000
   8        -0.17093924
   9         0.74302396
  10         0.00000000
Sym=     5a  
Ene=     0.0253
Spin= Alpha
Occup=    0.00000
   1         0.00000000
   2        -0.00000000
   3        -0.07726180
   4         0.34851390
   5        -0.00000000
   6         0.00000000
   7         0.00000000
   8        -0.16996964
   9         0.76670207
  10         0.00000000
Sym=     5a  
Ene=     0.0439
Spin= Beta
Occup=    0.00000
   1         0.00000000
   2        -0.00000000
   3         0.37691077
   4         0.08671166
   5         0.00000000
   6         0.00000000
   7         0.00000000
   8         0.74302396
   9         0.17093924
  10         0.00000000
Sym=     6a  
Ene=     0.0253
Spin= Alpha
Occup=    0.00000
   1         0.00000000
   2        -0.00000000
   3         0.34851390
   4         0.07726180
   5        -0.00000000
   6         0.00000000
   7         0.00000000
   8         0.76670207
   9         0.16996964
  10         0.00000000
Sym=     6a  
Ene=     0.0477
Spin= Beta
Occup=    0.00000
   1         0.01245145
   2        -0.19323637
   3        -0.00000000
   4        -0.00000000
   5         0.03057124
   6         0.00366366
   7         0.78208852
   8        -0.00000000
   9        -0.00000000
  10         0.60553233
Sym=     7a  
Ene=     0.0383
Spin= Alpha
Occup=    0.00000
   1         0.06036468
   2         0.12471424
   3        -0.00000000
   4        -0.00000000
   5        -0.60830669
   6         0.08723470
   7         0.45114445
   8        -0.00000000
   9        -0.00000000
  10         0.79623460
Sym=     7a  
Ene=     0.1544
Spin= Beta
Occup=    0.00000
   1         0.02450307
   2         0.46288751
   3        -0.00000000
   4        -0.00000000
   5        -0.92249010
   6         0.11191529
   7         0.14435151
   8         0.00000000
   9         0.00000000
  10         0.29926702
Sym=     8a  
Ene=     0.1674
Spin= Alpha
Occup=    0.00000
   1         0.00000000
   2         0.00000000
   3         0.11085897
   4        -1.05984227
   5        -0.00000000
   6         0.00000000
   7        -0.00000000
   8        -0.08363190
   9         0.79954401
  10         0.00000000
Sym=     8a  
Ene=     0.1950
Spin= Beta
Occup=    0.00000
   1        -0.00000000
   2        -0.00000000
   3         0.10160043
   4        -1.05027777
   5         0.00000000
   6        -0.00000000
   7         0.00000000
   8        -0.07949863
   9         0.82180400
  10        -0.00000000
Sym=     9a  
Ene=     0.1674
Spin= Alpha
Occup=    0.00000
   1         0.00000000
   2         0.00000000
   3        -1.05984227
   4        -0.11085897
   5         0.00000000
   6        -0.00000000
   7        -0.00000000
   8         0.79954401
   9         0.08363190
  10         0.00000000
Sym=     9a  
Ene=     0.1950
Spin= Beta
Occup=    0.00000
   1        -0.00000000
   2        -0.00000000
   3        -1.05027777
   4        -0.10160043
   5         0.00000000
   6         0.00000000
   7         0.00000000
   8         0.82180400
   9         0.07949863
  10        -0.00000000
Sym=    10a  
Ene=     0.2550
Spin= Alpha
Occup=    0.00000
   1         0.28986454
   2         1.88071516
   3         0.00000000
   4         0.00000000
   5         0.86749633
   6        -0.31734436
   7        -1.57738643
   8        -0.00000000
   9        -0.00000000
  10         1.43541815
Sym=    10a  
Ene=     0.2468
Spin= Beta
Occup=    0.00000
   1         0.29736812
   2         1.87256477
   3        -0.00000000
   4        -0.00000000
   5         0.75495276
   6        -0.29744503
   7        -1.58278738
   8         0.00000000
   9         0.00000000
  10         1.49373674
