[Molden Format]
[N_Atoms]
                     2
[Atoms] (AU)
B1          1      5           0.00000000      0.00000000      0.00000000
C2          2      6           0.00000000      0.00000000      3.02356180
[Charge] (Mulliken)
  0.123423835187804     
 -0.123423835187839     
[GTO] (AU)
   1
   s  14
  3.336021700E+04  1.039699991E-04
  4.972095200E+03  5.254399956E-04
  1.125641700E+03  2.509059979E-03
  3.164913600E+02  1.031887991E-02
  1.020072600E+02  3.636632969E-02
  3.629587300E+01  1.064607991E-01
  1.397141000E+01  2.403999880E-01
  5.741156000E+00  3.748581168E-01
  2.494268000E+00  3.100066974E-01
  1.114202000E+00  7.922455933E-02
  4.215490000E-01 -4.947589958E-03
  1.696330000E-01 -7.737119935E-03
  6.853500000E-02 -1.501079987E-03
  2.398700000E-02 -1.333299989E-04
   s  14
  3.336021700E+04 -2.030000008E-05
  4.972095200E+03 -1.025700004E-04
  1.125641700E+03 -4.911300020E-04
  3.164913600E+02 -2.026570008E-03
  1.020072600E+02 -7.261010030E-03
  3.629587300E+01 -2.197722009E-02
  1.397141000E+01 -5.408428022E-02
  5.741156000E+00 -1.022402604E-01
  2.494268000E+00 -1.423595206E-01
  1.114202000E+00 -4.658690019E-02
  4.215490000E-01  3.799402916E-01
  1.696330000E-01  5.890463624E-01
  6.853500000E-02  1.749075107E-01
  2.398700000E-02 -1.142030005E-03
   p   9
  5.500000000E+01  1.229800005E-03
  1.336610100E+01  8.827380035E-03
  4.135394000E+00  3.843340015E-02
  1.481256000E+00  1.150031805E-01
  6.021360000E-01  2.733674011E-01
  2.556360000E-01  4.061972116E-01
  1.111510000E-01  3.014967912E-01
  4.764800000E-02  7.684809030E-02
  1.667700000E-02 -8.170000032E-06
 
   2
   s  14
  5.055750100E+04  1.128874000E-04
  7.524785600E+03  5.295373000E-04
  1.694327600E+03  2.450038300E-03
  4.728227900E+02  1.005398470E-02
  1.517107500E+02  3.545398060E-02
  5.391874600E+01  1.044071086E-01
  2.065931100E+01  2.412894918E-01
  8.383976000E+00  3.834225483E-01
  3.577015000E+00  3.078514393E-01
  1.547118000E+00  6.872442990E-02
  6.130130000E-01  2.224445000E-04
  2.460680000E-01  1.976748900E-03
  9.908700000E-02  2.057859400E-03
  3.468000000E-02  4.182020000E-04
   s  14
  5.055750100E+04 -2.507420000E-05
  7.524785600E+03 -1.175945000E-04
  1.694327600E+03 -5.456275000E-04
  4.728227900E+02 -2.245077100E-03
  1.517107500E+02 -8.043471800E-03
  5.391874600E+01 -2.442588710E-02
  2.065931100E+01 -6.136791180E-02
  8.383976000E+00 -1.177767835E-01
  3.577015000E+00 -1.550487783E-01
  1.547118000E+00 -1.933316860E-02
  6.130130000E-01  3.996930678E-01
  2.460680000E-01  5.589420949E-01
  9.908700000E-02  1.711195023E-01
  3.468000000E-02  7.456244600E-03
   p   9
  8.333315500E+01  1.344656000E-03
  1.955761100E+01  1.023555500E-02
  6.080365000E+00  4.520067100E-02
  2.179317000E+00  1.410756198E-01
  8.651500000E-01  3.047388085E-01
  3.619440000E-01  3.995281011E-01
  1.547400000E-01  2.719163432E-01
  6.542900000E-02  5.857669330E-02
  2.290000000E-02 -1.263813000E-04
 
[MO]
Sym=     1a  
Ene=   -11.2960
Spin= Alpha
Occup=    1.00000
   1        -0.00032768
   2        -0.00192171
   3        -0.00000000
   4         0.00000000
   5        -0.00133199
   6         1.00017969
   7         0.00241874
   8        -0.00000000
   9        -0.00000000
  10        -0.00118589
Sym=     1a  
Ene=   -11.2250
Spin= Beta
Occup=    1.00000
   1        -0.00011733
   2        -0.00071342
   3        -0.00000000
   4         0.00000000
   5        -0.00018599
   6         1.00003482
   7        -0.00382502
   8         0.00000000
   9        -0.00000000
  10        -0.00089400
Sym=     2a  
Ene=    -7.6926
Spin= Alpha
Occup=    1.00000
   1         0.99987692
   2         0.01392624
   3        -0.00000000
   4        -0.00000000
   5         0.00101342
   6        -0.00026457
   7        -0.00012156
   8         0.00000000
   9        -0.00000000
  10        -0.00040332
Sym=     2a  
Ene=    -7.7302
Spin= Beta
Occup=    1.00000
   1         0.99986537
   2         0.01642679
   3        -0.00000000
   4        -0.00000000
   5         0.00029712
   6        -0.00027391
   7        -0.00022181
   8         0.00000000
   9        -0.00000000
  10        -0.00011247
Sym=     3a  
Ene=    -0.9182
Spin= Alpha
Occup=    1.00000
   1        -0.03620316
   2         0.18174137
   3         0.00000000
   4        -0.00000000
   5         0.13871303
   6        -0.01898246
   7         0.85012853
   8        -0.00000000
   9        -0.00000000
  10        -0.00437364
Sym=     3a  
Ene=    -0.7325
Spin= Beta
Occup=    1.00000
   1        -0.04528661
   2         0.59940370
   3         0.00000000
   4        -0.00000000
   5         0.09656883
   6        -0.02928828
   7         0.46654569
   8         0.00000000
   9         0.00000000
  10        -0.22349356
Sym=     4a  
Ene=    -0.5339
Spin= Alpha
Occup=    1.00000
   1         0.04480575
   2        -0.39978708
   3        -0.00000000
   4         0.00000000
   5        -0.22510880
   6         0.03325796
   7         0.40660982
   8        -0.00000000
   9         0.00000000
  10         0.72512727
Sym=     4a  
Ene=    -0.4847
Spin= Beta
Occup=    1.00000
   1        -0.01475209
   2        -0.67622118
   3         0.00000000
   4        -0.00000000
   5         0.60798294
   6        -0.01670537
   7         0.40107518
   8         0.00000000
   9        -0.00000000
  10        -0.12938952
Sym=     5a  
Ene=    -0.4429
Spin= Alpha
Occup=    1.00000
   1        -0.00000000
   2         0.00000000
   3         0.08085715
   4         0.18552172
   5         0.00000000
   6        -0.00000000
   7        -0.00000000
   8         0.36986025
   9         0.84862140
  10        -0.00000000
Sym=     5a  
Ene=    -0.3513
Spin= Beta
Occup=    1.00000
   1         0.00000000
   2         0.00000000
   3         0.85274569
   4        -0.37165777
   5        -0.00000000
   6         0.00000000
   7        -0.00000000
   8         0.17652989
   9        -0.07693818
  10         0.00000000
Sym=     6a  
Ene=    -0.4334
Spin= Alpha
Occup=    1.00000
   1         0.00000000
   2        -0.00000000
   3         0.15130120
   4        -0.06594260
   5        -0.00000000
   6         0.00000000
   7         0.00000000
   8         0.86385940
   9        -0.37650153
  10         0.00000000
Sym=     6a  
Ene=     0.0278
Spin= Beta
Occup=    0.00000
   1         0.00000000
   2         0.00000000
   3         0.34570450
   4         0.79319754
   5         0.00000000
   6        -0.00000000
   7        -0.00000000
   8         0.12714829
   9         0.29173386
  10        -0.00000000
Sym=     7a  
Ene=     0.0744
Spin= Alpha
Occup=    0.00000
   1         0.02113302
   2         0.85815327
   3        -0.00000000
   4        -0.00000000
   5        -0.52170117
   6         0.00465823
   7        -0.11594842
   8         0.00000000
   9         0.00000000
  10         0.37153620
Sym=     7a  
Ene=     0.1235
Spin= Beta
Occup=    0.00000
   1        -0.01487303
   2         0.15996715
   3        -0.00000000
   4        -0.00000000
   5         0.48549993
   6        -0.04622411
   7        -0.80338787
   8         0.00000000
   9        -0.00000000
  10        -0.57727036
Sym=     8a  
Ene=     0.1736
Spin= Alpha
Occup=    0.00000
   1        -0.00000000
   2        -0.00000000
   3        -0.40730084
   4        -0.93452651
   5         0.00000000
   6        -0.00000000
   7        -0.00000000
   8         0.18877301
   9         0.43312796
  10        -0.00000000
Sym=     8a  
Ene=     0.2789
Spin= Beta
Occup=    0.00000
   1         0.00000000
   2         0.00000000
   3        -0.42495046
   4         0.18520896
   5         0.00000000
   6        -0.00000000
   7         0.00000000
   8         0.93626669
   9        -0.40805927
  10         0.00000000
Sym=     9a  
Ene=     0.2184
Spin= Alpha
Occup=    0.00000
   1         0.00000000
   2         0.00000000
   3        -0.94067319
   4         0.40997979
   5         0.00000000
   6        -0.00000000
   7        -0.00000000
   8         0.40187690
   9        -0.17515266
  10         0.00000000
Sym=     9a  
Ene=     0.3141
Spin= Beta
Occup=    0.00000
   1        -0.00000000
   2        -0.00000000
   3        -0.23004402
   4        -0.52782173
   5        -0.00000000
   6         0.00000000
   7        -0.00000000
   8         0.39530389
   9         0.90700026
  10        -0.00000000
Sym=    10a  
Ene=     0.5694
Spin= Alpha
Occup=    0.00000
   1         0.09366435
   2         0.85879906
   3         0.00000000
   4         0.00000000
   5         1.15161690
   6        -0.12204963
   7        -0.96139385
   8        -0.00000000
   9        -0.00000000
  10         0.91718721
Sym=    10a  
Ene=     0.6112
Spin= Beta
Occup=    0.00000
   1         0.10035605
   2         0.90807511
   3         0.00000000
   4        -0.00000000
   5         1.02646606
   6        -0.11576037
   7        -0.89543575
   8         0.00000000
   9         0.00000000
  10         1.05127013
