[Molden Format]
[N_Atoms]
                     2
[Atoms] (AU)
B1          1      5           0.00000000      0.00000000      0.00000000
C2          2      6           0.00000000      0.00000000      3.02356180
[Charge] (Mulliken)
  0.103748689198993     
 -0.103748689199025     
[GTO] (AU)
   1
   s  14
  3.336021700E+04  1.039699991E-04
  4.972095200E+03  5.254399956E-04
  1.125641700E+03  2.509059979E-03
  3.164913600E+02  1.031887991E-02
  1.020072600E+02  3.636632969E-02
  3.629587300E+01  1.064607991E-01
  1.397141000E+01  2.403999880E-01
  5.741156000E+00  3.748581168E-01
  2.494268000E+00  3.100066974E-01
  1.114202000E+00  7.922455933E-02
  4.215490000E-01 -4.947589958E-03
  1.696330000E-01 -7.737119935E-03
  6.853500000E-02 -1.501079987E-03
  2.398700000E-02 -1.333299989E-04
   s  14
  3.336021700E+04 -2.030000008E-05
  4.972095200E+03 -1.025700004E-04
  1.125641700E+03 -4.911300020E-04
  3.164913600E+02 -2.026570008E-03
  1.020072600E+02 -7.261010030E-03
  3.629587300E+01 -2.197722009E-02
  1.397141000E+01 -5.408428022E-02
  5.741156000E+00 -1.022402604E-01
  2.494268000E+00 -1.423595206E-01
  1.114202000E+00 -4.658690019E-02
  4.215490000E-01  3.799402916E-01
  1.696330000E-01  5.890463624E-01
  6.853500000E-02  1.749075107E-01
  2.398700000E-02 -1.142030005E-03
   p   9
  5.500000000E+01  1.229800005E-03
  1.336610100E+01  8.827380035E-03
  4.135394000E+00  3.843340015E-02
  1.481256000E+00  1.150031805E-01
  6.021360000E-01  2.733674011E-01
  2.556360000E-01  4.061972116E-01
  1.111510000E-01  3.014967912E-01
  4.764800000E-02  7.684809030E-02
  1.667700000E-02 -8.170000032E-06
 
   2
   s  14
  5.055750100E+04  1.128874000E-04
  7.524785600E+03  5.295373000E-04
  1.694327600E+03  2.450038300E-03
  4.728227900E+02  1.005398470E-02
  1.517107500E+02  3.545398060E-02
  5.391874600E+01  1.044071086E-01
  2.065931100E+01  2.412894918E-01
  8.383976000E+00  3.834225483E-01
  3.577015000E+00  3.078514393E-01
  1.547118000E+00  6.872442990E-02
  6.130130000E-01  2.224445000E-04
  2.460680000E-01  1.976748900E-03
  9.908700000E-02  2.057859400E-03
  3.468000000E-02  4.182020000E-04
   s  14
  5.055750100E+04 -2.507420000E-05
  7.524785600E+03 -1.175945000E-04
  1.694327600E+03 -5.456275000E-04
  4.728227900E+02 -2.245077100E-03
  1.517107500E+02 -8.043471800E-03
  5.391874600E+01 -2.442588710E-02
  2.065931100E+01 -6.136791180E-02
  8.383976000E+00 -1.177767835E-01
  3.577015000E+00 -1.550487783E-01
  1.547118000E+00 -1.933316860E-02
  6.130130000E-01  3.996930678E-01
  2.460680000E-01  5.589420949E-01
  9.908700000E-02  1.711195023E-01
  3.468000000E-02  7.456244600E-03
   p   9
  8.333315500E+01  1.344656000E-03
  1.955761100E+01  1.023555500E-02
  6.080365000E+00  4.520067100E-02
  2.179317000E+00  1.410756198E-01
  8.651500000E-01  3.047388085E-01
  3.619440000E-01  3.995281011E-01
  1.547400000E-01  2.719163432E-01
  6.542900000E-02  5.857669330E-02
  2.290000000E-02 -1.263813000E-04
 
[MO]
Sym=     1a  
Ene=   -11.2930
Spin= Alpha
Occup=    2.00000
   1        -0.00031228
   2        -0.00180730
   3         0.00000000
   4        -0.00000001
   5        -0.00116947
   6         1.00015892
   7        -0.00111729
   8        -0.00000000
   9         0.00000000
  10        -0.00281806
Sym=     2a  
Ene=    -7.7166
Spin= Alpha
Occup=    2.00000
   1         0.99985995
   2         0.01469896
   3         0.00000001
   4        -0.00000004
   5         0.00114738
   6        -0.00030924
   7        -0.00028538
   8        -0.00000001
   9         0.00000002
  10        -0.00056294
Sym=     3a  
Ene=    -0.8356
Spin= Alpha
Occup=    2.00000
   1        -0.04546577
   2         0.33525506
   3        -0.00000024
   4         0.00000069
   5         0.18919341
   6        -0.02655952
   7         0.68368586
   8         0.00000024
   9        -0.00000071
  10        -0.17709205
Sym=     4a  
Ene=    -0.4500
Spin= Alpha
Occup=    2.00000
   1         0.02340984
   2        -0.55697252
   3         0.00000142
   4        -0.00000407
   5        -0.09062747
   6         0.03199638
   7         0.68127180
   8         0.00000024
   9        -0.00000061
  10         0.54903144
Sym=     5a  
Ene=    -0.3357
Spin= Alpha
Occup=    2.00000
   1        -0.00000000
   2        -0.00000013
   3        -0.53149366
   4        -0.18789005
   5         0.00000009
   6        -0.00000000
   7        -0.00000000
   8        -0.64727059
   9        -0.22881873
  10        -0.00000008
Sym=     6a  
Ene=     0.0310
Spin= Alpha
Occup=    0.00000
   1        -0.00844547
   2        -0.07901494
   3         0.07359870
   4        -0.20819353
   5        -0.09207282
   6         0.01016367
   7         0.08071269
   8         0.30437102
   9        -0.86098781
  10        -0.08608087
Sym=     7a  
Ene=    -0.0032
Spin= Alpha
Occup=    1.00000
   1         0.01820652
   2         0.63377400
   3         0.00000149
   4        -0.00000465
   5        -0.69297096
   6         0.02749114
   7         0.12259148
   8         0.00000046
   9        -0.00000149
  10         0.41521042
Sym=     8a  
Ene=     0.1556
Spin= Alpha
Occup=    0.00000
   1        -0.00000001
   2        -0.00000010
   3        -0.82323127
   4        -0.29101900
   5        -0.00000005
   6         0.00000001
   7         0.00000006
   8         0.73568644
   9         0.26007346
  10        -0.00000012
Sym=     9a  
Ene=     0.1691
Spin= Alpha
Occup=    0.00000
   1         0.00223948
   2         0.02095433
   3         0.33849078
   4        -0.95751504
   5         0.02442177
   6        -0.00269572
   7        -0.02140818
   8        -0.16264223
   9         0.46008271
  10         0.02282411
Sym=    10a  
Ene=     0.5400
Spin= Alpha
Occup=    0.00000
   1        -0.09771805
   2        -0.91423987
   3         0.00139752
   4        -0.00395310
   5        -1.06537267
   6         0.11760209
   7         0.93392593
   8        -0.03003333
   9         0.08495668
  10        -0.99597483
