   This run of MOLCAS is using the pymolcas driver

                             OPE
                             OPE          NMOL  CASOP  ENMOLC A   SO
                 OPE        NMOLC        AS  OP EN  MO LC     AS  OP
                OPENM       OL CA        SO  PE NM  OL CA     SOP EN
                OP EN      MO   LC       AS  OP ENMOL  CASO   PENMOL
                OP  EN     MO   LC       AS  OP EN     MO     LC ASO
               OP   E  NMOL  C  AS       OP  EN MO     LC     AS  OP
               OP  E   NMO   LC AS        OPEN  MO     LCASOP EN   M
               O  PEN   MO  LCA  SO
            OPE   NMO   L   CAS    OP
        OPENMOL  CASOP     ENMOL   CASOPE
     OPENMOLCA   SOPENMOLCASOPEN   MOLCASOPE
    OPENMOLCAS   OP           EN   MOL    CAS
    OPENMOLCAS       OP  ENM        O     LCA
    OPENMOLCAS    OPEN  MOLCASO     P  E  NMO
    OPENMOLCAS     OP               E  N  MOL
    OPENMOLCA   SO           PENM   O  L  CAS    OPEN    MO    LCAS
    OPENMOLCA   SOP           ENM   O  L  CAS   OP  EN  MOLC  AS   O
    OPENMOLCA   SOPE           NM      O  LCA   S      OP  EN MO
    OPENMOLC                AS         O  PEN   M      OL  CA  SOPE
    OPENMO        LCASOPE  NMOL        C  ASO   P      ENMOLC     AS
    OPE     NMO      LCA  SO     P     E   NM   OL  CA SO  PE N   MO
          OPENMOLCA            SOPE   NMO        LCAS  O    P  ENMO
     OPENMOLCASOPENMOLCASOPENMOLCASOPENMOLCA
        OPENMOLCASOPENMOLCASOPENMOLCASOPE
            OPENMOLCASOPENMOLCASOPENM
               OPENMOLCASOPENMOLCA        version: ea724fe96-dirty
                   OPENMOLCASO
                       OPE                tag:

 OpenMolcas is free software; you can redistribute it and/or modify it
 under the terms of the GNU Lesser General Public License version 2.1.
 OpenMolcas is distributed in the hope that it will be useful, but it
 is provided "as is" and without any express or implied warranties.
 For more details see the full text of the license in the file
 LICENSE or in <http://www.gnu.org/licenses/>.

                 Copyright (C) The OpenMolcas Authors
           For the author list and the recommended citation,
                   consult the file CONTRIBUTORS.md

           *************************************************
           * pymolcas version py2.28                       *
           *   build c4a6d18ded8cb6cad61d2372a9abd97c      *
           *   (after the EMIL interpreter by V. Veryazov) *
           *************************************************

configuration info
------------------
C Compiler ID: Intel
C flags: -std=gnu99
Fortran Compiler ID: Intel
Fortran flags: -fpp -i8 -r8 -heap-arrays
Definitions: _MOLCAS_;_I8_;_LINUX_
Parallel: OFF (GA=OFF)


   -------------------------------------------------------------------------------
  |
  |              Project: 2.75
  |       Submitted from: /home/grierjones/DDCASPT2/iron_oxo_DDCASPT2/cluster/2.75
  |         Scratch area: /tmp/2.75
  |      Save outputs to: /home/grierjones/DDCASPT2/iron_oxo_DDCASPT2/cluster/2.75
  |               Molcas: /home/grierjones/Test/build
  |
  | Scratch area is empty
  |
  |       MOLCAS_DRIVER = /usr/local/pymolcas
  | MOLCAS_KEEP_WORKDIR = NO
  |  MOLCAS_NEW_WORKDIR = YES
  |       MOLCAS_NPROCS = 1
  |        MOLCAS_PRINT = NORMAL
  |       MOLCAS_SOURCE = /home/grierjones/Test/build
  |    MOLCAS_STRUCTURE = 0
  |
   -------------------------------------------------------------------------------

++ ---------   Input file   ---------

&GATEWAY
coord=2.75.xyz
Basis = ANO-RCC-VDZP
Group = nosymm
Expert
End of Input

&SEWARD
End of Input

&SCF
UHF
charge
2
spin
5
FileOrb
/home/grierjones/DDCASPT2/iron_oxo_DDCASPT2/cluster/2.74/2.74.UhfOrb

>>> COPY $WorkDir/2.75.scf.h5 $CurrDir/

&RASSCF
Title= RASSCF
FileOrb
/home/grierjones/DDCASPT2/iron_oxo_DDCASPT2/cluster/2.74/2.74.RasOrb
NACTEL
10 0 0
RAS2
14
Symmetry
1
Spin
5
charge
2
orblisting
all
ITERation
300 200

>>> COPY $WorkDir/2.75.rasscf.h5 $CurrDir/

>>> COPY $WorkDir/GMJ_Fock_MO.csv $CurrDir/2.75.GMJ_Fock_MO.csv

>>> COPY $WorkDir/GMJ_PT2_Fock_MO.csv $CurrDir/2.75.GMJ_PT2_Fock_MO.csv

&MOTRA
Frozen=0
LUMORB

>>> COPY $WorkDir/GMJ_one_int_indx.csv $CurrDir/2.75.GMJ_one_int_indx.csv

>>> COPY $WorkDir/GMJ_one_int.csv $CurrDir/2.75.GMJ_one_int.csv

>>> COPY $WorkDir/GMJ_two_int_indx.csv $CurrDir/2.75.GMJ_two_int_indx.csv

>>> COPY $WorkDir/GMJ_two_int.csv $CurrDir/2.75.GMJ_two_int.csv

&CASPT2
Frozen
0
MAXITER
50

>>> FOREACH i IN (B,E,F,G,H)

  >>> FOREACH j IN (P,M)

    >>> IF (-FILE GMJ_e2_${i}_${j}.csv)

      >>> COPY $WorkDir/GMJ_RHS_${i}_${j}.csv $CurrDir/GMJ_RHS_${i}_${j}.csv

      >>> COPY $WorkDir/GMJ_IVECW_${i}_${j}.csv $CurrDir/GMJ_IVECW_${i}_${j}.csv

      >>> COPY $WorkDir/GMJ_IVECX_${i}_${j}.csv $CurrDir/GMJ_IVECX_${i}_${j}.csv

      >>> COPY $WorkDir/GMJ_IVECC2_${i}_${j}.csv $CurrDir/GMJ_IVECC2_${i}_${j}.csv

      >>> COPY $WorkDir/GMJ_e2_${i}_${j}.csv $CurrDir/GMJ_e2_${i}_${j}.csv

    >>> END IF

  >>> END FOREACH

>>> END FOREACH

>>> FOREACH i IN (A,C,D)

  >>> IF (-FILE GMJ_e2_$i.csv)

    >>> COPY $WorkDir/GMJ_RHS_$i.csv $CurrDir/GMJ_RHS_$i.csv

    >>> COPY $WorkDir/GMJ_IVECW_$i.csv $CurrDir/GMJ_IVECW_$i.csv

    >>> COPY $WorkDir/GMJ_IVECX_$i.csv $CurrDir/GMJ_IVECX_$i.csv

    >>> COPY $WorkDir/GMJ_IVECC2_$i.csv $CurrDir/GMJ_IVECC2_$i.csv

    >>> COPY $WorkDir/GMJ_e2_$i.csv $CurrDir/GMJ_e2_$i.csv

  >>> END IF

>>> END FOREACH

-- ----------------------------------

--- Start Module: gateway at Tue Dec 24 06:22:11 2024 ---
 
()()()()()()()()()()()()()()()()()()()()()()()()()()()()()()()()()()()()()()()()()()()()()()()()()()

                                              &GATEWAY

                                   only a single process is used
                       available to each process: 2.0 GB of memory, 1 thread?
()()()()()()()()()()()()()()()()()()()()()()()()()()()()()()()()()()()()()()()()()()()()()()()()()()
 
 ###############################################################################
 ###############################################################################
 ###                                                                         ###
 ###                                                                         ###
 ###                                                                         ###
 ###    WARNING: EXPERT option is ON!                                        ###
 ###                                                                         ###
 ###                                                                         ###
 ###############################################################################
 ###############################################################################
 
++    Symmetry information:
      ---------------------
 
                    Character Table for C1 
 
                             E  
                    a        1  x, y, xy, Rz, z, xz, Ry, yz, Rx, I
--
 
 
++    Basis set information:
      ----------------------
 
 
      Basis set label: O.ANO-RCC...3S2P1D.
 
      Electronic valence basis set:
      ------------------
      Associated Effective Charge   8.000000 au
      Associated Actual Charge      8.000000 au
      Nuclear Model: Point charge
 
      Shell  nPrim  nBasis  Cartesian Spherical Contaminant
         s      14       3        X                  
         p       9       2        X                  
         d       4       1                 X         
 
 
      Basis set label: FE.ANO-RCC...5S4P2D1F.
 
      Electronic valence basis set:
      ------------------
      Associated Effective Charge  26.000000 au
      Associated Actual Charge     26.000000 au
      Nuclear Model: Point charge
 
      Shell  nPrim  nBasis  Cartesian Spherical Contaminant
         s      21       5        X                  
         p      15       4        X                  
         d      10       2                 X         
         f       6       1                 X         
--
 
 
++    Molecular structure info:
      -------------------------
 
                    ************************************************ 
                    **** Cartesian Coordinates / Bohr, Angstrom **** 
                    ************************************************ 
 
     Center  Label                x              y              z                     x              y              z
        1      O1               0.000000       0.000000       4.109304              0.000000       0.000000       2.174550
        2      FE2              0.000000       0.000000      -1.085742              0.000000       0.000000      -0.574550
--
 
 
            Nuclear Potential Energy             40.03814333 au
 
 ###############################################################################
 ###############################################################################
 ###                                                                         ###
 ###                                                                         ###
 ###    There were warnings during the execution                             ###
 ###    Please, check the output with care!                                  ###
 ###                                                                         ###
 ###                                                                         ###
 ###############################################################################
 ###############################################################################
--- Stop Module: gateway at Tue Dec 24 06:22:11 2024 /rc=_RC_ALL_IS_WELL_ ---
*** files: xmldump
    saved to directory /home/grierjones/DDCASPT2/iron_oxo_DDCASPT2/cluster/2.75

--- Start Module: seward at Tue Dec 24 06:22:11 2024 ---
 
()()()()()()()()()()()()()()()()()()()()()()()()()()()()()()()()()()()()()()()()()()()()()()()()()()

                                              &SEWARD

                                   only a single process is used
                       available to each process: 2.0 GB of memory, 1 thread?
()()()()()()()()()()()()()()()()()()()()()()()()()()()()()()()()()()()()()()()()()()()()()()()()()()
 
 ###############################################################################
 ###############################################################################
 ###                                                                         ###
 ###                                                                         ###
 ###                                                                         ###
 ###    WARNING: EXPERT option is ON!                                        ###
 ###                                                                         ###
 ###                                                                         ###
 ###############################################################################
 ###############################################################################
               SEWARD will generate:
                  Multipole Moment integrals up to order  2
                  Kinetic Energy integrals
                  Nuclear Attraction integrals (point charge)
                  One-Electron Hamiltonian integrals
                  Velocity integrals
                  Relativistic Douglas-Kroll-Hess integrals:
                    - Parametrization         : EXP
                    - DKH order of Hamiltonian: 2
                    - DKH order of Properties : 0
                         - multipole moment operators
                         - electric potential operators
                         - contact operators
                  Atomic mean-field integrals
                  Two-Electron Repulsion integrals
 
                   Integrals are discarded if absolute value <: 0.10E-13
                   Integral cutoff threshold is set to       <: 0.10E-15
 
            Nuclear Potential Energy             40.03814333 au
 
 
      Basis set specifications :
      Symmetry species         a  
      Basis functions           48
 
 
  Input file to MOLDEN was generated!
 
 ###############################################################################
 ###############################################################################
 ###                                                                         ###
 ###                                                                         ###
 ###    There were warnings during the execution                             ###
 ###    Please, check the output with care!                                  ###
 ###                                                                         ###
 ###                                                                         ###
 ###############################################################################
 ###############################################################################
--- Stop Module: seward at Tue Dec 24 06:22:12 2024 /rc=_RC_ALL_IS_WELL_ ---
*** files: 2.75.GssOrb 2.75.guessorb.h5 2.75.guessorb.molden xmldump
    saved to directory /home/grierjones/DDCASPT2/iron_oxo_DDCASPT2/cluster/2.75
--- Module seward spent 1 second ---

*** symbolic link created: INPORB -> 2.75.GssOrb
--- Start Module: scf at Tue Dec 24 06:22:12 2024 ---
 
()()()()()()()()()()()()()()()()()()()()()()()()()()()()()()()()()()()()()()()()()()()()()()()()()()

                                                &SCF

                                   only a single process is used
                       available to each process: 2.0 GB of memory, 1 thread?
()()()()()()()()()()()()()()()()()()()()()()()()()()()()()()()()()()()()()()()()()()()()()()()()()()
 
 *** Possible bug in opening file
 *** isFreeUnit resets the unit number
++    Input section:
      --------------
 
      Header of the integral files:
      
       Integrals generated by seward 4.2.0  , Tue Dec 24 06:22:11 2024
 
 
      Cartesian coordinates in Angstrom:
      -----------------------------------------------------
      No.  Label        X            Y            Z        
      -----------------------------------------------------
       1   O1         0.00000000   0.00000000   2.17455000
       2   FE2        0.00000000   0.00000000  -0.57455000
      -----------------------------------------------------
      Nuclear repulsion energy =   40.03814333
--
 
++    Orbital specifications:
      -----------------------
 
      Symmetry species               1
                                     a
      Frozen orbitals                0
      Occupied orbitals alpha       18
      Occupied orbitals beta        14
      Secondary orbitals alpha      30
      Secondary orbitals beta       34
      Deleted orbitals               0
      Total number of orbitals      48
      Number of basis functions     48
--
 
      Molecular charge                           2.000
 
++    Optimization specifications:
      ----------------------------
 
      SCF Algorithm: Conventional USCF
      D(i)-D(i-1) density differences are used
      Number of density matrices in core                5
      Maximum number of NDDO SCF iterations           400
      Maximum number of HF SCF iterations             400
      Threshold for SCF energy change            0.10E-08
      Threshold for density matrix               0.10E-03
      Threshold for Fock matrix                  0.15E-03
      Threshold for linear dependence            0.10E-08
      Threshold at which DIIS is turned on       0.15E+00
      Threshold at which QNR/C2DIIS is turned on 0.75E-01
      Threshold for Norm(delta) (QNR/C2DIIS)     0.20E-04
      DIIS extrapolation of the SCF procedure
      All orbitals punched on: UHFORB
--
 
      Input vectors read from INPORB
      Orbital file label: * UHF orbitals
 
 
++ Convergence information
                               UHF SCF        iterations: Energy and convergence statistics
 
Iter     Tot. SCF        One-elec.       Two-elec.     Energy      Max Dij or  Max Fij      DNorm      TNorm      AccCon     Time
         Energy          Energy          Energy        Change      Delta Norm                                                in Sec.
 
 The total and one-electron energies are shifted by a value of      1000. a.u.
 
   1  -345.184748997  -923.694453533   538.471561209   0.00E+00    0.38E-02*   0.44E-03*    0.81E+01   0.18E+03   None         0.
   2  -345.184752258  -923.721685800   538.498790215  -0.33E-05*   0.57E-03*   0.46E-03*    0.75E-02   0.18E+03   EDIIS        0.
   3  -345.184753263  -923.695780638   538.472884048  -0.10E-05*   0.24E-02*   0.31E-03*    0.25E-02   0.18E+03   c2DIIS       0.
   4  -345.184753916  -923.735593357   538.512696114  -0.65E-06*   0.17E-02*   0.47E-03*    0.43E-02   0.18E+03   QNRc2DIIS    0.
   5  -345.184754157  -923.699106414   538.476208931  -0.24E-06*   0.21E-02*   0.44E-03*    0.24E-02   0.18E+03   QNRc2DIIS    0.
   6  -345.184755062  -923.720777627   538.497879239  -0.91E-06*   0.81E-02*   0.14E-03     0.26E-02   0.18E+03   QNRc2DIIS    0.
   7  -345.184756056  -923.742583725   538.519684343  -0.99E-06*   0.56E-03*   0.72E-04     0.10E-01   0.18E+03   QNRc2DIIS    0.
   8  -345.184756091  -923.743373801   538.520474383  -0.36E-07*   0.99E-03*   0.44E-04     0.70E-03   0.18E+03   QNRc2DIIS    0.
   9  -345.184756130  -923.744186662   538.521287205  -0.38E-07*   0.69E-03*   0.34E-04     0.13E-02   0.18E+03   QNRc2DIIS    0.
  10  -345.184756113  -923.743907813   538.521008373   0.16E-07*   0.22E-03*   0.23E-04     0.92E-03   0.18E+03   QNRc2DIIS    0.
  11  -345.184756117  -923.743829109   538.520929666  -0.33E-08*   0.17E-04    0.26E-05     0.33E-03   0.18E+03   QNRc2DIIS    0.
  12  -345.184756117  -923.743834163   538.520934719  -0.81E-10    0.10E-04    0.13E-05     0.25E-04   0.18E+03   QNRc2DIIS    0.
 
       Convergence after 12 Macro Iterations
--
 
 *****************************************************************************************************************************
 *                                                                                                                           *
 *                                             SCF/KS-DFT Program, Final results                                             *
 *                                                                                                                           *
 *                                                                                                                           *
 *                                                                                                                           *
 *                                                       Final Results                                                       *
 *                                                                                                                           *
 *****************************************************************************************************************************
 
::    Total SCF energy                              -1345.1847561168
      One-electron energy                           -1923.7438341629
      Two-electron energy                             538.5209347194
      Nuclear repulsion energy                         40.0381433267
      Kinetic energy (interpolated)                  1399.4089001183
      Virial theorem                                    0.9612521087
      Total spin, S(S+1)                                7.0401840635
      Total spin, S                                     2.2000340856
      Max non-diagonal density matrix element           0.0000050210
      Max non-diagonal Fock matrix element              0.0000007592
 
 
      All orbitals with orbital energies smaller than  E(LUMO)+0.5 are printed
 
++    Molecular orbitals:
      -------------------
 
      Title: UHF orbitals (alpha)

      Molecular orbitals for symmetry species 1: a  
 
          Orbital            1         2         3         4         5         6         7         8         9        10    
          Energy         -264.0540  -32.8428  -27.9241  -27.9241  -27.8984  -21.4845   -4.7638   -3.3379   -3.3379   -3.2754
          Occ. No.          1.0000    1.0000    1.0000    1.0000    1.0000    1.0000    1.0000    1.0000    1.0000    1.0000
 
        1 O1     1s         0.0000   -0.0000    0.0000   -0.0000   -0.0000    1.0000   -0.0001   -0.0000    0.0000   -0.0001
        2 O1     2s         0.0000   -0.0001    0.0000   -0.0000   -0.0000    0.0001   -0.0006   -0.0000    0.0000    0.0003
        3 O1     3s        -0.0000   -0.0001    0.0000   -0.0000   -0.0000   -0.0011   -0.0007   -0.0000    0.0000   -0.0002
        4 O1     2px        0.0000    0.0000    0.0000    0.0000   -0.0000    0.0000    0.0000   -0.0001   -0.0002   -0.0000
        5 O1     3px        0.0000    0.0000    0.0000    0.0000    0.0000    0.0000    0.0000   -0.0002   -0.0004    0.0000
        6 O1     2py       -0.0000   -0.0000   -0.0000    0.0000    0.0000   -0.0000   -0.0000    0.0002   -0.0001    0.0000
        7 O1     3py       -0.0000   -0.0000   -0.0000    0.0000   -0.0000   -0.0000   -0.0000    0.0004   -0.0002   -0.0000
        8 O1     2pz       -0.0000    0.0000    0.0000   -0.0000   -0.0000    0.0000    0.0006    0.0000   -0.0000   -0.0004
        9 O1     3pz       -0.0000    0.0000    0.0000   -0.0000   -0.0000    0.0002    0.0008    0.0000   -0.0000    0.0004
       10 O1     3d2-      -0.0000   -0.0000    0.0000    0.0000    0.0000    0.0000   -0.0000    0.0000    0.0000    0.0000
       11 O1     3d1-       0.0000    0.0000    0.0000   -0.0000   -0.0000    0.0000    0.0000   -0.0001    0.0000    0.0000
       12 O1     3d0       -0.0000    0.0000   -0.0000    0.0000    0.0000   -0.0015   -0.0002   -0.0000    0.0000    0.0001
       13 O1     3d1+      -0.0000   -0.0000   -0.0000   -0.0000    0.0000   -0.0000   -0.0000    0.0000    0.0001   -0.0000
       14 O1     3d2+      -0.0000   -0.0000   -0.0000    0.0000    0.0000    0.0000   -0.0000   -0.0000    0.0000    0.0000
       15 FE2    1s         1.0000    0.0000    0.0000   -0.0000   -0.0000    0.0000   -0.0000    0.0000   -0.0000    0.0000
       16 FE2    2s        -0.0000    1.0000    0.0000   -0.0000   -0.0010    0.0000   -0.0025    0.0000   -0.0000   -0.0000
       17 FE2    3s         0.0000    0.0025   -0.0000    0.0000    0.0000    0.0000    1.0000    0.0000   -0.0000   -0.0047
       18 FE2    4s        -0.0000   -0.0001    0.0000   -0.0000    0.0000    0.0002    0.0051    0.0000   -0.0000    0.0019
       19 FE2    5s         0.0000    0.0002   -0.0000    0.0000    0.0000   -0.0000   -0.0027   -0.0000    0.0000   -0.0010
       20 FE2    2px       -0.0000    0.0000   -0.3956   -0.9184   -0.0000   -0.0000   -0.0000    0.0009    0.0021    0.0000
       21 FE2    3px       -0.0000    0.0000   -0.0009   -0.0021   -0.0000   -0.0000    0.0000   -0.3956   -0.9184   -0.0000
       22 FE2    4px       -0.0000   -0.0000    0.0001    0.0002    0.0000   -0.0000   -0.0000    0.0004    0.0010   -0.0000
       23 FE2    5px        0.0000    0.0000   -0.0003   -0.0007   -0.0000   -0.0000    0.0000    0.0005    0.0011    0.0000
       24 FE2    2py        0.0000   -0.0000    0.9184   -0.3956    0.0000    0.0000    0.0000   -0.0021    0.0009   -0.0000
       25 FE2    3py        0.0000   -0.0000    0.0021   -0.0009    0.0000    0.0000   -0.0000    0.9184   -0.3956    0.0000
       26 FE2    4py        0.0000    0.0000   -0.0002    0.0001   -0.0000    0.0000    0.0000   -0.0010    0.0004    0.0000
       27 FE2    5py       -0.0000   -0.0000    0.0007   -0.0003    0.0000    0.0000   -0.0000   -0.0011    0.0005   -0.0000
       28 FE2    2pz        0.0000    0.0010   -0.0000    0.0000    1.0000    0.0000   -0.0000    0.0000   -0.0000   -0.0018
       29 FE2    3pz       -0.0000    0.0000   -0.0000    0.0000    0.0018    0.0000    0.0048   -0.0000    0.0000    1.0000
       30 FE2    4pz       -0.0000    0.0000    0.0000   -0.0000   -0.0002    0.0003    0.0010    0.0000   -0.0000    0.0028
       31 FE2    5pz       -0.0000    0.0001   -0.0000    0.0000    0.0005    0.0000    0.0000   -0.0000    0.0000   -0.0031
       32 FE2    3d2-      -0.0000   -0.0000    0.0000    0.0000   -0.0000   -0.0000   -0.0000    0.0000   -0.0000    0.0000
       33 FE2    4d2-       0.0000    0.0000   -0.0000   -0.0000    0.0000   -0.0000    0.0000   -0.0000   -0.0000   -0.0000
       34 FE2    3d1-      -0.0000   -0.0000    0.0001   -0.0000   -0.0000    0.0000   -0.0000    0.0024   -0.0010   -0.0000
       35 FE2    4d1-       0.0000    0.0000   -0.0001    0.0000    0.0000    0.0000    0.0000   -0.0004    0.0002    0.0000
       36 FE2    3d0       -0.0000   -0.0004   -0.0000    0.0000    0.0001    0.0001   -0.0110   -0.0000    0.0000    0.0022
       37 FE2    4d0        0.0000    0.0004    0.0000   -0.0000   -0.0000    0.0002    0.0045    0.0000   -0.0000    0.0010
       38 FE2    3d1+       0.0000    0.0000   -0.0000   -0.0001    0.0000   -0.0000    0.0000   -0.0010   -0.0024    0.0000
       39 FE2    4d1+      -0.0000   -0.0000    0.0000    0.0001   -0.0000   -0.0000   -0.0000    0.0002    0.0004   -0.0000
       40 FE2    3d2+      -0.0000   -0.0000   -0.0000    0.0000   -0.0000   -0.0000   -0.0000   -0.0000    0.0000    0.0000
       41 FE2    4d2+       0.0000    0.0000    0.0000   -0.0000    0.0000   -0.0000    0.0000   -0.0000   -0.0000   -0.0000
       42 FE2    4f3-       0.0000   -0.0000   -0.0000    0.0000    0.0000   -0.0000   -0.0000   -0.0000    0.0000    0.0000
       43 FE2    4f2-      -0.0000   -0.0000   -0.0000   -0.0000   -0.0000   -0.0000   -0.0000   -0.0000   -0.0000   -0.0000
       44 FE2    4f1-       0.0000   -0.0000   -0.0002    0.0001   -0.0000    0.0000   -0.0000   -0.0062    0.0027    0.0000
       45 FE2    4f0        0.0000   -0.0000    0.0000   -0.0000   -0.0001    0.0000   -0.0001    0.0000   -0.0000   -0.0015
       46 FE2    4f1+      -0.0000    0.0000    0.0001    0.0002    0.0000   -0.0000    0.0000    0.0027    0.0062   -0.0000
       47 FE2    4f2+      -0.0000   -0.0000    0.0000   -0.0000   -0.0000   -0.0000   -0.0000    0.0000   -0.0000   -0.0000
       48 FE2    4f3+       0.0000   -0.0000    0.0000    0.0000    0.0000   -0.0000   -0.0000    0.0000    0.0000    0.0000
 
          Orbital           11        12        13        14        15        16        17        18        19        20    
          Energy           -2.0068   -1.3870   -1.3870   -1.0631   -1.0631   -1.0267   -1.0005   -1.0005   -0.5854   -0.4198
          Occ. No.          1.0000    1.0000    1.0000    1.0000    1.0000    1.0000    1.0000    1.0000    0.0000    0.0000
 
        1 O1     1s        -0.0002    0.0000   -0.0000   -0.0000    0.0000   -0.0038    0.0000   -0.0000    0.0029   -0.0121
        2 O1     2s         0.9990    0.0000   -0.0000   -0.0000    0.0000   -0.0489    0.0000   -0.0000    0.0538   -0.1199
        3 O1     3s        -0.0588   -0.0000    0.0000   -0.0000    0.0000   -0.0086    0.0000   -0.0000   -0.0112   -0.0043
        4 O1     2px       -0.0000    0.9103    0.3920   -0.0000    0.0000   -0.0000    0.0097    0.0224    0.0000    0.0000
        5 O1     3px        0.0000   -0.1190   -0.0512   -0.0000    0.0000    0.0000    0.0021    0.0048    0.0000    0.0000
        6 O1     2py        0.0000    0.3920   -0.9103    0.0000    0.0000    0.0000   -0.0224    0.0097   -0.0000   -0.0000
        7 O1     3py       -0.0000   -0.0512    0.1190    0.0000    0.0000   -0.0000   -0.0048    0.0021   -0.0000   -0.0000
        8 O1     2pz       -0.0285    0.0000   -0.0000   -0.0000    0.0000   -0.0517    0.0000   -0.0000    0.9305    0.3368
        9 O1     3pz       -0.0047   -0.0000    0.0000    0.0000   -0.0000    0.0033    0.0000   -0.0000    0.1141    0.0492
       10 O1     3d2-       0.0000    0.0000    0.0000    0.0000   -0.0000   -0.0000    0.0000    0.0000    0.0000   -0.0000
       11 O1     3d1-       0.0000   -0.0030    0.0069    0.0000    0.0000   -0.0000   -0.0006    0.0003    0.0000   -0.0000
       12 O1     3d0       -0.0465   -0.0000    0.0000    0.0000   -0.0000    0.0047   -0.0000    0.0000   -0.0131    0.0041
       13 O1     3d1+      -0.0000   -0.0069   -0.0030    0.0000    0.0000    0.0000    0.0003    0.0006   -0.0000    0.0000
       14 O1     3d2+       0.0000   -0.0000    0.0000   -0.0000   -0.0000   -0.0000    0.0000   -0.0000    0.0000   -0.0000
       15 FE2    1s        -0.0000    0.0000   -0.0000   -0.0000    0.0000   -0.0000    0.0000   -0.0000    0.0007    0.0003
       16 FE2    2s        -0.0003    0.0000   -0.0000    0.0000   -0.0000    0.0003   -0.0000    0.0000    0.0049    0.0022
       17 FE2    3s        -0.0022    0.0000   -0.0000    0.0000   -0.0000    0.0107   -0.0000    0.0000    0.0288    0.0062
       18 FE2    4s        -0.0046   -0.0000    0.0000    0.0000   -0.0000    0.0268    0.0000   -0.0000   -0.1494    1.0161
       19 FE2    5s        -0.0032    0.0000   -0.0000   -0.0000    0.0000   -0.0038   -0.0000    0.0000    0.0302   -0.0486
       20 FE2    2px       -0.0000   -0.0000   -0.0000    0.0000    0.0000    0.0000    0.0000    0.0001   -0.0000   -0.0000
       21 FE2    3px       -0.0000   -0.0009   -0.0004   -0.0000    0.0000    0.0000    0.0010    0.0022   -0.0000   -0.0000
       22 FE2    4px       -0.0000    0.0035    0.0015    0.0000   -0.0000   -0.0000   -0.0068   -0.0157    0.0000   -0.0000
       23 FE2    5px       -0.0000    0.0006    0.0003   -0.0000    0.0000   -0.0000   -0.0004   -0.0008    0.0000   -0.0000
       24 FE2    2py        0.0000   -0.0000    0.0000    0.0000    0.0000   -0.0000   -0.0001    0.0000    0.0000    0.0000
       25 FE2    3py        0.0000   -0.0004    0.0009    0.0000    0.0000   -0.0000   -0.0022    0.0010    0.0000    0.0000
       26 FE2    4py        0.0000    0.0015   -0.0035   -0.0000   -0.0000    0.0000    0.0157   -0.0068   -0.0000    0.0000
       27 FE2    5py        0.0000    0.0003   -0.0006   -0.0000   -0.0000    0.0000    0.0008   -0.0004   -0.0000    0.0000
       28 FE2    2pz       -0.0001    0.0000   -0.0000   -0.0000    0.0000   -0.0001    0.0000   -0.0000    0.0009    0.0004
       29 FE2    3pz       -0.0043    0.0000   -0.0000   -0.0000    0.0000   -0.0026    0.0000   -0.0000    0.0222    0.0069
       30 FE2    4pz       -0.0045   -0.0000    0.0000    0.0000   -0.0000    0.0377   -0.0000    0.0000   -0.0897    0.0743
       31 FE2    5pz       -0.0019    0.0000   -0.0000    0.0000   -0.0000    0.0012   -0.0000    0.0000   -0.0062    0.0103
       32 FE2    3d2-       0.0000    0.0000    0.0000    0.8688   -0.4946   -0.0000    0.0000    0.0000   -0.0000    0.0000
       33 FE2    4d2-      -0.0000    0.0000   -0.0000   -0.0210    0.0119    0.0000   -0.0000   -0.0000    0.0000   -0.0000
       34 FE2    3d1-       0.0000    0.0032   -0.0074   -0.0000   -0.0000    0.0000    0.9188   -0.3957    0.0000   -0.0000
       35 FE2    4d1-       0.0000    0.0004   -0.0010    0.0000    0.0000   -0.0000   -0.0012    0.0005   -0.0000    0.0000
       36 FE2    3d0        0.0044   -0.0000    0.0000    0.0000   -0.0000    0.9966   -0.0000    0.0000    0.1126    0.0111
       37 FE2    4d0       -0.0017   -0.0000    0.0000   -0.0000    0.0000   -0.0032    0.0000   -0.0000   -0.0124   -0.0118
       38 FE2    3d1+      -0.0000    0.0074    0.0032   -0.0000   -0.0000   -0.0000   -0.3957   -0.9188   -0.0000    0.0000
       39 FE2    4d1+      -0.0000    0.0010    0.0004    0.0000    0.0000    0.0000    0.0005    0.0012    0.0000   -0.0000
       40 FE2    3d2+       0.0000    0.0000   -0.0000   -0.4946   -0.8688   -0.0000   -0.0000    0.0000   -0.0000    0.0000
       41 FE2    4d2+      -0.0000   -0.0000    0.0000    0.0119    0.0210    0.0000   -0.0000   -0.0000    0.0000   -0.0000
       42 FE2    4f3-      -0.0000    0.0000   -0.0000   -0.0000   -0.0000    0.0000    0.0000   -0.0000    0.0000    0.0000
       43 FE2    4f2-       0.0000    0.0000    0.0000    0.0015   -0.0009   -0.0000    0.0000   -0.0000   -0.0000    0.0000
       44 FE2    4f1-       0.0000    0.0001   -0.0003   -0.0000   -0.0000    0.0000    0.0022   -0.0010   -0.0000    0.0000
       45 FE2    4f0        0.0002   -0.0000    0.0000    0.0000   -0.0000    0.0029   -0.0000    0.0000   -0.0022   -0.0004
       46 FE2    4f1+      -0.0000    0.0003    0.0001   -0.0000   -0.0000   -0.0000   -0.0010   -0.0022    0.0000   -0.0000
       47 FE2    4f2+       0.0000   -0.0000    0.0000   -0.0009   -0.0015   -0.0000   -0.0000    0.0000   -0.0000    0.0000
       48 FE2    4f3+      -0.0000    0.0000    0.0000   -0.0000    0.0000    0.0000   -0.0000   -0.0000    0.0000    0.0000
 
          Orbital           21        22        23        24    
          Energy           -0.2833   -0.2833   -0.2544   -0.1653
          Occ. No.          0.0000    0.0000    0.0000    0.0000
 
        1 O1     1s        -0.0000    0.0000   -0.0218   -0.0166
        2 O1     2s        -0.0000    0.0000   -0.2046   -0.1380
        3 O1     3s         0.0000   -0.0000    0.0245   -0.0137
        4 O1     2px        0.0167    0.0389    0.0000   -0.0000
        5 O1     3px       -0.0318   -0.0739    0.0000   -0.0000
        6 O1     2py       -0.0389    0.0167   -0.0000    0.0000
        7 O1     3py        0.0739   -0.0318   -0.0000    0.0000
        8 O1     2pz        0.0000   -0.0000    0.2815   -0.0703
        9 O1     3pz        0.0000   -0.0000    0.0551    0.0607
       10 O1     3d2-       0.0000    0.0000   -0.0000    0.0000
       11 O1     3d1-      -0.0087    0.0037   -0.0000   -0.0000
       12 O1     3d0       -0.0000    0.0000    0.0091   -0.0103
       13 O1     3d1+       0.0037    0.0087    0.0000    0.0000
       14 O1     3d2+       0.0000   -0.0000   -0.0000    0.0000
       15 FE2    1s         0.0000   -0.0000    0.0003    0.0001
       16 FE2    2s         0.0000   -0.0000    0.0018    0.0009
       17 FE2    3s         0.0000   -0.0000    0.0099    0.0078
       18 FE2    4s        -0.0000    0.0000   -0.0105    0.0963
       19 FE2    5s         0.0000   -0.0000    0.0534    1.0020
       20 FE2    2px       -0.0001   -0.0001   -0.0000    0.0000
       21 FE2    3px        0.0001    0.0002    0.0000    0.0000
       22 FE2    4px       -0.3843   -0.8937    0.0000    0.0000
       23 FE2    5px       -0.0392   -0.0913    0.0000    0.0000
       24 FE2    2py        0.0001   -0.0001    0.0000   -0.0000
       25 FE2    3py       -0.0002    0.0001   -0.0000   -0.0000
       26 FE2    4py        0.8937   -0.3843   -0.0000   -0.0000
       27 FE2    5py        0.0913   -0.0392   -0.0000   -0.0000
       28 FE2    2pz        0.0000   -0.0000    0.0005    0.0002
       29 FE2    3pz        0.0000   -0.0000    0.0058    0.0043
       30 FE2    4pz        0.0000   -0.0000    1.0334   -0.0057
       31 FE2    5pz        0.0000   -0.0000    0.1100    0.0079
       32 FE2    3d2-       0.0000    0.0000   -0.0000   -0.0000
       33 FE2    4d2-      -0.0000   -0.0000    0.0000    0.0000
       34 FE2    3d1-      -0.0167    0.0072   -0.0000    0.0000
       35 FE2    4d1-       0.0189   -0.0081   -0.0000    0.0000
       36 FE2    3d0        0.0000   -0.0000   -0.0016    0.0102
       37 FE2    4d0       -0.0000    0.0000    0.0066    0.0095
       38 FE2    3d1+       0.0072    0.0167    0.0000   -0.0000
       39 FE2    4d1+      -0.0081   -0.0189    0.0000   -0.0000
       40 FE2    3d2+       0.0000   -0.0000   -0.0000   -0.0000
       41 FE2    4d2+      -0.0000    0.0000    0.0000    0.0000
       42 FE2    4f3-       0.0000   -0.0000   -0.0000   -0.0000
       43 FE2    4f2-      -0.0000   -0.0000    0.0000   -0.0000
       44 FE2    4f1-       0.0007   -0.0003    0.0000   -0.0000
       45 FE2    4f0       -0.0000    0.0000   -0.0006   -0.0006
       46 FE2    4f1+      -0.0003   -0.0007   -0.0000    0.0000
       47 FE2    4f2+      -0.0000    0.0000    0.0000   -0.0000
       48 FE2    4f3+      -0.0000   -0.0000   -0.0000   -0.0000
--
 
 
  Input file to MOLDEN was generated!
 
 
++    Static properties:
      ------------------
 
 
      LoProp Charges per center
 

                   O1       FE2   
      Nuclear      8.0000  26.0000
      Electronic  -7.2014 -24.7986
 
      Total        0.7986   1.2014
--
 
 
      All orbitals with orbital energies smaller than  E(LUMO)+0.5 are printed
 
++    Molecular orbitals:
      -------------------
 
      Title: UHF orbitals (beta)

      Molecular orbitals for symmetry species 1: a  
 
          Orbital            1         2         3         4         5         6         7         8         9        10    
          Energy         -264.0521  -32.7444  -27.8180  -27.8172  -27.8172  -21.4425   -4.4818   -3.0073   -2.9609   -2.9609
          Occ. No.          1.0000    1.0000    1.0000    1.0000    1.0000    1.0000    1.0000    1.0000    1.0000    1.0000
 
        1 O1     1s         0.0000   -0.0000    0.0000    0.0000   -0.0000    1.0000   -0.0000   -0.0001    0.0000   -0.0000
        2 O1     2s         0.0000   -0.0000    0.0002    0.0000   -0.0000   -0.0015   -0.0003    0.0016    0.0000   -0.0000
        3 O1     3s         0.0000   -0.0000    0.0002    0.0000   -0.0000    0.0004   -0.0006   -0.0002    0.0000   -0.0000
        4 O1     2px       -0.0000    0.0000    0.0000   -0.0000   -0.0000    0.0000   -0.0000    0.0000    0.0016    0.0007
        5 O1     3px       -0.0000    0.0000    0.0000   -0.0000   -0.0001   -0.0000   -0.0000   -0.0000    0.0000    0.0000
        6 O1     2py        0.0000   -0.0000   -0.0000    0.0000   -0.0000   -0.0000    0.0000   -0.0000    0.0007   -0.0016
        7 O1     3py        0.0000   -0.0000   -0.0000    0.0001   -0.0000    0.0000    0.0000    0.0000    0.0000   -0.0000
        8 O1     2pz       -0.0000    0.0000   -0.0001   -0.0000    0.0000   -0.0002    0.0008   -0.0007    0.0000   -0.0000
        9 O1     3pz       -0.0000    0.0001   -0.0001   -0.0000    0.0000   -0.0003    0.0013    0.0010   -0.0000    0.0000
       10 O1     3d2-      -0.0000   -0.0000   -0.0000   -0.0000   -0.0000   -0.0000   -0.0000   -0.0000   -0.0000   -0.0000
       11 O1     3d1-      -0.0000    0.0000   -0.0000   -0.0000    0.0000   -0.0000   -0.0000    0.0000   -0.0001    0.0002
       12 O1     3d0       -0.0000   -0.0000    0.0000    0.0000   -0.0000    0.0015   -0.0004    0.0000   -0.0000    0.0000
       13 O1     3d1+       0.0000   -0.0000    0.0000    0.0000    0.0000    0.0000    0.0000   -0.0000   -0.0002   -0.0001
       14 O1     3d2+      -0.0000   -0.0000   -0.0000    0.0000   -0.0000   -0.0000   -0.0000   -0.0000   -0.0000    0.0000
       15 FE2    1s         1.0000    0.0000   -0.0000   -0.0000    0.0000   -0.0000    0.0000    0.0000   -0.0000    0.0000
       16 FE2    2s        -0.0000    1.0000   -0.0010   -0.0000    0.0000   -0.0000    0.0003   -0.0000   -0.0000    0.0000
       17 FE2    3s         0.0000   -0.0003   -0.0000    0.0000   -0.0000   -0.0001    1.0001   -0.0041   -0.0000    0.0000
       18 FE2    4s        -0.0000    0.0002   -0.0001   -0.0000    0.0000   -0.0004    0.0076    0.0035   -0.0000    0.0000
       19 FE2    5s         0.0000   -0.0002   -0.0000   -0.0000    0.0000   -0.0000   -0.0049   -0.0015    0.0000   -0.0000
       20 FE2    2px        0.0000    0.0000    0.0000   -0.3963   -0.9181    0.0000    0.0000   -0.0000    0.0019    0.0008
       21 FE2    3px        0.0000   -0.0000   -0.0000    0.0008    0.0019    0.0000   -0.0000   -0.0000    0.9183    0.3957
       22 FE2    4px        0.0000    0.0000    0.0000   -0.0001   -0.0003    0.0000    0.0000    0.0000    0.0057    0.0025
       23 FE2    5px        0.0000   -0.0000   -0.0000    0.0003    0.0008    0.0000    0.0000   -0.0000   -0.0074   -0.0032
       24 FE2    2py       -0.0000   -0.0000   -0.0000    0.9181   -0.3963   -0.0000   -0.0000    0.0000    0.0008   -0.0019
       25 FE2    3py       -0.0000    0.0000    0.0000   -0.0019    0.0008   -0.0000    0.0000    0.0000    0.3957   -0.9183
       26 FE2    4py       -0.0000   -0.0000   -0.0000    0.0003   -0.0001   -0.0000   -0.0000   -0.0000    0.0025   -0.0057
       27 FE2    5py       -0.0000    0.0000    0.0000   -0.0008    0.0003   -0.0000   -0.0000    0.0000   -0.0032    0.0074
       28 FE2    2pz        0.0000    0.0010    1.0000    0.0000   -0.0000   -0.0000    0.0000    0.0013   -0.0000    0.0000
       29 FE2    3pz       -0.0000    0.0000   -0.0013   -0.0000    0.0000   -0.0000    0.0042    0.9998   -0.0000    0.0000
       30 FE2    4pz       -0.0000    0.0000    0.0002    0.0000   -0.0000   -0.0004    0.0015    0.0098   -0.0000    0.0000
       31 FE2    5pz       -0.0000    0.0000   -0.0008   -0.0000    0.0000   -0.0001   -0.0002   -0.0088    0.0000   -0.0000
       32 FE2    3d2-       0.0000    0.0000    0.0000   -0.0000   -0.0000   -0.0000    0.0000    0.0000    0.0000    0.0000
       33 FE2    4d2-       0.0000    0.0000   -0.0000    0.0000    0.0000    0.0000    0.0000   -0.0000   -0.0000   -0.0000
       34 FE2    3d1-      -0.0000   -0.0000   -0.0000    0.0001   -0.0000   -0.0000    0.0000    0.0000    0.0002   -0.0005
       35 FE2    4d1-       0.0000    0.0000    0.0000   -0.0001    0.0000   -0.0000   -0.0000   -0.0000    0.0006   -0.0014
       36 FE2    3d0        0.0000    0.0001    0.0001    0.0000   -0.0000   -0.0001    0.0018    0.0045   -0.0000    0.0000
       37 FE2    4d0       -0.0000    0.0000   -0.0002   -0.0000    0.0000   -0.0002    0.0007   -0.0003   -0.0000    0.0000
       38 FE2    3d1+       0.0000    0.0000    0.0000   -0.0000   -0.0001    0.0000   -0.0000   -0.0000    0.0005    0.0002
       39 FE2    4d1+      -0.0000   -0.0000   -0.0000    0.0000    0.0001    0.0000    0.0000    0.0000    0.0014    0.0006
       40 FE2    3d2+       0.0000    0.0000    0.0000    0.0000   -0.0000   -0.0000    0.0000    0.0000    0.0000   -0.0000
       41 FE2    4d2+       0.0000    0.0000   -0.0000   -0.0000    0.0000    0.0000    0.0000   -0.0000   -0.0000    0.0000
       42 FE2    4f3-      -0.0000    0.0000   -0.0000   -0.0000    0.0000   -0.0000    0.0000   -0.0000   -0.0000    0.0000
       43 FE2    4f2-      -0.0000    0.0000    0.0000    0.0000    0.0000   -0.0000    0.0000    0.0000   -0.0000   -0.0000
       44 FE2    4f1-      -0.0000    0.0000   -0.0000    0.0006   -0.0003   -0.0000    0.0000   -0.0000    0.0046   -0.0106
       45 FE2    4f0       -0.0000    0.0000   -0.0009   -0.0000    0.0000   -0.0000    0.0003   -0.0180   -0.0000    0.0000
       46 FE2    4f1+       0.0000   -0.0000    0.0000   -0.0003   -0.0006    0.0000   -0.0000    0.0000    0.0106    0.0046
       47 FE2    4f2+      -0.0000    0.0000    0.0000   -0.0000    0.0000   -0.0000    0.0000    0.0000   -0.0000    0.0000
       48 FE2    4f3+      -0.0000    0.0000   -0.0000    0.0000    0.0000   -0.0000    0.0000   -0.0000   -0.0000   -0.0000
 
          Orbital           11        12        13        14        15        16        17        18        19        20    
          Energy           -1.8543   -1.3597   -0.8042   -0.8042   -0.5747   -0.5747   -0.4133   -0.2598   -0.2598   -0.2521
          Occ. No.          1.0000    1.0000    1.0000    1.0000    0.0000    0.0000    0.0000    0.0000    0.0000    0.0000
 
        1 O1     1s         0.0018    0.0005    0.0000   -0.0000   -0.0000    0.0000   -0.0150    0.0000   -0.0000   -0.0195
        2 O1     2s         1.0003    0.0247    0.0000   -0.0000   -0.0000    0.0000   -0.1659    0.0000   -0.0000   -0.2031
        3 O1     3s        -0.0329   -0.0134    0.0000   -0.0000    0.0000   -0.0000   -0.0067   -0.0000    0.0000    0.0191
        4 O1     2px       -0.0000    0.0000    0.2689    0.1158    0.3731    0.8663   -0.0000    0.0595    0.1380   -0.0000
        5 O1     3px       -0.0000   -0.0000    0.0283    0.0122    0.0506    0.1176   -0.0000   -0.0110   -0.0256   -0.0000
        6 O1     2py        0.0000   -0.0000    0.1158   -0.2689   -0.8663    0.3731    0.0000   -0.1380    0.0595    0.0000
        7 O1     3py        0.0000    0.0000    0.0122   -0.0283   -0.1176    0.0506    0.0000    0.0256   -0.0110    0.0000
        8 O1     2pz       -0.0232    0.9900    0.0000   -0.0000   -0.0000    0.0000    0.1211   -0.0000    0.0000    0.1399
        9 O1     3pz       -0.0131   -0.1099    0.0000   -0.0000   -0.0000    0.0000   -0.0224   -0.0000    0.0000   -0.0321
       10 O1     3d2-      -0.0000    0.0000   -0.0000   -0.0000   -0.0000   -0.0000   -0.0000   -0.0000   -0.0000   -0.0000
       11 O1     3d1-      -0.0000    0.0000   -0.0033    0.0076    0.0051   -0.0022    0.0000   -0.0092    0.0040    0.0000
       12 O1     3d0        0.0549   -0.0059   -0.0000    0.0000    0.0000   -0.0000    0.0020    0.0000   -0.0000    0.0027
       13 O1     3d1+       0.0000   -0.0000   -0.0076   -0.0033   -0.0022   -0.0051   -0.0000    0.0040    0.0092   -0.0000
       14 O1     3d2+      -0.0000    0.0000   -0.0000    0.0000   -0.0000    0.0000   -0.0000   -0.0000    0.0000   -0.0000
       15 FE2    1s        -0.0001    0.0001    0.0000   -0.0000   -0.0000    0.0000    0.0000   -0.0000    0.0000   -0.0000
       16 FE2    2s        -0.0007    0.0009    0.0000   -0.0000   -0.0000    0.0000   -0.0001   -0.0000    0.0000   -0.0002
       17 FE2    3s        -0.0048    0.0068    0.0000   -0.0000   -0.0000    0.0000   -0.0063   -0.0000    0.0000   -0.0004
       18 FE2    4s        -0.0062   -0.0115   -0.0000    0.0000   -0.0000    0.0000    1.0052   -0.0000    0.0000   -0.1264
       19 FE2    5s        -0.0030    0.0030    0.0000   -0.0000    0.0000   -0.0000    0.0035   -0.0000    0.0000   -0.0184
       20 FE2    2px        0.0000   -0.0000   -0.0001   -0.0001   -0.0001   -0.0002    0.0000    0.0001    0.0002    0.0000
       21 FE2    3px       -0.0000   -0.0000   -0.0030   -0.0013   -0.0029   -0.0067    0.0000    0.0020    0.0047   -0.0000
       22 FE2    4px        0.0000    0.0000    0.0547    0.0236    0.0043    0.0100   -0.0000   -0.3900   -0.9041   -0.0000
       23 FE2    5px        0.0000    0.0000    0.0018    0.0008    0.0004    0.0009   -0.0000   -0.0463   -0.1073   -0.0000
       24 FE2    2py       -0.0000    0.0000   -0.0001    0.0001    0.0002   -0.0001   -0.0000   -0.0002    0.0001   -0.0000
       25 FE2    3py        0.0000    0.0000   -0.0013    0.0030    0.0067   -0.0029   -0.0000   -0.0047    0.0020    0.0000
       26 FE2    4py       -0.0000   -0.0000    0.0236   -0.0547   -0.0100    0.0043    0.0000    0.9041   -0.3900    0.0000
       27 FE2    5py       -0.0000   -0.0000    0.0008   -0.0018   -0.0009    0.0004    0.0000    0.1073   -0.0463    0.0000
       28 FE2    2pz       -0.0002    0.0003    0.0000   -0.0000   -0.0000    0.0000   -0.0000   -0.0000    0.0000   -0.0002
       29 FE2    3pz       -0.0081    0.0112    0.0000   -0.0000   -0.0000    0.0000   -0.0028    0.0000   -0.0000   -0.0072
       30 FE2    4pz       -0.0050   -0.0108   -0.0000    0.0000    0.0000   -0.0000    0.1603   -0.0000    0.0000    1.0038
       31 FE2    5pz       -0.0020   -0.0002   -0.0000    0.0000    0.0000   -0.0000    0.0194   -0.0000    0.0000    0.1160
       32 FE2    3d2-      -0.0000    0.0000   -0.0000   -0.0000    0.0000    0.0000   -0.0000   -0.0000   -0.0000   -0.0000
       33 FE2    4d2-      -0.0000    0.0000   -0.0000   -0.0000    0.0000    0.0000   -0.0000   -0.0000   -0.0000   -0.0000
       34 FE2    3d1-      -0.0000    0.0000    0.3705   -0.8601    0.3125   -0.1346    0.0000   -0.0458    0.0198    0.0000
       35 FE2    4d1-      -0.0000   -0.0000    0.0330   -0.0767    0.0216   -0.0093    0.0000    0.0106   -0.0046    0.0000
       36 FE2    3d0        0.0010   -0.0087   -0.0000    0.0000   -0.0000    0.0000    0.0067    0.0000   -0.0000    0.0396
       37 FE2    4d0       -0.0012   -0.0052   -0.0000    0.0000   -0.0000    0.0000    0.0026    0.0000   -0.0000    0.0194
       38 FE2    3d1+       0.0000   -0.0000    0.8601    0.3705   -0.1346   -0.3125   -0.0000    0.0198    0.0458   -0.0000
       39 FE2    4d1+       0.0000    0.0000    0.0767    0.0330   -0.0093   -0.0216   -0.0000   -0.0046   -0.0106   -0.0000
       40 FE2    3d2+      -0.0000    0.0000   -0.0000    0.0000   -0.0000    0.0000   -0.0000    0.0000   -0.0000   -0.0000
       41 FE2    4d2+      -0.0000    0.0000   -0.0000    0.0000   -0.0000    0.0000   -0.0000    0.0000   -0.0000   -0.0000
       42 FE2    4f3-      -0.0000    0.0000    0.0000   -0.0000    0.0000   -0.0000   -0.0000   -0.0000    0.0000   -0.0000
       43 FE2    4f2-      -0.0000    0.0000   -0.0000   -0.0000   -0.0000   -0.0000   -0.0000    0.0000    0.0000   -0.0000
       44 FE2    4f1-      -0.0000    0.0000    0.0015   -0.0035   -0.0013    0.0005   -0.0000    0.0014   -0.0006   -0.0000
       45 FE2    4f0        0.0001   -0.0009   -0.0000    0.0000    0.0000   -0.0000   -0.0011    0.0000   -0.0000   -0.0019
       46 FE2    4f1+       0.0000   -0.0000    0.0035    0.0015    0.0005    0.0013    0.0000   -0.0006   -0.0014    0.0000
       47 FE2    4f2+      -0.0000    0.0000   -0.0000    0.0000   -0.0000   -0.0000   -0.0000    0.0000    0.0000   -0.0000
       48 FE2    4f3+      -0.0000    0.0000    0.0000    0.0000   -0.0000   -0.0000   -0.0000    0.0000    0.0000   -0.0000
 
          Orbital           21        22        23        24    
          Energy           -0.1728   -0.1728   -0.1555   -0.1321
          Occ. No.          0.0000    0.0000    0.0000    0.0000
 
        1 O1     1s        -0.0000   -0.0000   -0.0150   -0.0123
        2 O1     2s        -0.0000   -0.0000   -0.1177   -0.1157
        3 O1     3s         0.0000    0.0000   -0.0232    0.0320
        4 O1     2px       -0.0000   -0.0000    0.0000    0.0000
        5 O1     3px        0.0000    0.0000    0.0000   -0.0000
        6 O1     2py        0.0000   -0.0000   -0.0000   -0.0000
        7 O1     3py       -0.0000    0.0000   -0.0000    0.0000
        8 O1     2pz        0.0000    0.0000   -0.0152    0.0523
        9 O1     3pz       -0.0000   -0.0000    0.1487   -0.0408
       10 O1     3d2-       0.0027   -0.0015   -0.0000   -0.0000
       11 O1     3d1-       0.0000   -0.0000    0.0000   -0.0000
       12 O1     3d0        0.0000    0.0000   -0.0198    0.0061
       13 O1     3d1+      -0.0000   -0.0000   -0.0000    0.0000
       14 O1     3d2+       0.0015    0.0027   -0.0000   -0.0000
       15 FE2    1s        -0.0000   -0.0000    0.0004   -0.0001
       16 FE2    2s        -0.0000   -0.0000    0.0031   -0.0007
       17 FE2    3s        -0.0000   -0.0000    0.0195   -0.0032
       18 FE2    4s        -0.0000   -0.0000    0.0745   -0.0022
       19 FE2    5s        -0.0000   -0.0000    0.9330    0.3446
       20 FE2    2px       -0.0000   -0.0000   -0.0000    0.0000
       21 FE2    3px       -0.0000   -0.0000   -0.0000    0.0000
       22 FE2    4px       -0.0000   -0.0000   -0.0000    0.0000
       23 FE2    5px       -0.0000   -0.0000   -0.0000    0.0000
       24 FE2    2py        0.0000   -0.0000    0.0000   -0.0000
       25 FE2    3py        0.0000   -0.0000    0.0000   -0.0000
       26 FE2    4py        0.0000   -0.0000    0.0000   -0.0000
       27 FE2    5py        0.0000   -0.0000    0.0000   -0.0000
       28 FE2    2pz       -0.0000   -0.0000    0.0005   -0.0002
       29 FE2    3pz       -0.0000   -0.0000    0.0114   -0.0048
       30 FE2    4pz       -0.0000   -0.0000    0.1100   -0.0273
       31 FE2    5pz       -0.0000   -0.0000    0.0231   -0.0050
       32 FE2    3d2-       0.8386   -0.4689    0.0000   -0.0000
       33 FE2    4d2-       0.2419   -0.1353    0.0000   -0.0000
       34 FE2    3d1-      -0.0000    0.0000   -0.0000    0.0000
       35 FE2    4d1-      -0.0000    0.0000   -0.0000    0.0000
       36 FE2    3d0        0.0000    0.0000   -0.2967    0.8987
       37 FE2    4d0        0.0000    0.0000   -0.0881    0.2726
       38 FE2    3d1+       0.0000    0.0000    0.0000   -0.0000
       39 FE2    4d1+       0.0000    0.0000    0.0000   -0.0000
       40 FE2    3d2+       0.4689    0.8386    0.0000   -0.0000
       41 FE2    4d2+       0.1353    0.2419    0.0000   -0.0000
       42 FE2    4f3-       0.0000    0.0000    0.0000    0.0000
       43 FE2    4f2-       0.0019   -0.0010    0.0000   -0.0000
       44 FE2    4f1-      -0.0000    0.0000   -0.0000    0.0000
       45 FE2    4f0        0.0000    0.0000   -0.0011    0.0025
       46 FE2    4f1+       0.0000    0.0000    0.0000   -0.0000
       47 FE2    4f2+       0.0010    0.0019    0.0000   -0.0000
       48 FE2    4f3+      -0.0000    0.0000    0.0000    0.0000
--
 
 
++    Molecular charges:
      ------------------
 
      Mulliken charges per centre and basis function type
      ---------------------------------------------------
 
                            O1                      FE2   
                     alpha        beta       alpha        beta
      1s           1.0000      1.0000      1.0000      1.0000
      2s           0.9956      0.9983      1.0000      1.0000
      2px          0.9829      0.0956      1.0000      1.0000
      2pz          0.0061      0.9847      1.0000      1.0000
      2py          0.9829      0.0956      1.0000      1.0000
      3s           0.0031      0.0015      1.0001      1.0001
      3px          0.0163      0.0036      0.9999      0.9998
      3pz         -0.0003      0.0112      1.0000      0.9995
      3py          0.0163      0.0036      0.9999      0.9998
      4s           0.0000      0.0000      0.0001      0.0003
      3d2+         0.0000      0.0000      0.9994      0.0000
      3d1+         0.0001      0.0003      1.0002      0.8850
      3d0          0.0024      0.0030      0.9934      0.0004
      3d1-         0.0001      0.0003      1.0002      0.8850
      3d2-         0.0000      0.0000      0.9994      0.0000
      4px          0.0000      0.0000      0.0004      0.0054
      4pz          0.0000      0.0000      0.0004      0.0006
      4py          0.0000      0.0000      0.0004      0.0054
      5s           0.0000      0.0000     -0.0003     -0.0002
      4d2+         0.0000      0.0000      0.0006      0.0000
      4d1+         0.0000      0.0000      0.0001      0.0100
      4d0          0.0000      0.0000     -0.0002      0.0004
      4d1-         0.0000      0.0000      0.0001      0.0100
      4d2-         0.0000      0.0000      0.0006      0.0000
      5px          0.0000      0.0000      0.0000      0.0001
      5pz          0.0000      0.0000     -0.0003     -0.0002
      5py          0.0000      0.0000      0.0000      0.0001
      4f3+         0.0000      0.0000      0.0000      0.0000
      4f2+         0.0000      0.0000      0.0000      0.0000
      4f1+         0.0000      0.0000      0.0001      0.0002
      4f0          0.0000      0.0000      0.0000      0.0003
      4f1-         0.0000      0.0000      0.0001      0.0002
      4f2-         0.0000      0.0000      0.0000      0.0000
      4f3-         0.0000      0.0000      0.0000      0.0000
      Total        4.0054      3.1978     13.9946     10.8022
      Total              7.2032                 24.7968
 
      Charge            0.7968                  1.2032
 
      Total electronic charge=   32.000000
 
      Total            charge=    2.000000
--
 
 
  Input file to MOLDEN was generated!
 
 
++    Static properties:
      ------------------
 
 
      LoProp Charges per center
 

                   O1       FE2   
      Nuclear      8.0000  26.0000
      Electronic  -7.2014 -24.7986
 
      Total        0.7986   1.2014
--
 
 
++    Natural Bond Order analysis
      ---------------------------
      Based on LoProp computed density
      -------------------------------------------------------------------------------------
      Atom A       Atom B       Bond Order
        O1           FE2            1.990
      -------------------------------------------------------------------------------------
      NBO located     21.999 core electrons.
      NBO located      3.980 electrons involved in    1 bonds.
      NBO located      1.001 non-bonded electrons on atom O1        
      NBO located      0.915 non-bonded electrons on atom O1        
      NBO located      0.915 non-bonded electrons on atom O1        
      The remaining    3.189 electrons are to be considered as diffuse
--
 
 
++    Molecular orbitals:
      -------------------
 
      Title: Natural orbitals

      Molecular orbitals for symmetry species 1: a  
 
          Orbital            1         2         3         4         5         6         7         8         9        10    
          Energy         -264.0530  -32.4524  -21.8295  -27.3655  -27.7325  -27.7324   -4.9527   -3.2619   -3.2844   -3.2845
          Occ. No.          2.0000    2.0000    2.0000    2.0000    2.0000    2.0000    2.0000    1.9998    1.9998    1.9998
 
        1 O1     1s        -0.0002    0.0337    0.9688    0.2435    0.0000   -0.0000    0.0045   -0.0040    0.0000    0.0000
        2 O1     2s         0.0000   -0.0013   -0.0288   -0.0072   -0.0000    0.0000    0.0028   -0.0026    0.0000    0.0000
        3 O1     3s        -0.0000    0.0001    0.0009    0.0003    0.0000    0.0000   -0.0009   -0.0001    0.0000    0.0000
        4 O1     2px        0.0000    0.0000    0.0000    0.0000   -0.0000    0.0001   -0.0000   -0.0000    0.0029   -0.0068
        5 O1     3px       -0.0000    0.0000   -0.0000   -0.0000    0.0000   -0.0000    0.0000   -0.0000   -0.0001    0.0003
        6 O1     2py       -0.0000   -0.0000   -0.0000   -0.0000    0.0001    0.0000    0.0000    0.0000   -0.0068   -0.0029
        7 O1     3py        0.0000   -0.0000    0.0000    0.0000   -0.0000   -0.0000   -0.0000    0.0000    0.0003    0.0001
        8 O1     2pz       -0.0000    0.0001    0.0008    0.0002    0.0000    0.0000   -0.0002   -0.0003   -0.0000   -0.0000
        9 O1     3pz       -0.0000   -0.0001    0.0002   -0.0000   -0.0000   -0.0000    0.0011    0.0007   -0.0000   -0.0000
       10 O1     3d2-       0.0000   -0.0000   -0.0000   -0.0000   -0.0000    0.0000   -0.0000   -0.0000    0.0000   -0.0000
       11 O1     3d1-       0.0000    0.0000    0.0000    0.0000    0.0000    0.0000   -0.0000   -0.0000    0.0000    0.0000
       12 O1     3d0       -0.0000    0.0000   -0.0001   -0.0000   -0.0000    0.0000   -0.0003    0.0000   -0.0000   -0.0000
       13 O1     3d1+      -0.0000   -0.0000   -0.0000   -0.0000   -0.0000    0.0000    0.0000    0.0000   -0.0000    0.0000
       14 O1     3d2+       0.0000   -0.0000   -0.0000   -0.0000    0.0000    0.0000   -0.0000   -0.0000   -0.0000   -0.0000
       15 FE2    1s         1.0000   -0.0001    0.0002   -0.0000    0.0000    0.0000    0.0001    0.0000   -0.0000   -0.0000
       16 FE2    2s         0.0001    0.9937   -0.0325   -0.0103   -0.0000   -0.0000    0.1068    0.0014    0.0000    0.0000
       17 FE2    3s        -0.0001   -0.1068   -0.0031    0.0094    0.0000    0.0000    0.9943    0.0061    0.0000    0.0000
       18 FE2    4s        -0.0000   -0.0007    0.0001   -0.0001    0.0000    0.0000    0.0064    0.0028   -0.0000   -0.0000
       19 FE2    5s         0.0000    0.0004    0.0000    0.0000   -0.0000   -0.0000   -0.0038   -0.0013    0.0000    0.0000
       20 FE2    2px        0.0000   -0.0000   -0.0000    0.0000   -0.3945    0.9158    0.0000   -0.0000   -0.0295    0.0686
       21 FE2    3px       -0.0000    0.0000    0.0000   -0.0000    0.0295   -0.0686    0.0000   -0.0000   -0.3944    0.9154
       22 FE2    4px        0.0000    0.0000    0.0000   -0.0000    0.0001   -0.0001   -0.0000   -0.0000   -0.0005    0.0012
       23 FE2    5px        0.0000   -0.0000   -0.0000    0.0000   -0.0001    0.0003   -0.0000    0.0000    0.0018   -0.0042
       24 FE2    2py       -0.0000    0.0000    0.0000   -0.0000    0.9158    0.3945   -0.0000    0.0000    0.0685    0.0295
       25 FE2    3py        0.0000   -0.0000   -0.0000    0.0000   -0.0685   -0.0295   -0.0000    0.0000    0.9154    0.3944
       26 FE2    4py       -0.0000   -0.0000   -0.0000   -0.0000   -0.0001   -0.0001    0.0000    0.0000    0.0012    0.0005
       27 FE2    5py       -0.0000    0.0000    0.0000   -0.0000    0.0003    0.0001    0.0000   -0.0000   -0.0042   -0.0018
       28 FE2    2pz        0.0001    0.0031   -0.2430    0.9675    0.0000    0.0000   -0.0100    0.0696   -0.0000   -0.0000
       29 FE2    3pz       -0.0000   -0.0008    0.0209   -0.0666   -0.0000   -0.0000   -0.0054    0.9975   -0.0000   -0.0000
       30 FE2    4pz       -0.0000   -0.0001    0.0002   -0.0004   -0.0000   -0.0000    0.0014    0.0063   -0.0000   -0.0000
       31 FE2    5pz       -0.0000    0.0001   -0.0001    0.0003    0.0000    0.0000    0.0000   -0.0059    0.0000    0.0000
       32 FE2    3d2-       0.0000   -0.0000    0.0000   -0.0000    0.0000   -0.0000    0.0000    0.0000   -0.0000    0.0000
       33 FE2    4d2-       0.0000   -0.0000   -0.0000    0.0000   -0.0000    0.0000    0.0000    0.0000   -0.0000    0.0000
       34 FE2    3d1-      -0.0000   -0.0000   -0.0000   -0.0000    0.0006    0.0003    0.0000    0.0000   -0.0272   -0.0117
       35 FE2    4d1-      -0.0000    0.0000   -0.0000   -0.0000   -0.0001   -0.0000    0.0000    0.0000   -0.0007   -0.0003
       36 FE2    3d0       -0.0000   -0.0001   -0.0000   -0.0002   -0.0000   -0.0000    0.0018    0.0046    0.0000    0.0000
       37 FE2    4d0        0.0000   -0.0001    0.0000   -0.0001    0.0000    0.0000    0.0026    0.0004   -0.0000   -0.0000
       38 FE2    3d1+       0.0000    0.0000    0.0000    0.0000   -0.0003    0.0006   -0.0000   -0.0000    0.0117   -0.0272
       39 FE2    4d1+       0.0000   -0.0000    0.0000    0.0000    0.0000   -0.0001   -0.0000   -0.0000    0.0003   -0.0007
       40 FE2    3d2+       0.0000   -0.0000    0.0000    0.0000   -0.0000   -0.0000    0.0000    0.0000    0.0000    0.0000
       41 FE2    4d2+       0.0000   -0.0000   -0.0000    0.0000    0.0000    0.0000    0.0000    0.0000   -0.0000    0.0000
       42 FE2    4f3-      -0.0000    0.0000   -0.0000    0.0000    0.0000    0.0000    0.0000   -0.0000   -0.0000   -0.0000
       43 FE2    4f2-      -0.0000   -0.0000   -0.0000    0.0000   -0.0000    0.0000    0.0000    0.0000    0.0000   -0.0000
       44 FE2    4f1-      -0.0000   -0.0000   -0.0000   -0.0000    0.0001    0.0000    0.0000   -0.0000    0.0021    0.0009
       45 FE2    4f0        0.0000   -0.0000   -0.0001    0.0002    0.0000    0.0000    0.0002   -0.0097    0.0000    0.0000
       46 FE2    4f1+       0.0000    0.0000    0.0000    0.0000   -0.0000    0.0001   -0.0000    0.0000   -0.0009    0.0021
       47 FE2    4f2+      -0.0000   -0.0000   -0.0000    0.0000    0.0000    0.0000    0.0000    0.0000   -0.0000   -0.0000
       48 FE2    4f3+      -0.0000    0.0000   -0.0000    0.0000   -0.0000    0.0000    0.0000   -0.0000    0.0000   -0.0000
 
          Orbital           11        12        13        14        15        16        17        18        19        20    
          Energy           -1.9378   -0.9194   -0.9194   -0.7909   -0.9391   -0.9391   -0.5765   -0.5765   -0.6971    0.1294
          Occ. No.          1.9945    1.9902    1.9902    1.1043    1.0000    1.0000    1.0000    1.0000    0.8957    0.0098
 
        1 O1     1s         0.0299   -0.0000    0.0000   -0.0029   -0.0000   -0.0000    0.0000    0.0000    0.0026    0.0000
        2 O1     2s         1.0004   -0.0000    0.0000   -0.0552   -0.0000   -0.0000    0.0000    0.0000    0.0161    0.0000
        3 O1     3s        -0.0459    0.0000   -0.0000    0.0035    0.0000    0.0000    0.0000    0.0000    0.0164   -0.0000
        4 O1     2px       -0.0000    0.2700    0.1162   -0.0000   -0.8696    0.3745   -0.0000    0.0000   -0.0000    0.0031
        5 O1     3px        0.0000   -0.0072   -0.0031    0.0000    0.1112   -0.0479    0.0000   -0.0000    0.0000   -0.2181
        6 O1     2py        0.0000    0.1162   -0.2700    0.0000   -0.3745   -0.8696    0.0000   -0.0000    0.0000   -0.0071
        7 O1     3py       -0.0000   -0.0031    0.0072   -0.0000    0.0479    0.1112   -0.0000    0.0000   -0.0000    0.5066
        8 O1     2pz       -0.0287    0.0000   -0.0000   -0.7009   -0.0000   -0.0000   -0.0000   -0.0000   -0.7010   -0.0000
        9 O1     3pz       -0.0086    0.0000   -0.0000    0.0762    0.0000    0.0000   -0.0000   -0.0000    0.0797    0.0000
       10 O1     3d2-      -0.0000   -0.0000   -0.0000    0.0000   -0.0000    0.0000    0.0000    0.0000   -0.0000    0.0000
       11 O1     3d1-      -0.0000   -0.0023    0.0052   -0.0000    0.0027    0.0064   -0.0000    0.0000    0.0000   -0.0344
       12 O1     3d0        0.0042   -0.0000    0.0000    0.0070    0.0000    0.0000   -0.0000   -0.0000    0.0006   -0.0000
       13 O1     3d1+       0.0000   -0.0052   -0.0023    0.0000    0.0064   -0.0027    0.0000   -0.0000   -0.0000    0.0148
       14 O1     3d2+      -0.0000   -0.0000    0.0000    0.0000    0.0000    0.0000   -0.0000    0.0000   -0.0000   -0.0000
       15 FE2    1s        -0.0001    0.0000   -0.0000   -0.0001   -0.0000   -0.0000   -0.0000   -0.0000   -0.0001    0.0000
       16 FE2    2s        -0.0005   -0.0000    0.0000   -0.0007   -0.0000   -0.0000   -0.0000   -0.0000   -0.0006    0.0000
       17 FE2    3s        -0.0073   -0.0000    0.0000   -0.0068   -0.0000   -0.0000   -0.0000   -0.0000   -0.0042    0.0000
       18 FE2    4s        -0.0053   -0.0000    0.0000    0.0258    0.0000    0.0000   -0.0000   -0.0000   -0.0114   -0.0000
       19 FE2    5s        -0.0031    0.0000   -0.0000   -0.0045   -0.0000   -0.0000    0.0000    0.0000    0.0006    0.0000
       20 FE2    2px       -0.0000    0.0015    0.0006    0.0000    0.0000   -0.0000   -0.0000   -0.0000   -0.0000    0.0002
       21 FE2    3px       -0.0000    0.0273    0.0117    0.0000    0.0025   -0.0011   -0.0000   -0.0000   -0.0000    0.0044
       22 FE2    4px       -0.0000    0.0355    0.0153   -0.0000    0.0017   -0.0007    0.0000    0.0000    0.0000   -0.1199
       23 FE2    5px       -0.0000    0.0012    0.0005   -0.0000   -0.0003    0.0001   -0.0000    0.0000   -0.0000   -0.0017
       24 FE2    2py        0.0000    0.0006   -0.0015   -0.0000    0.0000    0.0000    0.0000   -0.0000    0.0000   -0.0004
       25 FE2    3py        0.0000    0.0117   -0.0273   -0.0000    0.0011    0.0025    0.0000   -0.0000    0.0000   -0.0103
       26 FE2    4py        0.0000    0.0153   -0.0355    0.0000    0.0007    0.0017   -0.0000    0.0000   -0.0000    0.2785
       27 FE2    5py        0.0000    0.0005   -0.0012    0.0000   -0.0001   -0.0003   -0.0000    0.0000    0.0000    0.0041
       28 FE2    2pz        0.0001   -0.0000    0.0000   -0.0003   -0.0000   -0.0000   -0.0000   -0.0000   -0.0002    0.0000
       29 FE2    3pz       -0.0026   -0.0000    0.0000   -0.0106   -0.0000   -0.0000   -0.0000   -0.0000   -0.0041    0.0000
       30 FE2    4pz       -0.0047   -0.0000    0.0000    0.0326    0.0000    0.0000   -0.0000   -0.0000   -0.0201   -0.0000
       31 FE2    5pz       -0.0020   -0.0000    0.0000    0.0009   -0.0000   -0.0000    0.0000    0.0000   -0.0008   -0.0000
       32 FE2    3d2-       0.0000   -0.0000   -0.0000    0.0000    0.0000    0.0000    0.8688    0.4946   -0.0000   -0.0000
       33 FE2    4d2-      -0.0000   -0.0000   -0.0000   -0.0000    0.0000   -0.0000   -0.0210   -0.0119    0.0000    0.0000
       34 FE2    3d1-       0.0000    0.3738   -0.8683    0.0000    0.1236    0.2869   -0.0000    0.0000   -0.0000   -0.0913
       35 FE2    4d1-       0.0000    0.0164   -0.0380    0.0000   -0.0006   -0.0014    0.0000   -0.0000    0.0000    0.5549
       36 FE2    3d0        0.0042   -0.0000    0.0000    0.6765   -0.0000   -0.0000   -0.0000   -0.0000   -0.7381    0.0000
       37 FE2    4d0       -0.0014   -0.0000    0.0000    0.0013    0.0000    0.0000   -0.0000   -0.0000    0.0063   -0.0000
       38 FE2    3d1+      -0.0000    0.8683    0.3738   -0.0000    0.2869   -0.1236    0.0000    0.0000    0.0000    0.0393
       39 FE2    4d1+      -0.0000    0.0380    0.0164   -0.0000   -0.0014    0.0006    0.0000   -0.0000   -0.0000   -0.2389
       40 FE2    3d2+      -0.0000   -0.0000    0.0000    0.0000   -0.0000   -0.0000   -0.4946    0.8688   -0.0000    0.0000
       41 FE2    4d2+      -0.0000   -0.0000    0.0000   -0.0000    0.0000    0.0000    0.0119   -0.0210    0.0000   -0.0000
       42 FE2    4f3-      -0.0000   -0.0000    0.0000   -0.0000    0.0000    0.0000   -0.0000    0.0000   -0.0000    0.0000
       43 FE2    4f2-      -0.0000   -0.0000   -0.0000   -0.0000    0.0000    0.0000    0.0015    0.0009    0.0000    0.0000
       44 FE2    4f1-       0.0000    0.0013   -0.0029    0.0000    0.0002    0.0004   -0.0000    0.0000   -0.0000    0.0129
       45 FE2    4f0        0.0001   -0.0000    0.0000    0.0025    0.0000    0.0000   -0.0000   -0.0000   -0.0016    0.0000
       46 FE2    4f1+      -0.0000    0.0029    0.0013   -0.0000    0.0004   -0.0002   -0.0000    0.0000    0.0000   -0.0056
       47 FE2    4f2+      -0.0000   -0.0000    0.0000   -0.0000   -0.0000   -0.0000   -0.0009    0.0015    0.0000   -0.0000
       48 FE2    4f3+      -0.0000   -0.0000   -0.0000   -0.0000    0.0000   -0.0000   -0.0000   -0.0000   -0.0000   -0.0000
 
          Orbital           21        22        23        24        25        26        27        28        29        30    
          Energy            0.1294    1.3920    3.0599    3.0599    2.9350    0.3183    2.0648    2.0648    1.9479    0.8943
          Occ. No.          0.0098    0.0055    0.0002    0.0002    0.0002    0.0000    0.0000    0.0000    0.0000    0.0000
 
        1 O1     1s         0.0000    0.0004   -0.0000   -0.0000   -0.0007    0.0168   -0.0000   -0.0000   -0.0293    0.0356
        2 O1     2s         0.0000    0.0126    0.0000    0.0000    0.0015    0.1412   -0.0000   -0.0000   -0.2842    0.3985
        3 O1     3s        -0.0000    0.2484    0.0000    0.0000    0.0015    0.0724   -0.0000   -0.0000   -0.3899    0.8800
        4 O1     2px       -0.0071    0.0000   -0.0248    0.0107   -0.0000   -0.0000    0.0234   -0.0542   -0.0000   -0.0000
        5 O1     3px        0.5066   -0.0000   -0.1156    0.0497    0.0000   -0.0000    0.0598   -0.1384   -0.0000    0.0000
        6 O1     2py       -0.0031   -0.0000   -0.0107   -0.0248    0.0000    0.0000   -0.0542   -0.0234    0.0000    0.0000
        7 O1     3py        0.2181    0.0000   -0.0497   -0.1156   -0.0000    0.0000   -0.1384   -0.0598    0.0000   -0.0000
        8 O1     2pz       -0.0000   -0.0001   -0.0000   -0.0000   -0.0230   -0.0161   -0.0000   -0.0000    0.1329   -0.3088
        9 O1     3pz        0.0000   -0.0745   -0.0000   -0.0000   -0.0293    0.1209   -0.0000   -0.0000    0.1604   -0.4126
       10 O1     3d2-      -0.0000   -0.0000   -0.0000    0.0000    0.0000   -0.0000    0.0000   -0.0000   -0.0000    0.0000
       11 O1     3d1-      -0.0148   -0.0000    0.0014    0.0034   -0.0000   -0.0000   -0.0005   -0.0002   -0.0000    0.0000
       12 O1     3d0       -0.0000    0.9698    0.0000    0.0000    0.0257    0.0245    0.0000    0.0000   -0.0182    0.0839
       13 O1     3d1+      -0.0344    0.0000    0.0034   -0.0014    0.0000    0.0000    0.0002   -0.0005    0.0000   -0.0000
       14 O1     3d2+      -0.0000   -0.0000   -0.0000   -0.0000    0.0000   -0.0000   -0.0000   -0.0000   -0.0000    0.0000
       15 FE2    1s         0.0000   -0.0005   -0.0000   -0.0000   -0.0001    0.0003   -0.0000   -0.0000    0.0007   -0.0016
       16 FE2    2s         0.0000   -0.0038   -0.0000   -0.0000   -0.0007    0.0020   -0.0000   -0.0000    0.0048   -0.0118
       17 FE2    3s         0.0000   -0.0225   -0.0000   -0.0000   -0.0029    0.0063   -0.0000   -0.0000    0.0252   -0.0591
       18 FE2    4s        -0.0000   -0.0162    0.0000    0.0000   -0.0812    0.4509    0.0000    0.0000    0.3155   -0.7566
       19 FE2    5s         0.0000    0.0025   -0.0000   -0.0000    0.0277   -0.4702    0.0000    0.0000    0.0436    0.0790
       20 FE2    2px       -0.0004    0.0000   -0.0001    0.0001   -0.0000    0.0000   -0.0000    0.0001    0.0000   -0.0000
       21 FE2    3px       -0.0103    0.0000   -0.0019    0.0008   -0.0000    0.0000   -0.0025    0.0058    0.0000   -0.0000
       22 FE2    4px        0.2785   -0.0000    0.2685   -0.1155    0.0000   -0.0000    0.0280   -0.0649    0.0000    0.0000
       23 FE2    5px        0.0041   -0.0000   -0.3130    0.1347   -0.0000   -0.0000   -0.3683    0.8528    0.0000    0.0000
       24 FE2    2py       -0.0002   -0.0000   -0.0001   -0.0001    0.0000   -0.0000    0.0001    0.0000   -0.0000    0.0000
       25 FE2    3py       -0.0044   -0.0000   -0.0008   -0.0019    0.0000   -0.0000    0.0058    0.0025   -0.0000    0.0000
       26 FE2    4py        0.1199    0.0000    0.1155    0.2685   -0.0000    0.0000   -0.0649   -0.0280   -0.0000   -0.0000
       27 FE2    5py        0.0017    0.0000   -0.1347   -0.3130    0.0000    0.0000    0.8528    0.3683   -0.0000   -0.0000
       28 FE2    2pz        0.0000   -0.0009    0.0000    0.0000    0.0004    0.0002   -0.0000   -0.0000    0.0009   -0.0023
       29 FE2    3pz        0.0000   -0.0224    0.0000    0.0000    0.0103    0.0036    0.0000    0.0000    0.0227   -0.0466
       30 FE2    4pz       -0.0000   -0.0047   -0.0000   -0.0000   -0.3652   -0.0132   -0.0000   -0.0000    0.2867   -0.8889
       31 FE2    5pz       -0.0000   -0.0007    0.0000    0.0000    0.3062   -0.0325    0.0000    0.0000    1.0023    0.0280
       32 FE2    3d2-       0.0000    0.0000   -0.0000   -0.0000   -0.0000   -0.0000   -0.0000    0.0000    0.0000   -0.0000
       33 FE2    4d2-      -0.0000   -0.0000   -0.0000   -0.0000   -0.0000   -0.0000    0.0000   -0.0000    0.0000    0.0000
       34 FE2    3d1-      -0.0393   -0.0000    0.0004    0.0010    0.0000   -0.0000    0.0093    0.0040   -0.0000    0.0000
       35 FE2    4d1-       0.2389    0.0000   -0.0152   -0.0354   -0.0000   -0.0000    0.0714    0.0309    0.0000   -0.0000
       36 FE2    3d0        0.0000   -0.0600    0.0000    0.0000    0.0085   -0.0212    0.0000    0.0000    0.0422   -0.0759
       37 FE2    4d0       -0.0000    0.0048    0.0000    0.0000    0.0713   -0.7818    0.0000    0.0000    0.1524   -0.6056
       38 FE2    3d1+      -0.0913    0.0000    0.0010   -0.0004   -0.0000    0.0000   -0.0040    0.0093    0.0000   -0.0000
       39 FE2    4d1+       0.5549   -0.0000   -0.0354    0.0152    0.0000    0.0000   -0.0309    0.0714   -0.0000    0.0000
       40 FE2    3d2+       0.0000    0.0000    0.0000    0.0000   -0.0000   -0.0000   -0.0000    0.0000    0.0000   -0.0000
       41 FE2    4d2+      -0.0000   -0.0000    0.0000    0.0000   -0.0000   -0.0000   -0.0000   -0.0000    0.0000    0.0000
       42 FE2    4f3-       0.0000   -0.0000    0.0000    0.0000    0.0000    0.0000    0.0000    0.0000   -0.0000   -0.0000
       43 FE2    4f2-      -0.0000   -0.0000   -0.0000    0.0000   -0.0000   -0.0000    0.0000   -0.0000    0.0000    0.0000
       44 FE2    4f1-       0.0056    0.0000    0.3514    0.8168   -0.0000   -0.0000    0.3579    0.1546   -0.0000   -0.0000
       45 FE2    4f0        0.0000   -0.0024    0.0000    0.0000    0.8756    0.1144   -0.0000   -0.0000   -0.2609   -0.2912
       46 FE2    4f1+       0.0129   -0.0000    0.8168   -0.3514    0.0000    0.0000   -0.1546    0.3579    0.0000    0.0000
       47 FE2    4f2+      -0.0000   -0.0000   -0.0000   -0.0000   -0.0000   -0.0000   -0.0000   -0.0000    0.0000    0.0000
       48 FE2    4f3+       0.0000   -0.0000    0.0000   -0.0000    0.0000    0.0000   -0.0000    0.0000   -0.0000   -0.0000
 
          Orbital           31        32        33        34        35        36        37        38        39        40    
          Energy            0.1621   -0.2390    0.0784    0.0756    0.2030    0.2509    0.4966    0.4936    0.5867    0.6028
          Occ. No.          0.0000    0.0000    0.0000    0.0000    0.0000    0.0000    0.0000    0.0000    0.0000    0.0000
 
        1 O1     1s         0.0129    0.0122   -0.0000   -0.0000    0.0048    0.0146    0.0000    0.0000   -0.0000    0.0000
        2 O1     2s         0.1322    0.1007   -0.0000   -0.0000    0.0561    0.1211    0.0000    0.0000   -0.0000    0.0000
        3 O1     3s         0.4555   -0.1979   -0.0000   -0.0003    0.3503   -0.4891   -0.0000    0.0000   -0.0000   -0.0000
        4 O1     2px        0.0000   -0.0000   -0.0216   -0.0553   -0.0000    0.0000   -0.1638    0.0706   -0.0004    0.0003
        5 O1     3px        0.0000    0.0000   -0.0865   -0.2256   -0.0002    0.0000   -0.7902    0.3402   -0.0020    0.0008
        6 O1     2py       -0.0000    0.0000    0.0504   -0.0238   -0.0000    0.0000   -0.0700   -0.1653    0.0026    0.0007
        7 O1     3py       -0.0000   -0.0000    0.2017   -0.0970   -0.0000    0.0000   -0.3376   -0.7962    0.0123    0.0031
        8 O1     2pz       -0.0157    0.0019    0.0000    0.0001   -0.1099   -0.2050   -0.0000   -0.0000    0.0000   -0.0000
        9 O1     3pz       -0.2389    0.2102    0.0000    0.0006   -0.8480   -0.7302    0.0000   -0.0000    0.0000    0.0000
       10 O1     3d2-       0.0000   -0.0000    0.0000   -0.0000    0.0000   -0.0000   -0.0016   -0.0010   -0.0685    0.0025
       11 O1     3d1-       0.0000   -0.0000   -0.0094    0.0035    0.0001   -0.0000   -0.0207   -0.0527   -0.0006   -0.0192
       12 O1     3d0       -0.1243    0.0936    0.0000    0.0001   -0.1096    0.2158    0.0000   -0.0000    0.0000    0.0000
       13 O1     3d1+      -0.0000   -0.0000    0.0040    0.0081   -0.0000    0.0000   -0.0471    0.0241   -0.0041   -0.0322
       14 O1     3d2+       0.0000   -0.0000   -0.0000    0.0001    0.0000   -0.0000   -0.0002    0.0003   -0.0238   -0.0676
       15 FE2    1s        -0.0008    0.0006    0.0000    0.0000   -0.0024   -0.0018    0.0000   -0.0000    0.0000    0.0000
       16 FE2    2s        -0.0060    0.0044    0.0000    0.0000   -0.0172   -0.0131    0.0000   -0.0000    0.0000    0.0000
       17 FE2    3s        -0.0357    0.0244    0.0000    0.0001   -0.0867   -0.0638    0.0000   -0.0000    0.0000    0.0000
       18 FE2    4s         0.0936   -0.6420    0.0000    0.0003   -0.4718   -0.1758    0.0000   -0.0000    0.0000    0.0000
       19 FE2    5s        -0.7009   -0.5845    0.0000    0.0000   -0.0650    0.0787    0.0000    0.0000    0.0000    0.0000
       20 FE2    2px       -0.0000    0.0000    0.0001    0.0002    0.0000   -0.0000    0.0007   -0.0003    0.0000   -0.0000
       21 FE2    3px       -0.0000   -0.0000    0.0014    0.0037    0.0000   -0.0000    0.0139   -0.0060    0.0000   -0.0001
       22 FE2    4px       -0.0000    0.0000    0.3582    0.8403    0.0006   -0.0000    0.2109   -0.1006    0.0004   -0.0022
       23 FE2    5px        0.0000   -0.0000    0.0875    0.2045    0.0001   -0.0000    0.0275   -0.0143   -0.0000   -0.0009
       24 FE2    2py        0.0000   -0.0000   -0.0002    0.0001    0.0000   -0.0000    0.0003    0.0007   -0.0000   -0.0000
       25 FE2    3py        0.0000    0.0000   -0.0033    0.0016    0.0000   -0.0000    0.0060    0.0140   -0.0002   -0.0001
       26 FE2    4py        0.0000   -0.0000   -0.8336    0.3612    0.0002   -0.0000    0.0899    0.2356   -0.0037   -0.0021
       27 FE2    5py       -0.0000   -0.0000   -0.2036    0.0879    0.0001   -0.0000    0.0117    0.0335   -0.0005   -0.0007
       28 FE2    2pz       -0.0010    0.0007    0.0000    0.0000   -0.0026   -0.0020    0.0000   -0.0000    0.0000    0.0000
       29 FE2    3pz       -0.0231    0.0147    0.0000    0.0000   -0.0555   -0.0358    0.0000   -0.0000    0.0000    0.0000
       30 FE2    4pz       -0.4730    0.1890   -0.0000   -0.0002    0.2720   -0.5530   -0.0000    0.0000   -0.0000   -0.0000
       31 FE2    5pz       -0.0634    0.0553   -0.0000   -0.0000    0.0486   -0.0639   -0.0000    0.0000   -0.0000   -0.0000
       32 FE2    3d2-       0.0000   -0.0000   -0.0000    0.0000   -0.0000    0.0000   -0.0001   -0.0003   -0.0232   -0.0051
[...]
      *** Default values:   7
 
      Header of the integral files:
      
       Integrals generated by seward 4.2.0  , Tue Dec 24 06:22:11 2024
 
 
      Header of MO coefficients source file:
      * RASSCF average (pseudo-natural) orbitals                                      
 
 
      Cartesian coordinates in Angstrom:
      -----------------------------------------------------
      No.  Label        X            Y            Z        
      -----------------------------------------------------
       1   O1         0.00000000   0.00000000   2.17455000
       2   FE2        0.00000000   0.00000000  -0.57455000
      -----------------------------------------------------
      Nuclear repulsion energy =   40.03814333
 
      Orbital specifications:
      -----------------------
 
      Symmetry species:              1
      Number of basis functions:    48
      Frozen orbitals:               0
      Deleted orbitals:              0
      Number of orbitals used:      48

       SYMMETRY  BASIS FUNCTIONS       ORBITALS      INTEGRALS   CPU(SEC)  I/O(SEC)
 
        1 1 1 1   48  48  48  48    48  48  48  48      692076       0.00      0.00

       TOTAL CPU TIME(SEC)    0.37TOTAL I/O TIME(SEC)    0.86
 
--- Stop Module: motra at Tue Dec 24 06:23:50 2024 /rc=_RC_ALL_IS_WELL_ ---
*** files: xmldump
    saved to directory /home/grierjones/DDCASPT2/iron_oxo_DDCASPT2/cluster/2.75

>>> COPY /tmp/2.75/GMJ_one_int_indx.csv /home/grierjones/DDCASPT2/iron_oxo_DDCASPT2/cluster/2.75/2.75.GMJ_one_int_indx.csv

>>> COPY /tmp/2.75/GMJ_one_int.csv /home/grierjones/DDCASPT2/iron_oxo_DDCASPT2/cluster/2.75/2.75.GMJ_one_int.csv

>>> COPY /tmp/2.75/GMJ_two_int_indx.csv /home/grierjones/DDCASPT2/iron_oxo_DDCASPT2/cluster/2.75/2.75.GMJ_two_int_indx.csv

>>> COPY /tmp/2.75/GMJ_two_int.csv /home/grierjones/DDCASPT2/iron_oxo_DDCASPT2/cluster/2.75/2.75.GMJ_two_int.csv

*** symbolic link created: INPORB -> 2.75.RasOrb
--- Start Module: caspt2 at Tue Dec 24 06:23:50 2024 ---
 
()()()()()()()()()()()()()()()()()()()()()()()()()()()()()()()()()()()()()()()()()()()()()()()()()()

                                              &CASPT2

                                   only a single process is used
                       available to each process: 2.0 GB of memory, 1 thread?
()()()()()()()()()()()()()()()()()()()()()()()()()()()()()()()()()()()()()()()()()()()()()()()()()()
 
 Cholesky algorithm in CASPT2 =    1
 
 ###############################################################################
 ###############################################################################
 ###                                                                         ###
 ###                                                                         ###
 ###    User changed nr of frozen orbitals.                                  ###
 ###                                                                         ###
 ###                                                                         ###
 ###############################################################################
 ###############################################################################
 
++    Wave function specifications:
      -----------------------------
 
      Number of closed shell electrons          22
      Number of electrons in active shells      10
      Max number of holes in RAS1 space          0
      Max number of electrons in RAS3 space      0
      Number of inactive orbitals               11
      Number of active orbitals                 14
      Number of secondary orbitals              23
      Spin quantum number                      2.0
      State symmetry                             1
      Number of CSFs                        975975
      Number of root(s) available                1
      Root passed to geometry opt.               1
      A file JOBMIX will be created.
      This is a CASSCF or RASSCF reference function
--
 
++    Orbital specifications:
      -----------------------
 
      Symmetry species                           1
                                                 a
      Frozen orbitals                            0
      Inactive orbitals                         11
      Active orbitals                           14
      Secondary orbitals                        23
      Deleted orbitals                           0
      Number of basis functions                 48
--
 
      Type of Fock operator: STANDARD
      Type of 0-order Hamiltonian: STANDARD WITH DEFAULT IPEA
        "IP-EA" denominator shift =      0.25
      The input orbitals and the CI vector will be transformed.
 
--------------------------------------------------------------------------------
 Estimated memory requirements:
  POLY3 :                227658189
  RHS:                     4146972
  SIGMA :                   646704
  PRPCTL:                        0
 Available workspace:    229020647
 
++ CASPT2 computation for group   1
 
********************************************************************************
 Multi-State initialization phase begins for group   1
--------------------------------------------------------------------------------
********************************************************************************
 Compute H0 matrices for state    1
--------------------------------------------------------------------------------
--------------------------------------------------------------------------------
 H0 matrices have been computed.
 
********************************************************************************
  CASPT2 EQUATION SOLUTION
--------------------------------------------------------------------------------
 
  Total nr of CASPT2 parameters:
   Before reduction:      408969
   After  reduction:      408969
 
 The contributions to the second order correlation energy in atomic units.
-----------------------------------------------------------------------------------------------------------------------------
  IT.      VJTU        VJTI        ATVX        AIVX        VJAI        BVAT        BJAT        BJAI        TOTAL       RNORM  
-----------------------------------------------------------------------------------------------------------------------------
   1    -0.003300   -0.029670   -0.014886   -0.180219   -0.017398   -0.077833   -0.018124   -0.043816   -0.385245    0.014701
   2    -0.003327   -0.029696   -0.015252   -0.180593   -0.017445   -0.077979   -0.018261   -0.043884   -0.386435    0.003618
   3    -0.003327   -0.029700   -0.015338   -0.180693   -0.017442   -0.077976   -0.018276   -0.043889   -0.386641    0.000954
   4    -0.003325   -0.029700   -0.015335   -0.180676   -0.017439   -0.077959   -0.018267   -0.043885   -0.386587    0.000257
   5    -0.003325   -0.029699   -0.015332   -0.180668   -0.017439   -0.077959   -0.018266   -0.043884   -0.386573    0.000063
   6    -0.003325   -0.029700   -0.015332   -0.180670   -0.017439   -0.077960   -0.018266   -0.043885   -0.386577    0.000015
   7    -0.003325   -0.029700   -0.015331   -0.180671   -0.017439   -0.077961   -0.018266   -0.043885   -0.386578    0.000004
-------------------------------------------------------------------------------------------------------------------
 
  FINAL CASPT2 RESULT:
 
  Correlation energy /Case, /Symm, and sums:
 VJTU     -0.00332540 -0.00332540
 VJTIP    -0.01013260 -0.01013260
 VJTIM    -0.01956701 -0.01956701
 ATVX     -0.01533149 -0.01533149
 AIVX     -0.18067062 -0.18067062
 VJAIP    -0.01386812 -0.01386812
 VJAIM    -0.00357052 -0.00357052
 BVATP    -0.02193794 -0.02193794
 BVATM    -0.05602269 -0.05602269
 BJATP    -0.01131684 -0.01131684
 BJATM    -0.00694958 -0.00694958
 BJAIP    -0.02952707 -0.02952707
 BJAIM    -0.01435772 -0.01435772
 Summed:  -0.38657760 -0.38657760
 
      Reference energy:       -1345.4821542964
      E2 (Non-variational):      -0.3865776014
      E2 (Variational):          -0.3865775820
      Total energy:           -1345.8687318784
      Residual norm:              0.0000009160
      Reference weight:           0.93741
 
      Contributions to the CASPT2 correlation energy
      Active & Virtual Only:         -0.0932921132
      One Inactive Excited:          -0.2022624356
      Two Inactive Excited:          -0.0910230526
 
 
++ Denominators, etc.
----------------------------------------------------------------------------------------------------
 Report on small energy denominators, large coefficients, and large energy contributions.
CASE  SYMM ACTIVE-MIX  NON-ACTIVE INDICES          DENOMINATOR     RHS VALUE       COEFFICIENT     CONTRIBUTION
ATVX     1  Mu1.0001  Se1.026                       0.18924117      0.00000000     -0.00000000     -0.00000000
ATVX     1  Mu1.0002  Se1.026                       0.18924117      0.00000000     -0.00000000     -0.00000000
ATVX     1  Mu1.0003  Se1.026                       0.26807858     -0.00000000      0.00000000     -0.00000000
ATVX     1  Mu1.0004  Se1.026                       0.28550575     -0.00000034      0.00000126     -0.00000000
ATVX     1  Mu1.0005  Se1.026                       0.29199989     -0.00000000      0.00000000     -0.00000000
ATVX     1  Mu1.0006  Se1.026                       0.29199989      0.00000000     -0.00000000     -0.00000000
ATVX     1  Mu1.0001  Se1.027                       0.26466631      0.00000899     -0.00001202     -0.00000000
ATVX     1  Mu1.0002  Se1.027                       0.26466632     -0.00082444      0.00116720     -0.00000096
ATVX     1  Mu1.0001  Se1.028                       0.26466631     -0.00082444      0.00116720     -0.00000096
ATVX     1  Mu1.0002  Se1.028                       0.26466632     -0.00000899      0.00001202     -0.00000000
ATVX     1  Mu1.0220  Se1.031                       1.90206408      0.07212382     -0.03668929     -0.00264617
ATVX     1  Mu1.0221  Se1.032                       1.90206408      0.07212382     -0.03668929     -0.00264617
AIVX     1  Mu1.0090  In1.011 Se1.033               3.25293427      0.08836884     -0.02654614     -0.00234585
AIVX     1  Mu1.0091  In1.011 Se1.033               3.26829692      0.09942233     -0.03069048     -0.00305132
AIVX     1  Mu1.0031  In1.011 Se1.036               3.57180054      0.10984630     -0.03029209     -0.00332747
AIVX     1  Mu1.0055  In1.011 Se1.036               3.80565860      0.10908131     -0.02824045     -0.00308050
AIVX     1  Mu1.0031  In1.011 Se1.037               3.57185572      0.11698449     -0.03226019     -0.00377394
AIVX     1  Mu1.0055  In1.011 Se1.037               3.80571378     -0.10233118      0.02649059     -0.00271081
AIVX     1  Mu1.0034  In1.011 Se1.041               3.67313012      0.10522455     -0.02830910     -0.00297881
BVATM    1  Mu1.0001  Se1.032 Se1.031               2.18156159     -0.06474248      0.03016411     -0.00195290
BVATM    1  Mu1.0001  Se1.037 Se1.036               5.02144005     -0.12578321      0.02505284     -0.00315123
--
 
   (Skipping property calculation,
    use PROP keyword to activate)
--
 
  Total CASPT2 energies:
::    CASPT2 Root  1     Total energy:  -1345.86873188
 
  A NEW JOBIPH FILE NAMED 'JOBMIX' IS PREPARED.
********************************************************************************
--- Stop Module: caspt2 at Tue Dec 24 06:29:21 2024 /rc=_RC_ALL_IS_WELL_ ---
*** files: xmldump
    saved to directory /home/grierjones/DDCASPT2/iron_oxo_DDCASPT2/cluster/2.75
--- Module caspt2 spent 5 minutes 30 seconds ---

>>> EXPORT i = B

>>> EXPORT j = P

>>> IF (-FILE GMJ_e2_${i}_${j}.csv)

>>> COPY /tmp/2.75/GMJ_RHS_B_P.csv /home/grierjones/DDCASPT2/iron_oxo_DDCASPT2/cluster/2.75/GMJ_RHS_B_P.csv

>>> COPY /tmp/2.75/GMJ_IVECW_B_P.csv /home/grierjones/DDCASPT2/iron_oxo_DDCASPT2/cluster/2.75/GMJ_IVECW_B_P.csv

>>> COPY /tmp/2.75/GMJ_IVECX_B_P.csv /home/grierjones/DDCASPT2/iron_oxo_DDCASPT2/cluster/2.75/GMJ_IVECX_B_P.csv

>>> COPY /tmp/2.75/GMJ_IVECC2_B_P.csv /home/grierjones/DDCASPT2/iron_oxo_DDCASPT2/cluster/2.75/GMJ_IVECC2_B_P.csv

>>> COPY /tmp/2.75/GMJ_e2_B_P.csv /home/grierjones/DDCASPT2/iron_oxo_DDCASPT2/cluster/2.75/GMJ_e2_B_P.csv

>>> END FOREACH

>>> EXPORT j = M

>>> IF (-FILE GMJ_e2_${i}_${j}.csv)

>>> COPY /tmp/2.75/GMJ_RHS_B_M.csv /home/grierjones/DDCASPT2/iron_oxo_DDCASPT2/cluster/2.75/GMJ_RHS_B_M.csv

>>> COPY /tmp/2.75/GMJ_IVECW_B_M.csv /home/grierjones/DDCASPT2/iron_oxo_DDCASPT2/cluster/2.75/GMJ_IVECW_B_M.csv

>>> COPY /tmp/2.75/GMJ_IVECX_B_M.csv /home/grierjones/DDCASPT2/iron_oxo_DDCASPT2/cluster/2.75/GMJ_IVECX_B_M.csv

>>> COPY /tmp/2.75/GMJ_IVECC2_B_M.csv /home/grierjones/DDCASPT2/iron_oxo_DDCASPT2/cluster/2.75/GMJ_IVECC2_B_M.csv

>>> COPY /tmp/2.75/GMJ_e2_B_M.csv /home/grierjones/DDCASPT2/iron_oxo_DDCASPT2/cluster/2.75/GMJ_e2_B_M.csv

>>> END FOREACH

>>> END FOREACH

>>> EXPORT i = E

>>> EXPORT j = P

>>> IF (-FILE GMJ_e2_${i}_${j}.csv)

>>> COPY /tmp/2.75/GMJ_RHS_E_P.csv /home/grierjones/DDCASPT2/iron_oxo_DDCASPT2/cluster/2.75/GMJ_RHS_E_P.csv

>>> COPY /tmp/2.75/GMJ_IVECW_E_P.csv /home/grierjones/DDCASPT2/iron_oxo_DDCASPT2/cluster/2.75/GMJ_IVECW_E_P.csv

>>> COPY /tmp/2.75/GMJ_IVECX_E_P.csv /home/grierjones/DDCASPT2/iron_oxo_DDCASPT2/cluster/2.75/GMJ_IVECX_E_P.csv

>>> COPY /tmp/2.75/GMJ_IVECC2_E_P.csv /home/grierjones/DDCASPT2/iron_oxo_DDCASPT2/cluster/2.75/GMJ_IVECC2_E_P.csv

>>> COPY /tmp/2.75/GMJ_e2_E_P.csv /home/grierjones/DDCASPT2/iron_oxo_DDCASPT2/cluster/2.75/GMJ_e2_E_P.csv

>>> END FOREACH

>>> EXPORT j = M

>>> IF (-FILE GMJ_e2_${i}_${j}.csv)

>>> COPY /tmp/2.75/GMJ_RHS_E_M.csv /home/grierjones/DDCASPT2/iron_oxo_DDCASPT2/cluster/2.75/GMJ_RHS_E_M.csv

>>> COPY /tmp/2.75/GMJ_IVECW_E_M.csv /home/grierjones/DDCASPT2/iron_oxo_DDCASPT2/cluster/2.75/GMJ_IVECW_E_M.csv

>>> COPY /tmp/2.75/GMJ_IVECX_E_M.csv /home/grierjones/DDCASPT2/iron_oxo_DDCASPT2/cluster/2.75/GMJ_IVECX_E_M.csv

>>> COPY /tmp/2.75/GMJ_IVECC2_E_M.csv /home/grierjones/DDCASPT2/iron_oxo_DDCASPT2/cluster/2.75/GMJ_IVECC2_E_M.csv

>>> COPY /tmp/2.75/GMJ_e2_E_M.csv /home/grierjones/DDCASPT2/iron_oxo_DDCASPT2/cluster/2.75/GMJ_e2_E_M.csv

>>> END FOREACH

>>> END FOREACH

>>> EXPORT i = F

>>> EXPORT j = P

>>> IF (-FILE GMJ_e2_${i}_${j}.csv)

>>> COPY /tmp/2.75/GMJ_RHS_F_P.csv /home/grierjones/DDCASPT2/iron_oxo_DDCASPT2/cluster/2.75/GMJ_RHS_F_P.csv

>>> COPY /tmp/2.75/GMJ_IVECW_F_P.csv /home/grierjones/DDCASPT2/iron_oxo_DDCASPT2/cluster/2.75/GMJ_IVECW_F_P.csv

>>> COPY /tmp/2.75/GMJ_IVECX_F_P.csv /home/grierjones/DDCASPT2/iron_oxo_DDCASPT2/cluster/2.75/GMJ_IVECX_F_P.csv

>>> COPY /tmp/2.75/GMJ_IVECC2_F_P.csv /home/grierjones/DDCASPT2/iron_oxo_DDCASPT2/cluster/2.75/GMJ_IVECC2_F_P.csv

>>> COPY /tmp/2.75/GMJ_e2_F_P.csv /home/grierjones/DDCASPT2/iron_oxo_DDCASPT2/cluster/2.75/GMJ_e2_F_P.csv

>>> END FOREACH

>>> EXPORT j = M

>>> IF (-FILE GMJ_e2_${i}_${j}.csv)

>>> COPY /tmp/2.75/GMJ_RHS_F_M.csv /home/grierjones/DDCASPT2/iron_oxo_DDCASPT2/cluster/2.75/GMJ_RHS_F_M.csv

>>> COPY /tmp/2.75/GMJ_IVECW_F_M.csv /home/grierjones/DDCASPT2/iron_oxo_DDCASPT2/cluster/2.75/GMJ_IVECW_F_M.csv

>>> COPY /tmp/2.75/GMJ_IVECX_F_M.csv /home/grierjones/DDCASPT2/iron_oxo_DDCASPT2/cluster/2.75/GMJ_IVECX_F_M.csv

>>> COPY /tmp/2.75/GMJ_IVECC2_F_M.csv /home/grierjones/DDCASPT2/iron_oxo_DDCASPT2/cluster/2.75/GMJ_IVECC2_F_M.csv

>>> COPY /tmp/2.75/GMJ_e2_F_M.csv /home/grierjones/DDCASPT2/iron_oxo_DDCASPT2/cluster/2.75/GMJ_e2_F_M.csv

>>> END FOREACH

>>> END FOREACH

>>> EXPORT i = G

>>> EXPORT j = P

>>> IF (-FILE GMJ_e2_${i}_${j}.csv)

>>> COPY /tmp/2.75/GMJ_RHS_G_P.csv /home/grierjones/DDCASPT2/iron_oxo_DDCASPT2/cluster/2.75/GMJ_RHS_G_P.csv

>>> COPY /tmp/2.75/GMJ_IVECW_G_P.csv /home/grierjones/DDCASPT2/iron_oxo_DDCASPT2/cluster/2.75/GMJ_IVECW_G_P.csv

>>> COPY /tmp/2.75/GMJ_IVECX_G_P.csv /home/grierjones/DDCASPT2/iron_oxo_DDCASPT2/cluster/2.75/GMJ_IVECX_G_P.csv

>>> COPY /tmp/2.75/GMJ_IVECC2_G_P.csv /home/grierjones/DDCASPT2/iron_oxo_DDCASPT2/cluster/2.75/GMJ_IVECC2_G_P.csv

>>> COPY /tmp/2.75/GMJ_e2_G_P.csv /home/grierjones/DDCASPT2/iron_oxo_DDCASPT2/cluster/2.75/GMJ_e2_G_P.csv

>>> END FOREACH

>>> EXPORT j = M

>>> IF (-FILE GMJ_e2_${i}_${j}.csv)

>>> COPY /tmp/2.75/GMJ_RHS_G_M.csv /home/grierjones/DDCASPT2/iron_oxo_DDCASPT2/cluster/2.75/GMJ_RHS_G_M.csv

>>> COPY /tmp/2.75/GMJ_IVECW_G_M.csv /home/grierjones/DDCASPT2/iron_oxo_DDCASPT2/cluster/2.75/GMJ_IVECW_G_M.csv

>>> COPY /tmp/2.75/GMJ_IVECX_G_M.csv /home/grierjones/DDCASPT2/iron_oxo_DDCASPT2/cluster/2.75/GMJ_IVECX_G_M.csv

>>> COPY /tmp/2.75/GMJ_IVECC2_G_M.csv /home/grierjones/DDCASPT2/iron_oxo_DDCASPT2/cluster/2.75/GMJ_IVECC2_G_M.csv

>>> COPY /tmp/2.75/GMJ_e2_G_M.csv /home/grierjones/DDCASPT2/iron_oxo_DDCASPT2/cluster/2.75/GMJ_e2_G_M.csv

>>> END FOREACH

>>> END FOREACH

>>> EXPORT i = H

>>> EXPORT j = P

>>> IF (-FILE GMJ_e2_${i}_${j}.csv)

>>> COPY /tmp/2.75/GMJ_RHS_H_P.csv /home/grierjones/DDCASPT2/iron_oxo_DDCASPT2/cluster/2.75/GMJ_RHS_H_P.csv

>>> COPY /tmp/2.75/GMJ_IVECW_H_P.csv /home/grierjones/DDCASPT2/iron_oxo_DDCASPT2/cluster/2.75/GMJ_IVECW_H_P.csv

>>> COPY /tmp/2.75/GMJ_IVECX_H_P.csv /home/grierjones/DDCASPT2/iron_oxo_DDCASPT2/cluster/2.75/GMJ_IVECX_H_P.csv

>>> COPY /tmp/2.75/GMJ_IVECC2_H_P.csv /home/grierjones/DDCASPT2/iron_oxo_DDCASPT2/cluster/2.75/GMJ_IVECC2_H_P.csv

>>> COPY /tmp/2.75/GMJ_e2_H_P.csv /home/grierjones/DDCASPT2/iron_oxo_DDCASPT2/cluster/2.75/GMJ_e2_H_P.csv

>>> END FOREACH

>>> EXPORT j = M

>>> IF (-FILE GMJ_e2_${i}_${j}.csv)

>>> COPY /tmp/2.75/GMJ_RHS_H_M.csv /home/grierjones/DDCASPT2/iron_oxo_DDCASPT2/cluster/2.75/GMJ_RHS_H_M.csv

>>> COPY /tmp/2.75/GMJ_IVECW_H_M.csv /home/grierjones/DDCASPT2/iron_oxo_DDCASPT2/cluster/2.75/GMJ_IVECW_H_M.csv

>>> COPY /tmp/2.75/GMJ_IVECX_H_M.csv /home/grierjones/DDCASPT2/iron_oxo_DDCASPT2/cluster/2.75/GMJ_IVECX_H_M.csv

>>> COPY /tmp/2.75/GMJ_IVECC2_H_M.csv /home/grierjones/DDCASPT2/iron_oxo_DDCASPT2/cluster/2.75/GMJ_IVECC2_H_M.csv

>>> COPY /tmp/2.75/GMJ_e2_H_M.csv /home/grierjones/DDCASPT2/iron_oxo_DDCASPT2/cluster/2.75/GMJ_e2_H_M.csv

>>> END FOREACH

>>> END FOREACH

>>> EXPORT i = A

>>> IF (-FILE GMJ_e2_$i.csv)

>>> COPY /tmp/2.75/GMJ_RHS_A.csv /home/grierjones/DDCASPT2/iron_oxo_DDCASPT2/cluster/2.75/GMJ_RHS_A.csv

>>> COPY /tmp/2.75/GMJ_IVECW_A.csv /home/grierjones/DDCASPT2/iron_oxo_DDCASPT2/cluster/2.75/GMJ_IVECW_A.csv

>>> COPY /tmp/2.75/GMJ_IVECX_A.csv /home/grierjones/DDCASPT2/iron_oxo_DDCASPT2/cluster/2.75/GMJ_IVECX_A.csv

>>> COPY /tmp/2.75/GMJ_IVECC2_A.csv /home/grierjones/DDCASPT2/iron_oxo_DDCASPT2/cluster/2.75/GMJ_IVECC2_A.csv

>>> COPY /tmp/2.75/GMJ_e2_A.csv /home/grierjones/DDCASPT2/iron_oxo_DDCASPT2/cluster/2.75/GMJ_e2_A.csv

>>> END FOREACH

>>> EXPORT i = C

>>> IF (-FILE GMJ_e2_$i.csv)

>>> COPY /tmp/2.75/GMJ_RHS_C.csv /home/grierjones/DDCASPT2/iron_oxo_DDCASPT2/cluster/2.75/GMJ_RHS_C.csv

>>> COPY /tmp/2.75/GMJ_IVECW_C.csv /home/grierjones/DDCASPT2/iron_oxo_DDCASPT2/cluster/2.75/GMJ_IVECW_C.csv

>>> COPY /tmp/2.75/GMJ_IVECX_C.csv /home/grierjones/DDCASPT2/iron_oxo_DDCASPT2/cluster/2.75/GMJ_IVECX_C.csv

>>> COPY /tmp/2.75/GMJ_IVECC2_C.csv /home/grierjones/DDCASPT2/iron_oxo_DDCASPT2/cluster/2.75/GMJ_IVECC2_C.csv

>>> COPY /tmp/2.75/GMJ_e2_C.csv /home/grierjones/DDCASPT2/iron_oxo_DDCASPT2/cluster/2.75/GMJ_e2_C.csv

>>> END FOREACH

>>> EXPORT i = D

>>> IF (-FILE GMJ_e2_$i.csv)

>>> COPY /tmp/2.75/GMJ_RHS_D.csv /home/grierjones/DDCASPT2/iron_oxo_DDCASPT2/cluster/2.75/GMJ_RHS_D.csv

>>> COPY /tmp/2.75/GMJ_IVECW_D.csv /home/grierjones/DDCASPT2/iron_oxo_DDCASPT2/cluster/2.75/GMJ_IVECW_D.csv

>>> COPY /tmp/2.75/GMJ_IVECX_D.csv /home/grierjones/DDCASPT2/iron_oxo_DDCASPT2/cluster/2.75/GMJ_IVECX_D.csv

>>> COPY /tmp/2.75/GMJ_IVECC2_D.csv /home/grierjones/DDCASPT2/iron_oxo_DDCASPT2/cluster/2.75/GMJ_IVECC2_D.csv

>>> COPY /tmp/2.75/GMJ_e2_D.csv /home/grierjones/DDCASPT2/iron_oxo_DDCASPT2/cluster/2.75/GMJ_e2_D.csv

>>> END FOREACH

.########################.
.# Non-zero return code #.
.########################.

    Timing: Wall=430.36 User=427.08 System=3.14
************************************
*** WorkDir at /tmp/2.75 cleaned ***
************************************
