[Molden Format]
[N_Atoms]
                     2
[Atoms] (AU)
B1          1      5           0.00000000      0.00000000      0.00000000
C2          2      6           0.00000000      0.00000000      3.21253441
[Charge] (Mulliken)
  9.399481362723972E-002
 -9.399481362726370E-002
[GTO] (AU)
   1
   s  14
  3.336021700E+04  1.039699991E-04
  4.972095200E+03  5.254399956E-04
  1.125641700E+03  2.509059979E-03
  3.164913600E+02  1.031887991E-02
  1.020072600E+02  3.636632969E-02
  3.629587300E+01  1.064607991E-01
  1.397141000E+01  2.403999880E-01
  5.741156000E+00  3.748581168E-01
  2.494268000E+00  3.100066974E-01
  1.114202000E+00  7.922455933E-02
  4.215490000E-01 -4.947589958E-03
  1.696330000E-01 -7.737119935E-03
  6.853500000E-02 -1.501079987E-03
  2.398700000E-02 -1.333299989E-04
   s  14
  3.336021700E+04 -2.030000008E-05
  4.972095200E+03 -1.025700004E-04
  1.125641700E+03 -4.911300020E-04
  3.164913600E+02 -2.026570008E-03
  1.020072600E+02 -7.261010030E-03
  3.629587300E+01 -2.197722009E-02
  1.397141000E+01 -5.408428022E-02
  5.741156000E+00 -1.022402604E-01
  2.494268000E+00 -1.423595206E-01
  1.114202000E+00 -4.658690019E-02
  4.215490000E-01  3.799402916E-01
  1.696330000E-01  5.890463624E-01
  6.853500000E-02  1.749075107E-01
  2.398700000E-02 -1.142030005E-03
   p   9
  5.500000000E+01  1.229800005E-03
  1.336610100E+01  8.827380035E-03
  4.135394000E+00  3.843340015E-02
  1.481256000E+00  1.150031805E-01
  6.021360000E-01  2.733674011E-01
  2.556360000E-01  4.061972116E-01
  1.111510000E-01  3.014967912E-01
  4.764800000E-02  7.684809030E-02
  1.667700000E-02 -8.170000032E-06
 
   2
   s  14
  5.055750100E+04  1.128874000E-04
  7.524785600E+03  5.295373000E-04
  1.694327600E+03  2.450038300E-03
  4.728227900E+02  1.005398470E-02
  1.517107500E+02  3.545398060E-02
  5.391874600E+01  1.044071086E-01
  2.065931100E+01  2.412894918E-01
  8.383976000E+00  3.834225483E-01
  3.577015000E+00  3.078514393E-01
  1.547118000E+00  6.872442990E-02
  6.130130000E-01  2.224445000E-04
  2.460680000E-01  1.976748900E-03
  9.908700000E-02  2.057859400E-03
  3.468000000E-02  4.182020000E-04
   s  14
  5.055750100E+04 -2.507420000E-05
  7.524785600E+03 -1.175945000E-04
  1.694327600E+03 -5.456275000E-04
  4.728227900E+02 -2.245077100E-03
  1.517107500E+02 -8.043471800E-03
  5.391874600E+01 -2.442588710E-02
  2.065931100E+01 -6.136791180E-02
  8.383976000E+00 -1.177767835E-01
  3.577015000E+00 -1.550487783E-01
  1.547118000E+00 -1.933316860E-02
  6.130130000E-01  3.996930678E-01
  2.460680000E-01  5.589420949E-01
  9.908700000E-02  1.711195023E-01
  3.468000000E-02  7.456244600E-03
   p   9
  8.333315500E+01  1.344656000E-03
  1.955761100E+01  1.023555500E-02
  6.080365000E+00  4.520067100E-02
  2.179317000E+00  1.410756198E-01
  8.651500000E-01  3.047388085E-01
  3.619440000E-01  3.995281011E-01
  1.547400000E-01  2.719163432E-01
  6.542900000E-02  5.857669330E-02
  2.290000000E-02 -1.263813000E-04
 
[MO]
Sym=     1a  
Ene=   -11.2850
Spin= Alpha
Occup=    2.00000
   1        -0.00023725
   2        -0.00147706
   3        -0.00000001
   4         0.00000002
   5        -0.00100063
   6         1.00011221
   7        -0.00149203
   8         0.00000021
   9        -0.00000060
  10        -0.00233962
Sym=     2a  
Ene=    -7.7100
Spin= Alpha
Occup=    2.00000
   1         0.99987745
   2         0.01449952
   3         0.00000013
   4        -0.00000036
   5         0.00100748
   6        -0.00022478
   7        -0.00028707
   8         0.00000007
   9        -0.00000021
  10        -0.00041308
Sym=     3a  
Ene=    -0.8068
Spin= Alpha
Occup=    2.00000
   1        -0.03670967
   2         0.34133480
   3         0.00001041
   4        -0.00002946
   5         0.16756639
   6        -0.02082431
   7         0.71996213
   8         0.00000362
   9        -0.00001026
  10        -0.14280969
Sym=     4a  
Ene=    -0.4552
Spin= Alpha
Occup=    2.00000
   1         0.01866578
   2        -0.66523919
   3        -0.00003190
   4         0.00009023
   5        -0.04947533
   6         0.02790209
   7         0.65241386
   8        -0.00004960
   9         0.00014035
  10         0.46519412
Sym=     5a  
Ene=    -0.3200
Spin= Alpha
Occup=    2.00000
   1        -0.00000000
   2        -0.00000009
   3        -0.49351007
   4        -0.17446233
   5         0.00000007
   6        -0.00000000
   7        -0.00000001
   8        -0.69335857
   9        -0.24511142
  10        -0.00000006
Sym=     6a  
Ene=     0.0730
Spin= Alpha
Occup=    0.00000
   1        -0.01030098
   2        -0.10964587
   3         0.07430178
   4        -0.21003655
   5        -0.14153125
   6         0.01291519
   7         0.11105414
   8         0.30416659
   9        -0.86052829
  10        -0.13536364
Sym=     7a  
Ene=    -0.0028
Spin= Alpha
Occup=    1.00000
   1         0.01767683
   2         0.55588409
   3        -0.00016122
   4         0.00045572
   5        -0.69198793
   6         0.02723474
   7         0.16893445
   8        -0.00006506
   9         0.00018391
  10         0.48085735
Sym=     8a  
Ene=     0.1359
Spin= Alpha
Occup=    0.00000
   1         0.00000072
   2         0.00000767
   3        -0.83655101
   4        -0.29597947
   5         0.00000981
   6        -0.00000090
   7        -0.00000772
   8         0.68024373
   9         0.24052744
  10         0.00000949
Sym=     9a  
Ene=     0.1580
Spin= Alpha
Occup=    0.00000
   1         0.00292888
   2         0.03124977
   3         0.33542760
   4        -0.94825414
   5         0.03971978
   6        -0.00364006
   7        -0.03131796
   8        -0.15170452
   9         0.42865732
  10         0.03863146
Sym=    10a  
Ene=     0.4685
Spin= Alpha
Occup=    0.00000
   1        -0.07303699
   2        -0.77722599
   3         0.00291284
   4        -0.00826285
   5        -1.00030580
   6         0.09135695
   7         0.78530764
   8        -0.04900505
   9         0.13864185
  10        -0.96075883
