[Molden Format]
[N_Atoms]
                     2
[Atoms] (AU)
B1          1      5           0.00000000      0.00000000      0.00000000
C2          2      6           0.00000000      0.00000000      3.21253441
[Charge] (Mulliken)
  0.119606871545318     
 -0.119606871545357     
[GTO] (AU)
   1
   s  14
  3.336021700E+04  1.039699991E-04
  4.972095200E+03  5.254399956E-04
  1.125641700E+03  2.509059979E-03
  3.164913600E+02  1.031887991E-02
  1.020072600E+02  3.636632969E-02
  3.629587300E+01  1.064607991E-01
  1.397141000E+01  2.403999880E-01
  5.741156000E+00  3.748581168E-01
  2.494268000E+00  3.100066974E-01
  1.114202000E+00  7.922455933E-02
  4.215490000E-01 -4.947589958E-03
  1.696330000E-01 -7.737119935E-03
  6.853500000E-02 -1.501079987E-03
  2.398700000E-02 -1.333299989E-04
   s  14
  3.336021700E+04 -2.030000008E-05
  4.972095200E+03 -1.025700004E-04
  1.125641700E+03 -4.911300020E-04
  3.164913600E+02 -2.026570008E-03
  1.020072600E+02 -7.261010030E-03
  3.629587300E+01 -2.197722009E-02
  1.397141000E+01 -5.408428022E-02
  5.741156000E+00 -1.022402604E-01
  2.494268000E+00 -1.423595206E-01
  1.114202000E+00 -4.658690019E-02
  4.215490000E-01  3.799402916E-01
  1.696330000E-01  5.890463624E-01
  6.853500000E-02  1.749075107E-01
  2.398700000E-02 -1.142030005E-03
   p   9
  5.500000000E+01  1.229800005E-03
  1.336610100E+01  8.827380035E-03
  4.135394000E+00  3.843340015E-02
  1.481256000E+00  1.150031805E-01
  6.021360000E-01  2.733674011E-01
  2.556360000E-01  4.061972116E-01
  1.111510000E-01  3.014967912E-01
  4.764800000E-02  7.684809030E-02
  1.667700000E-02 -8.170000032E-06
 
   2
   s  14
  5.055750100E+04  1.128874000E-04
  7.524785600E+03  5.295373000E-04
  1.694327600E+03  2.450038300E-03
  4.728227900E+02  1.005398470E-02
  1.517107500E+02  3.545398060E-02
  5.391874600E+01  1.044071086E-01
  2.065931100E+01  2.412894918E-01
  8.383976000E+00  3.834225483E-01
  3.577015000E+00  3.078514393E-01
  1.547118000E+00  6.872442990E-02
  6.130130000E-01  2.224445000E-04
  2.460680000E-01  1.976748900E-03
  9.908700000E-02  2.057859400E-03
  3.468000000E-02  4.182020000E-04
   s  14
  5.055750100E+04 -2.507420000E-05
  7.524785600E+03 -1.175945000E-04
  1.694327600E+03 -5.456275000E-04
  4.728227900E+02 -2.245077100E-03
  1.517107500E+02 -8.043471800E-03
  5.391874600E+01 -2.442588710E-02
  2.065931100E+01 -6.136791180E-02
  8.383976000E+00 -1.177767835E-01
  3.577015000E+00 -1.550487783E-01
  1.547118000E+00 -1.933316860E-02
  6.130130000E-01  3.996930678E-01
  2.460680000E-01  5.589420949E-01
  9.908700000E-02  1.711195023E-01
  3.468000000E-02  7.456244600E-03
   p   9
  8.333315500E+01  1.344656000E-03
  1.955761100E+01  1.023555500E-02
  6.080365000E+00  4.520067100E-02
  2.179317000E+00  1.410756198E-01
  8.651500000E-01  3.047388085E-01
  3.619440000E-01  3.995281011E-01
  1.547400000E-01  2.719163432E-01
  6.542900000E-02  5.857669330E-02
  2.290000000E-02 -1.263813000E-04
 
[MO]
Sym=     1a  
Ene=   -11.2840
Spin= Alpha
Occup=    1.00000
   1        -0.00026306
   2        -0.00164397
   3        -0.00000000
   4        -0.00000000
   5        -0.00122518
   6         1.00013611
   7         0.00211275
   8        -0.00000000
   9        -0.00000000
  10        -0.00092602
Sym=     1a  
Ene=   -11.2130
Spin= Beta
Occup=    1.00000
   1        -0.00010516
   2        -0.00063255
   3        -0.00000000
   4         0.00000000
   5        -0.00019030
   6         1.00002503
   7        -0.00399783
   8        -0.00000000
   9        -0.00000000
  10        -0.00075557
Sym=     2a  
Ene=    -7.6914
Spin= Alpha
Occup=    1.00000
   1         0.99989086
   2         0.01376818
   3         0.00000000
   4        -0.00000000
   5         0.00083131
   6        -0.00018355
   7        -0.00012573
   8        -0.00000000
   9        -0.00000000
  10        -0.00028727
Sym=     2a  
Ene=    -7.7293
Spin= Beta
Occup=    1.00000
   1         0.99987339
   2         0.01633417
   3        -0.00000000
   4         0.00000000
   5         0.00013278
   6        -0.00019556
   7        -0.00021517
   8        -0.00000000
   9        -0.00000000
  10        -0.00000129
Sym=     3a  
Ene=    -0.8974
Spin= Alpha
Occup=    1.00000
   1        -0.02809491
   2         0.17198126
   3         0.00000000
   4        -0.00000000
   5         0.12497155
   6        -0.01499802
   7         0.87412067
   8         0.00000000
   9        -0.00000000
  10         0.02608513
Sym=     3a  
Ene=    -0.7058
Spin= Beta
Occup=    1.00000
   1        -0.03780418
   2         0.65130229
   3        -0.00000000
   4        -0.00000000
   5         0.05911856
   6        -0.02349446
   7         0.45610104
   8         0.00000000
   9        -0.00000000
  10        -0.20230697
Sym=     4a  
Ene=    -0.5125
Spin= Alpha
Occup=    1.00000
   1         0.03800300
   2        -0.45455524
   3        -0.00000000
   4         0.00000000
   5        -0.23614149
   6         0.03068330
   7         0.37712812
   8        -0.00000000
   9         0.00000000
  10         0.68982787
Sym=     4a  
Ene=    -0.4821
Spin= Beta
Occup=    1.00000
   1        -0.01282353
   2        -0.64533793
   3         0.00000000
   4        -0.00000000
   5         0.58352979
   6        -0.01409386
   7         0.46097220
   8         0.00000000
   9        -0.00000000
  10        -0.13787828
Sym=     5a  
Ene=    -0.4322
Spin= Alpha
Occup=    1.00000
   1         0.00000000
   2        -0.00000000
   3         0.16651323
   4        -0.05668605
   5        -0.00000000
   6         0.00000000
   7         0.00000000
   8         0.89269688
   9        -0.30390053
  10         0.00000000
Sym=     5a  
Ene=    -0.3478
Spin= Beta
Occup=    1.00000
   1        -0.00000000
   2        -0.00000000
   3         0.30692659
   4         0.90158583
   5         0.00000000
   6        -0.00000000
   7         0.00000000
   8         0.04906618
   9         0.14413014
  10        -0.00000000
Sym=     6a  
Ene=    -0.4253
Spin= Alpha
Occup=    1.00000
   1        -0.00000000
   2         0.00000000
   3         0.04547203
   4         0.13357246
   5         0.00000000
   6        -0.00000000
   7        -0.00000000
   8         0.30829290
   9         0.90559933
  10        -0.00000000
Sym=     6a  
Ene=     0.0360
Spin= Beta
Occup=    0.00000
   1         0.00000000
   2         0.00000000
   3         0.84420433
   4        -0.28739222
   5         0.00000000
   6        -0.00000000
   7        -0.00000000
   8         0.27096034
   9        -0.09224295
  10        -0.00000000
Sym=     7a  
Ene=     0.0678
Spin= Alpha
Occup=    0.00000
   1         0.01769851
   2         0.85074121
   3         0.00000000
   4         0.00000000
   5        -0.50088061
   6         0.00391408
   7        -0.11501364
   8         0.00000000
   9        -0.00000000
  10         0.40563639
Sym=     7a  
Ene=     0.1164
Spin= Beta
Occup=    0.00000
   1        -0.01116589
   2         0.17723359
   3        -0.00000000
   4        -0.00000000
   5         0.53654385
   6        -0.04392110
   7        -0.80112548
   8        -0.00000000
   9         0.00000000
  10        -0.53230604
Sym=     8a  
Ene=     0.1638
Spin= Alpha
Occup=    0.00000
   1         0.00000000
   2         0.00000000
   3        -0.96096303
   4         0.32714035
   5         0.00000000
   6        -0.00000000
   7        -0.00000000
   8         0.39277077
   9        -0.13371083
  10        -0.00000000
Sym=     8a  
Ene=     0.2798
Spin= Beta
Occup=    0.00000
   1         0.00000000
   2         0.00000000
   3        -0.12661038
   4        -0.37191343
   5         0.00000000
   6        -0.00000000
   7        -0.00000000
   8         0.32836965
   9         0.96457405
  10         0.00000000
Sym=     9a  
Ene=     0.2103
Spin= Alpha
Occup=    0.00000
   1        -0.00000000
   2        -0.00000000
   3        -0.32888662
   4        -0.96609264
   5        -0.00000000
   6         0.00000000
   7         0.00000000
   8         0.12324610
   9         0.36203100
  10        -0.00000000
Sym=     9a  
Ene=     0.3072
Spin= Beta
Occup=    0.00000
   1         0.00000000
   2         0.00000000
   3        -0.48836017
   4         0.16625230
   5         0.00000000
   6        -0.00000000
   7        -0.00000000
   8         0.93688692
   9        -0.31894413
  10         0.00000000
Sym=    10a  
Ene=     0.4995
Spin= Alpha
Occup=    0.00000
   1         0.06988534
   2         0.72470703
   3         0.00000000
   4        -0.00000000
   5         1.09969623
   6        -0.09617972
   7        -0.82644252
   8        -0.00000000
   9         0.00000000
  10         0.87739279
Sym=    10a  
Ene=     0.5456
Spin= Beta
Occup=    0.00000
   1         0.07581207
   2         0.78295370
   3         0.00000000
   4        -0.00000000
   5         0.94853291
   6        -0.08930139
   7        -0.73499034
   8        -0.00000000
   9        -0.00000000
  10         1.03325410
