[Molden Format]
[N_Atoms]
                     2
[Atoms] (AU)
B1          1      5           0.00000000      0.00000000      0.00000000
B2          2      5           0.00000000      0.00000000      3.77945225
[Charge] (Mulliken)
 -1.033839680530946E-012
  1.023181539494544E-012
[GTO] (AU)
   1
   s  14
  3.336021700E+04  1.039699991E-04
  4.972095200E+03  5.254399956E-04
  1.125641700E+03  2.509059979E-03
  3.164913600E+02  1.031887991E-02
  1.020072600E+02  3.636632969E-02
  3.629587300E+01  1.064607991E-01
  1.397141000E+01  2.403999880E-01
  5.741156000E+00  3.748581168E-01
  2.494268000E+00  3.100066974E-01
  1.114202000E+00  7.922455933E-02
  4.215490000E-01 -4.947589958E-03
  1.696330000E-01 -7.737119935E-03
  6.853500000E-02 -1.501079987E-03
  2.398700000E-02 -1.333299989E-04
   s  14
  3.336021700E+04 -2.030000008E-05
  4.972095200E+03 -1.025700004E-04
  1.125641700E+03 -4.911300020E-04
  3.164913600E+02 -2.026570008E-03
  1.020072600E+02 -7.261010030E-03
  3.629587300E+01 -2.197722009E-02
  1.397141000E+01 -5.408428022E-02
  5.741156000E+00 -1.022402604E-01
  2.494268000E+00 -1.423595206E-01
  1.114202000E+00 -4.658690019E-02
  4.215490000E-01  3.799402916E-01
  1.696330000E-01  5.890463624E-01
  6.853500000E-02  1.749075107E-01
  2.398700000E-02 -1.142030005E-03
   p   9
  5.500000000E+01  1.229800005E-03
  1.336610100E+01  8.827380035E-03
  4.135394000E+00  3.843340015E-02
  1.481256000E+00  1.150031805E-01
  6.021360000E-01  2.733674011E-01
  2.556360000E-01  4.061972116E-01
  1.111510000E-01  3.014967912E-01
  4.764800000E-02  7.684809030E-02
  1.667700000E-02 -8.170000032E-06
 
   2
   s  14
  3.336021700E+04  1.039699991E-04
  4.972095200E+03  5.254399956E-04
  1.125641700E+03  2.509059979E-03
  3.164913600E+02  1.031887991E-02
  1.020072600E+02  3.636632969E-02
  3.629587300E+01  1.064607991E-01
  1.397141000E+01  2.403999880E-01
  5.741156000E+00  3.748581168E-01
  2.494268000E+00  3.100066974E-01
  1.114202000E+00  7.922455933E-02
  4.215490000E-01 -4.947589958E-03
  1.696330000E-01 -7.737119935E-03
  6.853500000E-02 -1.501079987E-03
  2.398700000E-02 -1.333299989E-04
   s  14
  3.336021700E+04 -2.030000008E-05
  4.972095200E+03 -1.025700004E-04
  1.125641700E+03 -4.911300020E-04
  3.164913600E+02 -2.026570008E-03
  1.020072600E+02 -7.261010030E-03
  3.629587300E+01 -2.197722009E-02
  1.397141000E+01 -5.408428022E-02
  5.741156000E+00 -1.022402604E-01
  2.494268000E+00 -1.423595206E-01
  1.114202000E+00 -4.658690019E-02
  4.215490000E-01  3.799402916E-01
  1.696330000E-01  5.890463624E-01
  6.853500000E-02  1.749075107E-01
  2.398700000E-02 -1.142030005E-03
   p   9
  5.500000000E+01  1.229800005E-03
  1.336610100E+01  8.827380035E-03
  4.135394000E+00  3.843340015E-02
  1.481256000E+00  1.150031805E-01
  6.021360000E-01  2.733674011E-01
  2.556360000E-01  4.061972116E-01
  1.111510000E-01  3.014967912E-01
  4.764800000E-02  7.684809030E-02
  1.667700000E-02 -8.170000032E-06
 
[MO]
Sym=     1a  
Ene=    -7.6841
Spin= Alpha
Occup=    1.00000
   1         0.70697846
   2         0.00993117
   3         0.00000000
   4        -0.00000000
   5         0.00029746
   6         0.70697841
   7         0.00993116
   8        -0.00000000
   9         0.00000000
  10        -0.00029746
Sym=     1a  
Ene=    -7.6841
Spin= Beta
Occup=    1.00000
   1         0.70697846
   2         0.00993117
   3         0.00000000
   4        -0.00000000
   5         0.00029746
   6         0.70697841
   7         0.00993116
   8        -0.00000000
   9         0.00000000
  10        -0.00029746
Sym=     2a  
Ene=    -7.6840
Spin= Alpha
Occup=    1.00000
   1        -0.70712426
   2        -0.01041934
   3         0.00000000
   4        -0.00000000
   5        -0.00072342
   6         0.70712431
   7         0.01041934
   8        -0.00000000
   9        -0.00000000
  10        -0.00072342
Sym=     2a  
Ene=    -7.6840
Spin= Beta
Occup=    1.00000
   1        -0.70712426
   2        -0.01041934
   3         0.00000000
   4        -0.00000000
   5        -0.00072342
   6         0.70712431
   7         0.01041934
   8        -0.00000000
   9        -0.00000000
  10        -0.00072342
Sym=     3a  
Ene=    -0.6184
Spin= Alpha
Occup=    1.00000
   1        -0.02913690
   2         0.58159922
   3        -0.00000000
   4        -0.00000000
   5         0.10652470
   6        -0.02913690
   7         0.58159922
   8         0.00000000
   9        -0.00000000
  10        -0.10652470
Sym=     3a  
Ene=    -0.6184
Spin= Beta
Occup=    1.00000
   1        -0.02913690
   2         0.58159922
   3        -0.00000000
   4        -0.00000000
   5         0.10652470
   6        -0.02913690
   7         0.58159922
   8         0.00000000
   9        -0.00000000
  10        -0.10652470
Sym=     4a  
Ene=    -0.3946
Spin= Alpha
Occup=    1.00000
   1        -0.00059507
   2        -0.75254951
   3         0.00000000
   4         0.00000000
   5         0.15113778
   6         0.00059507
   7         0.75254951
   8         0.00000000
   9         0.00000000
  10         0.15113778
Sym=     4a  
Ene=    -0.3946
Spin= Beta
Occup=    1.00000
   1        -0.00059507
   2        -0.75254951
   3         0.00000000
   4         0.00000000
   5         0.15113778
   6         0.00059507
   7         0.75254951
   8         0.00000000
   9         0.00000000
  10         0.15113778
Sym=     5a  
Ene=    -0.2480
Spin= Alpha
Occup=    1.00000
   1        -0.00000000
   2         0.00000000
   3         0.06788903
   4         0.63632876
   5        -0.00000000
   6         0.00000000
   7         0.00000000
   8         0.06788903
   9         0.63632876
  10        -0.00000000
Sym=     5a  
Ene=    -0.2480
Spin= Beta
Occup=    1.00000
   1        -0.00000000
   2         0.00000000
   3         0.06788903
   4         0.63632876
   5        -0.00000000
   6         0.00000000
   7         0.00000000
   8         0.06788903
   9         0.63632876
  10        -0.00000000
Sym=     6a  
Ene=     0.0141
Spin= Alpha
Occup=    0.00000
   1         0.02387900
   2         0.28793970
   3         0.00000000
   4        -0.00000000
   5        -0.64260649
   6         0.02387900
   7         0.28793970
   8         0.00000000
   9        -0.00000000
  10         0.64260649
Sym=     6a  
Ene=     0.0141
Spin= Beta
Occup=    0.00000
   1         0.02387900
   2         0.28793970
   3         0.00000000
   4        -0.00000000
   5        -0.64260649
   6         0.02387900
   7         0.28793970
   8         0.00000000
   9        -0.00000000
  10         0.64260649
Sym=     7a  
Ene=     0.0355
Spin= Alpha
Occup=    0.00000
   1         0.00000000
   2         0.00000000
   3         0.63632876
   4        -0.06788903
   5         0.00000000
   6        -0.00000000
   7        -0.00000000
   8         0.63632876
   9        -0.06788903
  10        -0.00000000
Sym=     7a  
Ene=     0.0355
Spin= Beta
Occup=    0.00000
   1         0.00000000
   2         0.00000000
   3         0.63632876
   4        -0.06788903
   5         0.00000000
   6        -0.00000000
   7        -0.00000000
   8         0.63632876
   9        -0.06788903
  10        -0.00000000
Sym=     8a  
Ene=     0.1115
Spin= Alpha
Occup=    0.00000
   1         0.00000000
   2         0.00000000
   3        -0.08498801
   4        -0.79659873
   5         0.00000000
   6        -0.00000000
   7        -0.00000000
   8         0.08498801
   9         0.79659873
  10         0.00000000
Sym=     8a  
Ene=     0.1115
Spin= Beta
Occup=    0.00000
   1         0.00000000
   2         0.00000000
   3        -0.08498801
   4        -0.79659873
   5         0.00000000
   6        -0.00000000
   7        -0.00000000
   8         0.08498801
   9         0.79659873
  10         0.00000000
Sym=     9a  
Ene=     0.1751
Spin= Alpha
Occup=    0.00000
   1        -0.00000000
   2        -0.00000000
   3        -0.79659873
   4         0.08498801
   5        -0.00000000
   6         0.00000000
   7         0.00000000
   8         0.79659873
   9        -0.08498801
  10        -0.00000000
Sym=     9a  
Ene=     0.1751
Spin= Beta
Occup=    0.00000
   1        -0.00000000
   2        -0.00000000
   3        -0.79659873
   4         0.08498801
   5        -0.00000000
   6         0.00000000
   7         0.00000000
   8         0.79659873
   9        -0.08498801
  10        -0.00000000
Sym=    10a  
Ene=     0.3941
Spin= Alpha
Occup=    0.00000
   1         0.06089428
   2         0.65840852
   3        -0.00000000
   4         0.00000000
   5         0.98466323
   6        -0.06089428
   7        -0.65840852
   8         0.00000000
   9        -0.00000000
  10         0.98466323
Sym=    10a  
Ene=     0.3941
Spin= Beta
Occup=    0.00000
   1         0.06089428
   2         0.65840852
   3        -0.00000000
   4         0.00000000
   5         0.98466323
   6        -0.06089428
   7        -0.65840852
   8         0.00000000
   9        -0.00000000
  10         0.98466323
