[Molden Format]
[N_Atoms]
                     2
[Atoms] (AU)
B1          1      5           0.00000000      0.00000000      0.00000000
B2          2      5           0.00000000      0.00000000      3.77945225
[Charge] (Mulliken)
 -5.079947662522954E-008
  5.079948373065690E-008
[GTO] (AU)
   1
   s  14
  3.336021700E+04  1.039699991E-04
  4.972095200E+03  5.254399956E-04
  1.125641700E+03  2.509059979E-03
  3.164913600E+02  1.031887991E-02
  1.020072600E+02  3.636632969E-02
  3.629587300E+01  1.064607991E-01
  1.397141000E+01  2.403999880E-01
  5.741156000E+00  3.748581168E-01
  2.494268000E+00  3.100066974E-01
  1.114202000E+00  7.922455933E-02
  4.215490000E-01 -4.947589958E-03
  1.696330000E-01 -7.737119935E-03
  6.853500000E-02 -1.501079987E-03
  2.398700000E-02 -1.333299989E-04
   s  14
  3.336021700E+04 -2.030000008E-05
  4.972095200E+03 -1.025700004E-04
  1.125641700E+03 -4.911300020E-04
  3.164913600E+02 -2.026570008E-03
  1.020072600E+02 -7.261010030E-03
  3.629587300E+01 -2.197722009E-02
  1.397141000E+01 -5.408428022E-02
  5.741156000E+00 -1.022402604E-01
  2.494268000E+00 -1.423595206E-01
  1.114202000E+00 -4.658690019E-02
  4.215490000E-01  3.799402916E-01
  1.696330000E-01  5.890463624E-01
  6.853500000E-02  1.749075107E-01
  2.398700000E-02 -1.142030005E-03
   p   9
  5.500000000E+01  1.229800005E-03
  1.336610100E+01  8.827380035E-03
  4.135394000E+00  3.843340015E-02
  1.481256000E+00  1.150031805E-01
  6.021360000E-01  2.733674011E-01
  2.556360000E-01  4.061972116E-01
  1.111510000E-01  3.014967912E-01
  4.764800000E-02  7.684809030E-02
  1.667700000E-02 -8.170000032E-06
 
   2
   s  14
  3.336021700E+04  1.039699991E-04
  4.972095200E+03  5.254399956E-04
  1.125641700E+03  2.509059979E-03
  3.164913600E+02  1.031887991E-02
  1.020072600E+02  3.636632969E-02
  3.629587300E+01  1.064607991E-01
  1.397141000E+01  2.403999880E-01
  5.741156000E+00  3.748581168E-01
  2.494268000E+00  3.100066974E-01
  1.114202000E+00  7.922455933E-02
  4.215490000E-01 -4.947589958E-03
  1.696330000E-01 -7.737119935E-03
  6.853500000E-02 -1.501079987E-03
  2.398700000E-02 -1.333299989E-04
   s  14
  3.336021700E+04 -2.030000008E-05
  4.972095200E+03 -1.025700004E-04
  1.125641700E+03 -4.911300020E-04
  3.164913600E+02 -2.026570008E-03
  1.020072600E+02 -7.261010030E-03
  3.629587300E+01 -2.197722009E-02
  1.397141000E+01 -5.408428022E-02
  5.741156000E+00 -1.022402604E-01
  2.494268000E+00 -1.423595206E-01
  1.114202000E+00 -4.658690019E-02
  4.215490000E-01  3.799402916E-01
  1.696330000E-01  5.890463624E-01
  6.853500000E-02  1.749075107E-01
  2.398700000E-02 -1.142030005E-03
   p   9
  5.500000000E+01  1.229800005E-03
  1.336610100E+01  8.827380035E-03
  4.135394000E+00  3.843340015E-02
  1.481256000E+00  1.150031805E-01
  6.021360000E-01  2.733674011E-01
  2.556360000E-01  4.061972116E-01
  1.111510000E-01  3.014967912E-01
  4.764800000E-02  7.684809030E-02
  1.667700000E-02 -8.170000032E-06
 
[MO]
Sym=     1a  
Ene=    -7.6841
Spin= Alpha
Occup=    2.00000
   1         0.70695403
   2         0.00994225
   3         0.00000000
   4        -0.00000000
   5         0.00027772
   6         0.70700410
   7         0.00994277
   8        -0.00000000
   9        -0.00000000
  10        -0.00027781
Sym=     2a  
Ene=    -7.6835
Spin= Alpha
Occup=    2.00000
   1        -0.70712123
   2        -0.00466623
   3         0.00000000
   4        -0.00000000
   5        -0.00182109
   6         0.70707116
   7         0.00466559
   8        -0.00000000
   9         0.00000000
  10        -0.00182108
Sym=     3a  
Ene=    -0.6172
Spin= Alpha
Occup=    2.00000
   1        -0.02913590
   2         0.58163955
   3         0.00000000
   4        -0.00000000
   5         0.10642253
   6        -0.02913589
   7         0.58165140
   8        -0.00000000
   9         0.00000000
  10        -0.10642018
Sym=     4a  
Ene=    -0.2476
Spin= Alpha
Occup=    2.00000
   1         0.00000000
   2        -0.00000000
   3        -0.08052059
   4         0.63485401
   5         0.00000000
   6        -0.00000000
   7         0.00000000
   8        -0.08052060
   9         0.63485406
  10         0.00000000
Sym=     5a  
Ene=     0.0321
Spin= Alpha
Occup=    0.02775
   1        -0.00000000
   2        -0.00000000
   3         0.63486031
   4         0.08052139
   5        -0.00000000
   6         0.00000000
   7         0.00000000
   8         0.63484776
   9         0.08051980
  10        -0.00000000
Sym=     6a  
Ene=    -0.0555
Spin= Alpha
Occup=    1.97225
   1        -0.00613071
   2        -0.75435880
   3        -0.00000000
   4        -0.00000000
   5         0.14850956
   6         0.00613098
   7         0.75434963
   8         0.00000000
   9        -0.00000000
  10         0.14851117
Sym=     7a  
Ene=     0.0150
Spin= Alpha
Occup=    0.00000
   1         0.02386154
   2         0.28784583
   3        -0.00000000
   4        -0.00000000
   5        -0.64262359
   6         0.02386154
   7         0.28784587
   8        -0.00000000
   9         0.00000000
  10         0.64262364
Sym=     8a  
Ene=     0.1119
Spin= Alpha
Occup=    0.00000
   1         0.00000000
   2         0.00000000
   3         0.10080105
   4        -0.79475259
   5         0.00000000
   6        -0.00000000
   7        -0.00000000
   8        -0.10080105
   9         0.79475256
  10         0.00000000
Sym=     9a  
Ene=     0.1746
Spin= Alpha
Occup=    0.00000
   1        -0.00000000
   2         0.00000000
   3        -0.79474756
   4        -0.10080041
   5        -0.00000000
   6         0.00000000
   7        -0.00000000
   8         0.79475759
   9         0.10080168
  10        -0.00000000
Sym=    10a  
Ene=     0.3948
Spin= Alpha
Occup=    0.00000
   1        -0.06091475
   2        -0.65640616
   3        -0.00000000
   4        -0.00000000
   5        -0.98506152
   6         0.06091475
   7         0.65640618
   8        -0.00000000
   9         0.00000000
  10        -0.98506150
