[Molden Format]
[N_Atoms]
                     2
[Atoms] (AU)
B1          1      5           0.00000000      0.00000000      0.00000000
O2          2      8           0.00000000      0.00000000      5.10226054
[Charge] (Mulliken)
  0.154384125800113     
 -0.154384125800155     
[GTO] (AU)
   1
   s  14
  3.336021700E+04  1.039699991E-04
  4.972095200E+03  5.254399956E-04
  1.125641700E+03  2.509059979E-03
  3.164913600E+02  1.031887991E-02
  1.020072600E+02  3.636632969E-02
  3.629587300E+01  1.064607991E-01
  1.397141000E+01  2.403999880E-01
  5.741156000E+00  3.748581168E-01
  2.494268000E+00  3.100066974E-01
  1.114202000E+00  7.922455933E-02
  4.215490000E-01 -4.947589958E-03
  1.696330000E-01 -7.737119935E-03
  6.853500000E-02 -1.501079987E-03
  2.398700000E-02 -1.333299989E-04
   s  14
  3.336021700E+04 -2.030000008E-05
  4.972095200E+03 -1.025700004E-04
  1.125641700E+03 -4.911300020E-04
  3.164913600E+02 -2.026570008E-03
  1.020072600E+02 -7.261010030E-03
  3.629587300E+01 -2.197722009E-02
  1.397141000E+01 -5.408428022E-02
  5.741156000E+00 -1.022402604E-01
  2.494268000E+00 -1.423595206E-01
  1.114202000E+00 -4.658690019E-02
  4.215490000E-01  3.799402916E-01
  1.696330000E-01  5.890463624E-01
  6.853500000E-02  1.749075107E-01
  2.398700000E-02 -1.142030005E-03
   p   9
  5.500000000E+01  1.229800005E-03
  1.336610100E+01  8.827380035E-03
  4.135394000E+00  3.843340015E-02
  1.481256000E+00  1.150031805E-01
  6.021360000E-01  2.733674011E-01
  2.556360000E-01  4.061972116E-01
  1.111510000E-01  3.014967912E-01
  4.764800000E-02  7.684809030E-02
  1.667700000E-02 -8.170000032E-06
 
   2
   s  14
  1.053749500E+05  1.238600013E-04
  1.567924000E+04  5.120100053E-04
  3.534544700E+03  2.152910022E-03
  9.873651600E+02  8.528440089E-03
  3.159787500E+02  3.018049031E-02
  1.116542800E+02  9.099702095E-02
  4.269945100E+01  2.177936423E-01
  1.739559600E+01  3.686245738E-01
  7.438309000E+00  3.366707335E-01
  3.222862000E+00  9.657630101E-02
  1.253877000E+00  2.144520022E-03
  4.951550000E-01  1.194350012E-03
  1.916650000E-01  5.390200056E-04
  6.708300000E-02  2.103400022E-04
   s  14
  1.053749500E+05 -2.815000008E-05
  1.567924000E+04 -1.163000003E-04
  3.534544700E+03 -4.909200013E-04
  9.873651600E+02 -1.946160005E-03
  3.159787500E+02 -7.005300019E-03
  1.116542800E+02 -2.167814006E-02
  4.269945100E+01 -5.641213015E-02
  1.739559600E+01 -1.127053003E-01
  7.438309000E+00 -1.589119704E-01
  3.222862000E+00 -3.355083009E-02
  1.253877000E+00  3.531902810E-01
  4.951550000E-01  5.534199315E-01
  1.916650000E-01  2.301839106E-01
  6.708300000E-02  1.127267003E-02
   p   9
  2.000000000E+02  9.173000030E-04
  4.653336700E+01  7.377140024E-03
  1.462180900E+01  3.483515011E-02
  5.313064000E+00  1.144397004E-01
  2.102525000E+00  2.554966408E-01
  8.502230000E-01  3.722557412E-01
  3.375970000E-01  3.323314911E-01
  1.288920000E-01  1.400847905E-01
  4.511200000E-02  2.395784008E-02
 
[MO]
Sym=     1a  
Ene=   -20.6010
Spin= Alpha
Occup=    1.00000
   1        -0.00000409
   2        -0.00009095
   3        -0.00000000
   4         0.00000000
   5        -0.00011840
   6         1.00000131
   7         0.00002584
   8        -0.00000000
   9        -0.00000000
  10        -0.00009378
Sym=     1a  
Ene=   -20.5970
Spin= Beta
Occup=    1.00000
   1        -0.00000593
   2        -0.00010850
   3         0.00000000
   4         0.00000000
   5        -0.00015402
   6         1.00000165
   7        -0.00018412
   8        -0.00000000
   9        -0.00000000
  10        -0.00014858
Sym=     2a  
Ene=    -7.7115
Spin= Alpha
Occup=    1.00000
   1         0.99988687
   2         0.01502138
   3         0.00000000
   4        -0.00000000
   5         0.00001153
   6        -0.00001443
   7        -0.00008145
   8        -0.00000000
   9        -0.00000000
  10        -0.00006105
Sym=     2a  
Ene=    -7.6984
Spin= Beta
Occup=    1.00000
   1         0.99991961
   2         0.01270871
   3         0.00000000
   4         0.00000000
   5         0.00015083
   6        -0.00000670
   7        -0.00006169
   8         0.00000000
   9        -0.00000000
  10         0.00005223
Sym=     3a  
Ene=    -1.2008
Spin= Alpha
Occup=    1.00000
   1        -0.00113731
   2         0.01763858
   3        -0.00000000
   4        -0.00000000
   5         0.01860092
   6        -0.00022219
   7         0.99660647
   8         0.00000000
   9         0.00000000
  10         0.01729107
Sym=     3a  
Ene=    -1.1785
Spin= Beta
Occup=    1.00000
   1        -0.00109558
   2         0.00816976
   3        -0.00000000
   4        -0.00000000
   5         0.00182105
   6         0.00016456
   7         0.99920672
   8        -0.00000000
   9        -0.00000000
  10        -0.01499468
Sym=     4a  
Ene=    -0.5587
Spin= Alpha
Occup=    1.00000
   1        -0.01535468
   2         0.98788731
   3        -0.00000000
   4        -0.00000000
   5        -0.04884704
   6        -0.00257698
   7        -0.06012640
   8         0.00000000
   9         0.00000000
  10        -0.08890433
Sym=     4a  
Ene=    -0.5074
Spin= Beta
Occup=    1.00000
   1         0.00000000
   2        -0.00000000
   3        -0.00745732
   4         0.00926505
   5        -0.00000000
   6         0.00000000
   7         0.00000000
   8        -0.62663970
   9         0.77854346
  10         0.00000000
Sym=     5a  
Ene=    -0.5129
Spin= Alpha
Occup=    1.00000
   1         0.00000000
   2        -0.00000000
   3        -0.00539737
   4         0.01330938
   5         0.00000000
   6         0.00000000
   7         0.00000000
   8        -0.37552822
   9         0.92601454
  10        -0.00000000
Sym=     5a  
Ene=    -0.5074
Spin= Beta
Occup=    1.00000
   1         0.00000000
   2        -0.00000000
   3         0.00926505
   4         0.00745732
   5        -0.00000000
   6         0.00000000
   7         0.00000000
   8         0.77854346
   9         0.62663970
  10         0.00000000
Sym=     6a  
Ene=    -0.5129
Spin= Alpha
Occup=    1.00000
   1         0.00000000
   2        -0.00000000
   3         0.01330938
   4         0.00539737
   5         0.00000000
   6         0.00000000
   7         0.00000000
   8         0.92601454
   9         0.37552822
  10        -0.00000000
Sym=     6a  
Ene=    -0.4742
Spin= Beta
Occup=    1.00000
   1         0.01288300
   2        -0.99476975
   3        -0.00000000
   4        -0.00000000
   5        -0.03306224
   6         0.00329985
   7         0.06629921
   8        -0.00000000
   9        -0.00000000
  10         0.04953602
Sym=     7a  
Ene=    -0.3260
Spin= Alpha
Occup=    1.00000
   1         0.00168061
   2         0.01683257
   3         0.00000000
   4         0.00000000
   5        -0.91523969
   6         0.00793930
   7         0.11090762
   8         0.00000000
   9         0.00000000
  10         0.31611898
Sym=     7a  
Ene=     0.0696
Spin= Beta
Occup=    0.00000
   1        -0.00299171
   2        -0.13167601
   3         0.00000000
   4         0.00000000
   5         0.56465303
   6        -0.00459538
   7        -0.06868596
   8         0.00000000
   9         0.00000000
  10        -0.75972860
Sym=     8a  
Ene=     0.0601
Spin= Alpha
Occup=    0.00000
   1         0.00340950
   2         0.18833382
   3         0.00000000
   4         0.00000000
   5         0.43493841
   6        -0.00429022
   7        -0.08083115
   8         0.00000000
   9         0.00000000
  10         0.95807343
Sym=     8a  
Ene=     0.0919
Spin= Beta
Occup=    0.00000
   1         0.00000000
   2         0.00000000
   3         0.14687951
   4         0.99007299
   5        -0.00000000
   6         0.00000000
   7         0.00000000
   8        -0.00823915
   9        -0.05553778
  10         0.00000000
Sym=     9a  
Ene=     0.0715
Spin= Alpha
Occup=    0.00000
   1         0.00000000
   2         0.00000000
   3        -0.16831601
   4        -0.98662202
   5         0.00000000
   6        -0.00000000
   7        -0.00000000
   8         0.00985645
   9         0.05777579
  10         0.00000000
Sym=     9a  
Ene=     0.0919
Spin= Beta
Occup=    0.00000
   1        -0.00000000
   2        -0.00000000
   3        -0.99007299
   4         0.14687951
   5         0.00000000
   6        -0.00000000
   7        -0.00000000
   8         0.05553778
   9        -0.00823915
  10        -0.00000000
Sym=    10a  
Ene=     0.0715
Spin= Alpha
Occup=    0.00000
   1        -0.00000000
   2        -0.00000000
   3         0.98662202
   4        -0.16831601
   5        -0.00000000
   6         0.00000000
   7         0.00000000
   8        -0.05777579
   9         0.00985645
  10        -0.00000000
Sym=    10a  
Ene=     0.1875
Spin= Beta
Occup=    0.00000
   1         0.00314763
   2         0.07125572
   3         0.00000000
   4         0.00000000
   5         0.84239992
   6        -0.00744467
   7        -0.09025729
   8        -0.00000000
   9        -0.00000000
  10         0.66796156
