[Molden Format]
[N_Atoms]
                     2
[Atoms] (AU)
C1          1      6           0.00000000      0.00000000      0.00000000
C2          2      6           0.00000000      0.00000000      1.32280829
[Charge] (Mulliken)
  2.398081733190338E-014
 -2.930988785010413E-014
[GTO] (AU)
   1
   s  14
  5.055750100E+04  1.128874000E-04
  7.524785600E+03  5.295373000E-04
  1.694327600E+03  2.450038300E-03
  4.728227900E+02  1.005398470E-02
  1.517107500E+02  3.545398060E-02
  5.391874600E+01  1.044071086E-01
  2.065931100E+01  2.412894918E-01
  8.383976000E+00  3.834225483E-01
  3.577015000E+00  3.078514393E-01
  1.547118000E+00  6.872442990E-02
  6.130130000E-01  2.224445000E-04
  2.460680000E-01  1.976748900E-03
  9.908700000E-02  2.057859400E-03
  3.468000000E-02  4.182020000E-04
   s  14
  5.055750100E+04 -2.507420000E-05
  7.524785600E+03 -1.175945000E-04
  1.694327600E+03 -5.456275000E-04
  4.728227900E+02 -2.245077100E-03
  1.517107500E+02 -8.043471800E-03
  5.391874600E+01 -2.442588710E-02
  2.065931100E+01 -6.136791180E-02
  8.383976000E+00 -1.177767835E-01
  3.577015000E+00 -1.550487783E-01
  1.547118000E+00 -1.933316860E-02
  6.130130000E-01  3.996930678E-01
  2.460680000E-01  5.589420949E-01
  9.908700000E-02  1.711195023E-01
  3.468000000E-02  7.456244600E-03
   p   9
  8.333315500E+01  1.344656000E-03
  1.955761100E+01  1.023555500E-02
  6.080365000E+00  4.520067100E-02
  2.179317000E+00  1.410756198E-01
  8.651500000E-01  3.047388085E-01
  3.619440000E-01  3.995281011E-01
  1.547400000E-01  2.719163432E-01
  6.542900000E-02  5.857669330E-02
  2.290000000E-02 -1.263813000E-04
 
   2
   s  14
  5.055750100E+04  1.128874000E-04
  7.524785600E+03  5.295373000E-04
  1.694327600E+03  2.450038300E-03
  4.728227900E+02  1.005398470E-02
  1.517107500E+02  3.545398060E-02
  5.391874600E+01  1.044071086E-01
  2.065931100E+01  2.412894918E-01
  8.383976000E+00  3.834225483E-01
  3.577015000E+00  3.078514393E-01
  1.547118000E+00  6.872442990E-02
  6.130130000E-01  2.224445000E-04
  2.460680000E-01  1.976748900E-03
  9.908700000E-02  2.057859400E-03
  3.468000000E-02  4.182020000E-04
   s  14
  5.055750100E+04 -2.507420000E-05
  7.524785600E+03 -1.175945000E-04
  1.694327600E+03 -5.456275000E-04
  4.728227900E+02 -2.245077100E-03
  1.517107500E+02 -8.043471800E-03
  5.391874600E+01 -2.442588710E-02
  2.065931100E+01 -6.136791180E-02
  8.383976000E+00 -1.177767835E-01
  3.577015000E+00 -1.550487783E-01
  1.547118000E+00 -1.933316860E-02
  6.130130000E-01  3.996930678E-01
  2.460680000E-01  5.589420949E-01
  9.908700000E-02  1.711195023E-01
  3.468000000E-02  7.456244600E-03
   p   9
  8.333315500E+01  1.344656000E-03
  1.955761100E+01  1.023555500E-02
  6.080365000E+00  4.520067100E-02
  2.179317000E+00  1.410756198E-01
  8.651500000E-01  3.047388085E-01
  3.619440000E-01  3.995281011E-01
  1.547400000E-01  2.719163432E-01
  6.542900000E-02  5.857669330E-02
  2.290000000E-02 -1.263813000E-04
 
[MO]
Sym=     1a  
Ene=   -11.8980
Spin= Alpha
Occup=    2.00000
   1         0.69677072
   2        -0.00330584
   3         0.00000000
   4         0.00000000
   5         0.01508357
   6         0.69677072
   7        -0.00330584
   8        -0.00000000
   9        -0.00000000
  10        -0.01508357
Sym=     2a  
Ene=   -11.7100
Spin= Alpha
Occup=    2.00000
   1        -0.72015867
   2        -0.01745511
   3         0.00000000
   4         0.00000000
   5        -0.01030810
   6         0.72015867
   7         0.01745511
   8        -0.00000000
   9        -0.00000000
  10        -0.01030810
Sym=     3a  
Ene=    -1.2654
Spin= Alpha
Occup=    2.00000
   1        -0.17790712
   2         0.38209105
   3        -0.00000000
   4         0.00000000
   5         0.41248489
   6        -0.17790712
   7         0.38209105
   8        -0.00000000
   9        -0.00000000
  10        -0.41248489
Sym=     4a  
Ene=    -0.7738
Spin= Alpha
Occup=    2.00000
   1        -0.00000000
   2         0.00000000
   3         0.53913305
   4         0.09106340
   5         0.00000000
   6        -0.00000000
   7         0.00000000
   8         0.53913305
   9         0.09106340
  10        -0.00000000
Sym=     5a  
Ene=    -0.7738
Spin= Alpha
Occup=    2.00000
   1         0.00000000
   2        -0.00000000
   3        -0.09106340
   4         0.53913305
   5         0.00000000
   6         0.00000000
   7         0.00000000
   8        -0.09106340
   9         0.53913305
  10         0.00000000
Sym=     6a  
Ene=    -0.3516
Spin= Alpha
Occup=    1.05658
   1         0.03006171
   2        -0.48400401
   3        -0.00000000
   4        -0.00000000
   5         0.45126960
   6        -0.03006171
   7         0.48400401
   8         0.00000000
   9        -0.00000000
  10         0.45126960
Sym=     7a  
Ene=     0.0000
Spin= Alpha
Occup=    0.94342
   1         0.13626927
   2         0.43551235
   3        -0.00000000
   4        -0.00000000
   5        -0.78642255
   6         0.13626927
   7         0.43551235
   8         0.00000000
   9        -0.00000000
  10         0.78642255
Sym=     8a  
Ene=     0.5049
Spin= Alpha
Occup=    0.00000
   1         0.00000000
   2         0.00000000
   3        -1.18252594
   4        -0.35813858
   5         0.00000000
   6        -0.00000000
   7        -0.00000000
   8         1.18252594
   9         0.35813858
  10        -0.00000000
Sym=     9a  
Ene=     0.5049
Spin= Alpha
Occup=    0.00000
   1        -0.00000000
   2        -0.00000000
   3         0.35813858
   4        -1.18252594
   5        -0.00000000
   6         0.00000000
   7         0.00000000
   8        -0.35813858
   9         1.18252594
  10        -0.00000000
Sym=    10a  
Ene=     3.4044
Spin= Alpha
Occup=    0.00000
   1        -1.92303908
   2        -6.44113039
   3        -0.00000000
   4         0.00000000
   5        -2.85056527
   6         1.92303908
   7         6.44113039
   8         0.00000000
   9        -0.00000000
  10        -2.85056527
