[Molden Format]
[N_Atoms]
                     2
[Atoms] (AU)
C1          1      6           0.00000000      0.00000000      0.00000000
C2          2      6           0.00000000      0.00000000      1.32280829
[Charge] (Mulliken)
 -1.163513729807164E-013
  1.154631945610163E-013
[GTO] (AU)
   1
   s  14
  5.055750100E+04  1.128874000E-04
  7.524785600E+03  5.295373000E-04
  1.694327600E+03  2.450038300E-03
  4.728227900E+02  1.005398470E-02
  1.517107500E+02  3.545398060E-02
  5.391874600E+01  1.044071086E-01
  2.065931100E+01  2.412894918E-01
  8.383976000E+00  3.834225483E-01
  3.577015000E+00  3.078514393E-01
  1.547118000E+00  6.872442990E-02
  6.130130000E-01  2.224445000E-04
  2.460680000E-01  1.976748900E-03
  9.908700000E-02  2.057859400E-03
  3.468000000E-02  4.182020000E-04
   s  14
  5.055750100E+04 -2.507420000E-05
  7.524785600E+03 -1.175945000E-04
  1.694327600E+03 -5.456275000E-04
  4.728227900E+02 -2.245077100E-03
  1.517107500E+02 -8.043471800E-03
  5.391874600E+01 -2.442588710E-02
  2.065931100E+01 -6.136791180E-02
  8.383976000E+00 -1.177767835E-01
  3.577015000E+00 -1.550487783E-01
  1.547118000E+00 -1.933316860E-02
  6.130130000E-01  3.996930678E-01
  2.460680000E-01  5.589420949E-01
  9.908700000E-02  1.711195023E-01
  3.468000000E-02  7.456244600E-03
   p   9
  8.333315500E+01  1.344656000E-03
  1.955761100E+01  1.023555500E-02
  6.080365000E+00  4.520067100E-02
  2.179317000E+00  1.410756198E-01
  8.651500000E-01  3.047388085E-01
  3.619440000E-01  3.995281011E-01
  1.547400000E-01  2.719163432E-01
  6.542900000E-02  5.857669330E-02
  2.290000000E-02 -1.263813000E-04
 
   2
   s  14
  5.055750100E+04  1.128874000E-04
  7.524785600E+03  5.295373000E-04
  1.694327600E+03  2.450038300E-03
  4.728227900E+02  1.005398470E-02
  1.517107500E+02  3.545398060E-02
  5.391874600E+01  1.044071086E-01
  2.065931100E+01  2.412894918E-01
  8.383976000E+00  3.834225483E-01
  3.577015000E+00  3.078514393E-01
  1.547118000E+00  6.872442990E-02
  6.130130000E-01  2.224445000E-04
  2.460680000E-01  1.976748900E-03
  9.908700000E-02  2.057859400E-03
  3.468000000E-02  4.182020000E-04
   s  14
  5.055750100E+04 -2.507420000E-05
  7.524785600E+03 -1.175945000E-04
  1.694327600E+03 -5.456275000E-04
  4.728227900E+02 -2.245077100E-03
  1.517107500E+02 -8.043471800E-03
  5.391874600E+01 -2.442588710E-02
  2.065931100E+01 -6.136791180E-02
  8.383976000E+00 -1.177767835E-01
  3.577015000E+00 -1.550487783E-01
  1.547118000E+00 -1.933316860E-02
  6.130130000E-01  3.996930678E-01
  2.460680000E-01  5.589420949E-01
  9.908700000E-02  1.711195023E-01
  3.468000000E-02  7.456244600E-03
   p   9
  8.333315500E+01  1.344656000E-03
  1.955761100E+01  1.023555500E-02
  6.080365000E+00  4.520067100E-02
  2.179317000E+00  1.410756198E-01
  8.651500000E-01  3.047388085E-01
  3.619440000E-01  3.995281011E-01
  1.547400000E-01  2.719163432E-01
  6.542900000E-02  5.857669330E-02
  2.290000000E-02 -1.263813000E-04
 
[MO]
Sym=     1a  
Ene=   -12.0130
Spin= Alpha
Occup=    1.00000
   1         0.69691592
   2        -0.00342488
   3        -0.00000000
   4         0.00000000
   5         0.01462180
   6         0.69691592
   7        -0.00342488
   8         0.00000000
   9        -0.00000000
  10        -0.01462180
Sym=     1a  
Ene=   -12.0130
Spin= Beta
Occup=    1.00000
   1         0.69691592
   2        -0.00342488
   3        -0.00000000
   4         0.00000000
   5         0.01462180
   6         0.69691592
   7        -0.00342488
   8         0.00000000
   9        -0.00000000
  10        -0.01462180
Sym=     2a  
Ene=   -11.8270
Spin= Alpha
Occup=    1.00000
   1        -0.72218261
   2        -0.02360327
   3         0.00000000
   4         0.00000000
   5        -0.01375016
   6         0.72218261
   7         0.02360327
   8         0.00000000
   9        -0.00000000
  10        -0.01375016
Sym=     2a  
Ene=   -11.8270
Spin= Beta
Occup=    1.00000
   1        -0.72218261
   2        -0.02360327
   3         0.00000000
   4         0.00000000
   5        -0.01375016
   6         0.72218261
   7         0.02360327
   8         0.00000000
   9        -0.00000000
  10        -0.01375016
Sym=     3a  
Ene=    -1.3167
Spin= Alpha
Occup=    1.00000
   1        -0.16680229
   2         0.41359703
   3        -0.00000000
   4         0.00000000
   5         0.35250959
   6        -0.16680229
   7         0.41359703
   8         0.00000000
   9        -0.00000000
  10        -0.35250959
Sym=     3a  
Ene=    -1.3167
Spin= Beta
Occup=    1.00000
   1        -0.16680229
   2         0.41359703
   3        -0.00000000
   4         0.00000000
   5         0.35250959
   6        -0.16680229
   7         0.41359703
   8         0.00000000
   9        -0.00000000
  10        -0.35250959
Sym=     4a  
Ene=    -0.8109
Spin= Alpha
Occup=    1.00000
   1        -0.00000000
   2        -0.00000000
   3         0.53705211
   4         0.10262562
   5         0.00000000
   6        -0.00000000
   7         0.00000000
   8         0.53705211
   9         0.10262562
  10        -0.00000000
Sym=     4a  
Ene=    -0.8109
Spin= Beta
Occup=    1.00000
   1        -0.00000000
   2        -0.00000000
   3         0.53705211
   4         0.10262562
   5         0.00000000
   6        -0.00000000
   7         0.00000000
   8         0.53705211
   9         0.10262562
  10        -0.00000000
Sym=     5a  
Ene=    -0.8109
Spin= Alpha
Occup=    1.00000
   1         0.00000000
   2         0.00000000
   3        -0.10262562
   4         0.53705211
   5         0.00000000
   6        -0.00000000
   7         0.00000000
   8        -0.10262562
   9         0.53705211
  10         0.00000000
Sym=     5a  
Ene=    -0.8109
Spin= Beta
Occup=    1.00000
   1         0.00000000
   2         0.00000000
   3        -0.10262562
   4         0.53705211
   5         0.00000000
   6        -0.00000000
   7         0.00000000
   8        -0.10262562
   9         0.53705211
  10         0.00000000
Sym=     6a  
Ene=    -0.5287
Spin= Alpha
Occup=    1.00000
   1        -0.00652618
   2        -0.60390325
   3        -0.00000000
   4        -0.00000000
   5         0.39808883
   6         0.00652618
   7         0.60390325
   8        -0.00000000
   9        -0.00000000
  10         0.39808883
Sym=     6a  
Ene=    -0.5287
Spin= Beta
Occup=    1.00000
   1        -0.00652618
   2        -0.60390325
   3        -0.00000000
   4        -0.00000000
   5         0.39808883
   6         0.00652618
   7         0.60390325
   8        -0.00000000
   9        -0.00000000
  10         0.39808883
Sym=     7a  
Ene=    -0.1840
Spin= Alpha
Occup=    0.00000
   1         0.14897954
   2         0.40571082
   3         0.00000000
   4        -0.00000000
   5        -0.81507970
   6         0.14897954
   7         0.40571082
   8        -0.00000000
   9        -0.00000000
  10         0.81507970
Sym=     7a  
Ene=    -0.1840
Spin= Beta
Occup=    0.00000
   1         0.14897954
   2         0.40571082
   3         0.00000000
   4        -0.00000000
   5        -0.81507970
   6         0.14897954
   7         0.40571082
   8        -0.00000000
   9        -0.00000000
  10         0.81507970
Sym=     8a  
Ene=     0.4544
Spin= Alpha
Occup=    0.00000
   1         0.00000000
   2         0.00000000
   3        -1.21574882
   4        -0.22042155
   5        -0.00000000
   6        -0.00000000
   7        -0.00000000
   8         1.21574882
   9         0.22042155
  10         0.00000000
Sym=     8a  
Ene=     0.4544
Spin= Beta
Occup=    0.00000
   1         0.00000000
   2         0.00000000
   3        -1.21574882
   4        -0.22042155
   5        -0.00000000
   6        -0.00000000
   7        -0.00000000
   8         1.21574882
   9         0.22042155
  10         0.00000000
Sym=     9a  
Ene=     0.4544
Spin= Alpha
Occup=    0.00000
   1        -0.00000000
   2        -0.00000000
   3         0.22042155
   4        -1.21574882
   5         0.00000000
   6         0.00000000
   7         0.00000000
   8        -0.22042155
   9         1.21574882
  10        -0.00000000
Sym=     9a  
Ene=     0.4544
Spin= Beta
Occup=    0.00000
   1        -0.00000000
   2        -0.00000000
   3         0.22042155
   4        -1.21574882
   5         0.00000000
   6         0.00000000
   7         0.00000000
   8        -0.22042155
   9         1.21574882
  10        -0.00000000
Sym=    10a  
Ene=     3.3672
Spin= Alpha
Occup=    0.00000
   1         1.92250389
   2         6.43097730
   3         0.00000000
   4        -0.00000000
   5         2.85846271
   6        -1.92250389
   7        -6.43097730
   8        -0.00000000
   9         0.00000000
  10         2.85846271
Sym=    10a  
Ene=     3.3672
Spin= Beta
Occup=    0.00000
   1         1.92250389
   2         6.43097730
   3         0.00000000
   4        -0.00000000
   5         2.85846271
   6        -1.92250389
   7        -6.43097730
   8        -0.00000000
   9         0.00000000
  10         2.85846271
