[Molden Format]
[N_Atoms]
                     2
[Atoms] (AU)
C1          1      6           0.00000000      0.00000000      0.00000000
C2          2      6           0.00000000      0.00000000      1.32280829
[Charge] (Mulliken)
  0.000000000000000E+000
  0.000000000000000E+000
[GTO] (AU)
   1
   s  14
  5.055750100E+04  1.128874000E-04
  7.524785600E+03  5.295373000E-04
  1.694327600E+03  2.450038300E-03
  4.728227900E+02  1.005398470E-02
  1.517107500E+02  3.545398060E-02
  5.391874600E+01  1.044071086E-01
  2.065931100E+01  2.412894918E-01
  8.383976000E+00  3.834225483E-01
  3.577015000E+00  3.078514393E-01
  1.547118000E+00  6.872442990E-02
  6.130130000E-01  2.224445000E-04
  2.460680000E-01  1.976748900E-03
  9.908700000E-02  2.057859400E-03
  3.468000000E-02  4.182020000E-04
   s  14
  5.055750100E+04 -2.507420000E-05
  7.524785600E+03 -1.175945000E-04
  1.694327600E+03 -5.456275000E-04
  4.728227900E+02 -2.245077100E-03
  1.517107500E+02 -8.043471800E-03
  5.391874600E+01 -2.442588710E-02
  2.065931100E+01 -6.136791180E-02
  8.383976000E+00 -1.177767835E-01
  3.577015000E+00 -1.550487783E-01
  1.547118000E+00 -1.933316860E-02
  6.130130000E-01  3.996930678E-01
  2.460680000E-01  5.589420949E-01
  9.908700000E-02  1.711195023E-01
  3.468000000E-02  7.456244600E-03
   p   9
  8.333315500E+01  1.344656000E-03
  1.955761100E+01  1.023555500E-02
  6.080365000E+00  4.520067100E-02
  2.179317000E+00  1.410756198E-01
  8.651500000E-01  3.047388085E-01
  3.619440000E-01  3.995281011E-01
  1.547400000E-01  2.719163432E-01
  6.542900000E-02  5.857669330E-02
  2.290000000E-02 -1.263813000E-04
 
   2
   s  14
  5.055750100E+04  1.128874000E-04
  7.524785600E+03  5.295373000E-04
  1.694327600E+03  2.450038300E-03
  4.728227900E+02  1.005398470E-02
  1.517107500E+02  3.545398060E-02
  5.391874600E+01  1.044071086E-01
  2.065931100E+01  2.412894918E-01
  8.383976000E+00  3.834225483E-01
  3.577015000E+00  3.078514393E-01
  1.547118000E+00  6.872442990E-02
  6.130130000E-01  2.224445000E-04
  2.460680000E-01  1.976748900E-03
  9.908700000E-02  2.057859400E-03
  3.468000000E-02  4.182020000E-04
   s  14
  5.055750100E+04 -2.507420000E-05
  7.524785600E+03 -1.175945000E-04
  1.694327600E+03 -5.456275000E-04
  4.728227900E+02 -2.245077100E-03
  1.517107500E+02 -8.043471800E-03
  5.391874600E+01 -2.442588710E-02
  2.065931100E+01 -6.136791180E-02
  8.383976000E+00 -1.177767835E-01
  3.577015000E+00 -1.550487783E-01
  1.547118000E+00 -1.933316860E-02
  6.130130000E-01  3.996930678E-01
  2.460680000E-01  5.589420949E-01
  9.908700000E-02  1.711195023E-01
  3.468000000E-02  7.456244600E-03
   p   9
  8.333315500E+01  1.344656000E-03
  1.955761100E+01  1.023555500E-02
  6.080365000E+00  4.520067100E-02
  2.179317000E+00  1.410756198E-01
  8.651500000E-01  3.047388085E-01
  3.619440000E-01  3.995281011E-01
  1.547400000E-01  2.719163432E-01
  6.542900000E-02  5.857669330E-02
  2.290000000E-02 -1.263813000E-04
 
[MO]
Sym=     1a  
Ene=   -11.6090
Spin= Alpha
Occup=    2.00000
   1         0.69667497
   2         0.00860782
   3         0.00000000
   4         0.00000000
   5         0.00718898
   6         0.69667497
   7         0.00860782
   8        -0.00000000
   9        -0.00000000
  10        -0.00718898
Sym=     2a  
Ene=   -11.1550
Spin= Alpha
Occup=    2.00000
   1        -0.71083004
   2         0.00788406
   3         0.00000000
   4         0.00000000
   5         0.00746651
   6         0.71083004
   7        -0.00788406
   8        -0.00000000
   9         0.00000000
  10         0.00746651
Sym=     3a  
Ene=    -1.2548
Spin= Alpha
Occup=    2.00000
   1        -0.12758417
   2         0.51540079
   3        -0.00000000
   4        -0.00000000
   5         0.09427159
   6        -0.12758417
   7         0.51540079
   8        -0.00000000
   9         0.00000000
  10        -0.09427159
Sym=     4a  
Ene=    -0.7282
Spin= Alpha
Occup=    2.00000
   1         0.00000000
   2         0.00000000
   3         0.52949112
   4        -0.13636768
   5         0.00000000
   6        -0.00000000
   7        -0.00000000
   8         0.52949112
   9        -0.13636768
  10         0.00000000
Sym=     5a  
Ene=    -0.7282
Spin= Alpha
Occup=    2.00000
   1         0.00000000
   2         0.00000000
   3         0.13636768
   4         0.52949112
   5         0.00000000
   6        -0.00000000
   7        -0.00000000
   8         0.13636768
   9         0.52949112
  10         0.00000000
Sym=     6a  
Ene=    -0.6474
Spin= Alpha
Occup=    2.00000
   1         0.07358027
   2        -0.36192250
   3        -0.00000000
   4         0.00000000
   5         0.50517138
   6        -0.07358027
   7         0.36192250
   8        -0.00000000
   9         0.00000000
  10         0.50517138
Sym=     7a  
Ene=    -0.2641
Spin= Alpha
Occup=    0.00000
   1         0.18459677
   2         0.26450601
   3         0.00000000
   4         0.00000000
   5        -0.88311546
   6         0.18459677
   7         0.26450601
   8        -0.00000000
   9        -0.00000000
  10         0.88311546
Sym=     8a  
Ene=    -0.1426
Spin= Alpha
Occup=    0.00000
   1        -0.00000000
   2        -0.00000000
   3         0.51619713
   4        -1.12257355
   5        -0.00000000
   6         0.00000000
   7         0.00000000
   8        -0.51619713
   9         1.12257355
  10        -0.00000000
Sym=     9a  
Ene=    -0.1426
Spin= Alpha
Occup=    0.00000
   1         0.00000000
   2         0.00000000
   3        -1.12257355
   4        -0.51619713
   5         0.00000000
   6        -0.00000000
   7        -0.00000000
   8         1.12257355
   9         0.51619713
  10         0.00000000
Sym=    10a  
Ene=    -0.0064
Spin= Alpha
Occup=    0.00000
   1         1.92533585
   2         6.44916081
   3        -0.00000000
   4        -0.00000000
   5         2.84151702
   6        -1.92533585
   7        -6.44916081
   8        -0.00000000
   9         0.00000000
  10         2.84151702
