[Molden Format]
[N_Atoms]
                     2
[Atoms] (AU)
C1          1      6           0.00000000      0.00000000      0.00000000
C2          2      6           0.00000000      0.00000000      1.32280829
[Charge] (Mulliken)
  0.999999999999679     
   1.00000000000031     
[GTO] (AU)
   1
   s  14
  5.055750100E+04  1.128874000E-04
  7.524785600E+03  5.295373000E-04
  1.694327600E+03  2.450038300E-03
  4.728227900E+02  1.005398470E-02
  1.517107500E+02  3.545398060E-02
  5.391874600E+01  1.044071086E-01
  2.065931100E+01  2.412894918E-01
  8.383976000E+00  3.834225483E-01
  3.577015000E+00  3.078514393E-01
  1.547118000E+00  6.872442990E-02
  6.130130000E-01  2.224445000E-04
  2.460680000E-01  1.976748900E-03
  9.908700000E-02  2.057859400E-03
  3.468000000E-02  4.182020000E-04
   s  14
  5.055750100E+04 -2.507420000E-05
  7.524785600E+03 -1.175945000E-04
  1.694327600E+03 -5.456275000E-04
  4.728227900E+02 -2.245077100E-03
  1.517107500E+02 -8.043471800E-03
  5.391874600E+01 -2.442588710E-02
  2.065931100E+01 -6.136791180E-02
  8.383976000E+00 -1.177767835E-01
  3.577015000E+00 -1.550487783E-01
  1.547118000E+00 -1.933316860E-02
  6.130130000E-01  3.996930678E-01
  2.460680000E-01  5.589420949E-01
  9.908700000E-02  1.711195023E-01
  3.468000000E-02  7.456244600E-03
   p   9
  8.333315500E+01  1.344656000E-03
  1.955761100E+01  1.023555500E-02
  6.080365000E+00  4.520067100E-02
  2.179317000E+00  1.410756198E-01
  8.651500000E-01  3.047388085E-01
  3.619440000E-01  3.995281011E-01
  1.547400000E-01  2.719163432E-01
  6.542900000E-02  5.857669330E-02
  2.290000000E-02 -1.263813000E-04
 
   2
   s  14
  5.055750100E+04  1.128874000E-04
  7.524785600E+03  5.295373000E-04
  1.694327600E+03  2.450038300E-03
  4.728227900E+02  1.005398470E-02
  1.517107500E+02  3.545398060E-02
  5.391874600E+01  1.044071086E-01
  2.065931100E+01  2.412894918E-01
  8.383976000E+00  3.834225483E-01
  3.577015000E+00  3.078514393E-01
  1.547118000E+00  6.872442990E-02
  6.130130000E-01  2.224445000E-04
  2.460680000E-01  1.976748900E-03
  9.908700000E-02  2.057859400E-03
  3.468000000E-02  4.182020000E-04
   s  14
  5.055750100E+04 -2.507420000E-05
  7.524785600E+03 -1.175945000E-04
  1.694327600E+03 -5.456275000E-04
  4.728227900E+02 -2.245077100E-03
  1.517107500E+02 -8.043471800E-03
  5.391874600E+01 -2.442588710E-02
  2.065931100E+01 -6.136791180E-02
  8.383976000E+00 -1.177767835E-01
  3.577015000E+00 -1.550487783E-01
  1.547118000E+00 -1.933316860E-02
  6.130130000E-01  3.996930678E-01
  2.460680000E-01  5.589420949E-01
  9.908700000E-02  1.711195023E-01
  3.468000000E-02  7.456244600E-03
   p   9
  8.333315500E+01  1.344656000E-03
  1.955761100E+01  1.023555500E-02
  6.080365000E+00  4.520067100E-02
  2.179317000E+00  1.410756198E-01
  8.651500000E-01  3.047388085E-01
  3.619440000E-01  3.995281011E-01
  1.547400000E-01  2.719163432E-01
  6.542900000E-02  5.857669330E-02
  2.290000000E-02 -1.263813000E-04
 
[MO]
Sym=     1a  
Ene=   -13.1670
Spin= Alpha
Occup=    2.00000
   1         0.69754299
   2        -0.00371580
   3         0.00000000
   4         0.00000000
   5         0.01247043
   6         0.69754299
   7        -0.00371580
   8         0.00000000
   9        -0.00000000
  10        -0.01247043
Sym=     2a  
Ene=   -12.9830
Spin= Alpha
Occup=    2.00000
   1        -0.71784369
   2        -0.00940597
   3         0.00000000
   4         0.00000000
   5        -0.00708424
   6         0.71784369
   7         0.00940597
   8         0.00000000
   9        -0.00000000
  10        -0.00708424
Sym=     3a  
Ene=    -2.2549
Spin= Alpha
Occup=    2.00000
   1        -0.18131851
   2         0.36340064
   3         0.00000000
   4         0.00000000
   5         0.44528006
   6        -0.18131851
   7         0.36340064
   8        -0.00000000
   9         0.00000000
  10        -0.44528006
Sym=     4a  
Ene=    -1.6772
Spin= Alpha
Occup=    2.00000
   1         0.00000000
   2        -0.00000000
   3        -0.20784211
   4         0.50572586
   5         0.00000000
   6         0.00000000
   7         0.00000000
   8        -0.20784211
   9         0.50572586
  10         0.00000000
Sym=     5a  
Ene=    -1.6760
Spin= Alpha
Occup=    1.99413
   1         0.00000000
   2         0.00000000
   3         0.50572586
   4         0.20784211
   5        -0.00000000
   6        -0.00000000
   7        -0.00000000
   8         0.50572586
   9         0.20784211
  10         0.00000000
Sym=     6a  
Ene=    -0.0004
Spin= Alpha
Occup=    0.00587
   1        -0.23990403
   2        -1.38087336
   3         0.00000000
   4        -0.00000000
   5         0.04780030
   6         0.23990403
   7         1.38087336
   8         0.00000000
   9        -0.00000000
  10         0.04780030
Sym=     7a  
Ene=    -1.0295
Spin= Alpha
Occup=    0.00000
   1         0.12754246
   2         0.45122241
   3         0.00000000
   4        -0.00000000
   5        -0.76837613
   6         0.12754246
   7         0.45122241
   8        -0.00000000
   9        -0.00000000
  10         0.76837613
Sym=     8a  
Ene=    -0.4656
Spin= Alpha
Occup=    0.00000
   1        -0.00000000
   2        -0.00000000
   3         0.46967366
   4        -1.14281998
   5         0.00000000
   6         0.00000000
   7         0.00000000
   8        -0.46967366
   9         1.14281998
  10        -0.00000000
Sym=     9a  
Ene=    -0.4655
Spin= Alpha
Occup=    0.00000
   1         0.00000000
   2         0.00000000
   3        -1.14281998
   4        -0.46967366
   5         0.00000000
   6        -0.00000000
   7        -0.00000000
   8         1.14281998
   9         0.46967366
  10         0.00000000
Sym=    10a  
Ene=     2.3637
Spin= Alpha
Occup=    0.00000
   1        -1.90912494
   2        -6.30997825
   3        -0.00000000
   4         0.00000000
   5        -2.88567805
   6         1.90912494
   7         6.30997825
   8         0.00000000
   9         0.00000000
  10        -2.88567805
