[Molden Format]
[N_Atoms]
                     2
[Atoms] (AU)
C1          1      6           0.00000000      0.00000000      0.00000000
H2          2      1           0.00000000      0.00000000      5.29123315
[Charge] (Mulliken)
  3.243387914992013E-003
 -3.243387915004003E-003
[GTO] (AU)
   1
   s  14
  5.055750100E+04  1.128874000E-04
  7.524785600E+03  5.295373000E-04
  1.694327600E+03  2.450038300E-03
  4.728227900E+02  1.005398470E-02
  1.517107500E+02  3.545398060E-02
  5.391874600E+01  1.044071086E-01
  2.065931100E+01  2.412894918E-01
  8.383976000E+00  3.834225483E-01
  3.577015000E+00  3.078514393E-01
  1.547118000E+00  6.872442990E-02
  6.130130000E-01  2.224445000E-04
  2.460680000E-01  1.976748900E-03
  9.908700000E-02  2.057859400E-03
  3.468000000E-02  4.182020000E-04
   s  14
  5.055750100E+04 -2.507420000E-05
  7.524785600E+03 -1.175945000E-04
  1.694327600E+03 -5.456275000E-04
  4.728227900E+02 -2.245077100E-03
  1.517107500E+02 -8.043471800E-03
  5.391874600E+01 -2.442588710E-02
  2.065931100E+01 -6.136791180E-02
  8.383976000E+00 -1.177767835E-01
  3.577015000E+00 -1.550487783E-01
  1.547118000E+00 -1.933316860E-02
  6.130130000E-01  3.996930678E-01
  2.460680000E-01  5.589420949E-01
  9.908700000E-02  1.711195023E-01
  3.468000000E-02  7.456244600E-03
   p   9
  8.333315500E+01  1.344656000E-03
  1.955761100E+01  1.023555500E-02
  6.080365000E+00  4.520067100E-02
  2.179317000E+00  1.410756198E-01
  8.651500000E-01  3.047388085E-01
  3.619440000E-01  3.995281011E-01
  1.547400000E-01  2.719163432E-01
  6.542900000E-02  5.857669330E-02
  2.290000000E-02 -1.263813000E-04
 
   2
   s   8
  1.886144500E+02  9.638500027E-04
  2.827659600E+01  7.491960021E-03
  6.424830000E+00  3.759541011E-02
  1.815041000E+00  1.433949804E-01
  5.910630000E-01  3.486363010E-01
  2.121490000E-01  4.382973612E-01
  7.989100000E-02  1.651066105E-01
  2.796200000E-02  2.102287006E-02
 
[MO]
Sym=     1a  
Ene=   -11.2370
Spin= Alpha
Occup=    1.00000
   1         0.99999800
   2        -0.00243030
   3         0.00000000
   4         0.00000000
   5         0.00005132
   6        -0.00029884
Sym=     1a  
Ene=   -11.2360
Spin= Beta
Occup=    1.00000
   1         0.99999778
   2        -0.00245309
   3         0.00000000
   4         0.00000000
   5         0.00004540
   6        -0.00024781
Sym=     2a  
Ene=    -0.6768
Spin= Alpha
Occup=    1.00000
   1         0.00223923
   2         0.99411584
   3        -0.00000000
   4        -0.00000000
   5         0.00077677
   6         0.06415368
Sym=     2a  
Ene=    -0.6738
Spin= Beta
Occup=    1.00000
   1         0.00242787
   2         0.99918612
   3         0.00000000
   4         0.00000000
   5        -0.00015469
   6         0.01233494
Sym=     3a  
Ene=    -0.4861
Spin= Alpha
Occup=    1.00000
   1        -0.00332482
   2        -0.12352579
   3         0.00000000
   4         0.00000000
   5         0.02683196
   6         0.99691274
Sym=     3a  
Ene=    -0.3760
Spin= Beta
Occup=    1.00000
   1        -0.00016094
   2        -0.00396306
   3         0.00000000
   4         0.00000000
   5         0.99533705
   6         0.04170397
Sym=     4a  
Ene=    -0.3779
Spin= Alpha
Occup=    1.00000
   1         0.00000000
   2        -0.00000000
   3        -0.13427754
   4        -0.99094376
   5        -0.00000000
   6         0.00000000
Sym=     4a  
Ene=     0.1382
Spin= Beta
Occup=    0.00000
   1         0.00000000
   2         0.00000000
   3         0.99094376
   4        -0.13427754
   5        -0.00000000
   6        -0.00000000
Sym=     5a  
Ene=     0.1376
Spin= Alpha
Occup=    0.00000
   1         0.00000000
   2         0.00000000
   3         0.99094376
   4        -0.13427754
   5         0.00000000
   6        -0.00000000
Sym=     5a  
Ene=     0.1999
Spin= Beta
Occup=    0.00000
   1         0.00327074
   2         0.07211367
   3         0.00000000
   4         0.00000000
   5         0.13310233
   6        -1.00505118
Sym=     6a  
Ene=     0.2036
Spin= Alpha
Occup=    0.00000
   1        -0.00035497
   2        -0.00801086
   3         0.00000000
   4         0.00000000
   5        -1.00383840
   6         0.11861072
Sym=     6a  
Ene=     0.2004
Spin= Beta
Occup=    0.00000
   1        -0.00000000
   2        -0.00000000
   3         0.13427754
   4         0.99094376
   5        -0.00000000
   6         0.00000000
