[Molden Format]
[N_Atoms]
                     2
[Atoms] (AU)
F1          1      9           0.00000000      0.00000000      0.00000000
O2          2      8           0.00000000      0.00000000      4.53534270
[Charge] (Mulliken)
 -2.656904202627430E-003
  2.656904202583910E-003
[GTO] (AU)
   1
   s  14
  1.031094600E+05  1.713099991E-04
  1.528100700E+04  7.123999962E-04
  3.441539200E+03  2.990479984E-03
  9.670948300E+02  1.164036994E-02
  3.140353400E+02  3.968642979E-02
  1.134423000E+02  1.128546094E-01
  4.464472700E+01  2.473650687E-01
  1.894287400E+01  3.672702681E-01
  8.532743000E+00  2.896286985E-01
  3.919401000E+00  7.786681959E-02
  1.568157000E+00  4.562139976E-03
  6.232900000E-01  2.468879987E-03
  2.408610000E-01  1.106309994E-03
  8.430100000E-02  1.739699991E-04
   s  14
  1.031094600E+05 -4.044999995E-05
  1.528100700E+04 -1.682299998E-04
  3.441539200E+03 -7.084299991E-04
  9.670948300E+02 -2.767999996E-03
  3.140353400E+02 -9.611379987E-03
  1.134423000E+02 -2.833957996E-02
  4.464472700E+01 -6.839343991E-02
  1.894287400E+01 -1.237379298E-01
  8.532743000E+00 -1.512859698E-01
  3.919401000E+00 -9.099909988E-03
  1.568157000E+00  3.716257695E-01
  6.232900000E-01  5.500214393E-01
  2.408610000E-01  2.092318697E-01
  8.430100000E-02  8.074639989E-03
   p   9
  2.453302900E+02  1.024860004E-03
  5.691900500E+01  8.344290032E-03
  1.760456800E+01  4.078927016E-02
  6.274995000E+00  1.351370605E-01
  2.447030000E+00  2.798830811E-01
  9.950600000E-01  3.597966414E-01
  4.039730000E-01  3.055347412E-01
  1.548100000E-01  1.354703905E-01
  5.418400000E-02  2.804449011E-02
 
   2
   s  14
  1.053749500E+05  1.238600013E-04
  1.567924000E+04  5.120100053E-04
  3.534544700E+03  2.152910022E-03
  9.873651600E+02  8.528440089E-03
  3.159787500E+02  3.018049031E-02
  1.116542800E+02  9.099702095E-02
  4.269945100E+01  2.177936423E-01
  1.739559600E+01  3.686245738E-01
  7.438309000E+00  3.366707335E-01
  3.222862000E+00  9.657630101E-02
  1.253877000E+00  2.144520022E-03
  4.951550000E-01  1.194350012E-03
  1.916650000E-01  5.390200056E-04
  6.708300000E-02  2.103400022E-04
   s  14
  1.053749500E+05 -2.815000008E-05
  1.567924000E+04 -1.163000003E-04
  3.534544700E+03 -4.909200013E-04
  9.873651600E+02 -1.946160005E-03
  3.159787500E+02 -7.005300019E-03
  1.116542800E+02 -2.167814006E-02
  4.269945100E+01 -5.641213015E-02
  1.739559600E+01 -1.127053003E-01
  7.438309000E+00 -1.589119704E-01
  3.222862000E+00 -3.355083009E-02
  1.253877000E+00  3.531902810E-01
  4.951550000E-01  5.534199315E-01
  1.916650000E-01  2.301839106E-01
  6.708300000E-02  1.127267003E-02
   p   9
  2.000000000E+02  9.173000030E-04
  4.653336700E+01  7.377140024E-03
  1.462180900E+01  3.483515011E-02
  5.313064000E+00  1.144397004E-01
  2.102525000E+00  2.554966408E-01
  8.502230000E-01  3.722557412E-01
  3.375970000E-01  3.323314911E-01
  1.288920000E-01  1.400847905E-01
  4.511200000E-02  2.395784008E-02
 
[MO]
Sym=     1a  
Ene=   -26.4240
Spin= Alpha
Occup=    1.00000
   1         0.99999132
   2        -0.00419981
   3        -0.00000000
   4        -0.00000000
   5         0.00001272
   6        -0.00000243
   7        -0.00002945
   8         0.00000000
   9        -0.00000000
  10         0.00002923
Sym=     1a  
Ene=   -26.4660
Spin= Beta
Occup=    1.00000
   1         0.99999723
   2        -0.00248702
   3        -0.00000000
   4        -0.00000000
   5         0.00001592
   6        -0.00000314
   7        -0.00004984
   8         0.00000000
   9         0.00000000
  10         0.00006938
Sym=     2a  
Ene=   -20.7660
Spin= Alpha
Occup=    1.00000
   1        -0.00000580
   2        -0.00008275
   3        -0.00000000
   4         0.00000000
   5        -0.00011478
   6         0.99999923
   7         0.00158449
   8        -0.00000000
   9         0.00000000
  10        -0.00001982
Sym=     2a  
Ene=   -20.6960
Spin= Beta
Occup=    1.00000
   1        -0.00000282
   2        -0.00002726
   3        -0.00000000
   4         0.00000000
   5        -0.00001260
   6         0.99999777
   7        -0.00214066
   8        -0.00000000
   9         0.00000000
  10        -0.00001322
Sym=     3a  
Ene=    -1.5172
Spin= Alpha
Occup=    1.00000
   1         0.00406327
   2         0.99342212
   3        -0.00000000
   4         0.00000000
   5         0.00242123
   6        -0.00056775
   7         0.09034633
   8         0.00000000
   9        -0.00000000
  10        -0.01105125
Sym=     3a  
Ene=    -1.6915
Spin= Beta
Occup=    1.00000
   1         0.00247993
   2         0.99973245
   3        -0.00000000
   4         0.00000000
   5         0.00303346
   6        -0.00039548
   7         0.00764768
   8         0.00000000
   9        -0.00000000
  10        -0.00136965
Sym=     4a  
Ene=    -1.4276
Spin= Alpha
Occup=    1.00000
   1        -0.00120762
   2        -0.11018710
   3         0.00000000
   4         0.00000000
   5         0.00254939
   6        -0.00153352
   7         0.99593727
   8        -0.00000000
   9         0.00000000
  10        -0.00218935
Sym=     4a  
Ene=    -1.1193
Spin= Beta
Occup=    1.00000
   1        -0.00083913
   2        -0.02782989
   3        -0.00000000
   4         0.00000000
   5         0.05247770
   6         0.00194788
   7         0.99572327
   8        -0.00000000
   9         0.00000000
  10        -0.00499297
Sym=     5a  
Ene=    -0.7183
Spin= Alpha
Occup=    1.00000
   1        -0.00000000
   2        -0.00000000
   3        -0.19225654
   4         0.46507795
   5        -0.00000000
   6         0.00000000
   7        -0.00000000
   8        -0.32516327
   9         0.78658584
  10        -0.00000000
Sym=     5a  
Ene=    -0.8420
Spin= Beta
Occup=    1.00000
   1         0.00002343
   2        -0.00124593
   3        -0.00000000
   4         0.00000000
   5         0.99924470
   6        -0.00396837
   7        -0.11064874
   8         0.00000000
   9        -0.00000000
  10        -0.01206922
Sym=     6a  
Ene=    -0.7158
Spin= Alpha
Occup=    1.00000
   1         0.00429413
   2         0.06769998
   3         0.00000000
   4         0.00000000
   5        -0.03345000
   6         0.00009955
   7         0.00429986
   8        -0.00000000
   9         0.00000000
  10         0.99834266
Sym=     6a  
Ene=    -0.7520
Spin= Beta
Occup=    1.00000
   1         0.00000000
   2         0.00000000
   3         0.92335373
   4         0.38170115
   5         0.00000000
   6         0.00000000
   7        -0.00000000
   8         0.02122898
   9         0.00877576
  10         0.00000000
Sym=     7a  
Ene=    -0.7080
Spin= Alpha
Occup=    1.00000
   1        -0.00000000
   2        -0.00000000
   3         0.91916769
   4         0.37997070
   5         0.00000000
   6         0.00000000
   7        -0.00000000
   8         0.07485341
   9         0.03094332
  10        -0.00000000
Sym=     7a  
Ene=    -0.7520
Spin= Beta
Occup=    1.00000
   1        -0.00000000
   2        -0.00000000
   3        -0.38200848
   4         0.92409718
   5        -0.00000000
   6         0.00000000
   7        -0.00000000
   8        -0.00080379
   9         0.00194442
  10        -0.00000000
Sym=     8a  
Ene=    -0.7040
Spin= Alpha
Occup=    1.00000
   1        -0.00000000
   2        -0.00000000
   3         0.33027779
   4        -0.79895810
   5         0.00000000
   6        -0.00000000
   7        -0.00000000
   8        -0.20078555
   9         0.48571006
  10        -0.00000000
Sym=     8a  
Ene=    -0.5562
Spin= Beta
Occup=    1.00000
   1        -0.00000000
   2        -0.00000000
   3        -0.04527078
   4        -0.01871429
   5        -0.00000000
   6        -0.00000000
   7         0.00000000
   8         0.92421907
   9         0.38205887
  10         0.00000000
Sym=     9a  
Ene=    -0.6346
Spin= Alpha
Occup=    1.00000
   1        -0.00000000
   2        -0.00000000
   3        -0.09880441
   4        -0.04084432
   5        -0.00000000
   6        -0.00000000
   7         0.00000000
   8         0.92142744
   9         0.38090485
  10         0.00000000
Sym=     9a  
Ene=     0.1231
Spin= Beta
Occup=    0.00000
   1        -0.00000000
   2        -0.00000000
   3         0.01074763
   4        -0.02599903
   5        -0.00000000
   6         0.00000000
   7        -0.00000000
   8        -0.38215880
   9         0.92446080
  10        -0.00000000
Sym=    10a  
Ene=     0.0705
Spin= Alpha
Occup=    0.00000
   1         0.00051649
   2         0.00583930
   3        -0.00000000
   4         0.00000000
   5         1.00431452
   6        -0.00377073
   7        -0.06083640
   8         0.00000000
   9        -0.00000000
  10         0.11338448
Sym=    10a  
Ene=     0.1261
Spin= Beta
Occup=    0.00000
   1         0.00424255
   2         0.05845095
   3        -0.00000000
   4         0.00000000
   5         0.09233556
   6        -0.00036212
   7        -0.00212739
   8        -0.00000000
   9         0.00000000
  10         1.00473805
