[Molden Format]
[N_Atoms]
                     2
[Atoms] (AU)
B1          1      5           0.00000000      0.00000000      0.00000000
F2          2      9           0.00000000      0.00000000      3.40150702
[Charge] (Mulliken)
  0.498452353957796     
 -0.498452353957815     
[GTO] (AU)
   1
   s  14
  3.336021700E+04  1.039699991E-04
  4.972095200E+03  5.254399956E-04
  1.125641700E+03  2.509059979E-03
  3.164913600E+02  1.031887991E-02
  1.020072600E+02  3.636632969E-02
  3.629587300E+01  1.064607991E-01
  1.397141000E+01  2.403999880E-01
  5.741156000E+00  3.748581168E-01
  2.494268000E+00  3.100066974E-01
  1.114202000E+00  7.922455933E-02
  4.215490000E-01 -4.947589958E-03
  1.696330000E-01 -7.737119935E-03
  6.853500000E-02 -1.501079987E-03
  2.398700000E-02 -1.333299989E-04
   s  14
  3.336021700E+04 -2.030000008E-05
  4.972095200E+03 -1.025700004E-04
  1.125641700E+03 -4.911300020E-04
  3.164913600E+02 -2.026570008E-03
  1.020072600E+02 -7.261010030E-03
  3.629587300E+01 -2.197722009E-02
  1.397141000E+01 -5.408428022E-02
  5.741156000E+00 -1.022402604E-01
  2.494268000E+00 -1.423595206E-01
  1.114202000E+00 -4.658690019E-02
  4.215490000E-01  3.799402916E-01
  1.696330000E-01  5.890463624E-01
  6.853500000E-02  1.749075107E-01
  2.398700000E-02 -1.142030005E-03
   p   9
  5.500000000E+01  1.229800005E-03
  1.336610100E+01  8.827380035E-03
  4.135394000E+00  3.843340015E-02
  1.481256000E+00  1.150031805E-01
  6.021360000E-01  2.733674011E-01
  2.556360000E-01  4.061972116E-01
  1.111510000E-01  3.014967912E-01
  4.764800000E-02  7.684809030E-02
  1.667700000E-02 -8.170000032E-06
 
   2
   s  14
  1.031094600E+05  1.713099991E-04
  1.528100700E+04  7.123999962E-04
  3.441539200E+03  2.990479984E-03
  9.670948300E+02  1.164036994E-02
  3.140353400E+02  3.968642979E-02
  1.134423000E+02  1.128546094E-01
  4.464472700E+01  2.473650687E-01
  1.894287400E+01  3.672702681E-01
  8.532743000E+00  2.896286985E-01
  3.919401000E+00  7.786681959E-02
  1.568157000E+00  4.562139976E-03
  6.232900000E-01  2.468879987E-03
  2.408610000E-01  1.106309994E-03
  8.430100000E-02  1.739699991E-04
   s  14
  1.031094600E+05 -4.044999995E-05
  1.528100700E+04 -1.682299998E-04
  3.441539200E+03 -7.084299991E-04
  9.670948300E+02 -2.767999996E-03
  3.140353400E+02 -9.611379987E-03
  1.134423000E+02 -2.833957996E-02
  4.464472700E+01 -6.839343991E-02
  1.894287400E+01 -1.237379298E-01
  8.532743000E+00 -1.512859698E-01
  3.919401000E+00 -9.099909988E-03
  1.568157000E+00  3.716257695E-01
  6.232900000E-01  5.500214393E-01
  2.408610000E-01  2.092318697E-01
  8.430100000E-02  8.074639989E-03
   p   9
  2.453302900E+02  1.024860004E-03
  5.691900500E+01  8.344290032E-03
  1.760456800E+01  4.078927016E-02
  6.274995000E+00  1.351370605E-01
  2.447030000E+00  2.798830811E-01
  9.950600000E-01  3.597966414E-01
  4.039730000E-01  3.055347412E-01
  1.548100000E-01  1.354703905E-01
  5.418400000E-02  2.804449011E-02
 
[MO]
Sym=     1a  
Ene=   -26.1070
Spin= Alpha
Occup=    1.00000
   1        -0.00003165
   2        -0.00030218
   3        -0.00000000
   4        -0.00000000
   5        -0.00029651
   6         1.00000969
   7        -0.00259039
   8        -0.00000000
   9         0.00000000
  10        -0.00065247
Sym=     1a  
Ene=   -26.1070
Spin= Beta
Occup=    1.00000
   1        -0.00003165
   2        -0.00030218
   3        -0.00000000
   4        -0.00000000
   5        -0.00029651
   6         1.00000969
   7        -0.00259039
   8        -0.00000000
   9         0.00000000
  10        -0.00065247
Sym=     2a  
Ene=    -7.8139
Spin= Alpha
Occup=    1.00000
   1         0.99990603
   2         0.01321075
   3        -0.00000000
   4        -0.00000000
   5         0.00150019
   6        -0.00007112
   7        -0.00020366
   8         0.00000000
   9         0.00000000
  10        -0.00025976
Sym=     2a  
Ene=    -7.8139
Spin= Beta
Occup=    1.00000
   1         0.99990603
   2         0.01321075
   3        -0.00000000
   4        -0.00000000
   5         0.00150019
   6        -0.00007112
   7        -0.00020366
   8         0.00000000
   9         0.00000000
  10        -0.00025976
Sym=     3a  
Ene=    -1.4532
Spin= Alpha
Occup=    1.00000
   1        -0.00886978
   2         0.05586536
   3        -0.00000000
   4        -0.00000000
   5         0.05402606
   6         0.00020727
   7         0.97020969
   8        -0.00000000
   9         0.00000000
  10        -0.04587256
Sym=     3a  
Ene=    -1.4532
Spin= Beta
Occup=    1.00000
   1        -0.00886978
   2         0.05586536
   3        -0.00000000
   4        -0.00000000
   5         0.05402606
   6         0.00020727
   7         0.97020969
   8        -0.00000000
   9         0.00000000
  10        -0.04587256
Sym=     4a  
Ene=    -0.6310
Spin= Alpha
Occup=    1.00000
   1         0.02409798
   2        -0.64384689
   3         0.00000000
   4        -0.00000000
   5        -0.09579254
   6         0.01315411
   7         0.22681892
   8         0.00000000
   9         0.00000000
  10         0.62604587
Sym=     4a  
Ene=    -0.6310
Spin= Beta
Occup=    1.00000
   1         0.02409798
   2        -0.64384689
   3         0.00000000
   4        -0.00000000
   5        -0.09579254
   6         0.01315411
   7         0.22681892
   8         0.00000000
   9         0.00000000
  10         0.62604587
Sym=     5a  
Ene=    -0.5467
Spin= Alpha
Occup=    1.00000
   1        -0.00000000
   2         0.00000000
   3         0.07405481
   4         0.08228978
   5         0.00000000
   6        -0.00000000
   7        -0.00000000
   8         0.65503917
   9         0.72788024
  10         0.00000000
Sym=     5a  
Ene=    -0.5467
Spin= Beta
Occup=    1.00000
   1        -0.00000000
   2         0.00000000
   3         0.07405481
   4         0.08228978
   5         0.00000000
   6        -0.00000000
   7        -0.00000000
   8         0.65503917
   9         0.72788024
  10         0.00000000
Sym=     6a  
Ene=    -0.5467
Spin= Alpha
Occup=    1.00000
   1         0.00000000
   2        -0.00000000
   3        -0.08228978
   4         0.07405481
   5        -0.00000000
   6         0.00000000
   7         0.00000000
   8        -0.72788024
   9         0.65503917
  10        -0.00000000
Sym=     6a  
Ene=    -0.5467
Spin= Beta
Occup=    1.00000
   1         0.00000000
   2        -0.00000000
   3        -0.08228978
   4         0.07405481
   5        -0.00000000
   6         0.00000000
   7         0.00000000
   8        -0.72788024
   9         0.65503917
  10        -0.00000000
Sym=     7a  
Ene=    -0.4375
Spin= Alpha
Occup=    1.00000
   1         0.00727590
   2         0.73469818
   3        -0.00000000
   4        -0.00000000
   5        -0.42172911
   6         0.00215944
   7         0.01286389
   8        -0.00000000
   9         0.00000000
  10         0.60508154
Sym=     7a  
Ene=    -0.4375
Spin= Beta
Occup=    1.00000
   1         0.00727590
   2         0.73469818
   3        -0.00000000
   4        -0.00000000
   5        -0.42172911
   6         0.00215944
   7         0.01286389
   8        -0.00000000
   9         0.00000000
  10         0.60508154
Sym=     8a  
Ene=     0.0520
Spin= Alpha
Occup=    0.00000
   1         0.00000000
   2         0.00000000
   3         0.68652994
   4         0.73106559
   5        -0.00000000
   6         0.00000000
   7         0.00000000
   8        -0.16648894
   9        -0.17728919
  10         0.00000000
Sym=     8a  
Ene=     0.0520
Spin= Beta
Occup=    0.00000
   1         0.00000000
   2         0.00000000
   3         0.68652994
   4         0.73106559
   5        -0.00000000
   6         0.00000000
   7         0.00000000
   8        -0.16648894
   9        -0.17728919
  10         0.00000000
Sym=     9a  
Ene=     0.0520
Spin= Alpha
Occup=    0.00000
   1         0.00000000
   2         0.00000000
   3        -0.73106559
   4         0.68652994
   5         0.00000000
   6        -0.00000000
   7        -0.00000000
   8         0.17728919
   9        -0.16648894
  10         0.00000000
Sym=     9a  
Ene=     0.0520
Spin= Beta
Occup=    0.00000
   1         0.00000000
   2         0.00000000
   3        -0.73106559
   4         0.68652994
   5         0.00000000
   6        -0.00000000
   7        -0.00000000
   8         0.17728919
   9        -0.16648894
  10         0.00000000
Sym=    10a  
Ene=     0.1969
Spin= Alpha
Occup=    0.00000
   1         0.01238730
   2         0.36820171
   3         0.00000000
   4        -0.00000000
   5         0.98155196
   6        -0.03514840
   7        -0.37928887
   8        -0.00000000
   9         0.00000000
  10         0.59066305
Sym=    10a  
Ene=     0.1969
Spin= Beta
Occup=    0.00000
   1         0.01238730
   2         0.36820171
   3         0.00000000
   4        -0.00000000
   5         0.98155196
   6        -0.03514840
   7        -0.37928887
   8        -0.00000000
   9         0.00000000
  10         0.59066305
