   This run of MOLCAS is using the pymolcas driver

                             OPE
                             OPE          NMOL  CASOP  ENMOLC A   SO
                 OPE        NMOLC        AS  OP EN  MO LC     AS  OP
                OPENM       OL CA        SO  PE NM  OL CA     SOP EN
                OP EN      MO   LC       AS  OP ENMOL  CASO   PENMOL
                OP  EN     MO   LC       AS  OP EN     MO     LC ASO
               OP   E  NMOL  C  AS       OP  EN MO     LC     AS  OP
               OP  E   NMO   LC AS        OPEN  MO     LCASOP EN   M
               O  PEN   MO  LCA  SO
            OPE   NMO   L   CAS    OP
        OPENMOL  CASOP     ENMOL   CASOPE
     OPENMOLCA   SOPENMOLCASOPEN   MOLCASOPE
    OPENMOLCAS   OP           EN   MOL    CAS
    OPENMOLCAS       OP  ENM        O     LCA
    OPENMOLCAS    OPEN  MOLCASO     P  E  NMO
    OPENMOLCAS     OP               E  N  MOL
    OPENMOLCA   SO           PENM   O  L  CAS    OPEN    MO    LCAS
    OPENMOLCA   SOP           ENM   O  L  CAS   OP  EN  MOLC  AS   O
    OPENMOLCA   SOPE           NM      O  LCA   S      OP  EN MO
    OPENMOLC                AS         O  PEN   M      OL  CA  SOPE
    OPENMO        LCASOPE  NMOL        C  ASO   P      ENMOLC     AS
    OPE     NMO      LCA  SO     P     E   NM   OL  CA SO  PE N   MO
          OPENMOLCA            SOPE   NMO        LCAS  O    P  ENMO
     OPENMOLCASOPENMOLCASOPENMOLCASOPENMOLCA
        OPENMOLCASOPENMOLCASOPENMOLCASOPE
            OPENMOLCASOPENMOLCASOPENM
               OPENMOLCASOPENMOLCA        version: f37762c57
                   OPENMOLCASO
                       OPE                tag:

 OpenMolcas is free software; you can redistribute it and/or modify it
 under the terms of the GNU Lesser General Public License version 2.1.
 OpenMolcas is distributed in the hope that it will be useful, but it
 is provided "as is" and without any express or implied warranties.
 For more details see the full text of the license in the file
 LICENSE or in <http://www.gnu.org/licenses/>.

                 Copyright (C) The OpenMolcas Authors
           For the author list and the recommended citation,
                   consult the file CONTRIBUTORS.md

           *************************************************
           * pymolcas version py2.28                       *
           *   build c4a6d18ded8cb6cad61d2372a9abd97c      *
           *   (after the EMIL interpreter by V. Veryazov) *
           *************************************************

configuration info
------------------
C Compiler ID: Intel
C flags: -std=gnu99 -gcc-sys
Fortran Compiler ID: IntelLLVM
Fortran flags: -standard-semantics -fltconsistency -fpp -i8 -heap-arrays
Definitions: _MOLCAS_;_I8_;_LINUX_
Parallel: OFF (GA=OFF)


   ------------------------------------------------------------------------------------
  |
  |              Project: 1.68
  |       Submitted from: /home/grierjones/DDCASPT2/iron_oxo_DDCASPT2/MScaspt2iron/1.68
  |         Scratch area: /tmp/1.68
  |      Save outputs to: /home/grierjones/DDCASPT2/iron_oxo_DDCASPT2/MScaspt2iron/1.68
  |               Molcas: /home/grierjones/Test/build
  |
  | Scratch area is empty
  |
  |       MOLCAS_DRIVER = /usr/local/pymolcas
  | MOLCAS_KEEP_WORKDIR = NO
  |  MOLCAS_NEW_WORKDIR = YES
  |       MOLCAS_NPROCS = 1
  |        MOLCAS_PRINT = NORMAL
  |       MOLCAS_SOURCE = /home/grierjones/Test
  |    MOLCAS_STRUCTURE = 0
  |
   ------------------------------------------------------------------------------------

++ ---------   Input file   ---------

&GATEWAY
coord=1.68.xyz
Basis = ANO-RCC-VTZP
Group = nosymm
End of Input

&SEWARD
End of Input

&SCF
UHF
charge
2
spin
5
FileOrb
/home/grierjones/DDCASPT2/iron_oxo_DDCASPT2/MScaspt2iron/1.66/1.66.UhfOrb

>>> COPY $WorkDir/1.68.scf.h5 $CurrDir/

&RASSCF
Title= RASSCF
FileOrb
/home/grierjones/DDCASPT2/iron_oxo_DDCASPT2/MScaspt2iron/1.66/1.66.RasOrb
CIROOT
3 3 1
NACTEL
10 0 0
RAS2
14
Symmetry
1
Spin
5
charge
2
orblisting
all

>>> COPY $WorkDir/1.68.rasscf.h5 $CurrDir/

>>> COPY $WorkDir/GMJ_Fock_MO.csv $CurrDir/1.68.GMJ_Fock_MO.csv

&MOTRA
Frozen=0
LUMORB

>>> COPY $WorkDir/GMJ_one_int_indx.csv $CurrDir/1.68.GMJ_one_int_indx.csv

>>> COPY $WorkDir/GMJ_one_int.csv $CurrDir/1.68.GMJ_one_int.csv

>>> COPY $WorkDir/GMJ_two_int_indx.csv $CurrDir/1.68.GMJ_two_int_indx.csv

>>> COPY $WorkDir/GMJ_two_int.csv $CurrDir/1.68.GMJ_two_int.csv

&CASPT2

Imaginary Shift
0.2
IPEA
0.25

Frozen
0

MAXITER
50

>>> FOREACH k IN (1,2,3)

  >>> FOREACH i IN (B,E,F,G,H)

    >>> FOREACH j IN (P,M)

      >>> IF (-FILE GMJ_e2_${i}_${j}_${k}_.csv)

        >>> COPY $WorkDir/GMJ_RHS_${i}_${j}_${k}_.csv $CurrDir/GMJ_RHS_${i}_${j}_${k}_.csv

        >>> COPY $WorkDir/GMJ_IVECW_${i}_${j}_${k}_.csv $CurrDir/GMJ_IVECW_${i}_${j}_${k}_.csv

        >>> COPY $WorkDir/GMJ_IVECX_${i}_${j}_${k}_.csv $CurrDir/GMJ_IVECX_${i}_${j}_${k}_.csv

        >>> COPY $WorkDir/GMJ_IVECC2_${i}_${j}_${k}_.csv $CurrDir/GMJ_IVECC2_${i}_${j}_${k}_.csv

        >>> COPY $WorkDir/GMJ_e2_${i}_${j}_${k}_.csv $CurrDir/GMJ_e2_${i}_${j}_${k}_.csv

      >>> END IF

    >>> END FOREACH

  >>> END FOREACH

>>> END FOREACH

>>> FOREACH j IN (1,2,3)

  >>> FOREACH i IN (A,C,D)

    >>> IF (-FILE GMJ_e2_${i}_${j}_.csv)

      >>> COPY $WorkDir/GMJ_RHS_${i}_${j}_.csv $CurrDir/GMJ_RHS_${i}_${j}_.csv

      >>> COPY $WorkDir/GMJ_IVECW_${i}_${j}_.csv $CurrDir/GMJ_IVECW_${i}_${j}_.csv

      >>> COPY $WorkDir/GMJ_IVECX_${i}_${j}_.csv $CurrDir/GMJ_IVECX_${i}_${j}_.csv

      >>> COPY $WorkDir/GMJ_IVECC2_${i}_${j}_.csv $CurrDir/GMJ_IVECC2_${i}_${j}_.csv

      >>> COPY $WorkDir/GMJ_e2_${i}_${j}_.csv $CurrDir/GMJ_e2_${i}_${j}_.csv

    >>> END IF

  >>> END FOREACH

>>> END FOREACH

-- ----------------------------------

--- Start Module: gateway at Thu Apr 17 09:31:45 2025 ---
 
()()()()()()()()()()()()()()()()()()()()()()()()()()()()()()()()()()()()()()()()()()()()()()()()()()

                                              &GATEWAY

                                   only a single process is used
                       available to each process: 2.0 GB of memory, 1 thread?
()()()()()()()()()()()()()()()()()()()()()()()()()()()()()()()()()()()()()()()()()()()()()()()()()()
 
 
++    Symmetry information:
      ---------------------
 
                    Character Table for C1 
 
                             E  
                    a        1  x, y, xy, Rz, z, xz, Ry, yz, Rx, I
--
 
 
++    Basis set information:
      ----------------------
 
 
      Basis set label: O.ANO-RCC...4S3P2D1F.
 
      Electronic valence basis set:
      ------------------
      Associated Effective Charge   8.000000 au
      Associated Actual Charge      8.000000 au
      Nuclear Model: Point charge
 
      Shell  nPrim  nBasis  Cartesian Spherical Contaminant
         s      14       4        X                  
         p       9       3        X                  
         d       4       2                 X         
         f       3       1                 X         
 
 
      Basis set label: FE.ANO-RCC...6S5P3D2F1G.
 
      Electronic valence basis set:
      ------------------
      Associated Effective Charge  26.000000 au
      Associated Actual Charge     26.000000 au
      Nuclear Model: Point charge
 
      Shell  nPrim  nBasis  Cartesian Spherical Contaminant
         s      21       6        X                  
         p      15       5        X                  
         d      10       3                 X         
         f       6       2                 X         
         g       4       1                 X         
--
 
 
++    Molecular structure info:
      -------------------------
 
                    ************************************************ 
                    **** Cartesian Coordinates / Bohr, Angstrom **** 
                    ************************************************ 
 
     Center  Label                x              y              z                     x              y              z
        1      O1               0.000000       0.000000       3.099151              0.000000       0.000000       1.640000
        2      FE2              0.000000       0.000000      -0.075589              0.000000       0.000000      -0.040000
--
 
 
            Nuclear Potential Energy             65.51717846 au
 
--- Stop Module: gateway at Thu Apr 17 09:31:45 2025 /rc=_RC_ALL_IS_WELL_ ---
*** files: xmldump
    saved to directory /home/grierjones/DDCASPT2/iron_oxo_DDCASPT2/MScaspt2iron/1.68

--- Start Module: seward at Thu Apr 17 09:31:45 2025 ---
 
()()()()()()()()()()()()()()()()()()()()()()()()()()()()()()()()()()()()()()()()()()()()()()()()()()

                                              &SEWARD

                                   only a single process is used
                       available to each process: 2.0 GB of memory, 1 thread?
()()()()()()()()()()()()()()()()()()()()()()()()()()()()()()()()()()()()()()()()()()()()()()()()()()
 
               SEWARD will generate:
                  Multipole Moment integrals up to order  2
                  Kinetic Energy integrals
                  Nuclear Attraction integrals (point charge)
                  One-Electron Hamiltonian integrals
                  Velocity integrals
                  Relativistic Douglas-Kroll-Hess integrals:
                    - Parametrization         : EXP
                    - DKH order of Hamiltonian: 2
                    - DKH order of Properties : 0
                         - multipole moment operators
                         - electric potential operators
                         - contact operators
                  Atomic mean-field integrals
                  Two-Electron Repulsion integrals
 
                   Integrals are discarded if absolute value <: 0.10E-13
                   Integral cutoff threshold is set to       <: 0.10E-15
 
            Nuclear Potential Energy             65.51717846 au
 
 
      Basis set specifications :
      Symmetry species         a  
      Basis functions           89
 
 
  Input file to MOLDEN was generated!
 
forrtl: warning (525): IEEE_DIVIDE_BY_ZERO is signaling
forrtl: warning (526): IEEE_INVALID is signaling
forrtl: warning (528): IEEE_UNDERFLOW is signaling
--- Stop Module: seward at Thu Apr 17 09:31:48 2025 /rc=_RC_ALL_IS_WELL_ ---
*** files: 1.68.GssOrb 1.68.guessorb.h5 1.68.guessorb.molden xmldump
    saved to directory /home/grierjones/DDCASPT2/iron_oxo_DDCASPT2/MScaspt2iron/1.68
--- Module seward spent 3 seconds ---

*** symbolic link created: INPORB -> 1.68.GssOrb
--- Start Module: scf at Thu Apr 17 09:31:48 2025 ---
 
()()()()()()()()()()()()()()()()()()()()()()()()()()()()()()()()()()()()()()()()()()()()()()()()()()

                                                &SCF

                                   only a single process is used
                       available to each process: 2.0 GB of memory, 1 thread?
()()()()()()()()()()()()()()()()()()()()()()()()()()()()()()()()()()()()()()()()()()()()()()()()()()
 
 *** Possible bug in opening file
 *** isFreeUnit resets the unit number
++    Input section:
      --------------
 
      Header of the integral files:
      
       Integrals generated by seward 4.2.0  , Thu Apr 17 09:31:45 2025
 
 
      Cartesian coordinates in Angstrom:
      -----------------------------------------------------
      No.  Label        X            Y            Z        
      -----------------------------------------------------
       1   O1         0.00000000   0.00000000   1.64000000
       2   FE2        0.00000000   0.00000000  -0.04000000
      -----------------------------------------------------
      Nuclear repulsion energy =   65.51717846
--
 
++    Orbital specifications:
      -----------------------
 
      Symmetry species               1
                                     a
      Frozen orbitals                0
      Occupied orbitals alpha       18
      Occupied orbitals beta        14
      Secondary orbitals alpha      71
      Secondary orbitals beta       75
      Deleted orbitals               0
      Total number of orbitals      89
      Number of basis functions     89
--
 
      Molecular charge                           2.000
 
++    Optimization specifications:
      ----------------------------
 
      SCF Algorithm: Conventional USCF
      D(i)-D(i-1) density differences are used
      Number of density matrices in core                5
      Maximum number of NDDO SCF iterations           400
      Maximum number of HF SCF iterations             400
      Threshold for SCF energy change            0.10E-08
      Threshold for density matrix               0.10E-03
      Threshold for Fock matrix                  0.15E-03
      Threshold for linear dependence            0.10E-08
      Threshold at which DIIS is turned on       0.15E+00
      Threshold at which QNR/C2DIIS is turned on 0.75E-01
      Threshold for Norm(delta) (QNR/C2DIIS)     0.20E-04
      DIIS extrapolation of the SCF procedure
      All orbitals punched on: UHFORB
--
 
      Input vectors read from INPORB
      Orbital file label: * UHF orbitals
 
 
++ Convergence information
                               UHF SCF        iterations: Energy and convergence statistics
 
Iter     Tot. SCF        One-elec.       Two-elec.     Energy      Max Dij or  Max Fij      DNorm      TNorm      AccCon     Time
         Energy          Energy          Energy        Change      Delta Norm                                                in Sec.
 
 The total and one-electron energies are shifted by a value of      1000. a.u.
 
   1  -345.296814026  -965.302507859   554.488515369   0.00E+00    0.50E-02*   0.30E-02*    0.80E+01   0.22E+03   None         0.
   2  -345.296897226  -965.317397589   554.503321898  -0.83E-04*   0.47E-02*   0.18E-02*    0.35E-01   0.22E+03   EDIIS        0.
   3  -345.296907354  -965.242240094   554.428154276  -0.10E-04*   0.17E-02*   0.81E-03*    0.13E-01   0.22E+03   c2DIIS       0.
   4  -345.296919012  -965.304257688   554.490160212  -0.12E-04*   0.26E-02*   0.60E-03*    0.53E-02   0.22E+03   QNRc2DIIS    0.
   5  -345.296921056  -965.282500589   554.468401069  -0.20E-05*   0.42E-02*   0.43E-03*    0.34E-02   0.22E+03   QNRc2DIIS    0.
   6  -345.296923378  -965.294093770   554.479991928  -0.23E-05*   0.45E-02*   0.27E-03*    0.49E-02   0.22E+03   QNRc2DIIS    0.
   7  -345.296924576  -965.310345891   554.496242852  -0.12E-05*   0.34E-02*   0.14E-03     0.53E-02   0.22E+03   QNRc2DIIS    0.
   8  -345.296925093  -965.314058243   554.499954687  -0.52E-06*   0.48E-03*   0.67E-04     0.42E-02   0.22E+03   QNRc2DIIS    0.
   9  -345.296925121  -965.318060992   554.503957408  -0.28E-07*   0.13E-03*   0.34E-04     0.64E-03   0.22E+03   QNRc2DIIS    0.
  10  -345.296925128  -965.316688483   554.502584891  -0.70E-08*   0.24E-04*   0.68E-05     0.19E-03   0.22E+03   QNRc2DIIS    0.
  11  -345.296925128  -965.316648088   554.502544496  -0.18E-09    0.11E-04    0.15E-05     0.37E-04   0.22E+03   QNRc2DIIS    0.
 
       Convergence after 11 Macro Iterations
--
 
 *****************************************************************************************************************************
 *                                                                                                                           *
 *                                             SCF/KS-DFT Program, Final results                                             *
 *                                                                                                                           *
 *                                                                                                                           *
 *                                                                                                                           *
 *                                                       Final Results                                                       *
 *                                                                                                                           *
 *****************************************************************************************************************************
 
::    Total SCF energy                              -1345.2969251280
      One-electron energy                           -1965.3166480883
      Two-electron energy                             554.5025444964
      Nuclear repulsion energy                         65.5171784639
      Kinetic energy (interpolated)                  1399.1852260179
      Virial theorem                                    0.9614859420
      Total spin, S(S+1)                                6.9192878520
      Total spin, S                                     2.1775525862
      Max non-diagonal density matrix element           0.0000048638
      Max non-diagonal Fock matrix element              0.0000017662
 
 
      All orbitals with orbital energies smaller than  E(LUMO)+0.5 are printed
 
++    Molecular orbitals:
      -------------------
 
      Title: UHF orbitals (alpha)

      Molecular orbitals for symmetry species 1: a  
 
          Orbital            1         2         3         4         5         6         7         8         9        10    
          Energy         -264.5060  -33.3526  -28.4243  -28.4243  -28.4169  -21.1980   -5.2767   -3.8325   -3.8325   -3.8164
          Occ. No.          1.0000    1.0000    1.0000    1.0000    1.0000    1.0000    1.0000    1.0000    1.0000    1.0000
 
        1 O1     1s         0.0000   -0.0000    0.0000   -0.0000   -0.0001    1.0000   -0.0001    0.0000   -0.0000    0.0003
        2 O1     2s         0.0000   -0.0004    0.0000   -0.0000   -0.0007   -0.0001    0.0034   -0.0000    0.0000    0.0236
        3 O1     3s         0.0000   -0.0004    0.0000   -0.0000   -0.0005   -0.0003   -0.0001   -0.0000    0.0000    0.0065
        4 O1     4s         0.0000   -0.0002    0.0000   -0.0000   -0.0002   -0.0000   -0.0002   -0.0000    0.0000    0.0017
        5 O1     2px       -0.0000   -0.0000   -0.0000   -0.0000   -0.0000   -0.0000    0.0000    0.0019    0.0000    0.0000
        6 O1     3px        0.0000   -0.0000    0.0001    0.0000   -0.0000   -0.0000   -0.0000   -0.0011   -0.0000   -0.0000
        7 O1     4px       -0.0000   -0.0000    0.0001    0.0000   -0.0000    0.0000    0.0000   -0.0017   -0.0000    0.0000
        8 O1     2py        0.0000   -0.0000    0.0000   -0.0000    0.0000    0.0000   -0.0000   -0.0000    0.0019   -0.0000
        9 O1     3py       -0.0000   -0.0000   -0.0000    0.0001   -0.0000    0.0000    0.0000    0.0000   -0.0011    0.0000
       10 O1     4py        0.0000   -0.0000   -0.0000    0.0001   -0.0000   -0.0000    0.0000    0.0000   -0.0017    0.0000
       11 O1     2pz       -0.0000    0.0004    0.0000    0.0000    0.0003   -0.0006   -0.0015    0.0000   -0.0000   -0.0129
       12 O1     3pz       -0.0000    0.0005   -0.0000    0.0000    0.0004   -0.0003    0.0008    0.0000   -0.0000   -0.0044
       13 O1     4pz        0.0000   -0.0000    0.0000    0.0000    0.0001   -0.0001   -0.0003   -0.0000   -0.0000   -0.0011
       14 O1     3d2-      -0.0000    0.0000   -0.0000    0.0000   -0.0000    0.0000    0.0000   -0.0000    0.0000    0.0000
       15 O1     4d2-      -0.0000    0.0000   -0.0000   -0.0000   -0.0000   -0.0000    0.0000   -0.0000    0.0000    0.0000
       16 O1     3d1-      -0.0000   -0.0000   -0.0000    0.0000   -0.0000    0.0000    0.0000    0.0000   -0.0011    0.0000
       17 O1     4d1-      -0.0000    0.0000   -0.0000    0.0000   -0.0000   -0.0000    0.0000    0.0000   -0.0005    0.0000
       18 O1     3d0        0.0000   -0.0003    0.0000   -0.0000   -0.0000   -0.0008   -0.0008   -0.0000    0.0000    0.0013
       19 O1     4d0        0.0000   -0.0003    0.0000   -0.0000   -0.0000    0.0008   -0.0014   -0.0000    0.0000   -0.0008
       20 O1     3d1+      -0.0000    0.0000    0.0000    0.0000    0.0000   -0.0000   -0.0000   -0.0011   -0.0000   -0.0000
       21 O1     4d1+      -0.0000    0.0000    0.0000    0.0000   -0.0000    0.0000   -0.0000   -0.0005   -0.0000   -0.0000
       22 O1     3d2+       0.0000   -0.0000   -0.0000   -0.0000    0.0000   -0.0000   -0.0000    0.0000    0.0000   -0.0000
       23 O1     4d2+       0.0000   -0.0000   -0.0000   -0.0000    0.0000    0.0000   -0.0000    0.0000    0.0000   -0.0000
       24 O1     4f3-       0.0000    0.0000   -0.0000    0.0000    0.0000   -0.0000    0.0000    0.0000   -0.0000    0.0000
       25 O1     4f2-       0.0000    0.0000   -0.0000   -0.0000    0.0000    0.0000   -0.0000    0.0000   -0.0000   -0.0000
       26 O1     4f1-       0.0000    0.0000   -0.0000    0.0000    0.0000    0.0000   -0.0000   -0.0000    0.0001   -0.0000
       27 O1     4f0       -0.0000    0.0002    0.0000   -0.0000   -0.0000   -0.0000    0.0007    0.0000   -0.0000   -0.0000
       28 O1     4f1+       0.0000    0.0000    0.0000    0.0000    0.0000   -0.0000    0.0000    0.0001    0.0000    0.0000
       29 O1     4f2+      -0.0000   -0.0000   -0.0000    0.0000   -0.0000   -0.0000    0.0000   -0.0000   -0.0000    0.0000
       30 O1     4f3+       0.0000    0.0000    0.0000    0.0000    0.0000   -0.0000    0.0000   -0.0000   -0.0000   -0.0000
       31 FE2    1s         1.0000   -0.0000   -0.0000   -0.0000    0.0000   -0.0000    0.0000    0.0000   -0.0000   -0.0001
       32 FE2    2s         0.0000    1.0001    0.0000   -0.0000    0.0002   -0.0001   -0.0031    0.0000   -0.0000   -0.0011
       33 FE2    3s        -0.0000    0.0036   -0.0000    0.0000    0.0004   -0.0003    1.0004    0.0000   -0.0000   -0.0032
       34 FE2    4s        -0.0000    0.0003   -0.0000    0.0000    0.0006   -0.0004   -0.0046    0.0000   -0.0000   -0.0152
       35 FE2    5s         0.0000    0.0000    0.0000   -0.0000   -0.0001    0.0003    0.0046    0.0000   -0.0000    0.0065
       36 FE2    6s         0.0000   -0.0002   -0.0000   -0.0000   -0.0000   -0.0000   -0.0017   -0.0000    0.0000   -0.0012
       37 FE2    2px       -0.0000   -0.0000    0.9999    0.0133    0.0000    0.0000   -0.0000   -0.0030   -0.0000   -0.0000
       38 FE2    3px       -0.0000    0.0000    0.0030    0.0000    0.0000    0.0000   -0.0000    0.9996    0.0132    0.0000
       39 FE2    4px       -0.0000    0.0000   -0.0005   -0.0000   -0.0000    0.0000   -0.0000   -0.0165   -0.0002   -0.0000
       40 FE2    5px        0.0000    0.0000    0.0011    0.0000    0.0000    0.0000    0.0000    0.0149    0.0002    0.0000
       41 FE2    6px       -0.0000    0.0000   -0.0007   -0.0000   -0.0000   -0.0000   -0.0000    0.0047    0.0001    0.0000
       42 FE2    2py        0.0000    0.0000   -0.0133    0.9999   -0.0000   -0.0000    0.0000    0.0000   -0.0030    0.0000
       43 FE2    3py       -0.0000    0.0000   -0.0000    0.0030   -0.0000   -0.0000    0.0000   -0.0132    0.9996   -0.0000
       44 FE2    4py       -0.0000    0.0000    0.0000   -0.0005    0.0000   -0.0000    0.0000    0.0002   -0.0165    0.0000
       45 FE2    5py       -0.0000    0.0000   -0.0000    0.0011   -0.0000    0.0000   -0.0000   -0.0002    0.0149   -0.0000
       46 FE2    6py        0.0000   -0.0000    0.0000   -0.0007    0.0000    0.0000    0.0000   -0.0001    0.0047   -0.0000
       47 FE2    2pz       -0.0000   -0.0002   -0.0000    0.0000    1.0000   -0.0000   -0.0001    0.0000   -0.0000   -0.0032
       48 FE2    3pz       -0.0000    0.0003   -0.0000    0.0000    0.0031   -0.0002   -0.0019   -0.0000    0.0000    0.9958
       49 FE2    4pz       -0.0000    0.0004   -0.0000    0.0000    0.0000   -0.0001   -0.0024    0.0000   -0.0000   -0.0269
       50 FE2    5pz        0.0000   -0.0001   -0.0000    0.0000    0.0011    0.0002    0.0018    0.0000    0.0000    0.0161
       51 FE2    6pz       -0.0000   -0.0002    0.0000   -0.0000   -0.0007    0.0001   -0.0003   -0.0000    0.0000    0.0060
       52 FE2    3d2-      -0.0000   -0.0000    0.0000   -0.0000    0.0000    0.0000   -0.0000    0.0000   -0.0000    0.0000
       53 FE2    4d2-       0.0000    0.0000   -0.0000   -0.0000   -0.0000    0.0000    0.0000   -0.0000    0.0000   -0.0000
       54 FE2    5d2-      -0.0000   -0.0000    0.0000   -0.0000    0.0000    0.0000   -0.0000   -0.0000    0.0000    0.0000
       55 FE2    3d1-      -0.0000    0.0000    0.0000   -0.0000    0.0000   -0.0000    0.0000    0.0000   -0.0024    0.0000
       56 FE2    4d1-      -0.0000   -0.0000    0.0000   -0.0000   -0.0000   -0.0000    0.0000    0.0000   -0.0023    0.0000
       57 FE2    5d1-       0.0000    0.0000    0.0000   -0.0000    0.0000   -0.0000   -0.0000   -0.0000    0.0027   -0.0000
       58 FE2    3d0       -0.0000    0.0000   -0.0000    0.0000    0.0001   -0.0000   -0.0030    0.0000   -0.0000   -0.0042
       59 FE2    4d0       -0.0000    0.0002   -0.0000    0.0000    0.0002   -0.0000   -0.0000   -0.0000    0.0000   -0.0054
       60 FE2    5d0        0.0000   -0.0002   -0.0000   -0.0000    0.0000    0.0001   -0.0002    0.0000   -0.0000    0.0010
       61 FE2    3d1+      -0.0000   -0.0000   -0.0000   -0.0000   -0.0000    0.0000   -0.0000   -0.0024   -0.0000   -0.0000
       62 FE2    4d1+      -0.0000    0.0000   -0.0000   -0.0000    0.0000    0.0000   -0.0000   -0.0023   -0.0000   -0.0000
       63 FE2    5d1+      -0.0000   -0.0000   -0.0000   -0.0000    0.0000    0.0000    0.0000    0.0027    0.0000    0.0000
       64 FE2    3d2+       0.0000    0.0000   -0.0000   -0.0000   -0.0000   -0.0000    0.0000   -0.0000   -0.0000   -0.0000
       65 FE2    4d2+      -0.0000   -0.0000    0.0000    0.0000    0.0000   -0.0000   -0.0000    0.0000    0.0000    0.0000
       66 FE2    5d2+       0.0000    0.0000   -0.0000   -0.0000   -0.0000   -0.0000    0.0000    0.0000    0.0000   -0.0000
       67 FE2    4f3-      -0.0000    0.0000   -0.0000    0.0000   -0.0000    0.0000    0.0000   -0.0000    0.0000   -0.0000
       68 FE2    5f3-       0.0000   -0.0000    0.0000   -0.0000    0.0000   -0.0000    0.0000    0.0000   -0.0000   -0.0000
       69 FE2    4f2-      -0.0000    0.0000    0.0000   -0.0000   -0.0000    0.0000    0.0000    0.0000   -0.0000   -0.0000
       70 FE2    5f2-       0.0000   -0.0000   -0.0000   -0.0000    0.0000    0.0000   -0.0000    0.0000   -0.0000    0.0000
       71 FE2    4f1-       0.0000   -0.0000    0.0000   -0.0000    0.0000   -0.0000    0.0000    0.0000   -0.0025    0.0000
       72 FE2    5f1-      -0.0000    0.0000   -0.0000    0.0001   -0.0000   -0.0000    0.0000    0.0000   -0.0005    0.0000
       73 FE2    4f0       -0.0000    0.0000   -0.0000   -0.0000   -0.0000    0.0000    0.0003    0.0000   -0.0000   -0.0018
       74 FE2    5f0       -0.0000    0.0000   -0.0000    0.0000    0.0001    0.0000    0.0001    0.0000   -0.0000   -0.0006
       75 FE2    4f1+      -0.0000    0.0000   -0.0000   -0.0000   -0.0000    0.0000   -0.0000   -0.0025   -0.0000   -0.0000
       76 FE2    5f1+      -0.0000   -0.0000    0.0001    0.0000    0.0000    0.0000   -0.0000   -0.0005   -0.0000   -0.0000
       77 FE2    4f2+       0.0000   -0.0000    0.0000   -0.0000    0.0000   -0.0000   -0.0000   -0.0000   -0.0000    0.0000
       78 FE2    5f2+      -0.0000    0.0000    0.0000    0.0000   -0.0000   -0.0000    0.0000   -0.0000   -0.0000   -0.0000
       79 FE2    4f3+      -0.0000    0.0000    0.0000    0.0000    0.0000    0.0000   -0.0000    0.0000    0.0000   -0.0000
       80 FE2    5f3+      -0.0000    0.0000   -0.0000   -0.0000    0.0000   -0.0000   -0.0000   -0.0000   -0.0000    0.0000
       81 FE2    5g4-      -0.0000    0.0000    0.0000   -0.0000    0.0000   -0.0000   -0.0000    0.0000   -0.0000   -0.0000
       82 FE2    5g3-      -0.0000    0.0000    0.0000   -0.0000   -0.0000    0.0000   -0.0000    0.0000   -0.0000   -0.0000
       83 FE2    5g2-       0.0000   -0.0000   -0.0000   -0.0000    0.0000    0.0000   -0.0000    0.0000   -0.0000    0.0000
       84 FE2    5g1-      -0.0000    0.0000   -0.0000    0.0000   -0.0000   -0.0000    0.0000    0.0000   -0.0000    0.0000
       85 FE2    5g0       -0.0000    0.0000   -0.0000    0.0000    0.0000    0.0000    0.0005   -0.0000    0.0000    0.0003
       86 FE2    5g1+      -0.0000   -0.0000    0.0000    0.0000    0.0000    0.0000   -0.0000   -0.0000   -0.0000   -0.0000
       87 FE2    5g2+      -0.0000    0.0000    0.0000    0.0000   -0.0000   -0.0000    0.0000   -0.0000   -0.0000   -0.0000
       88 FE2    5g3+       0.0000   -0.0000   -0.0000   -0.0000   -0.0000   -0.0000    0.0000   -0.0000   -0.0000    0.0000
       89 FE2    5g4+       0.0000   -0.0000    0.0000   -0.0000    0.0000    0.0000    0.0000    0.0000    0.0000    0.0000
 
          Orbital           11        12        13        14        15        16        17        18        19        20    
          Energy           -1.7974   -1.5232   -1.5232   -1.5149   -1.5149   -1.4804   -1.0969   -1.0969   -0.5897   -0.4397
          Occ. No.          1.0000    1.0000    1.0000    1.0000    1.0000    1.0000    1.0000    1.0000    0.0000    0.0000
 
        1 O1     1s        -0.0067    0.0000   -0.0000   -0.0000    0.0000   -0.0152    0.0000    0.0000   -0.0217    0.0185
        2 O1     2s         0.8965    0.0000   -0.0000   -0.0000    0.0000   -0.4081    0.0000    0.0000   -0.2841    0.2364
        3 O1     3s        -0.0211    0.0000   -0.0000   -0.0000    0.0000   -0.0502    0.0000    0.0000   -0.0698    0.0667
        4 O1     4s        -0.0063    0.0000   -0.0000   -0.0000    0.0000   -0.0086    0.0000    0.0000   -0.0166    0.0161
        5 O1     2px       -0.0000    0.0000    0.0000    0.0992    0.0013    0.0000    0.0128   -0.9673   -0.0000    0.0000
        6 O1     3px        0.0000    0.0000    0.0000    0.0016    0.0000   -0.0000   -0.0006    0.0467   -0.0000    0.0000
        7 O1     4px       -0.0000    0.0000    0.0000    0.0090    0.0001   -0.0000   -0.0003    0.0243    0.0000   -0.0000
        8 O1     2py        0.0000   -0.0000    0.0000   -0.0013    0.0992   -0.0000    0.9673    0.0128    0.0000   -0.0000
        9 O1     3py       -0.0000   -0.0000   -0.0000   -0.0000    0.0016    0.0000   -0.0467   -0.0006    0.0000   -0.0000
       10 O1     4py        0.0000   -0.0000    0.0000   -0.0001    0.0090    0.0000   -0.0243   -0.0003   -0.0000    0.0000
       11 O1     2pz       -0.1236   -0.0000    0.0000   -0.0000    0.0000    0.0228    0.0000    0.0000   -0.2308    0.7616
       12 O1     3pz        0.0131   -0.0000    0.0000    0.0000   -0.0000    0.0547   -0.0000   -0.0000    0.0123    0.1209
       13 O1     4pz        0.0110    0.0000   -0.0000   -0.0000    0.0000   -0.0052   -0.0000   -0.0000    0.0117    0.0016
       14 O1     3d2-       0.0000    0.0000    0.0008   -0.0000    0.0000   -0.0000    0.0000   -0.0000   -0.0000    0.0000
       15 O1     4d2-      -0.0000   -0.0000   -0.0004   -0.0000    0.0000    0.0000    0.0000    0.0000   -0.0000    0.0000
       16 O1     3d1-       0.0000    0.0000   -0.0000    0.0001   -0.0050   -0.0000   -0.0409   -0.0005   -0.0000    0.0000
       17 O1     4d1-       0.0000   -0.0000    0.0000   -0.0000    0.0018    0.0000   -0.0159   -0.0002   -0.0000    0.0000
       18 O1     3d0       -0.0124   -0.0000    0.0000    0.0000   -0.0000    0.0044   -0.0000   -0.0000    0.0198   -0.0376
       19 O1     4d0        0.0055    0.0000   -0.0000   -0.0000    0.0000   -0.0091   -0.0000   -0.0000    0.0067   -0.0141
       20 O1     3d1+      -0.0000   -0.0000   -0.0000   -0.0050   -0.0001    0.0000   -0.0005    0.0409    0.0000   -0.0000
       21 O1     4d1+      -0.0000    0.0000    0.0000    0.0018    0.0000   -0.0000   -0.0002    0.0159    0.0000   -0.0000
       22 O1     3d2+      -0.0000    0.0008   -0.0000    0.0000    0.0000    0.0000   -0.0000    0.0000    0.0000   -0.0000
       23 O1     4d2+       0.0000   -0.0004    0.0000    0.0000    0.0000   -0.0000    0.0000    0.0000    0.0000   -0.0000
       24 O1     4f3-       0.0000   -0.0000    0.0000    0.0000   -0.0000    0.0000   -0.0000   -0.0000    0.0000    0.0000
       25 O1     4f2-      -0.0000    0.0000    0.0004    0.0000   -0.0000   -0.0000   -0.0000   -0.0000   -0.0000    0.0000
       26 O1     4f1-      -0.0000   -0.0000    0.0000   -0.0000    0.0009    0.0000    0.0020    0.0000   -0.0000    0.0000
       27 O1     4f0       -0.0021   -0.0000    0.0000    0.0000   -0.0000   -0.0002   -0.0000   -0.0000   -0.0014    0.0009
       28 O1     4f1+       0.0000    0.0000    0.0000    0.0009    0.0000   -0.0000    0.0000   -0.0020    0.0000   -0.0000
       29 O1     4f2+       0.0000    0.0004   -0.0000   -0.0000   -0.0000    0.0000   -0.0000    0.0000    0.0000   -0.0000
       30 O1     4f3+      -0.0000    0.0000    0.0000   -0.0000   -0.0000   -0.0000   -0.0000    0.0000    0.0000   -0.0000
       31 FE2    1s        -0.0010   -0.0000    0.0000    0.0000    0.0000    0.0013    0.0000    0.0000   -0.0000    0.0031
       32 FE2    2s        -0.0076   -0.0000    0.0000    0.0000   -0.0000    0.0093    0.0000    0.0000    0.0001    0.0223
       33 FE2    3s        -0.0522   -0.0000    0.0000    0.0000    0.0000    0.0503    0.0000    0.0000    0.0036    0.1067
       34 FE2    4s         0.0350   -0.0000    0.0000   -0.0000    0.0000    0.0299   -0.0000   -0.0000    0.9250    0.2743
       35 FE2    5s        -0.0195   -0.0000    0.0000    0.0000   -0.0000   -0.0057    0.0000    0.0000   -0.2631    0.0440
       36 FE2    6s         0.0036    0.0000   -0.0000   -0.0000    0.0000   -0.0035   -0.0000   -0.0000    0.0277   -0.0252
       37 FE2    2px       -0.0000   -0.0000   -0.0000   -0.0002   -0.0000   -0.0000   -0.0000    0.0015    0.0000   -0.0000
       38 FE2    3px       -0.0000   -0.0000   -0.0000   -0.0025   -0.0000   -0.0000   -0.0004    0.0317    0.0000   -0.0000
       39 FE2    4px        0.0000   -0.0000   -0.0000   -0.0249   -0.0003   -0.0000    0.0009   -0.0712   -0.0000    0.0000
       40 FE2    5px       -0.0000    0.0000   -0.0000    0.0049    0.0001    0.0000   -0.0003    0.0197    0.0000    0.0000
       41 FE2    6px       -0.0000    0.0000   -0.0000    0.0001    0.0000    0.0000   -0.0002    0.0163    0.0000   -0.0000
       42 FE2    2py        0.0000    0.0000   -0.0000    0.0000   -0.0002    0.0000   -0.0015   -0.0000   -0.0000    0.0000
       43 FE2    3py        0.0000    0.0000   -0.0000    0.0000   -0.0025    0.0000   -0.0317   -0.0004   -0.0000    0.0000
       44 FE2    4py       -0.0000    0.0000   -0.0000    0.0003   -0.0249    0.0000    0.0712    0.0009    0.0000   -0.0000
       45 FE2    5py        0.0000    0.0000    0.0000   -0.0001    0.0049   -0.0000   -0.0197   -0.0003   -0.0000   -0.0000
       46 FE2    6py        0.0000    0.0000    0.0000   -0.0000    0.0001   -0.0000   -0.0163   -0.0002   -0.0000    0.0000
       47 FE2    2pz       -0.0027   -0.0000    0.0000    0.0000    0.0000    0.0020    0.0000    0.0000   -0.0004    0.0043
       48 FE2    3pz       -0.0757   -0.0000    0.0000   -0.0000    0.0000    0.0416    0.0000    0.0000   -0.0039    0.0666
       49 FE2    4pz        0.0256   -0.0000    0.0000   -0.0000    0.0000    0.0118   -0.0000   -0.0000   -0.1868   -0.5442
       50 FE2    5pz       -0.0137   -0.0000    0.0000    0.0000   -0.0000    0.0032    0.0000    0.0000    0.0030    0.0142
       51 FE2    6pz       -0.0105    0.0000   -0.0000    0.0000   -0.0000   -0.0059    0.0000    0.0000    0.0125    0.0305
       52 FE2    3d2-       0.0000    0.0327    0.9912   -0.0000    0.0000   -0.0000   -0.0000   -0.0000    0.0000   -0.0000
       53 FE2    4d2-      -0.0000   -0.0041   -0.1247    0.0000   -0.0000    0.0000    0.0000    0.0000   -0.0000   -0.0000
       54 FE2    5d2-      -0.0000   -0.0009   -0.0281    0.0000   -0.0000    0.0000    0.0000    0.0000   -0.0000   -0.0000
       55 FE2    3d1-      -0.0000   -0.0000    0.0000   -0.0130    0.9792    0.0000   -0.1633   -0.0022   -0.0000    0.0000
       56 FE2    4d1-      -0.0000    0.0000   -0.0000    0.0017   -0.1281   -0.0000    0.0451    0.0006    0.0000    0.0000
       57 FE2    5d1-      -0.0000    0.0000   -0.0000    0.0004   -0.0325   -0.0000    0.0068    0.0001    0.0000    0.0000
       58 FE2    3d0        0.2693   -0.0000    0.0000    0.0000   -0.0000    0.9619    0.0000    0.0000   -0.0059    0.0993
       59 FE2    4d0       -0.0264    0.0000   -0.0000   -0.0000    0.0000   -0.1082   -0.0000   -0.0000   -0.0120    0.0510
       60 FE2    5d0       -0.0107    0.0000   -0.0000   -0.0000    0.0000   -0.0278   -0.0000   -0.0000   -0.0039    0.0367
       61 FE2    3d1+      -0.0000    0.0000    0.0000    0.9792    0.0130   -0.0000   -0.0022    0.1633    0.0000   -0.0000
       62 FE2    4d1+       0.0000   -0.0000   -0.0000   -0.1281   -0.0017    0.0000    0.0006   -0.0451   -0.0000   -0.0000
       63 FE2    5d1+       0.0000   -0.0000   -0.0000   -0.0325   -0.0004    0.0000    0.0001   -0.0068   -0.0000   -0.0000
       64 FE2    3d2+      -0.0000    0.9912   -0.0327    0.0000    0.0000    0.0000   -0.0000    0.0000   -0.0000    0.0000
       65 FE2    4d2+       0.0000   -0.1247    0.0041   -0.0000   -0.0000   -0.0000    0.0000   -0.0000    0.0000    0.0000
       66 FE2    5d2+       0.0000   -0.0281    0.0009   -0.0000   -0.0000   -0.0000    0.0000   -0.0000    0.0000    0.0000
       67 FE2    4f3-       0.0000    0.0000   -0.0000   -0.0000    0.0000    0.0000    0.0000    0.0000    0.0000   -0.0000
       68 FE2    5f3-       0.0000    0.0000   -0.0000   -0.0000    0.0000    0.0000    0.0000    0.0000    0.0000   -0.0000
       69 FE2    4f2-      -0.0000   -0.0002   -0.0058    0.0000   -0.0000    0.0000    0.0000    0.0000    0.0000    0.0000
       70 FE2    5f2-      -0.0000   -0.0001   -0.0042    0.0000   -0.0000    0.0000    0.0000    0.0000    0.0000    0.0000
       71 FE2    4f1-      -0.0000    0.0000   -0.0000    0.0001   -0.0051    0.0000    0.0147    0.0002    0.0000   -0.0000
       72 FE2    5f1-      -0.0000    0.0000   -0.0000    0.0000   -0.0033    0.0000    0.0095    0.0001    0.0000   -0.0000
       73 FE2    4f0        0.0066    0.0000   -0.0000    0.0000   -0.0000   -0.0037   -0.0000   -0.0000    0.0026   -0.0090
       74 FE2    5f0        0.0033   -0.0000    0.0000    0.0000   -0.0000   -0.0011   -0.0000   -0.0000    0.0014   -0.0034
       75 FE2    4f1+      -0.0000   -0.0000   -0.0000   -0.0051   -0.0001   -0.0000    0.0002   -0.0147   -0.0000    0.0000
       76 FE2    5f1+       0.0000   -0.0000   -0.0000   -0.0033   -0.0000   -0.0000    0.0001   -0.0095   -0.0000    0.0000
       77 FE2    4f2+       0.0000   -0.0058    0.0002   -0.0000   -0.0000   -0.0000    0.0000   -0.0000   -0.0000   -0.0000
       78 FE2    5f2+       0.0000   -0.0042    0.0001   -0.0000   -0.0000   -0.0000    0.0000   -0.0000   -0.0000   -0.0000
       79 FE2    4f3+      -0.0000   -0.0000   -0.0000    0.0000    0.0000   -0.0000    0.0000   -0.0000    0.0000    0.0000
       80 FE2    5f3+      -0.0000   -0.0000   -0.0000    0.0000    0.0000    0.0000    0.0000   -0.0000    0.0000    0.0000
       81 FE2    5g4-       0.0000    0.0000    0.0000    0.0000    0.0000   -0.0000    0.0000    0.0000   -0.0000    0.0000
       82 FE2    5g3-       0.0000    0.0000   -0.0000   -0.0000    0.0000    0.0000   -0.0000   -0.0000    0.0000   -0.0000
       83 FE2    5g2-      -0.0000   -0.0000   -0.0015    0.0000   -0.0000   -0.0000    0.0000    0.0000   -0.0000   -0.0000
       84 FE2    5g1-       0.0000    0.0000   -0.0000    0.0000   -0.0009    0.0000    0.0016    0.0000    0.0000   -0.0000
       85 FE2    5g0        0.0006   -0.0000    0.0000    0.0000   -0.0000   -0.0006   -0.0000   -0.0000    0.0002   -0.0010
       86 FE2    5g1+      -0.0000    0.0000   -0.0000   -0.0009   -0.0000   -0.0000    0.0000   -0.0016   -0.0000    0.0000
       87 FE2    5g2+       0.0000   -0.0015    0.0000   -0.0000   -0.0000    0.0000    0.0000   -0.0000    0.0000    0.0000
       88 FE2    5g3+      -0.0000   -0.0000   -0.0000    0.0000    0.0000   -0.0000   -0.0000    0.0000   -0.0000   -0.0000
       89 FE2    5g4+      -0.0000    0.0000   -0.0000    0.0000    0.0000    0.0000   -0.0000   -0.0000   -0.0000   -0.0000
 
          Orbital           21        22        23        24        25        26        27        28        29    
          Energy           -0.3913   -0.3913   -0.2782   -0.2230   -0.1582   -0.1582   -0.1181   -0.1092   -0.1092
          Occ. No.          0.0000    0.0000    0.0000    0.0000    0.0000    0.0000    0.0000    0.0000    0.0000
 
        1 O1     1s        -0.0000    0.0000   -0.0517   -0.0341   -0.0000    0.0000   -0.1190    0.0000   -0.0000
        2 O1     2s        -0.0000    0.0000   -0.4538   -0.2569   -0.0000    0.0000   -0.9020    0.0000   -0.0000
        3 O1     3s        -0.0000    0.0000   -0.1495   -0.1456   -0.0000    0.0000   -0.5652    0.0000   -0.0000
        4 O1     4s        -0.0000    0.0000   -0.0327   -0.0348   -0.0000    0.0000   -0.1343    0.0000   -0.0000
        5 O1     2px       -0.2527   -0.0033    0.0000    0.0000    0.0000   -0.0000    0.0000   -0.0041   -0.3062
        6 O1     3px       -0.0680   -0.0009    0.0000    0.0000   -0.0000    0.0000   -0.0000    0.0022    0.1685
        7 O1     4px       -0.0100   -0.0001    0.0000    0.0000   -0.0000    0.0000   -0.0000    0.0019    0.1429
        8 O1     2py        0.0033   -0.2527   -0.0000   -0.0000    0.0000   -0.0000   -0.0000   -0.3062    0.0041
        9 O1     3py        0.0009   -0.0680   -0.0000   -0.0000   -0.0000    0.0000    0.0000    0.1685   -0.0022
       10 O1     4py        0.0001   -0.0100   -0.0000   -0.0000   -0.0000    0.0000    0.0000    0.1429   -0.0019
       11 O1     2pz       -0.0000    0.0000    0.3568    0.4049    0.0000   -0.0000    0.2716   -0.0000    0.0000
       12 O1     3pz       -0.0000    0.0000    0.0991    0.2553    0.0000   -0.0000    0.5727   -0.0000    0.0000
       13 O1     4pz       -0.0000    0.0000    0.0038    0.0425    0.0000   -0.0000    0.1214   -0.0000    0.0000
       14 O1     3d2-      -0.0000    0.0000   -0.0000   -0.0000    0.0181   -0.0003   -0.0000   -0.0000   -0.0000
       15 O1     4d2-      -0.0000   -0.0000    0.0000    0.0000    0.0052   -0.0001    0.0000   -0.0000   -0.0000
       16 O1     3d1-      -0.0000    0.0003    0.0000    0.0000   -0.0000   -0.0000    0.0000    0.0467   -0.0006
       17 O1     4d1-      -0.0000    0.0037    0.0000    0.0000   -0.0000   -0.0000    0.0000    0.0305   -0.0004
       18 O1     3d0        0.0000   -0.0000    0.0027   -0.0167   -0.0000    0.0000   -0.0640    0.0000   -0.0000
       19 O1     4d0        0.0000   -0.0000    0.0041   -0.0122   -0.0000    0.0000   -0.0474    0.0000   -0.0000
       20 O1     3d1+       0.0003    0.0000   -0.0000   -0.0000    0.0000   -0.0000   -0.0000    0.0006    0.0467
       21 O1     4d1+       0.0037    0.0000   -0.0000   -0.0000    0.0000   -0.0000   -0.0000    0.0004    0.0305
       22 O1     3d2+       0.0000    0.0000    0.0000    0.0000    0.0003    0.0181    0.0000    0.0000    0.0000
       23 O1     4d2+       0.0000    0.0000   -0.0000   -0.0000    0.0001    0.0052   -0.0000    0.0000    0.0000
       24 O1     4f3-      -0.0000    0.0000   -0.0000   -0.0000    0.0000   -0.0000   -0.0000    0.0000   -0.0000
       25 O1     4f2-      -0.0000   -0.0000    0.0000    0.0000    0.0026   -0.0000   -0.0000    0.0000   -0.0000
       26 O1     4f1-      -0.0000    0.0007    0.0000    0.0000    0.0000    0.0000   -0.0000   -0.0113    0.0002
       27 O1     4f0       -0.0000    0.0000   -0.0049   -0.0002    0.0000   -0.0000    0.0119   -0.0000    0.0000
       28 O1     4f1+       0.0007    0.0000   -0.0000   -0.0000   -0.0000    0.0000    0.0000   -0.0002   -0.0113
       29 O1     4f2+      -0.0000    0.0000   -0.0000   -0.0000    0.0000    0.0026    0.0000    0.0000    0.0000
       30 O1     4f3+       0.0000    0.0000   -0.0000    0.0000    0.0000    0.0000   -0.0000    0.0000    0.0000
       31 FE2    1s        -0.0000    0.0000    0.0032    0.0049    0.0000   -0.0000    0.0110   -0.0000    0.0000
       32 FE2    2s        -0.0000    0.0000    0.0232    0.0352    0.0000   -0.0000    0.0787   -0.0000    0.0000
       33 FE2    3s        -0.0000    0.0000    0.1170    0.1649    0.0000   -0.0000    0.3577   -0.0000    0.0000
       34 FE2    4s        -0.0000    0.0000    0.6270    0.1780    0.0000   -0.0000    0.8350   -0.0000    0.0000
       35 FE2    5s        -0.0000    0.0000    0.2346   -0.9758   -0.0000    0.0000   -0.2596    0.0000   -0.0000
       36 FE2    6s         0.0000   -0.0000    0.0134   -0.2167   -0.0000    0.0000    0.7103   -0.0000    0.0000
       37 FE2    2px        0.0011    0.0000   -0.0000   -0.0000    0.0000   -0.0000    0.0000   -0.0000   -0.0001
       38 FE2    3px        0.0299    0.0004   -0.0000   -0.0000    0.0000   -0.0000    0.0000    0.0000    0.0022
       39 FE2    4px        1.0425    0.0138   -0.0000   -0.0000   -0.0000    0.0000   -0.0000    0.0012    0.0891
       40 FE2    5px        0.0970    0.0013   -0.0000   -0.0000    0.0000   -0.0000   -0.0000    0.0018    0.1356
       41 FE2    6px        0.0340    0.0005   -0.0000   -0.0000    0.0000   -0.0000   -0.0000    0.0016    0.1178
       42 FE2    2py       -0.0000    0.0011    0.0000    0.0000   -0.0000   -0.0000   -0.0000   -0.0001    0.0000
       43 FE2    3py       -0.0004    0.0299    0.0000    0.0000   -0.0000   -0.0000   -0.0000    0.0022   -0.0000
       44 FE2    4py       -0.0138    1.0425    0.0000    0.0000    0.0000    0.0000    0.0000    0.0891   -0.0012
       45 FE2    5py       -0.0013    0.0970    0.0000    0.0000   -0.0000   -0.0000    0.0000    0.1356   -0.0018
       46 FE2    6py       -0.0005    0.0340    0.0000    0.0000   -0.0000   -0.0000    0.0000    0.1178   -0.0016
       47 FE2    2pz       -0.0000    0.0000    0.0049    0.0057    0.0000   -0.0000    0.0123   -0.0000    0.0000
       48 FE2    3pz       -0.0000    0.0000    0.0973    0.0932    0.0000   -0.0000    0.1887   -0.0000    0.0000
       49 FE2    4pz        0.0000   -0.0000    0.8626    0.3301    0.0000   -0.0000    0.6644   -0.0000    0.0000
       50 FE2    5pz        0.0000   -0.0000    0.2466    0.2006    0.0000   -0.0000    0.1411   -0.0000    0.0000
       51 FE2    6pz       -0.0000    0.0000    0.1654    0.1545    0.0000   -0.0000    0.0893   -0.0000    0.0000
       52 FE2    3d2-      -0.0000    0.0000   -0.0000   -0.0000    0.1193   -0.0020    0.0000    0.0000    0.0000
       53 FE2    4d2-       0.0000   -0.0000   -0.0000   -0.0000    0.8354   -0.0139   -0.0000    0.0000    0.0000
       54 FE2    5d2-       0.0000   -0.0000   -0.0000   -0.0000    0.5294   -0.0088   -0.0000    0.0000    0.0000
       55 FE2    3d1-      -0.0004    0.0303    0.0000    0.0000   -0.0000   -0.0000    0.0000    0.1424   -0.0019
       56 FE2    4d1-       0.0014   -0.1090   -0.0000   -0.0000   -0.0000   -0.0000    0.0000    0.7486   -0.0099
       57 FE2    5d1-       0.0007   -0.0564   -0.0000   -0.0000   -0.0000   -0.0000    0.0000    0.4818   -0.0064
       58 FE2    3d0       -0.0000    0.0000    0.0749    0.0704    0.0000   -0.0000    0.1765   -0.0000    0.0000
       59 FE2    4d0       -0.0000    0.0000   -0.2733   -0.0248    0.0000   -0.0000    0.5631   -0.0000    0.0000
       60 FE2    5d0       -0.0000    0.0000   -0.1471   -0.0148    0.0000   -0.0000    0.3188   -0.0000    0.0000
       61 FE2    3d1+       0.0303    0.0004   -0.0000    0.0000    0.0000   -0.0000   -0.0000    0.0019    0.1424
       62 FE2    4d1+      -0.1090   -0.0014    0.0000    0.0000    0.0000   -0.0000   -0.0000    0.0099    0.7486
       63 FE2    5d1+      -0.0564   -0.0007    0.0000    0.0000    0.0000   -0.0000   -0.0000    0.0064    0.4818
       64 FE2    3d2+       0.0000    0.0000    0.0000    0.0000    0.0020    0.1193   -0.0000   -0.0000    0.0000
       65 FE2    4d2+      -0.0000   -0.0000    0.0000    0.0000    0.0139    0.8354    0.0000   -0.0000    0.0000
       66 FE2    5d2+      -0.0000   -0.0000    0.0000    0.0000    0.0088    0.5294    0.0000   -0.0000    0.0000
       67 FE2    4f3-      -0.0000    0.0000   -0.0000   -0.0000   -0.0000    0.0000   -0.0000   -0.0000    0.0000
       68 FE2    5f3-      -0.0000    0.0000   -0.0000   -0.0000   -0.0000    0.0000   -0.0000   -0.0000    0.0000
       69 FE2    4f2-       0.0000   -0.0000   -0.0000    0.0000   -0.0062    0.0001    0.0000   -0.0000    0.0000
       70 FE2    5f2-       0.0000   -0.0000   -0.0000    0.0000   -0.0058    0.0001    0.0000   -0.0000    0.0000
       71 FE2    4f1-       0.0001   -0.0070   -0.0000   -0.0000    0.0000    0.0000   -0.0000   -0.0203    0.0003
       72 FE2    5f1-       0.0001   -0.0051   -0.0000   -0.0000    0.0000    0.0000   -0.0000   -0.0155    0.0002
       73 FE2    4f0        0.0000   -0.0000   -0.0144   -0.0007    0.0000   -0.0000    0.0160   -0.0000    0.0000
       74 FE2    5f0        0.0000   -0.0000   -0.0082    0.0020    0.0000   -0.0000    0.0151   -0.0000    0.0000
       75 FE2    4f1+      -0.0070   -0.0001    0.0000    0.0000   -0.0000    0.0000    0.0000   -0.0003   -0.0203
       76 FE2    5f1+      -0.0051   -0.0001    0.0000    0.0000   -0.0000    0.0000    0.0000   -0.0002   -0.0155
       77 FE2    4f2+      -0.0000   -0.0000    0.0000   -0.0000   -0.0001   -0.0062   -0.0000   -0.0000   -0.0000
       78 FE2    5f2+      -0.0000   -0.0000    0.0000   -0.0000   -0.0001   -0.0058   -0.0000   -0.0000   -0.0000
       79 FE2    4f3+       0.0000    0.0000    0.0000   -0.0000   -0.0000   -0.0000    0.0000   -0.0000   -0.0000
       80 FE2    5f3+       0.0000    0.0000    0.0000    0.0000   -0.0000   -0.0000    0.0000   -0.0000   -0.0000
       81 FE2    5g4-      -0.0000   -0.0000    0.0000   -0.0000   -0.0000    0.0000   -0.0000   -0.0000    0.0000
       82 FE2    5g3-      -0.0000    0.0000   -0.0000   -0.0000   -0.0000    0.0000   -0.0000   -0.0000    0.0000
       83 FE2    5g2-       0.0000   -0.0000   -0.0000   -0.0000    0.0002   -0.0000    0.0000   -0.0000   -0.0000
       84 FE2    5g1-       0.0000   -0.0001   -0.0000   -0.0000    0.0000    0.0000    0.0000    0.0006   -0.0000
       85 FE2    5g0        0.0000   -0.0000   -0.0010   -0.0001   -0.0000    0.0000    0.0020   -0.0000    0.0000
       86 FE2    5g1+      -0.0001   -0.0000    0.0000    0.0000   -0.0000    0.0000   -0.0000    0.0000    0.0006
       87 FE2    5g2+       0.0000   -0.0000    0.0000    0.0000    0.0000    0.0002   -0.0000    0.0000    0.0000
       88 FE2    5g3+       0.0000    0.0000   -0.0000   -0.0000   -0.0000   -0.0000   -0.0000   -0.0000   -0.0000
       89 FE2    5g4+       0.0000    0.0000    0.0000   -0.0000   -0.0000   -0.0000    0.0000    0.0000   -0.0000
--
 
 
  Input file to MOLDEN was generated!
 
 
++    Static properties:
      ------------------
 
 
      LoProp Charges per center
 

                   O1       FE2   
      Nuclear      8.0000  26.0000
      Electronic  -8.2975 -23.7025
 
      Total       -0.2975   2.2975
--
 
 
      All orbitals with orbital energies smaller than  E(LUMO)+0.5 are printed
 
++    Molecular orbitals:
      -------------------
 
      Title: UHF orbitals (beta)

      Molecular orbitals for symmetry species 1: a  
 
          Orbital            1         2         3         4         5         6         7         8         9        10    
          Energy         -264.5044  -33.2032  -28.2742  -28.2731  -28.2731  -21.2011   -4.8653   -3.3420   -3.3241   -3.3241
          Occ. No.          1.0000    1.0000    1.0000    1.0000    1.0000    1.0000    1.0000    1.0000    1.0000    1.0000
 
        1 O1     1s         0.0000    0.0000    0.0001    0.0000   -0.0000    0.9999   -0.0005   -0.0019    0.0000   -0.0000
        2 O1     2s         0.0000    0.0001    0.0004    0.0000   -0.0000   -0.0009    0.0047    0.0337   -0.0000    0.0000
        3 O1     3s         0.0000    0.0001    0.0004    0.0000   -0.0000   -0.0014    0.0002    0.0017    0.0000   -0.0000
        4 O1     4s         0.0000    0.0001    0.0001    0.0000   -0.0000   -0.0004   -0.0001   -0.0002    0.0000   -0.0000
        5 O1     2px       -0.0000   -0.0000   -0.0000    0.0001    0.0000    0.0000    0.0000   -0.0000    0.0001    0.0075
        6 O1     3px        0.0000   -0.0000    0.0000   -0.0000   -0.0000    0.0000   -0.0000   -0.0000   -0.0000   -0.0012
        7 O1     4px       -0.0000   -0.0000   -0.0000   -0.0001   -0.0000    0.0000    0.0000    0.0000   -0.0000   -0.0008
        8 O1     2py        0.0000    0.0000    0.0000   -0.0000    0.0001   -0.0000    0.0000    0.0000    0.0075   -0.0001
        9 O1     3py       -0.0000    0.0000   -0.0000    0.0000   -0.0000   -0.0000    0.0000   -0.0000   -0.0012    0.0000
       10 O1     4py        0.0000   -0.0000   -0.0000    0.0000   -0.0001   -0.0000    0.0000    0.0000   -0.0008    0.0000
       11 O1     2pz       -0.0000   -0.0001   -0.0003   -0.0000    0.0000    0.0005   -0.0045   -0.0272    0.0000   -0.0000
       12 O1     3pz       -0.0000   -0.0002   -0.0004   -0.0000    0.0000    0.0008    0.0004    0.0013   -0.0000    0.0000
       13 O1     4pz        0.0000   -0.0000   -0.0001    0.0000    0.0000   -0.0000    0.0003    0.0013   -0.0000   -0.0000
       14 O1     3d2-       0.0000   -0.0000    0.0000    0.0000    0.0000   -0.0000    0.0000   -0.0000   -0.0000    0.0000
       15 O1     4d2-       0.0000   -0.0000    0.0000    0.0000   -0.0000    0.0000    0.0000    0.0000   -0.0000    0.0000
       16 O1     3d1-       0.0000   -0.0000   -0.0000    0.0000   -0.0000   -0.0000   -0.0000   -0.0000   -0.0022    0.0000
       17 O1     4d1-       0.0000   -0.0000   -0.0000    0.0000   -0.0000    0.0000    0.0000   -0.0000   -0.0005    0.0000
       18 O1     3d0        0.0000    0.0001    0.0000    0.0000   -0.0000    0.0004    0.0014    0.0067   -0.0000    0.0000
       19 O1     4d0        0.0000    0.0001    0.0000    0.0000   -0.0000   -0.0009    0.0001    0.0010   -0.0000   -0.0000
       20 O1     3d1+      -0.0000    0.0000    0.0000   -0.0000   -0.0000    0.0000    0.0000    0.0000   -0.0000   -0.0022
       21 O1     4d1+      -0.0000    0.0000    0.0000   -0.0000   -0.0000   -0.0000    0.0000    0.0000   -0.0000   -0.0005
       22 O1     3d2+      -0.0000    0.0000   -0.0000   -0.0000   -0.0000    0.0000   -0.0000    0.0000   -0.0000   -0.0000
       23 O1     4d2+      -0.0000    0.0000   -0.0000   -0.0000   -0.0000   -0.0000   -0.0000   -0.0000   -0.0000    0.0000
       24 O1     4f3-       0.0000    0.0000    0.0000   -0.0000    0.0000   -0.0000    0.0000    0.0000   -0.0000    0.0000
       25 O1     4f2-      -0.0000    0.0000   -0.0000   -0.0000   -0.0000   -0.0000   -0.0000   -0.0000    0.0000   -0.0000
       26 O1     4f1-      -0.0000    0.0000   -0.0000    0.0000   -0.0000   -0.0000    0.0000    0.0000    0.0008   -0.0000
       27 O1     4f0       -0.0000   -0.0001    0.0000    0.0000   -0.0000    0.0001   -0.0004   -0.0022    0.0000   -0.0000
       28 O1     4f1+       0.0000    0.0000    0.0000   -0.0000   -0.0000    0.0000   -0.0000   -0.0000    0.0000    0.0008
       29 O1     4f2+       0.0000   -0.0000    0.0000   -0.0000    0.0000    0.0000    0.0000    0.0000    0.0000    0.0000
       30 O1     4f3+       0.0000    0.0000    0.0000    0.0000    0.0000   -0.0000    0.0000   -0.0000   -0.0000   -0.0000
       31 FE2    1s         1.0000    0.0000   -0.0000   -0.0000    0.0000    0.0000   -0.0000   -0.0002    0.0000   -0.0000
       32 FE2    2s        -0.0000    1.0000    0.0001    0.0000   -0.0000    0.0001    0.0009   -0.0009    0.0000   -0.0000
       33 FE2    3s        -0.0000   -0.0012   -0.0006   -0.0000    0.0000    0.0007    0.9990    0.0068   -0.0000    0.0000
       34 FE2    4s        -0.0000    0.0000   -0.0005   -0.0000    0.0000    0.0012   -0.0004   -0.0017    0.0000    0.0000
       35 FE2    5s         0.0000   -0.0002    0.0001    0.0000   -0.0000   -0.0005    0.0014    0.0011   -0.0000    0.0000
       36 FE2    6s         0.0000    0.0001    0.0001    0.0000   -0.0000    0.0001   -0.0004   -0.0005    0.0000   -0.0000
       37 FE2    2px        0.0000   -0.0000   -0.0000    0.9999    0.0132    0.0000   -0.0000   -0.0000    0.0000    0.0030
       38 FE2    3px       -0.0000   -0.0000    0.0000   -0.0030   -0.0000   -0.0000   -0.0000   -0.0000    0.0132    0.9994
       39 FE2    4px       -0.0000    0.0000   -0.0000    0.0005    0.0000   -0.0000    0.0000    0.0000   -0.0001   -0.0068
       40 FE2    5px        0.0000   -0.0000    0.0000   -0.0010   -0.0000   -0.0000    0.0000   -0.0000    0.0000    0.0033
       41 FE2    6px       -0.0000    0.0000   -0.0000    0.0006    0.0000   -0.0000    0.0000   -0.0000    0.0000    0.0022
       42 FE2    2py        0.0000    0.0000    0.0000   -0.0132    0.9999    0.0000   -0.0000    0.0000    0.0030   -0.0000
       43 FE2    3py       -0.0000    0.0000   -0.0000    0.0000   -0.0030    0.0000    0.0000    0.0000    0.9994   -0.0132
       44 FE2    4py        0.0000   -0.0000    0.0000   -0.0000    0.0005    0.0000   -0.0000   -0.0000   -0.0068    0.0001
       45 FE2    5py       -0.0000    0.0000   -0.0000    0.0000   -0.0010    0.0000   -0.0000    0.0000    0.0033   -0.0000
       46 FE2    6py        0.0000   -0.0000    0.0000   -0.0000    0.0006    0.0000    0.0000    0.0000    0.0022   -0.0000
       47 FE2    2pz        0.0000   -0.0002    1.0000    0.0000   -0.0000    0.0000    0.0002    0.0026   -0.0000    0.0000
       48 FE2    3pz       -0.0000   -0.0003   -0.0030   -0.0000    0.0000    0.0004   -0.0143    0.9923   -0.0000    0.0000
       49 FE2    4pz       -0.0000   -0.0000    0.0002   -0.0000   -0.0000    0.0008    0.0001   -0.0058   -0.0000    0.0000
       50 FE2    5pz        0.0000    0.0000   -0.0011   -0.0000    0.0000   -0.0003    0.0004    0.0014    0.0000   -0.0000
       51 FE2    6pz       -0.0000    0.0001    0.0007    0.0000   -0.0000   -0.0002   -0.0005    0.0012   -0.0000    0.0000
       52 FE2    3d2-       0.0000    0.0000   -0.0000    0.0000   -0.0000   -0.0000    0.0000   -0.0000   -0.0000    0.0000
       53 FE2    4d2-       0.0000    0.0000    0.0000   -0.0000   -0.0000   -0.0000    0.0000    0.0000    0.0000    0.0000
       54 FE2    5d2-      -0.0000   -0.0000   -0.0000    0.0000   -0.0000   -0.0000   -0.0000   -0.0000    0.0000   -0.0000
       55 FE2    3d1-       0.0000    0.0000    0.0000    0.0000   -0.0000    0.0000    0.0000    0.0000   -0.0104    0.0001
       56 FE2    4d1-       0.0000   -0.0000   -0.0000   -0.0000    0.0000    0.0000   -0.0000   -0.0000    0.0025   -0.0000
       57 FE2    5d1-       0.0000    0.0000    0.0000   -0.0000    0.0000    0.0000    0.0000   -0.0000    0.0005   -0.0000
       58 FE2    3d0       -0.0000   -0.0000   -0.0001   -0.0000    0.0000    0.0003   -0.0018   -0.0103    0.0000   -0.0000
       59 FE2    4d0       -0.0000    0.0000   -0.0001   -0.0000    0.0000    0.0002    0.0015    0.0024   -0.0000    0.0000
       60 FE2    5d0        0.0000    0.0000    0.0000   -0.0000   -0.0000   -0.0001   -0.0005   -0.0003    0.0000   -0.0000
       61 FE2    3d1+      -0.0000   -0.0000   -0.0000   -0.0000   -0.0000   -0.0000   -0.0000   -0.0000   -0.0001   -0.0104
       62 FE2    4d1+      -0.0000    0.0000    0.0000    0.0000    0.0000   -0.0000    0.0000    0.0000    0.0000    0.0025
       63 FE2    5d1+      -0.0000    0.0000   -0.0000    0.0000    0.0000   -0.0000   -0.0000    0.0000    0.0000    0.0005
       64 FE2    3d2+      -0.0000   -0.0000    0.0000   -0.0000   -0.0000    0.0000   -0.0000    0.0000   -0.0000   -0.0000
       65 FE2    4d2+      -0.0000   -0.0000   -0.0000    0.0000    0.0000    0.0000   -0.0000   -0.0000   -0.0000    0.0000
       66 FE2    5d2+       0.0000    0.0000    0.0000   -0.0000   -0.0000    0.0000    0.0000    0.0000    0.0000    0.0000
       67 FE2    4f3-      -0.0000    0.0000   -0.0000   -0.0000    0.0000    0.0000    0.0000   -0.0000    0.0000   -0.0000
       68 FE2    5f3-       0.0000   -0.0000    0.0000    0.0000   -0.0000   -0.0000    0.0000   -0.0000   -0.0000    0.0000
       69 FE2    4f2-       0.0000   -0.0000    0.0000    0.0000   -0.0000   -0.0000   -0.0000    0.0000   -0.0000    0.0000
       70 FE2    5f2-      -0.0000    0.0000   -0.0000   -0.0000   -0.0000   -0.0000    0.0000    0.0000    0.0000    0.0000
       71 FE2    4f1-      -0.0000    0.0000   -0.0000   -0.0000    0.0001    0.0000    0.0000   -0.0000    0.0020   -0.0000
       72 FE2    5f1-       0.0000   -0.0000    0.0000    0.0000   -0.0001    0.0000   -0.0000   -0.0000    0.0007   -0.0000
       73 FE2    4f0       -0.0000   -0.0000   -0.0001   -0.0000    0.0000    0.0000    0.0004   -0.0026   -0.0000    0.0000
       74 FE2    5f0       -0.0000    0.0000    0.0001    0.0000    0.0000    0.0000    0.0003    0.0007   -0.0000    0.0000
       75 FE2    4f1+      -0.0000   -0.0000   -0.0000    0.0001    0.0000   -0.0000   -0.0000    0.0000    0.0000    0.0020
       76 FE2    5f1+      -0.0000    0.0000    0.0000   -0.0001   -0.0000   -0.0000    0.0000    0.0000    0.0000    0.0007
       77 FE2    4f2+      -0.0000    0.0000   -0.0000   -0.0000   -0.0000    0.0000    0.0000   -0.0000   -0.0000   -0.0000
       78 FE2    5f2+       0.0000   -0.0000    0.0000    0.0000    0.0000    0.0000   -0.0000   -0.0000   -0.0000   -0.0000
       79 FE2    4f3+      -0.0000    0.0000   -0.0000    0.0000    0.0000    0.0000    0.0000   -0.0000    0.0000    0.0000
       80 FE2    5f3+      -0.0000   -0.0000    0.0000   -0.0000   -0.0000   -0.0000   -0.0000    0.0000   -0.0000   -0.0000
       81 FE2    5g4-      -0.0000    0.0000    0.0000    0.0000   -0.0000   -0.0000   -0.0000   -0.0000   -0.0000    0.0000
       82 FE2    5g3-      -0.0000    0.0000   -0.0000   -0.0000    0.0000    0.0000   -0.0000   -0.0000    0.0000   -0.0000
       83 FE2    5g2-       0.0000    0.0000   -0.0000    0.0000   -0.0000    0.0000    0.0000    0.0000   -0.0000    0.0000
       84 FE2    5g1-      -0.0000   -0.0000    0.0000    0.0000   -0.0000    0.0000   -0.0000    0.0000    0.0003   -0.0000
       85 FE2    5g0       -0.0000   -0.0000    0.0000    0.0000   -0.0000   -0.0000   -0.0005    0.0003   -0.0000    0.0000
       86 FE2    5g1+      -0.0000    0.0000   -0.0000   -0.0000   -0.0000   -0.0000    0.0000   -0.0000    0.0000    0.0003
       87 FE2    5g2+      -0.0000   -0.0000    0.0000   -0.0000   -0.0000   -0.0000   -0.0000   -0.0000   -0.0000   -0.0000
       88 FE2    5g3+       0.0000   -0.0000   -0.0000    0.0000    0.0000   -0.0000   -0.0000    0.0000    0.0000    0.0000
       89 FE2    5g4+       0.0000   -0.0000    0.0000    0.0000   -0.0000    0.0000    0.0000    0.0000    0.0000    0.0000
 
          Orbital           11        12        13        14        15        16        17        18        19        20    
          Energy           -1.8284   -1.2266   -1.0220   -1.0220   -0.5453   -0.5269   -0.5269   -0.4929   -0.4929   -0.4649
          Occ. No.          1.0000    1.0000    1.0000    1.0000    0.0000    0.0000    0.0000    0.0000    0.0000    0.0000
 
        1 O1     1s        -0.0057   -0.0145   -0.0000    0.0000    0.0109    0.0000   -0.0000    0.0000    0.0000   -0.0075
        2 O1     2s         0.9489   -0.2354   -0.0000    0.0000    0.1331    0.0000   -0.0000    0.0000    0.0000   -0.0995
        3 O1     3s        -0.0106   -0.0019   -0.0000    0.0000    0.0345    0.0000   -0.0000    0.0000    0.0000   -0.0338
        4 O1     4s        -0.0066   -0.0051   -0.0000    0.0000    0.0079    0.0000   -0.0000    0.0000    0.0000   -0.0069
        5 O1     2px        0.0000   -0.0000    0.7812    0.0104   -0.0000   -0.0072   -0.5424   -0.0000   -0.0000    0.0000
        6 O1     3px       -0.0000    0.0000   -0.0129   -0.0002   -0.0000   -0.0013   -0.1013   -0.0000   -0.0000    0.0000
        7 O1     4px        0.0000    0.0000   -0.0299   -0.0004   -0.0000   -0.0001   -0.0082   -0.0000   -0.0000    0.0000
        8 O1     2py       -0.0000    0.0000   -0.0104    0.7812    0.0000   -0.5424    0.0072   -0.0000    0.0000   -0.0000
        9 O1     3py        0.0000   -0.0000    0.0002   -0.0129    0.0000   -0.1013    0.0013   -0.0000    0.0000   -0.0000
       10 O1     4py        0.0000   -0.0000    0.0004   -0.0299    0.0000   -0.0082    0.0001   -0.0000    0.0000   -0.0000
       11 O1     2pz       -0.0848   -0.8904   -0.0000    0.0000   -0.0842   -0.0000    0.0000   -0.0000   -0.0000    0.2594
       12 O1     3pz       -0.0183    0.0803    0.0000   -0.0000   -0.0317   -0.0000    0.0000   -0.0000   -0.0000    0.0282
       13 O1     4pz        0.0154    0.0308    0.0000   -0.0000   -0.0051   -0.0000    0.0000    0.0000    0.0000   -0.0036
       14 O1     3d2-      -0.0000    0.0000   -0.0000    0.0000   -0.0000   -0.0000    0.0000   -0.0001   -0.0090   -0.0000
       15 O1     4d2-      -0.0000    0.0000    0.0000    0.0000   -0.0000   -0.0000    0.0000   -0.0000   -0.0025   -0.0000
       16 O1     3d1-      -0.0000   -0.0000    0.0007   -0.0502   -0.0000   -0.0032    0.0000   -0.0000    0.0000   -0.0000
       17 O1     4d1-      -0.0000   -0.0000    0.0003   -0.0220   -0.0000    0.0048   -0.0001    0.0000   -0.0000   -0.0000
       18 O1     3d0        0.0515    0.0342    0.0000   -0.0000    0.0149    0.0000   -0.0000   -0.0000   -0.0000    0.0151
       19 O1     4d0        0.0103    0.0186    0.0000   -0.0000    0.0051    0.0000   -0.0000   -0.0000   -0.0000    0.0024
       20 O1     3d1+       0.0000    0.0000   -0.0502   -0.0007   -0.0000   -0.0000   -0.0032   -0.0000   -0.0000    0.0000
       21 O1     4d1+       0.0000    0.0000   -0.0220   -0.0003    0.0000    0.0001    0.0048    0.0000    0.0000    0.0000
       22 O1     3d2+       0.0000   -0.0000    0.0000    0.0000    0.0000   -0.0000   -0.0000    0.0090   -0.0001    0.0000
       23 O1     4d2+       0.0000   -0.0000   -0.0000   -0.0000    0.0000   -0.0000   -0.0000    0.0025   -0.0000    0.0000
       24 O1     4f3-       0.0000    0.0000   -0.0000    0.0000   -0.0000   -0.0000    0.0000    0.0000    0.0000    0.0000
       25 O1     4f2-       0.0000    0.0000   -0.0000    0.0000    0.0000   -0.0000    0.0000    0.0000    0.0024    0.0000
       26 O1     4f1-       0.0000    0.0000   -0.0002    0.0174    0.0000   -0.0038    0.0001   -0.0000    0.0000   -0.0000
       27 O1     4f0       -0.0054   -0.0191   -0.0000    0.0000   -0.0036   -0.0000    0.0000   -0.0000   -0.0000   -0.0003
       28 O1     4f1+      -0.0000   -0.0000    0.0174    0.0002   -0.0000   -0.0001   -0.0038   -0.0000   -0.0000    0.0000
       29 O1     4f2+      -0.0000   -0.0000    0.0000    0.0000   -0.0000   -0.0000   -0.0000   -0.0024    0.0000   -0.0000
       30 O1     4f3+      -0.0000    0.0000    0.0000    0.0000   -0.0000   -0.0000   -0.0000   -0.0000    0.0000   -0.0000
       31 FE2    1s        -0.0015   -0.0020   -0.0000    0.0000   -0.0010   -0.0000    0.0000   -0.0000   -0.0000    0.0013
       32 FE2    2s        -0.0116   -0.0150   -0.0000    0.0000   -0.0069   -0.0000    0.0000   -0.0000   -0.0000    0.0091
       33 FE2    3s        -0.0755   -0.0842   -0.0000    0.0000   -0.0350   -0.0000    0.0000   -0.0000   -0.0000    0.0488
       34 FE2    4s         0.0313    0.1146    0.0000   -0.0000   -0.9414   -0.0000    0.0000   -0.0000   -0.0000    0.2709
       35 FE2    5s        -0.0169   -0.0481   -0.0000    0.0000    0.1984    0.0000   -0.0000    0.0000    0.0000   -0.0198
       36 FE2    6s         0.0038    0.0070    0.0000   -0.0000    0.0015    0.0000   -0.0000    0.0000    0.0000   -0.0065
       37 FE2    2px        0.0000    0.0000   -0.0017   -0.0000    0.0000    0.0000    0.0016    0.0000    0.0000   -0.0000
       38 FE2    3px        0.0000    0.0000   -0.0340   -0.0005    0.0000    0.0005    0.0377    0.0000    0.0000   -0.0000
       39 FE2    4px        0.0000   -0.0000    0.0989    0.0013   -0.0000   -0.0020   -0.1534   -0.0000   -0.0000    0.0000
       40 FE2    5px        0.0000    0.0000   -0.0204   -0.0003    0.0000    0.0001    0.0086    0.0000    0.0000   -0.0000
       41 FE2    6px        0.0000    0.0000   -0.0201   -0.0003    0.0000    0.0002    0.0183    0.0000    0.0000   -0.0000
       42 FE2    2py       -0.0000   -0.0000    0.0000   -0.0017   -0.0000    0.0016   -0.0000    0.0000   -0.0000    0.0000
       43 FE2    3py       -0.0000   -0.0000    0.0005   -0.0340   -0.0000    0.0377   -0.0005    0.0000   -0.0000    0.0000
       44 FE2    4py       -0.0000    0.0000   -0.0013    0.0989    0.0000   -0.1534    0.0020   -0.0000    0.0000   -0.0000
       45 FE2    5py       -0.0000   -0.0000    0.0003   -0.0204   -0.0000    0.0086   -0.0001    0.0000   -0.0000   -0.0000
       46 FE2    6py       -0.0000   -0.0000    0.0003   -0.0201   -0.0000    0.0183   -0.0002    0.0000   -0.0000    0.0000
       47 FE2    2pz       -0.0041   -0.0053   -0.0000    0.0000   -0.0015   -0.0000    0.0000   -0.0000   -0.0000    0.0024
       48 FE2    3pz       -0.1165   -0.1058   -0.0000    0.0000   -0.0214   -0.0000    0.0000   -0.0000   -0.0000    0.0483
       49 FE2    4pz        0.0314    0.0644    0.0000   -0.0000    0.1805    0.0000   -0.0000    0.0000    0.0000   -0.4986
       50 FE2    5pz       -0.0131   -0.0229   -0.0000    0.0000    0.0084    0.0000   -0.0000    0.0000    0.0000   -0.0233
       51 FE2    6pz       -0.0094   -0.0181   -0.0000    0.0000   -0.0030   -0.0000    0.0000   -0.0000   -0.0000    0.0104
       52 FE2    3d2-       0.0000    0.0000    0.0000   -0.0000    0.0000   -0.0000    0.0000   -0.0123   -0.9779   -0.0000
       53 FE2    4d2-      -0.0000    0.0000    0.0000   -0.0000    0.0000   -0.0000    0.0000   -0.0025   -0.1993   -0.0000
       54 FE2    5d2-      -0.0000   -0.0000   -0.0000   -0.0000    0.0000   -0.0000    0.0000   -0.0005   -0.0372   -0.0000
       55 FE2    3d1-      -0.0000    0.0000   -0.0060    0.4506   -0.0000    0.8860   -0.0117    0.0000   -0.0000    0.0000
       56 FE2    4d1-      -0.0000    0.0000   -0.0008    0.0613   -0.0000    0.1351   -0.0018    0.0000   -0.0000    0.0000
       57 FE2    5d1-      -0.0000   -0.0000    0.0001   -0.0081   -0.0000    0.0215   -0.0003    0.0000   -0.0000    0.0000
       58 FE2    3d0        0.0886    0.2264    0.0000   -0.0000    0.3619    0.0000   -0.0000   -0.0000   -0.0000    0.7814
       59 FE2    4d0        0.0086    0.0169    0.0000   -0.0000    0.0655    0.0000   -0.0000   -0.0000   -0.0000    0.1772
       60 FE2    5d0       -0.0057   -0.0129   -0.0000    0.0000    0.0092    0.0000   -0.0000   -0.0000   -0.0000    0.0470
       61 FE2    3d1+       0.0000   -0.0000    0.4506    0.0060    0.0000    0.0117    0.8860    0.0000    0.0000   -0.0000
       62 FE2    4d1+       0.0000   -0.0000    0.0613    0.0008    0.0000    0.0018    0.1351    0.0000    0.0000   -0.0000
       63 FE2    5d1+       0.0000    0.0000   -0.0081   -0.0001    0.0000    0.0003    0.0215    0.0000    0.0000   -0.0000
       64 FE2    3d2+      -0.0000   -0.0000   -0.0000   -0.0000   -0.0000   -0.0000   -0.0000    0.9779   -0.0123    0.0000
       65 FE2    4d2+       0.0000   -0.0000   -0.0000   -0.0000   -0.0000   -0.0000   -0.0000    0.1993   -0.0025    0.0000
       66 FE2    5d2+       0.0000    0.0000    0.0000    0.0000   -0.0000   -0.0000   -0.0000    0.0372   -0.0005    0.0000
       67 FE2    4f3-       0.0000    0.0000    0.0000   -0.0000   -0.0000   -0.0000    0.0000    0.0000    0.0000    0.0000
       68 FE2    5f3-       0.0000    0.0000    0.0000   -0.0000   -0.0000   -0.0000    0.0000    0.0000    0.0000    0.0000
       69 FE2    4f2-       0.0000    0.0000    0.0000   -0.0000   -0.0000   -0.0000    0.0000    0.0001    0.0059    0.0000
       70 FE2    5f2-       0.0000    0.0000    0.0000   -0.0000   -0.0000   -0.0000    0.0000    0.0000    0.0037    0.0000
       71 FE2    4f1-      -0.0000    0.0000   -0.0002    0.0187    0.0000   -0.0153    0.0002   -0.0000    0.0000    0.0000
       72 FE2    5f1-      -0.0000    0.0000   -0.0002    0.0128    0.0000   -0.0097    0.0001   -0.0000    0.0000    0.0000
       73 FE2    4f0        0.0083    0.0127    0.0000   -0.0000    0.0001    0.0000   -0.0000    0.0000    0.0000   -0.0105
       74 FE2    5f0        0.0045    0.0066    0.0000   -0.0000   -0.0005    0.0000   -0.0000    0.0000    0.0000   -0.0060
       75 FE2    4f1+      -0.0000   -0.0000    0.0187    0.0002   -0.0000   -0.0002   -0.0153   -0.0000   -0.0000   -0.0000
       76 FE2    5f1+      -0.0000   -0.0000    0.0128    0.0002   -0.0000   -0.0001   -0.0097   -0.0000   -0.0000   -0.0000
       77 FE2    4f2+      -0.0000   -0.0000   -0.0000   -0.0000    0.0000   -0.0000   -0.0000   -0.0059    0.0001   -0.0000
       78 FE2    5f2+      -0.0000   -0.0000   -0.0000   -0.0000    0.0000   -0.0000   -0.0000   -0.0037    0.0000   -0.0000
       79 FE2    4f3+      -0.0000   -0.0000   -0.0000   -0.0000   -0.0000   -0.0000   -0.0000   -0.0000    0.0000    0.0000
       80 FE2    5f3+      -0.0000   -0.0000   -0.0000   -0.0000    0.0000   -0.0000   -0.0000   -0.0000    0.0000    0.0000
       81 FE2    5g4-       0.0000   -0.0000   -0.0000    0.0000    0.0000   -0.0000    0.0000   -0.0000   -0.0000   -0.0000
       82 FE2    5g3-       0.0000    0.0000    0.0000   -0.0000   -0.0000   -0.0000    0.0000    0.0000    0.0000    0.0000
       83 FE2    5g2-       0.0000    0.0000    0.0000   -0.0000   -0.0000   -0.0000    0.0000   -0.0000   -0.0002   -0.0000
       84 FE2    5g1-      -0.0000    0.0000   -0.0000    0.0017    0.0000   -0.0011    0.0000    0.0000   -0.0000    0.0000
       85 FE2    5g0        0.0007    0.0011    0.0000   -0.0000    0.0002    0.0000   -0.0000    0.0000    0.0000   -0.0009
       86 FE2    5g1+      -0.0000   -0.0000    0.0017    0.0000   -0.0000   -0.0000   -0.0011    0.0000    0.0000   -0.0000
       87 FE2    5g2+      -0.0000   -0.0000   -0.0000   -0.0000    0.0000   -0.0000   -0.0000    0.0002   -0.0000    0.0000
       88 FE2    5g3+      -0.0000   -0.0000   -0.0000   -0.0000    0.0000   -0.0000   -0.0000   -0.0000    0.0000   -0.0000
       89 FE2    5g4+      -0.0000   -0.0000    0.0000    0.0000   -0.0000    0.0000    0.0000    0.0000   -0.0000    0.0000
 
          Orbital           21        22        23        24        25        26        27        28        29        30    
          Energy           -0.3609   -0.3609   -0.2440   -0.2152   -0.1109   -0.1007   -0.1007   -0.0831   -0.0831   -0.0794
          Occ. No.          0.0000    0.0000    0.0000    0.0000    0.0000    0.0000    0.0000    0.0000    0.0000    0.0000
 
        1 O1     1s         0.0000   -0.0000   -0.0725   -0.0630   -0.1247    0.0000   -0.0000    0.0000   -0.0000   -0.1321
        2 O1     2s         0.0000   -0.0000   -0.6327   -0.5284   -0.9249    0.0000   -0.0000    0.0000   -0.0000   -0.9577
        3 O1     3s         0.0000   -0.0000   -0.2324   -0.2440   -0.6021    0.0000   -0.0000    0.0000   -0.0000   -0.5651
        4 O1     4s         0.0000   -0.0000   -0.0504   -0.0557   -0.1431    0.0000   -0.0000    0.0000   -0.0000   -0.1184
        5 O1     2px       -0.4230   -0.0056   -0.0000   -0.0000   -0.0000   -0.0000    0.0000   -0.0031   -0.2343    0.0000
        6 O1     3px       -0.1375   -0.0018   -0.0000   -0.0000    0.0000    0.0000   -0.0000    0.0038    0.2868   -0.0000
        7 O1     4px       -0.0206   -0.0003   -0.0000   -0.0000    0.0000    0.0000   -0.0000    0.0026    0.1951   -0.0000
        8 O1     2py        0.0056   -0.4230   -0.0000    0.0000    0.0000    0.0000    0.0000   -0.2343    0.0031   -0.0000
        9 O1     3py        0.0018   -0.1375   -0.0000    0.0000   -0.0000   -0.0000   -0.0000    0.2868   -0.0038    0.0000
       10 O1     4py        0.0003   -0.0206   -0.0000    0.0000   -0.0000   -0.0000   -0.0000    0.1951   -0.0026    0.0000
       11 O1     2pz        0.0000   -0.0000    0.2019    0.3670    0.4029   -0.0000    0.0000   -0.0000    0.0000    0.2155
       12 O1     3pz        0.0000   -0.0000    0.0461    0.2061    0.7872   -0.0000    0.0000   -0.0000    0.0000    0.5105
       13 O1     4pz        0.0000   -0.0000   -0.0092    0.0249    0.1685   -0.0000    0.0000   -0.0000    0.0000    0.0640
       14 O1     3d2-       0.0000   -0.0000    0.0000    0.0000    0.0000    0.0161   -0.0003   -0.0000   -0.0000   -0.0000
       15 O1     4d2-       0.0000   -0.0000    0.0000    0.0000    0.0000    0.0055   -0.0001   -0.0000   -0.0000   -0.0000
       16 O1     3d1-       0.0001   -0.0044    0.0000    0.0000   -0.0000   -0.0000   -0.0000    0.0598   -0.0008    0.0000
       17 O1     4d1-      -0.0001    0.0042   -0.0000   -0.0000   -0.0000   -0.0000   -0.0000    0.0359   -0.0005    0.0000
       18 O1     3d0       -0.0000    0.0000    0.0100   -0.0063   -0.0973    0.0000   -0.0000    0.0000   -0.0000   -0.1121
       19 O1     4d0       -0.0000    0.0000    0.0104   -0.0066   -0.0644    0.0000   -0.0000    0.0000   -0.0000   -0.0603
       20 O1     3d1+      -0.0044   -0.0001   -0.0000   -0.0000    0.0000    0.0000   -0.0000    0.0008    0.0598   -0.0000
       21 O1     4d1+       0.0042    0.0001    0.0000    0.0000    0.0000    0.0000   -0.0000    0.0005    0.0359   -0.0000
       22 O1     3d2+      -0.0000   -0.0000   -0.0000   -0.0000   -0.0000    0.0003    0.0161    0.0000    0.0000    0.0000
       23 O1     4d2+      -0.0000   -0.0000   -0.0000   -0.0000   -0.0000    0.0001    0.0055    0.0000    0.0000    0.0000
       24 O1     4f3-       0.0000   -0.0000   -0.0000   -0.0000   -0.0000    0.0000   -0.0000   -0.0000    0.0000    0.0000
       25 O1     4f2-       0.0000   -0.0000   -0.0000   -0.0000    0.0000    0.0040   -0.0001   -0.0000    0.0000   -0.0000
       26 O1     4f1-       0.0000   -0.0028   -0.0000   -0.0000    0.0000    0.0000    0.0000   -0.0146    0.0002   -0.0000
       27 O1     4f0        0.0000   -0.0000   -0.0039    0.0010    0.0150   -0.0000    0.0000   -0.0000    0.0000    0.0102
       28 O1     4f1+      -0.0028   -0.0000    0.0000    0.0000   -0.0000   -0.0000    0.0000   -0.0002   -0.0146    0.0000
       29 O1     4f2+      -0.0000   -0.0000    0.0000    0.0000   -0.0000    0.0001    0.0040   -0.0000   -0.0000    0.0000
       30 O1     4f3+      -0.0000   -0.0000   -0.0000    0.0000   -0.0000    0.0000   -0.0000   -0.0000   -0.0000   -0.0000
       31 FE2    1s         0.0000   -0.0000    0.0028    0.0050    0.0139   -0.0000    0.0000   -0.0000    0.0000    0.0103
       32 FE2    2s         0.0000   -0.0000    0.0201    0.0358    0.0995   -0.0000    0.0000   -0.0000    0.0000    0.0741
       33 FE2    3s         0.0000   -0.0000    0.1046    0.1734    0.4474   -0.0000    0.0000   -0.0000    0.0000    0.3384
       34 FE2    4s         0.0000   -0.0000    0.6523    0.3815    0.9788   -0.0000    0.0000   -0.0000    0.0000    0.8839
       35 FE2    5s        -0.0000   -0.0000    0.4707   -0.8862   -0.3845    0.0000   -0.0000   -0.0000    0.0000    0.0192
       36 FE2    6s        -0.0000    0.0000    0.0917   -0.2497    0.5812   -0.0000    0.0000    0.0000   -0.0000   -0.7562
       37 FE2    2px        0.0011    0.0000    0.0000    0.0000   -0.0000    0.0000   -0.0000   -0.0000   -0.0006    0.0000
       38 FE2    3px        0.0359    0.0005    0.0000    0.0000   -0.0000    0.0000   -0.0000   -0.0001   -0.0102    0.0000
       39 FE2    4px        1.0523    0.0139    0.0000    0.0000   -0.0000    0.0000   -0.0000   -0.0005   -0.0371    0.0000
       40 FE2    5px        0.1684    0.0022    0.0000    0.0000    0.0000    0.0000   -0.0000    0.0024    0.1816   -0.0000
       41 FE2    6px        0.0857    0.0011    0.0000    0.0000    0.0000    0.0000   -0.0000    0.0022    0.1686   -0.0000
       42 FE2    2py       -0.0000    0.0011    0.0000   -0.0000    0.0000   -0.0000   -0.0000   -0.0006    0.0000   -0.0000
       43 FE2    3py       -0.0005    0.0359    0.0000   -0.0000    0.0000   -0.0000   -0.0000   -0.0102    0.0001   -0.0000
[...]

>>> COPY /tmp/1.68/GMJ_e2_B_P_2_.csv /home/grierjones/DDCASPT2/iron_oxo_DDCASPT2/MScaspt2iron/1.68/GMJ_e2_B_P_2_.csv

>>> END FOREACH

>>> EXPORT j = M

>>> IF (-FILE GMJ_e2_${i}_${j}_${k}_.csv)

>>> COPY /tmp/1.68/GMJ_RHS_B_M_2_.csv /home/grierjones/DDCASPT2/iron_oxo_DDCASPT2/MScaspt2iron/1.68/GMJ_RHS_B_M_2_.csv

>>> COPY /tmp/1.68/GMJ_IVECW_B_M_2_.csv /home/grierjones/DDCASPT2/iron_oxo_DDCASPT2/MScaspt2iron/1.68/GMJ_IVECW_B_M_2_.csv

>>> COPY /tmp/1.68/GMJ_IVECX_B_M_2_.csv /home/grierjones/DDCASPT2/iron_oxo_DDCASPT2/MScaspt2iron/1.68/GMJ_IVECX_B_M_2_.csv

>>> COPY /tmp/1.68/GMJ_IVECC2_B_M_2_.csv /home/grierjones/DDCASPT2/iron_oxo_DDCASPT2/MScaspt2iron/1.68/GMJ_IVECC2_B_M_2_.csv

>>> COPY /tmp/1.68/GMJ_e2_B_M_2_.csv /home/grierjones/DDCASPT2/iron_oxo_DDCASPT2/MScaspt2iron/1.68/GMJ_e2_B_M_2_.csv

>>> END FOREACH

>>> END FOREACH

>>> EXPORT i = E

>>> EXPORT j = P

>>> IF (-FILE GMJ_e2_${i}_${j}_${k}_.csv)

>>> COPY /tmp/1.68/GMJ_RHS_E_P_2_.csv /home/grierjones/DDCASPT2/iron_oxo_DDCASPT2/MScaspt2iron/1.68/GMJ_RHS_E_P_2_.csv

>>> COPY /tmp/1.68/GMJ_IVECW_E_P_2_.csv /home/grierjones/DDCASPT2/iron_oxo_DDCASPT2/MScaspt2iron/1.68/GMJ_IVECW_E_P_2_.csv

>>> COPY /tmp/1.68/GMJ_IVECX_E_P_2_.csv /home/grierjones/DDCASPT2/iron_oxo_DDCASPT2/MScaspt2iron/1.68/GMJ_IVECX_E_P_2_.csv

>>> COPY /tmp/1.68/GMJ_IVECC2_E_P_2_.csv /home/grierjones/DDCASPT2/iron_oxo_DDCASPT2/MScaspt2iron/1.68/GMJ_IVECC2_E_P_2_.csv

>>> COPY /tmp/1.68/GMJ_e2_E_P_2_.csv /home/grierjones/DDCASPT2/iron_oxo_DDCASPT2/MScaspt2iron/1.68/GMJ_e2_E_P_2_.csv

>>> END FOREACH

>>> EXPORT j = M

>>> IF (-FILE GMJ_e2_${i}_${j}_${k}_.csv)

>>> COPY /tmp/1.68/GMJ_RHS_E_M_2_.csv /home/grierjones/DDCASPT2/iron_oxo_DDCASPT2/MScaspt2iron/1.68/GMJ_RHS_E_M_2_.csv

>>> COPY /tmp/1.68/GMJ_IVECW_E_M_2_.csv /home/grierjones/DDCASPT2/iron_oxo_DDCASPT2/MScaspt2iron/1.68/GMJ_IVECW_E_M_2_.csv

>>> COPY /tmp/1.68/GMJ_IVECX_E_M_2_.csv /home/grierjones/DDCASPT2/iron_oxo_DDCASPT2/MScaspt2iron/1.68/GMJ_IVECX_E_M_2_.csv

>>> COPY /tmp/1.68/GMJ_IVECC2_E_M_2_.csv /home/grierjones/DDCASPT2/iron_oxo_DDCASPT2/MScaspt2iron/1.68/GMJ_IVECC2_E_M_2_.csv

>>> COPY /tmp/1.68/GMJ_e2_E_M_2_.csv /home/grierjones/DDCASPT2/iron_oxo_DDCASPT2/MScaspt2iron/1.68/GMJ_e2_E_M_2_.csv

>>> END FOREACH

>>> END FOREACH

>>> EXPORT i = F

>>> EXPORT j = P

>>> IF (-FILE GMJ_e2_${i}_${j}_${k}_.csv)

>>> COPY /tmp/1.68/GMJ_RHS_F_P_2_.csv /home/grierjones/DDCASPT2/iron_oxo_DDCASPT2/MScaspt2iron/1.68/GMJ_RHS_F_P_2_.csv

>>> COPY /tmp/1.68/GMJ_IVECW_F_P_2_.csv /home/grierjones/DDCASPT2/iron_oxo_DDCASPT2/MScaspt2iron/1.68/GMJ_IVECW_F_P_2_.csv

>>> COPY /tmp/1.68/GMJ_IVECX_F_P_2_.csv /home/grierjones/DDCASPT2/iron_oxo_DDCASPT2/MScaspt2iron/1.68/GMJ_IVECX_F_P_2_.csv

>>> COPY /tmp/1.68/GMJ_IVECC2_F_P_2_.csv /home/grierjones/DDCASPT2/iron_oxo_DDCASPT2/MScaspt2iron/1.68/GMJ_IVECC2_F_P_2_.csv

>>> COPY /tmp/1.68/GMJ_e2_F_P_2_.csv /home/grierjones/DDCASPT2/iron_oxo_DDCASPT2/MScaspt2iron/1.68/GMJ_e2_F_P_2_.csv

>>> END FOREACH

>>> EXPORT j = M

>>> IF (-FILE GMJ_e2_${i}_${j}_${k}_.csv)

>>> COPY /tmp/1.68/GMJ_RHS_F_M_2_.csv /home/grierjones/DDCASPT2/iron_oxo_DDCASPT2/MScaspt2iron/1.68/GMJ_RHS_F_M_2_.csv

>>> COPY /tmp/1.68/GMJ_IVECW_F_M_2_.csv /home/grierjones/DDCASPT2/iron_oxo_DDCASPT2/MScaspt2iron/1.68/GMJ_IVECW_F_M_2_.csv

>>> COPY /tmp/1.68/GMJ_IVECX_F_M_2_.csv /home/grierjones/DDCASPT2/iron_oxo_DDCASPT2/MScaspt2iron/1.68/GMJ_IVECX_F_M_2_.csv

>>> COPY /tmp/1.68/GMJ_IVECC2_F_M_2_.csv /home/grierjones/DDCASPT2/iron_oxo_DDCASPT2/MScaspt2iron/1.68/GMJ_IVECC2_F_M_2_.csv

>>> COPY /tmp/1.68/GMJ_e2_F_M_2_.csv /home/grierjones/DDCASPT2/iron_oxo_DDCASPT2/MScaspt2iron/1.68/GMJ_e2_F_M_2_.csv

>>> END FOREACH

>>> END FOREACH

>>> EXPORT i = G

>>> EXPORT j = P

>>> IF (-FILE GMJ_e2_${i}_${j}_${k}_.csv)

>>> COPY /tmp/1.68/GMJ_RHS_G_P_2_.csv /home/grierjones/DDCASPT2/iron_oxo_DDCASPT2/MScaspt2iron/1.68/GMJ_RHS_G_P_2_.csv

>>> COPY /tmp/1.68/GMJ_IVECW_G_P_2_.csv /home/grierjones/DDCASPT2/iron_oxo_DDCASPT2/MScaspt2iron/1.68/GMJ_IVECW_G_P_2_.csv

>>> COPY /tmp/1.68/GMJ_IVECX_G_P_2_.csv /home/grierjones/DDCASPT2/iron_oxo_DDCASPT2/MScaspt2iron/1.68/GMJ_IVECX_G_P_2_.csv

>>> COPY /tmp/1.68/GMJ_IVECC2_G_P_2_.csv /home/grierjones/DDCASPT2/iron_oxo_DDCASPT2/MScaspt2iron/1.68/GMJ_IVECC2_G_P_2_.csv

>>> COPY /tmp/1.68/GMJ_e2_G_P_2_.csv /home/grierjones/DDCASPT2/iron_oxo_DDCASPT2/MScaspt2iron/1.68/GMJ_e2_G_P_2_.csv

>>> END FOREACH

>>> EXPORT j = M

>>> IF (-FILE GMJ_e2_${i}_${j}_${k}_.csv)

>>> COPY /tmp/1.68/GMJ_RHS_G_M_2_.csv /home/grierjones/DDCASPT2/iron_oxo_DDCASPT2/MScaspt2iron/1.68/GMJ_RHS_G_M_2_.csv

>>> COPY /tmp/1.68/GMJ_IVECW_G_M_2_.csv /home/grierjones/DDCASPT2/iron_oxo_DDCASPT2/MScaspt2iron/1.68/GMJ_IVECW_G_M_2_.csv

>>> COPY /tmp/1.68/GMJ_IVECX_G_M_2_.csv /home/grierjones/DDCASPT2/iron_oxo_DDCASPT2/MScaspt2iron/1.68/GMJ_IVECX_G_M_2_.csv

>>> COPY /tmp/1.68/GMJ_IVECC2_G_M_2_.csv /home/grierjones/DDCASPT2/iron_oxo_DDCASPT2/MScaspt2iron/1.68/GMJ_IVECC2_G_M_2_.csv

>>> COPY /tmp/1.68/GMJ_e2_G_M_2_.csv /home/grierjones/DDCASPT2/iron_oxo_DDCASPT2/MScaspt2iron/1.68/GMJ_e2_G_M_2_.csv

>>> END FOREACH

>>> END FOREACH

>>> EXPORT i = H

>>> EXPORT j = P

>>> IF (-FILE GMJ_e2_${i}_${j}_${k}_.csv)

>>> COPY /tmp/1.68/GMJ_RHS_H_P_2_.csv /home/grierjones/DDCASPT2/iron_oxo_DDCASPT2/MScaspt2iron/1.68/GMJ_RHS_H_P_2_.csv

>>> COPY /tmp/1.68/GMJ_IVECW_H_P_2_.csv /home/grierjones/DDCASPT2/iron_oxo_DDCASPT2/MScaspt2iron/1.68/GMJ_IVECW_H_P_2_.csv

>>> COPY /tmp/1.68/GMJ_IVECX_H_P_2_.csv /home/grierjones/DDCASPT2/iron_oxo_DDCASPT2/MScaspt2iron/1.68/GMJ_IVECX_H_P_2_.csv

>>> COPY /tmp/1.68/GMJ_IVECC2_H_P_2_.csv /home/grierjones/DDCASPT2/iron_oxo_DDCASPT2/MScaspt2iron/1.68/GMJ_IVECC2_H_P_2_.csv

>>> COPY /tmp/1.68/GMJ_e2_H_P_2_.csv /home/grierjones/DDCASPT2/iron_oxo_DDCASPT2/MScaspt2iron/1.68/GMJ_e2_H_P_2_.csv

>>> END FOREACH

>>> EXPORT j = M

>>> IF (-FILE GMJ_e2_${i}_${j}_${k}_.csv)

>>> COPY /tmp/1.68/GMJ_RHS_H_M_2_.csv /home/grierjones/DDCASPT2/iron_oxo_DDCASPT2/MScaspt2iron/1.68/GMJ_RHS_H_M_2_.csv

>>> COPY /tmp/1.68/GMJ_IVECW_H_M_2_.csv /home/grierjones/DDCASPT2/iron_oxo_DDCASPT2/MScaspt2iron/1.68/GMJ_IVECW_H_M_2_.csv

>>> COPY /tmp/1.68/GMJ_IVECX_H_M_2_.csv /home/grierjones/DDCASPT2/iron_oxo_DDCASPT2/MScaspt2iron/1.68/GMJ_IVECX_H_M_2_.csv

>>> COPY /tmp/1.68/GMJ_IVECC2_H_M_2_.csv /home/grierjones/DDCASPT2/iron_oxo_DDCASPT2/MScaspt2iron/1.68/GMJ_IVECC2_H_M_2_.csv

>>> COPY /tmp/1.68/GMJ_e2_H_M_2_.csv /home/grierjones/DDCASPT2/iron_oxo_DDCASPT2/MScaspt2iron/1.68/GMJ_e2_H_M_2_.csv

>>> END FOREACH

>>> END FOREACH

>>> END FOREACH

>>> EXPORT k = 3

>>> EXPORT i = B

>>> EXPORT j = P

>>> IF (-FILE GMJ_e2_${i}_${j}_${k}_.csv)

>>> COPY /tmp/1.68/GMJ_RHS_B_P_3_.csv /home/grierjones/DDCASPT2/iron_oxo_DDCASPT2/MScaspt2iron/1.68/GMJ_RHS_B_P_3_.csv

>>> COPY /tmp/1.68/GMJ_IVECW_B_P_3_.csv /home/grierjones/DDCASPT2/iron_oxo_DDCASPT2/MScaspt2iron/1.68/GMJ_IVECW_B_P_3_.csv

>>> COPY /tmp/1.68/GMJ_IVECX_B_P_3_.csv /home/grierjones/DDCASPT2/iron_oxo_DDCASPT2/MScaspt2iron/1.68/GMJ_IVECX_B_P_3_.csv

>>> COPY /tmp/1.68/GMJ_IVECC2_B_P_3_.csv /home/grierjones/DDCASPT2/iron_oxo_DDCASPT2/MScaspt2iron/1.68/GMJ_IVECC2_B_P_3_.csv

>>> COPY /tmp/1.68/GMJ_e2_B_P_3_.csv /home/grierjones/DDCASPT2/iron_oxo_DDCASPT2/MScaspt2iron/1.68/GMJ_e2_B_P_3_.csv

>>> END FOREACH

>>> EXPORT j = M

>>> IF (-FILE GMJ_e2_${i}_${j}_${k}_.csv)

>>> COPY /tmp/1.68/GMJ_RHS_B_M_3_.csv /home/grierjones/DDCASPT2/iron_oxo_DDCASPT2/MScaspt2iron/1.68/GMJ_RHS_B_M_3_.csv

>>> COPY /tmp/1.68/GMJ_IVECW_B_M_3_.csv /home/grierjones/DDCASPT2/iron_oxo_DDCASPT2/MScaspt2iron/1.68/GMJ_IVECW_B_M_3_.csv

>>> COPY /tmp/1.68/GMJ_IVECX_B_M_3_.csv /home/grierjones/DDCASPT2/iron_oxo_DDCASPT2/MScaspt2iron/1.68/GMJ_IVECX_B_M_3_.csv

>>> COPY /tmp/1.68/GMJ_IVECC2_B_M_3_.csv /home/grierjones/DDCASPT2/iron_oxo_DDCASPT2/MScaspt2iron/1.68/GMJ_IVECC2_B_M_3_.csv

>>> COPY /tmp/1.68/GMJ_e2_B_M_3_.csv /home/grierjones/DDCASPT2/iron_oxo_DDCASPT2/MScaspt2iron/1.68/GMJ_e2_B_M_3_.csv

>>> END FOREACH

>>> END FOREACH

>>> EXPORT i = E

>>> EXPORT j = P

>>> IF (-FILE GMJ_e2_${i}_${j}_${k}_.csv)

>>> COPY /tmp/1.68/GMJ_RHS_E_P_3_.csv /home/grierjones/DDCASPT2/iron_oxo_DDCASPT2/MScaspt2iron/1.68/GMJ_RHS_E_P_3_.csv

>>> COPY /tmp/1.68/GMJ_IVECW_E_P_3_.csv /home/grierjones/DDCASPT2/iron_oxo_DDCASPT2/MScaspt2iron/1.68/GMJ_IVECW_E_P_3_.csv

>>> COPY /tmp/1.68/GMJ_IVECX_E_P_3_.csv /home/grierjones/DDCASPT2/iron_oxo_DDCASPT2/MScaspt2iron/1.68/GMJ_IVECX_E_P_3_.csv

>>> COPY /tmp/1.68/GMJ_IVECC2_E_P_3_.csv /home/grierjones/DDCASPT2/iron_oxo_DDCASPT2/MScaspt2iron/1.68/GMJ_IVECC2_E_P_3_.csv

>>> COPY /tmp/1.68/GMJ_e2_E_P_3_.csv /home/grierjones/DDCASPT2/iron_oxo_DDCASPT2/MScaspt2iron/1.68/GMJ_e2_E_P_3_.csv

>>> END FOREACH

>>> EXPORT j = M

>>> IF (-FILE GMJ_e2_${i}_${j}_${k}_.csv)

>>> COPY /tmp/1.68/GMJ_RHS_E_M_3_.csv /home/grierjones/DDCASPT2/iron_oxo_DDCASPT2/MScaspt2iron/1.68/GMJ_RHS_E_M_3_.csv

>>> COPY /tmp/1.68/GMJ_IVECW_E_M_3_.csv /home/grierjones/DDCASPT2/iron_oxo_DDCASPT2/MScaspt2iron/1.68/GMJ_IVECW_E_M_3_.csv

>>> COPY /tmp/1.68/GMJ_IVECX_E_M_3_.csv /home/grierjones/DDCASPT2/iron_oxo_DDCASPT2/MScaspt2iron/1.68/GMJ_IVECX_E_M_3_.csv

>>> COPY /tmp/1.68/GMJ_IVECC2_E_M_3_.csv /home/grierjones/DDCASPT2/iron_oxo_DDCASPT2/MScaspt2iron/1.68/GMJ_IVECC2_E_M_3_.csv

>>> COPY /tmp/1.68/GMJ_e2_E_M_3_.csv /home/grierjones/DDCASPT2/iron_oxo_DDCASPT2/MScaspt2iron/1.68/GMJ_e2_E_M_3_.csv

>>> END FOREACH

>>> END FOREACH

>>> EXPORT i = F

>>> EXPORT j = P

>>> IF (-FILE GMJ_e2_${i}_${j}_${k}_.csv)

>>> COPY /tmp/1.68/GMJ_RHS_F_P_3_.csv /home/grierjones/DDCASPT2/iron_oxo_DDCASPT2/MScaspt2iron/1.68/GMJ_RHS_F_P_3_.csv

>>> COPY /tmp/1.68/GMJ_IVECW_F_P_3_.csv /home/grierjones/DDCASPT2/iron_oxo_DDCASPT2/MScaspt2iron/1.68/GMJ_IVECW_F_P_3_.csv

>>> COPY /tmp/1.68/GMJ_IVECX_F_P_3_.csv /home/grierjones/DDCASPT2/iron_oxo_DDCASPT2/MScaspt2iron/1.68/GMJ_IVECX_F_P_3_.csv

>>> COPY /tmp/1.68/GMJ_IVECC2_F_P_3_.csv /home/grierjones/DDCASPT2/iron_oxo_DDCASPT2/MScaspt2iron/1.68/GMJ_IVECC2_F_P_3_.csv

>>> COPY /tmp/1.68/GMJ_e2_F_P_3_.csv /home/grierjones/DDCASPT2/iron_oxo_DDCASPT2/MScaspt2iron/1.68/GMJ_e2_F_P_3_.csv

>>> END FOREACH

>>> EXPORT j = M

>>> IF (-FILE GMJ_e2_${i}_${j}_${k}_.csv)

>>> COPY /tmp/1.68/GMJ_RHS_F_M_3_.csv /home/grierjones/DDCASPT2/iron_oxo_DDCASPT2/MScaspt2iron/1.68/GMJ_RHS_F_M_3_.csv

>>> COPY /tmp/1.68/GMJ_IVECW_F_M_3_.csv /home/grierjones/DDCASPT2/iron_oxo_DDCASPT2/MScaspt2iron/1.68/GMJ_IVECW_F_M_3_.csv

>>> COPY /tmp/1.68/GMJ_IVECX_F_M_3_.csv /home/grierjones/DDCASPT2/iron_oxo_DDCASPT2/MScaspt2iron/1.68/GMJ_IVECX_F_M_3_.csv

>>> COPY /tmp/1.68/GMJ_IVECC2_F_M_3_.csv /home/grierjones/DDCASPT2/iron_oxo_DDCASPT2/MScaspt2iron/1.68/GMJ_IVECC2_F_M_3_.csv

>>> COPY /tmp/1.68/GMJ_e2_F_M_3_.csv /home/grierjones/DDCASPT2/iron_oxo_DDCASPT2/MScaspt2iron/1.68/GMJ_e2_F_M_3_.csv

>>> END FOREACH

>>> END FOREACH

>>> EXPORT i = G

>>> EXPORT j = P

>>> IF (-FILE GMJ_e2_${i}_${j}_${k}_.csv)

>>> COPY /tmp/1.68/GMJ_RHS_G_P_3_.csv /home/grierjones/DDCASPT2/iron_oxo_DDCASPT2/MScaspt2iron/1.68/GMJ_RHS_G_P_3_.csv

>>> COPY /tmp/1.68/GMJ_IVECW_G_P_3_.csv /home/grierjones/DDCASPT2/iron_oxo_DDCASPT2/MScaspt2iron/1.68/GMJ_IVECW_G_P_3_.csv

>>> COPY /tmp/1.68/GMJ_IVECX_G_P_3_.csv /home/grierjones/DDCASPT2/iron_oxo_DDCASPT2/MScaspt2iron/1.68/GMJ_IVECX_G_P_3_.csv

>>> COPY /tmp/1.68/GMJ_IVECC2_G_P_3_.csv /home/grierjones/DDCASPT2/iron_oxo_DDCASPT2/MScaspt2iron/1.68/GMJ_IVECC2_G_P_3_.csv

>>> COPY /tmp/1.68/GMJ_e2_G_P_3_.csv /home/grierjones/DDCASPT2/iron_oxo_DDCASPT2/MScaspt2iron/1.68/GMJ_e2_G_P_3_.csv

>>> END FOREACH

>>> EXPORT j = M

>>> IF (-FILE GMJ_e2_${i}_${j}_${k}_.csv)

>>> COPY /tmp/1.68/GMJ_RHS_G_M_3_.csv /home/grierjones/DDCASPT2/iron_oxo_DDCASPT2/MScaspt2iron/1.68/GMJ_RHS_G_M_3_.csv

>>> COPY /tmp/1.68/GMJ_IVECW_G_M_3_.csv /home/grierjones/DDCASPT2/iron_oxo_DDCASPT2/MScaspt2iron/1.68/GMJ_IVECW_G_M_3_.csv

>>> COPY /tmp/1.68/GMJ_IVECX_G_M_3_.csv /home/grierjones/DDCASPT2/iron_oxo_DDCASPT2/MScaspt2iron/1.68/GMJ_IVECX_G_M_3_.csv

>>> COPY /tmp/1.68/GMJ_IVECC2_G_M_3_.csv /home/grierjones/DDCASPT2/iron_oxo_DDCASPT2/MScaspt2iron/1.68/GMJ_IVECC2_G_M_3_.csv

>>> COPY /tmp/1.68/GMJ_e2_G_M_3_.csv /home/grierjones/DDCASPT2/iron_oxo_DDCASPT2/MScaspt2iron/1.68/GMJ_e2_G_M_3_.csv

>>> END FOREACH

>>> END FOREACH

>>> EXPORT i = H

>>> EXPORT j = P

>>> IF (-FILE GMJ_e2_${i}_${j}_${k}_.csv)

>>> COPY /tmp/1.68/GMJ_RHS_H_P_3_.csv /home/grierjones/DDCASPT2/iron_oxo_DDCASPT2/MScaspt2iron/1.68/GMJ_RHS_H_P_3_.csv

>>> COPY /tmp/1.68/GMJ_IVECW_H_P_3_.csv /home/grierjones/DDCASPT2/iron_oxo_DDCASPT2/MScaspt2iron/1.68/GMJ_IVECW_H_P_3_.csv

>>> COPY /tmp/1.68/GMJ_IVECX_H_P_3_.csv /home/grierjones/DDCASPT2/iron_oxo_DDCASPT2/MScaspt2iron/1.68/GMJ_IVECX_H_P_3_.csv

>>> COPY /tmp/1.68/GMJ_IVECC2_H_P_3_.csv /home/grierjones/DDCASPT2/iron_oxo_DDCASPT2/MScaspt2iron/1.68/GMJ_IVECC2_H_P_3_.csv

>>> COPY /tmp/1.68/GMJ_e2_H_P_3_.csv /home/grierjones/DDCASPT2/iron_oxo_DDCASPT2/MScaspt2iron/1.68/GMJ_e2_H_P_3_.csv

>>> END FOREACH

>>> EXPORT j = M

>>> IF (-FILE GMJ_e2_${i}_${j}_${k}_.csv)

>>> COPY /tmp/1.68/GMJ_RHS_H_M_3_.csv /home/grierjones/DDCASPT2/iron_oxo_DDCASPT2/MScaspt2iron/1.68/GMJ_RHS_H_M_3_.csv

>>> COPY /tmp/1.68/GMJ_IVECW_H_M_3_.csv /home/grierjones/DDCASPT2/iron_oxo_DDCASPT2/MScaspt2iron/1.68/GMJ_IVECW_H_M_3_.csv

>>> COPY /tmp/1.68/GMJ_IVECX_H_M_3_.csv /home/grierjones/DDCASPT2/iron_oxo_DDCASPT2/MScaspt2iron/1.68/GMJ_IVECX_H_M_3_.csv

>>> COPY /tmp/1.68/GMJ_IVECC2_H_M_3_.csv /home/grierjones/DDCASPT2/iron_oxo_DDCASPT2/MScaspt2iron/1.68/GMJ_IVECC2_H_M_3_.csv

>>> COPY /tmp/1.68/GMJ_e2_H_M_3_.csv /home/grierjones/DDCASPT2/iron_oxo_DDCASPT2/MScaspt2iron/1.68/GMJ_e2_H_M_3_.csv

>>> END FOREACH

>>> END FOREACH

>>> END FOREACH

>>> EXPORT j = 1

>>> EXPORT i = A

>>> IF (-FILE GMJ_e2_${i}_${j}_.csv)

>>> COPY /tmp/1.68/GMJ_RHS_A_1_.csv /home/grierjones/DDCASPT2/iron_oxo_DDCASPT2/MScaspt2iron/1.68/GMJ_RHS_A_1_.csv

>>> COPY /tmp/1.68/GMJ_IVECW_A_1_.csv /home/grierjones/DDCASPT2/iron_oxo_DDCASPT2/MScaspt2iron/1.68/GMJ_IVECW_A_1_.csv

>>> COPY /tmp/1.68/GMJ_IVECX_A_1_.csv /home/grierjones/DDCASPT2/iron_oxo_DDCASPT2/MScaspt2iron/1.68/GMJ_IVECX_A_1_.csv

>>> COPY /tmp/1.68/GMJ_IVECC2_A_1_.csv /home/grierjones/DDCASPT2/iron_oxo_DDCASPT2/MScaspt2iron/1.68/GMJ_IVECC2_A_1_.csv

>>> COPY /tmp/1.68/GMJ_e2_A_1_.csv /home/grierjones/DDCASPT2/iron_oxo_DDCASPT2/MScaspt2iron/1.68/GMJ_e2_A_1_.csv

>>> END FOREACH

>>> EXPORT i = C

>>> IF (-FILE GMJ_e2_${i}_${j}_.csv)

>>> COPY /tmp/1.68/GMJ_RHS_C_1_.csv /home/grierjones/DDCASPT2/iron_oxo_DDCASPT2/MScaspt2iron/1.68/GMJ_RHS_C_1_.csv

>>> COPY /tmp/1.68/GMJ_IVECW_C_1_.csv /home/grierjones/DDCASPT2/iron_oxo_DDCASPT2/MScaspt2iron/1.68/GMJ_IVECW_C_1_.csv

>>> COPY /tmp/1.68/GMJ_IVECX_C_1_.csv /home/grierjones/DDCASPT2/iron_oxo_DDCASPT2/MScaspt2iron/1.68/GMJ_IVECX_C_1_.csv

>>> COPY /tmp/1.68/GMJ_IVECC2_C_1_.csv /home/grierjones/DDCASPT2/iron_oxo_DDCASPT2/MScaspt2iron/1.68/GMJ_IVECC2_C_1_.csv

>>> COPY /tmp/1.68/GMJ_e2_C_1_.csv /home/grierjones/DDCASPT2/iron_oxo_DDCASPT2/MScaspt2iron/1.68/GMJ_e2_C_1_.csv

>>> END FOREACH

>>> EXPORT i = D

>>> IF (-FILE GMJ_e2_${i}_${j}_.csv)

>>> COPY /tmp/1.68/GMJ_RHS_D_1_.csv /home/grierjones/DDCASPT2/iron_oxo_DDCASPT2/MScaspt2iron/1.68/GMJ_RHS_D_1_.csv

>>> COPY /tmp/1.68/GMJ_IVECW_D_1_.csv /home/grierjones/DDCASPT2/iron_oxo_DDCASPT2/MScaspt2iron/1.68/GMJ_IVECW_D_1_.csv

>>> COPY /tmp/1.68/GMJ_IVECX_D_1_.csv /home/grierjones/DDCASPT2/iron_oxo_DDCASPT2/MScaspt2iron/1.68/GMJ_IVECX_D_1_.csv

>>> COPY /tmp/1.68/GMJ_IVECC2_D_1_.csv /home/grierjones/DDCASPT2/iron_oxo_DDCASPT2/MScaspt2iron/1.68/GMJ_IVECC2_D_1_.csv

>>> COPY /tmp/1.68/GMJ_e2_D_1_.csv /home/grierjones/DDCASPT2/iron_oxo_DDCASPT2/MScaspt2iron/1.68/GMJ_e2_D_1_.csv

>>> END FOREACH

>>> END FOREACH

>>> EXPORT j = 2

>>> EXPORT i = A

>>> IF (-FILE GMJ_e2_${i}_${j}_.csv)

>>> COPY /tmp/1.68/GMJ_RHS_A_2_.csv /home/grierjones/DDCASPT2/iron_oxo_DDCASPT2/MScaspt2iron/1.68/GMJ_RHS_A_2_.csv

>>> COPY /tmp/1.68/GMJ_IVECW_A_2_.csv /home/grierjones/DDCASPT2/iron_oxo_DDCASPT2/MScaspt2iron/1.68/GMJ_IVECW_A_2_.csv

>>> COPY /tmp/1.68/GMJ_IVECX_A_2_.csv /home/grierjones/DDCASPT2/iron_oxo_DDCASPT2/MScaspt2iron/1.68/GMJ_IVECX_A_2_.csv

>>> COPY /tmp/1.68/GMJ_IVECC2_A_2_.csv /home/grierjones/DDCASPT2/iron_oxo_DDCASPT2/MScaspt2iron/1.68/GMJ_IVECC2_A_2_.csv

>>> COPY /tmp/1.68/GMJ_e2_A_2_.csv /home/grierjones/DDCASPT2/iron_oxo_DDCASPT2/MScaspt2iron/1.68/GMJ_e2_A_2_.csv

>>> END FOREACH

>>> EXPORT i = C

>>> IF (-FILE GMJ_e2_${i}_${j}_.csv)

>>> COPY /tmp/1.68/GMJ_RHS_C_2_.csv /home/grierjones/DDCASPT2/iron_oxo_DDCASPT2/MScaspt2iron/1.68/GMJ_RHS_C_2_.csv

>>> COPY /tmp/1.68/GMJ_IVECW_C_2_.csv /home/grierjones/DDCASPT2/iron_oxo_DDCASPT2/MScaspt2iron/1.68/GMJ_IVECW_C_2_.csv

>>> COPY /tmp/1.68/GMJ_IVECX_C_2_.csv /home/grierjones/DDCASPT2/iron_oxo_DDCASPT2/MScaspt2iron/1.68/GMJ_IVECX_C_2_.csv

>>> COPY /tmp/1.68/GMJ_IVECC2_C_2_.csv /home/grierjones/DDCASPT2/iron_oxo_DDCASPT2/MScaspt2iron/1.68/GMJ_IVECC2_C_2_.csv

>>> COPY /tmp/1.68/GMJ_e2_C_2_.csv /home/grierjones/DDCASPT2/iron_oxo_DDCASPT2/MScaspt2iron/1.68/GMJ_e2_C_2_.csv

>>> END FOREACH

>>> EXPORT i = D

>>> IF (-FILE GMJ_e2_${i}_${j}_.csv)

>>> COPY /tmp/1.68/GMJ_RHS_D_2_.csv /home/grierjones/DDCASPT2/iron_oxo_DDCASPT2/MScaspt2iron/1.68/GMJ_RHS_D_2_.csv

>>> COPY /tmp/1.68/GMJ_IVECW_D_2_.csv /home/grierjones/DDCASPT2/iron_oxo_DDCASPT2/MScaspt2iron/1.68/GMJ_IVECW_D_2_.csv

>>> COPY /tmp/1.68/GMJ_IVECX_D_2_.csv /home/grierjones/DDCASPT2/iron_oxo_DDCASPT2/MScaspt2iron/1.68/GMJ_IVECX_D_2_.csv

>>> COPY /tmp/1.68/GMJ_IVECC2_D_2_.csv /home/grierjones/DDCASPT2/iron_oxo_DDCASPT2/MScaspt2iron/1.68/GMJ_IVECC2_D_2_.csv

>>> COPY /tmp/1.68/GMJ_e2_D_2_.csv /home/grierjones/DDCASPT2/iron_oxo_DDCASPT2/MScaspt2iron/1.68/GMJ_e2_D_2_.csv

>>> END FOREACH

>>> END FOREACH

>>> EXPORT j = 3

>>> EXPORT i = A

>>> IF (-FILE GMJ_e2_${i}_${j}_.csv)

>>> COPY /tmp/1.68/GMJ_RHS_A_3_.csv /home/grierjones/DDCASPT2/iron_oxo_DDCASPT2/MScaspt2iron/1.68/GMJ_RHS_A_3_.csv

>>> COPY /tmp/1.68/GMJ_IVECW_A_3_.csv /home/grierjones/DDCASPT2/iron_oxo_DDCASPT2/MScaspt2iron/1.68/GMJ_IVECW_A_3_.csv

>>> COPY /tmp/1.68/GMJ_IVECX_A_3_.csv /home/grierjones/DDCASPT2/iron_oxo_DDCASPT2/MScaspt2iron/1.68/GMJ_IVECX_A_3_.csv

>>> COPY /tmp/1.68/GMJ_IVECC2_A_3_.csv /home/grierjones/DDCASPT2/iron_oxo_DDCASPT2/MScaspt2iron/1.68/GMJ_IVECC2_A_3_.csv

>>> COPY /tmp/1.68/GMJ_e2_A_3_.csv /home/grierjones/DDCASPT2/iron_oxo_DDCASPT2/MScaspt2iron/1.68/GMJ_e2_A_3_.csv

>>> END FOREACH

>>> EXPORT i = C

>>> IF (-FILE GMJ_e2_${i}_${j}_.csv)

>>> COPY /tmp/1.68/GMJ_RHS_C_3_.csv /home/grierjones/DDCASPT2/iron_oxo_DDCASPT2/MScaspt2iron/1.68/GMJ_RHS_C_3_.csv

>>> COPY /tmp/1.68/GMJ_IVECW_C_3_.csv /home/grierjones/DDCASPT2/iron_oxo_DDCASPT2/MScaspt2iron/1.68/GMJ_IVECW_C_3_.csv

>>> COPY /tmp/1.68/GMJ_IVECX_C_3_.csv /home/grierjones/DDCASPT2/iron_oxo_DDCASPT2/MScaspt2iron/1.68/GMJ_IVECX_C_3_.csv

>>> COPY /tmp/1.68/GMJ_IVECC2_C_3_.csv /home/grierjones/DDCASPT2/iron_oxo_DDCASPT2/MScaspt2iron/1.68/GMJ_IVECC2_C_3_.csv

>>> COPY /tmp/1.68/GMJ_e2_C_3_.csv /home/grierjones/DDCASPT2/iron_oxo_DDCASPT2/MScaspt2iron/1.68/GMJ_e2_C_3_.csv

>>> END FOREACH

>>> EXPORT i = D

>>> IF (-FILE GMJ_e2_${i}_${j}_.csv)

>>> COPY /tmp/1.68/GMJ_RHS_D_3_.csv /home/grierjones/DDCASPT2/iron_oxo_DDCASPT2/MScaspt2iron/1.68/GMJ_RHS_D_3_.csv

>>> COPY /tmp/1.68/GMJ_IVECW_D_3_.csv /home/grierjones/DDCASPT2/iron_oxo_DDCASPT2/MScaspt2iron/1.68/GMJ_IVECW_D_3_.csv

>>> COPY /tmp/1.68/GMJ_IVECX_D_3_.csv /home/grierjones/DDCASPT2/iron_oxo_DDCASPT2/MScaspt2iron/1.68/GMJ_IVECX_D_3_.csv

>>> COPY /tmp/1.68/GMJ_IVECC2_D_3_.csv /home/grierjones/DDCASPT2/iron_oxo_DDCASPT2/MScaspt2iron/1.68/GMJ_IVECC2_D_3_.csv

>>> COPY /tmp/1.68/GMJ_e2_D_3_.csv /home/grierjones/DDCASPT2/iron_oxo_DDCASPT2/MScaspt2iron/1.68/GMJ_e2_D_3_.csv

>>> END FOREACH

>>> END FOREACH

.########################.
.# Non-zero return code #.
.########################.

    Timing: Wall=3550.98 User=3530.52 System=19.58
************************************
*** WorkDir at /tmp/1.68 cleaned ***
************************************
