   This run of MOLCAS is using the pymolcas driver

                             OPE
                             OPE          NMOL  CASOP  ENMOLC A   SO
                 OPE        NMOLC        AS  OP EN  MO LC     AS  OP
                OPENM       OL CA        SO  PE NM  OL CA     SOP EN
                OP EN      MO   LC       AS  OP ENMOL  CASO   PENMOL
                OP  EN     MO   LC       AS  OP EN     MO     LC ASO
               OP   E  NMOL  C  AS       OP  EN MO     LC     AS  OP
               OP  E   NMO   LC AS        OPEN  MO     LCASOP EN   M
               O  PEN   MO  LCA  SO
            OPE   NMO   L   CAS    OP
        OPENMOL  CASOP     ENMOL   CASOPE
     OPENMOLCA   SOPENMOLCASOPEN   MOLCASOPE
    OPENMOLCAS   OP           EN   MOL    CAS
    OPENMOLCAS       OP  ENM        O     LCA
    OPENMOLCAS    OPEN  MOLCASO     P  E  NMO
    OPENMOLCAS     OP               E  N  MOL
    OPENMOLCA   SO           PENM   O  L  CAS    OPEN    MO    LCAS
    OPENMOLCA   SOP           ENM   O  L  CAS   OP  EN  MOLC  AS   O
    OPENMOLCA   SOPE           NM      O  LCA   S      OP  EN MO
    OPENMOLC                AS         O  PEN   M      OL  CA  SOPE
    OPENMO        LCASOPE  NMOL        C  ASO   P      ENMOLC     AS
    OPE     NMO      LCA  SO     P     E   NM   OL  CA SO  PE N   MO
          OPENMOLCA            SOPE   NMO        LCAS  O    P  ENMO
     OPENMOLCASOPENMOLCASOPENMOLCASOPENMOLCA
        OPENMOLCASOPENMOLCASOPENMOLCASOPE
            OPENMOLCASOPENMOLCASOPENM
               OPENMOLCASOPENMOLCA        version: 1d1d16313-dirty
                   OPENMOLCASO
                       OPE                tag:

 OpenMolcas is free software; you can redistribute it and/or modify it
 under the terms of the GNU Lesser General Public License version 2.1.
 OpenMolcas is distributed in the hope that it will be useful, but it
 is provided "as is" and without any express or implied warranties.
 For more details see the full text of the license in the file
 LICENSE or in <http://www.gnu.org/licenses/>.

                 Copyright (C) The OpenMolcas Authors
           For the author list and the recommended citation,
                   consult the file CONTRIBUTORS.md

           *************************************************
           * pymolcas version py2.28                       *
           *   build c4a6d18ded8cb6cad61d2372a9abd97c      *
           *   (after the EMIL interpreter by V. Veryazov) *
           *************************************************

configuration info
------------------
C Compiler ID: IntelLLVM
C flags: -std=gnu99
Fortran Compiler ID: IntelLLVM
Fortran flags: -standard-semantics -fltconsistency -fpp -i8 -heap-arrays
Definitions: _MOLCAS_;_I8_;_LINUX_
Parallel: OFF (GA=OFF)


   ------------------------------------------------------------------------------
  |
  |              Project: ozone_181.50
  |       Submitted from: /home/grierjones/DDCASPT2/ozone/ANO-RCC-MB/ozone_181.50
  |         Scratch area: /tmp/ozone_181.50
  |      Save outputs to: /home/grierjones/DDCASPT2/ozone/ANO-RCC-MB/ozone_181.50
  |               Molcas: /home/grierjones/Test/build
  |
  | Scratch area is empty
  |
  |       MOLCAS_DRIVER = /usr/local/pymolcas
  | MOLCAS_KEEP_WORKDIR = NO
  |  MOLCAS_NEW_WORKDIR = YES
  |       MOLCAS_NPROCS = 1
  |        MOLCAS_PRINT = NORMAL
  |       MOLCAS_SOURCE = /home/grierjones/Test
  |    MOLCAS_STRUCTURE = 0
  |
   ------------------------------------------------------------------------------

++ ---------   Input file   ---------

&GATEWAY
coord=ozone_181.50.xyz
Basis = ANO-RCC-MB
Group = nosymm
Expert
End of Input

&SEWARD
End of Input

&SCF

>>> COPY $WorkDir/ozone_181.50.scf.h5 $CurrDir/

&RASSCF
Title= RASSCF
FileOrb
/home/grierjones/DDCASPT2/ozone/ANO-RCC-MB/ozone_181.25/ozone_181.25.RasOrb
NACTEL
4 0 0
Inactive
10
RAS2
3
Symmetry
1
Spin
1
orblisting
all
ITERation
300 200

>>> COPY $WorkDir/ozone_181.50.rasscf.h5 $CurrDir/

>>> COPY $WorkDir/GMJ_Fock_MO.csv $CurrDir/ozone_181.50.GMJ_Fock_MO.csv

>>> COPY $WorkDir/GMJ_PT2_Fock_MO.csv $CurrDir/ozone_181.50.GMJ_PT2_Fock_MO.csv

&MOTRA
Frozen=0
LUMORB

>>> COPY $WorkDir/GMJ_one_int_indx.csv $CurrDir/ozone_181.50.GMJ_one_int_indx.csv

>>> COPY $WorkDir/GMJ_one_int.csv $CurrDir/ozone_181.50.GMJ_one_int.csv

>>> COPY $WorkDir/GMJ_two_int_indx.csv $CurrDir/ozone_181.50.GMJ_two_int_indx.csv

>>> COPY $WorkDir/GMJ_two_int.csv $CurrDir/ozone_181.50.GMJ_two_int.csv

&CASPT2
Frozen
0
MAXITER
50

>>> FOREACH i IN (B,E,F,G,H)

  >>> FOREACH j IN (P,M)

    >>> IF (-FILE GMJ_e2_${i}_${j}.csv)

      >>> COPY $WorkDir/GMJ_RHS_${i}_${j}.csv $CurrDir/GMJ_RHS_${i}_${j}.csv

      >>> COPY $WorkDir/GMJ_IVECW_${i}_${j}.csv $CurrDir/GMJ_IVECW_${i}_${j}.csv

      >>> COPY $WorkDir/GMJ_IVECX_${i}_${j}.csv $CurrDir/GMJ_IVECX_${i}_${j}.csv

      >>> COPY $WorkDir/GMJ_IVECC2_${i}_${j}.csv $CurrDir/GMJ_IVECC2_${i}_${j}.csv

      >>> COPY $WorkDir/GMJ_e2_${i}_${j}.csv $CurrDir/GMJ_e2_${i}_${j}.csv

    >>> END IF

  >>> END FOREACH

>>> END FOREACH

>>> FOREACH i IN (A,C,D)

  >>> IF (-FILE GMJ_e2_$i.csv)

    >>> COPY $WorkDir/GMJ_RHS_$i.csv $CurrDir/GMJ_RHS_$i.csv

    >>> COPY $WorkDir/GMJ_IVECW_$i.csv $CurrDir/GMJ_IVECW_$i.csv

    >>> COPY $WorkDir/GMJ_IVECX_$i.csv $CurrDir/GMJ_IVECX_$i.csv

    >>> COPY $WorkDir/GMJ_IVECC2_$i.csv $CurrDir/GMJ_IVECC2_$i.csv

    >>> COPY $WorkDir/GMJ_e2_$i.csv $CurrDir/GMJ_e2_$i.csv

  >>> END IF

>>> END FOREACH

-- ----------------------------------

--- Start Module: gateway at Sat Jan 25 14:11:54 2025 ---
 
()()()()()()()()()()()()()()()()()()()()()()()()()()()()()()()()()()()()()()()()()()()()()()()()()()

                                              &GATEWAY

                                   only a single process is used
                       available to each process: 2.0 GB of memory, 1 thread?
()()()()()()()()()()()()()()()()()()()()()()()()()()()()()()()()()()()()()()()()()()()()()()()()()()
 
 ###############################################################################
 ###############################################################################
 ###                                                                         ###
 ###                                                                         ###
 ###                                                                         ###
 ###    WARNING: EXPERT option is ON!                                        ###
 ###                                                                         ###
 ###                                                                         ###
 ###############################################################################
 ###############################################################################
 
++    Symmetry information:
      ---------------------
 
                    Character Table for C1 
 
                             E  
                    a        1  x, y, xy, Rz, z, xz, Ry, yz, Rx, I
--
 
 
++    Basis set information:
      ----------------------
 
 
      Basis set label: O.ANO-RCC...2S1P.
 
      Electronic valence basis set:
      ------------------
      Associated Effective Charge   8.000000 au
      Associated Actual Charge      8.000000 au
      Nuclear Model: Point charge
 
      Shell  nPrim  nBasis  Cartesian Spherical Contaminant
         s      14       2        X                  
         p       9       1        X                  
--
 
 
++    Molecular structure info:
      -------------------------
 
                    ************************************************ 
                    **** Cartesian Coordinates / Bohr, Angstrom **** 
                    ************************************************ 
 
     Center  Label                x              y              z                     x              y              z
        1      O1              -0.031613       2.414864       0.000000             -0.016729       1.277891       0.000000
        2      O2               0.000000       0.000000       0.000000              0.000000       0.000000       0.000000
        3      O3              -0.031613      -2.414864       0.000000             -0.016729      -1.277891       0.000000
 
                    *************************************** 
                    *    InterNuclear Distances / Bohr    * 
                    *************************************** 
 
               1 O1            2 O2            3 O3    
    1 O1       0.000000
    2 O2       2.415071        0.000000
    3 O3       4.829728        2.415071        0.000000
 
                    ******************************************* 
                    *    InterNuclear Distances / Angstrom    * 
                    ******************************************* 
 
               1 O1            2 O2            3 O3    
    1 O1       0.000000
    2 O2       1.278000        0.000000
    3 O3       2.555782        1.278000        0.000000
 
                    ************************************** 
                    *    Valence Bond Angles / Degree    * 
                    ************************************** 
                          Atom centers                 Phi
                      1 O1       2 O2       3 O3       178.50
--
 
 
            Nuclear Potential Energy             66.25177763 au
 
 ###############################################################################
 ###############################################################################
 ###                                                                         ###
 ###                                                                         ###
 ###    There were warnings during the execution                             ###
 ###    Please, check the output with care!                                  ###
 ###                                                                         ###
 ###                                                                         ###
 ###############################################################################
 ###############################################################################
--- Stop Module: gateway at Sat Jan 25 14:11:54 2025 /rc=_RC_ALL_IS_WELL_ ---
*** files: xmldump
    saved to directory /home/grierjones/DDCASPT2/ozone/ANO-RCC-MB/ozone_181.50

--- Start Module: seward at Sat Jan 25 14:11:54 2025 ---
 
()()()()()()()()()()()()()()()()()()()()()()()()()()()()()()()()()()()()()()()()()()()()()()()()()()

                                              &SEWARD

                                   only a single process is used
                       available to each process: 2.0 GB of memory, 1 thread?
()()()()()()()()()()()()()()()()()()()()()()()()()()()()()()()()()()()()()()()()()()()()()()()()()()
 
 ###############################################################################
 ###############################################################################
 ###                                                                         ###
 ###                                                                         ###
 ###                                                                         ###
 ###    WARNING: EXPERT option is ON!                                        ###
 ###                                                                         ###
 ###                                                                         ###
 ###############################################################################
 ###############################################################################
               SEWARD will generate:
                  Multipole Moment integrals up to order  2
                  Kinetic Energy integrals
                  Nuclear Attraction integrals (point charge)
                  One-Electron Hamiltonian integrals
                  Velocity integrals
                  Relativistic Douglas-Kroll-Hess integrals:
                    - Parametrization         : EXP
                    - DKH order of Hamiltonian: 2
                    - DKH order of Properties : 0
                         - multipole moment operators
                         - electric potential operators
                         - contact operators
                  Atomic mean-field integrals
                  Two-Electron Repulsion integrals
 
                   Integrals are discarded if absolute value <: 0.10E-13
                   Integral cutoff threshold is set to       <: 0.10E-15
 
            Nuclear Potential Energy             66.25177763 au
 
 
      Basis set specifications :
      Symmetry species         a  
      Basis functions           15
 
 
  Input file to MOLDEN was generated!
 
 ###############################################################################
 ###############################################################################
 ###                                                                         ###
 ###                                                                         ###
 ###    There were warnings during the execution                             ###
 ###    Please, check the output with care!                                  ###
 ###                                                                         ###
 ###                                                                         ###
 ###############################################################################
 ###############################################################################
forrtl: warning (525): IEEE_DIVIDE_BY_ZERO is signaling
forrtl: warning (526): IEEE_INVALID is signaling
forrtl: warning (528): IEEE_UNDERFLOW is signaling
--- Stop Module: seward at Sat Jan 25 14:11:54 2025 /rc=_RC_ALL_IS_WELL_ ---
*** files: ozone_181.50.GssOrb ozone_181.50.guessorb.h5 ozone_181.50.guessorb.molden xmldump
    saved to directory /home/grierjones/DDCASPT2/ozone/ANO-RCC-MB/ozone_181.50

*** symbolic link created: INPORB -> ozone_181.50.GssOrb
--- Start Module: scf at Sat Jan 25 14:11:54 2025 ---
 
()()()()()()()()()()()()()()()()()()()()()()()()()()()()()()()()()()()()()()()()()()()()()()()()()()

                                                &SCF

                                   only a single process is used
                       available to each process: 2.0 GB of memory, 1 thread?
()()()()()()()()()()()()()()()()()()()()()()()()()()()()()()()()()()()()()()()()()()()()()()()()()()
 
++    Input section:
      --------------
 
      Header of the integral files:
      
       Integrals generated by seward 4.2.0  , Sat Jan 25 14:11:54 2025
 
 
      Cartesian coordinates in Angstrom:
      -----------------------------------------------------
      No.  Label        X            Y            Z        
      -----------------------------------------------------
       1   O1        -0.01672900   1.27789100   0.00000000
       2   O2         0.00000000   0.00000000   0.00000000
       3   O3        -0.01672900  -1.27789100   0.00000000
      -----------------------------------------------------
      Nuclear repulsion energy =   66.25177763
--
 
++    Orbital specifications:
      -----------------------
 
      Symmetry species               1
                                     a
      Frozen orbitals                0
      Aufbau                        12
      Start temperature = 0.500
      End temperature   = 0.010
      Temperature Factor= 0.460
      Deleted orbitals               0
      Total number of orbitals      15
      Number of basis functions     15
--
 
      Molecular charge                           0.000
 
++    Optimization specifications:
      ----------------------------
 
      SCF Algorithm: Conventional
      Minimized density differences are used
      Number of density matrices in core                5
      Maximum number of NDDO SCF iterations           400
      Maximum number of HF SCF iterations             400
      Threshold for SCF energy change            0.10E-08
      Threshold for density matrix               0.10E-03
      Threshold for Fock matrix                  0.15E-03
      Threshold for linear dependence            0.10E-08
      Threshold at which DIIS is turned on       0.15E+00
      Threshold at which QNR/C2DIIS is turned on 0.75E-01
      Threshold for Norm(delta) (QNR/C2DIIS)     0.20E-04
      DIIS extrapolation of the SCF procedure
      All orbitals punched on: SCFORB
--
 
      Input vectors read from INPORB
      Orbital file label: *Guess orbitals
 
 
++ Convergence information
                                   SCF        iterations: Energy and convergence statistics
 
Iter     Tot. SCF        One-elec.       Two-elec.     Energy      Max Dij or  Max Fij      DNorm      TNorm      AccCon     Time
         Energy          Energy          Energy        Change      Delta Norm                                                in Sec.
   1  -221.452382212  -440.157896779   152.453736934   0.00E+00    0.68E-01*   0.13E+00*    0.77E+01   0.50E+02   None         0.
   2  -222.904860968  -439.301349534   150.144710932  -0.15E+01*   0.57E-01*   0.44E-01*    0.30E+01   0.50E+02   EDIIS        0.
   3  -223.678863951  -438.929242477   148.998600892  -0.77E+00*   0.39E-01*   0.26E-01*    0.15E+01   0.49E+02   EDIIS        0.
   4  -223.949936736  -438.336092984   148.134378614  -0.27E+00*   0.83E-01*   0.57E-01*    0.29E+00   0.49E+02   EDIIS        0.
   5  -223.960245664  -438.683178469   148.471155172  -0.10E-01*   0.57E-01*   0.30E-01*    0.25E+00   0.49E+02   EDIIS        0.
   6  -223.962623197  -438.404593920   148.190193089  -0.24E-02*   0.34E-01*   0.24E-01*    0.20E+00   0.49E+02   EDIIS        0.
   7  -224.155757360  -438.633866232   148.226331239  -0.19E+00*   0.94E-01*   0.34E-01*    0.11E+01   0.49E+02   EDIIS        0.
   8  -224.183167132  -438.398884999   147.963940234  -0.27E-01*   0.28E-01*   0.29E-01*    0.11E+00   0.49E+02   EDIIS        0.
   9  -224.184029242  -438.524790732   148.088983856  -0.86E-03*   0.29E-01*   0.12E-01*    0.40E-01   0.49E+02   EDIIS        0.
 
       Fermi aufbau procedure completed!
      nOcc=   12
 
  10  -224.184297079  -438.463720950   148.027646237  -0.27E-03*   0.86E-02*   0.75E-02*    0.35E-02   0.49E+02   EDIIS        0.
  11  -224.184381305  -438.499101235   148.062942295  -0.84E-04*   0.88E-02*   0.31E-02*    0.88E-03   0.49E+02   EDIIS        0.
  12  -224.184408103  -438.482568366   148.046382629  -0.27E-04*   0.26E-02*   0.18E-02*    0.36E-03   0.49E+02   EDIIS        0.
  13  -224.184416708  -438.492504165   148.056309822  -0.86E-05*   0.27E-02*   0.97E-03*    0.62E-04   0.49E+02   EDIIS        0.
  14  -224.184419498  -438.488010295   148.051813163  -0.28E-05*   0.87E-03*   0.59E-03*    0.10E-04   0.49E+02   c2DIIS       0.
  15  -224.184420422  -438.491053678   148.054855622  -0.92E-06*   0.45E-03*   0.32E-03*    0.13E-03   0.49E+02   QNRc2DIIS    0.
  16  -224.184420718  -438.489478143   148.053279791  -0.30E-06*   0.24E-03*   0.18E-03*    0.12E-02   0.49E+02   QNRc2DIIS    0.
  17  -224.184420844  -438.489958216   148.053759738  -0.13E-06*   0.14E-03*   0.65E-04     0.49E-03   0.49E+02   QNRc2DIIS    0.
  18  -224.184420863  -438.490239178   148.054040681  -0.19E-07*   0.31E-04*   0.54E-05     0.13E-02   0.49E+02   QNRc2DIIS    0.
  19  -224.184420864  -438.490237157   148.054038659  -0.40E-09    0.22E-06    0.11E-06     0.10E-01   0.49E+02   QNRc2DIIS    0.
 
       Convergence after 19 Macro Iterations
--
 
 *****************************************************************************************************************************
 *                                                                                                                           *
 *                                             SCF/KS-DFT Program, Final results                                             *
 *                                                                                                                           *
 *                                                                                                                           *
 *                                                                                                                           *
 *                                                       Final Results                                                       *
 *                                                                                                                           *
 *****************************************************************************************************************************
 
::    Total SCF energy                               -224.1844208639
      One-electron energy                            -438.4902371566
      Two-electron energy                             148.0540386589
      Nuclear repulsion energy                         66.2517776339
      Kinetic energy (interpolated)                   224.7829694962
      Virial theorem                                    0.9973372154
      Total spin, S(S+1)                                0.0000000000
      Total spin, S                                     0.0000000000
      Max non-diagonal density matrix element           0.0000004030
      Max non-diagonal Fock matrix element              0.0000000852
 
 
      All orbitals with orbital energies smaller than  E(LUMO)+0.5 are printed
 
++    Molecular orbitals:
      -------------------
 
      Title: SCF orbitals

      Molecular orbitals for symmetry species 1: a  
 
          Orbital            1         2         3         4         5         6         7         8         9        10    
          Energy          -20.9878  -20.8142  -20.8142   -1.7462   -1.5117   -1.1003   -0.8785   -0.8021   -0.8011   -0.6619
          Occ. No.          2.0000    2.0000    2.0000    2.0000    2.0000    2.0000    2.0000    2.0000    2.0000    2.0000
 
        1 O1     1s         0.0012   -0.7071    0.7071   -0.0151    0.0167    0.0141    0.0005    0.0000   -0.0284   -0.0005
        2 O1     2s        -0.0003   -0.0002    0.0000    0.3191   -0.5313    0.6616    0.0085    0.0000   -0.4691   -0.0068
        3 O1     2px        0.0000   -0.0000    0.0000    0.0016   -0.0011   -0.0032    0.3054   -0.0000    0.0157   -0.7157
        4 O1     2py        0.0000    0.0013   -0.0011   -0.1051    0.1046    0.1601    0.0090    0.0000   -0.4168   -0.0165
        5 O1     2pz        0.0000   -0.0000   -0.0000    0.0000   -0.0000   -0.0000    0.0000    0.3934    0.0000   -0.0000
        6 O2     1s         1.0000    0.0000   -0.0020   -0.0241   -0.0000   -0.0136    0.0002   -0.0000   -0.0000    0.0000
        7 O2     2s         0.0002    0.0000   -0.0010    0.6592    0.0000   -0.6167    0.0026   -0.0000   -0.0000    0.0000
        8 O2     2px       -0.0001   -0.0000    0.0000   -0.0050   -0.0000   -0.0063    0.7796   -0.0000   -0.0000    0.0000
        9 O2     2py        0.0000    0.0007    0.0000    0.0000   -0.3621   -0.0000   -0.0000   -0.0000    0.6034    0.0106
       10 O2     2pz       -0.0000    0.0000    0.0000   -0.0000    0.0000   -0.0000    0.0000    0.6770    0.0000    0.0000
       11 O3     1s         0.0012    0.7071    0.7071   -0.0151   -0.0167    0.0141    0.0005   -0.0000    0.0284    0.0005
       12 O3     2s        -0.0003    0.0002    0.0000    0.3191    0.5313    0.6616    0.0085   -0.0000    0.4691    0.0068
       13 O3     2px        0.0000    0.0000    0.0000    0.0016    0.0011   -0.0032    0.3054   -0.0000   -0.0157    0.7157
       14 O3     2py       -0.0000    0.0013    0.0011    0.1051    0.1046   -0.1601   -0.0090    0.0000   -0.4168   -0.0165
       15 O3     2pz       -0.0000    0.0000    0.0000    0.0000   -0.0000   -0.0000    0.0000    0.3934    0.0000    0.0000
 
          Orbital           11        12        13        14    
          Energy           -0.5451   -0.5279   -0.0871    0.1119
          Occ. No.          2.0000    2.0000    0.0000    0.0000
 
        1 O1     1s        -0.0000   -0.0002    0.0000    0.0152
        2 O1     2s        -0.0000   -0.0011    0.0000    0.2245
        3 O1     2px        0.0000    0.6641   -0.0000    0.0011
        4 O1     2py        0.0000   -0.0027    0.0000   -0.7665
        5 O1     2pz       -0.7160    0.0000    0.6161   -0.0000
        6 O2     1s         0.0000   -0.0011    0.0000   -0.0835
        7 O2     2s         0.0000   -0.0127    0.0000   -0.8668
        8 O2     2px        0.0000   -0.6976    0.0000    0.0215
        9 O2     2py        0.0000   -0.0000   -0.0000   -0.0000
       10 O2     2pz        0.0000   -0.0000   -0.7978   -0.0000
       11 O3     1s         0.0000   -0.0002   -0.0000    0.0152
       12 O3     2s         0.0000   -0.0011   -0.0000    0.2245
       13 O3     2px       -0.0000    0.6641   -0.0000    0.0011
       14 O3     2py        0.0000    0.0027   -0.0000    0.7665
       15 O3     2pz        0.7160    0.0000    0.6161    0.0000
--
 
 
++    Molecular charges:
      ------------------
 
      Mulliken charges per centre and basis function type
      ---------------------------------------------------
 
                O1      O2      O3    
      1s       2.0001  2.0000  2.0001
      2s       1.9205  1.6509  1.9205
      2px      1.9999  1.9995  1.9999
      2pz      1.4294  1.1412  1.4294
      2py      0.6861  1.1363  0.6861
      Total    8.0360  7.9279  8.0360
 
      N-E     -0.0360  0.0721 -0.0360
 
      Total electronic charge=   24.000000
 
      Total            charge=   -0.000000
--
 
 
  Input file to MOLDEN was generated!
 
 
++    Static properties:
      ------------------
 
 
      LoProp Charges per center
 

                   O1       O2       O3    
      Nuclear      8.0000   8.0000   8.0000
      Electronic  -8.0852  -7.8296  -8.0852
 
      Total       -0.0852   0.1704  -0.0852
--
 
 
++    Natural Bond Order analysis
      ---------------------------
      Based on LoProp computed density
      -------------------------------------------------------------------------------------
      Atom A       Atom B       Bond Order | Atom A       Atom B       Bond Order
        O1           O2             2.000  |   O2           O3             2.000
      -------------------------------------------------------------------------------------
      NBO located     12.000 core electrons.
      NBO located      3.972 lone pair electrons.
      NBO located      8.000 electrons involved in    2 bonds.
      The remaining    0.028 electrons are to be considered as diffuse
--
 
 
++    Molecular properties:
      ---------------------
 
      Charge (e):
                      =   -0.0000
      Dipole Moment (Debye):
      Origin of the operator (Ang)=    0.0000    0.0000    0.0000
                   X= -1.5980E-02               Y= -1.4054E-09               Z= -1.5259E-13           Total=  1.5980E-02
      Quadrupole Moment (Debye*Ang):
      Origin of the operator (Ang)=   -0.0112    0.0000    0.0000
                  XX= -1.7464E+01              XY=  7.7677E-12              XZ= -1.9237E-11              YY= -1.7622E+01
                  YZ=  4.3103E-13              ZZ= -1.5873E+01
      In traceless form (Debye*Ang)
                  XX= -7.1643E-01              XY=  1.1652E-11              XZ= -2.8855E-11              YY= -9.5392E-01
                  YZ=  6.4654E-13              ZZ=  1.6703E+00
--
 
 
  Input file to MOLDEN was generated!
 
 ###############################################################################
 ###############################################################################
 ###                                                                         ###
 ###                                                                         ###
 ###    RunFile label nBas                                                   ###
 ###    was used       78 times                                              ###
 ###                                                                         ###
 ###                                                                         ###
 ###############################################################################
 ###############################################################################
forrtl: warning (528): IEEE_UNDERFLOW is signaling
--- Stop Module: scf at Sat Jan 25 14:11:54 2025 /rc=_RC_ALL_IS_WELL_ ---
*** files: ozone_181.50.LprOrb ozone_181.50.LoProp.molden ozone_181.50.scf.molden ozone_181.50.ScfOrb ozone_181.50.scf.h5 xmldump
    saved to directory /home/grierjones/DDCASPT2/ozone/ANO-RCC-MB/ozone_181.50

>>> COPY /tmp/ozone_181.50/ozone_181.50.scf.h5 /home/grierjones/DDCASPT2/ozone/ANO-RCC-MB/ozone_181.50/

*** symbolic link created: INPORB -> ozone_181.50.ScfOrb
--- Start Module: rasscf at Sat Jan 25 14:11:54 2025 ---
 
()()()()()()()()()()()()()()()()()()()()()()()()()()()()()()()()()()()()()()()()()()()()()()()()()()

                                              &RASSCF

                                   only a single process is used
                       available to each process: 2.0 GB of memory, 1 thread?
()()()()()()()()()()()()()()()()()()()()()()()()()()()()()()()()()()()()()()()()()()()()()()()()()()
 
 
 *************** WARNING ****************
 ###############################################################################
 ###############################################################################
 ###                                                                         ###
 ###                                                                         ###
 ###    Too many macro-iterations.                                           ###
 ###                                                                         ###
 ###                                                                         ###
 ###############################################################################
 ###############################################################################
 Too many macro-iterations requested.
 Reset to maximum, new MAXIT=     200
 ****************************************
 
 *************** WARNING ****************
 ###############################################################################
 ###############################################################################
 ###                                                                         ###
 ###                                                                         ###
 ###    Too many SX-iterations.                                              ###
 ###                                                                         ###
 ###                                                                         ###
 ###############################################################################
 ###############################################################################
 Too many SX-iterations requested.
 Reset to maximum, new ITMAX=     100
 ****************************************
 
      Header of the ONEINT file:
      --------------------------
      
      Integrals generated by seward 4.2.0  , Sat Jan 25 14:11:54 2025
 
 
      OrdInt status: non-squared
 
 
      Cartesian coordinates in Angstrom:
      -----------------------------------------------------
      No.  Label        X            Y            Z        
      -----------------------------------------------------
       1   O1        -0.01672900   1.27789100   0.00000000
       2   O2         0.00000000   0.00000000   0.00000000
       3   O3        -0.01672900  -1.27789100   0.00000000
      -----------------------------------------------------
      Nuclear repulsion energy =   66.25177763
 
++    Wave function specifications:
      -----------------------------
 
      Number of closed shell electrons          20
      Number of electrons in active shells       4
      Max number of holes in RAS1 space          0
      Max nr of electrons in RAS3 space          0
      Number of inactive orbitals               10
      Number of active orbitals                  3
      Number of secondary orbitals               2
      Spin quantum number                      0.0
      State symmetry                             1
--
 
++    Orbital specifications:
      -----------------------
 
      Symmetry species                           1
                                                 a
      Frozen orbitals                            0
      Inactive orbitals                         10
      Active orbitals                            3
      RAS1 orbitals                              0
      RAS2 orbitals                              3
      RAS3 orbitals                              0
      Secondary orbitals                         2
      Deleted orbitals                           0
      Number of basis functions                 15
--
 
++    CI expansion specifications:
      ----------------------------
 
      Number of CSFs                             6
      Number of determinants                     6
      Number of root(s) required                 1
      Root chosen for geometry opt.              1
      CI root used                               1
         
      highest root included in the CI            1
      max. size of the explicit Hamiltonian      6
--
 
++    Optimization specifications:
      ----------------------------
 
      RASSCF algorithm: Conventional
      Maximum number of macro iterations       200
      Maximum number of SX iterations          100
      Threshold for RASSCF energy            0.100E-07
      Threshold for max MO rotation          0.100E+00
      Threshold for max BLB element          0.100E-03
      Level shift parameter                  0.500E+00
      Make Quasi-Newton update
--
 
      The MO-coefficients are taken from the file:
      /home/grierjones/DDCASPT2/ozone/ANO-RCC-MB/ozone_181.25/ozone_181.25.RasOrb                                                     
      Title: RASSCF average (pseudo-natural) orbitals                                      
 
      Total molecular charge    0.00
 
      ************************************************************************************************************************
      *                                                                                                                      *
      *                                            Wave function control section                                             *
      *                                                                                                                      *
      ************************************************************************************************************************
 
 
                                         RASSCF iterations: Energy and convergence statistics
                                         ----------------------------------------------------
 
      Iter CI   SX   CI       RASSCF       Energy    max ROT     max BLB   max BLB  Level Ln srch  Step   QN   Walltime
          iter iter root      energy       change     param      element    value   shift minimum  type update hh:mm:ss
 Nr of preliminary CI iterations:   1
        1   1    3    1  -224.27251671    0.00E+00  -0.72E-03    9  15 1  0.18E-02*  0.24   0.00    SX    NO    0:00:00
        2   1    3    1  -224.27252109   -0.44E-05* -0.43E-03    7  14 1 -0.10E-02*  0.24   0.00    SX    NO    0:00:00
        3   1    3    1  -224.27252238   -0.13E-05*  0.24E-03    7  14 1 -0.58E-03*  0.24   0.00    SX    NO    0:00:00
        4   1    3    1  -224.27252278   -0.41E-06*  0.15E-03    7  14 1 -0.33E-03*  0.24   0.00    SX    NO    0:00:00
        5   1    3    1  -224.27252292   -0.14E-06*  0.21E-03    7  14 1 -0.18E-03*  0.24   2.47    LS   YES    0:00:00
        6   1    2    1  -224.27252300   -0.78E-07* -0.46E-04    9  15 1 -0.76E-04   0.24   1.01    QN   YES    0:00:00
        7   1    2    1  -224.27252301   -0.82E-08  -0.13E-03    9  15 1 -0.49E-04   0.24   2.50    QN   YES    0:00:00
      Convergence after  7 iterations
 
  Dmat in MO in SXCTL bf call to SXHAM                                                                                    
  mat. size =     3x    3
 
        1.9802326159905221
        0.0000000000003324      1.7165974826229013
       -0.0001063893588655      0.0000000000005163      0.3031699013865759
        8   1    2    1  -224.27252302   -0.11E-07* -0.13E-03    9  15 1  0.13E-04   0.24   2.50    QN   YES    0:00:00
 
      ************************************************************************************************************************
                                                      Wave function printout:
                       occupation of active orbitals, and spin coupling of open shells (u,d: Spin up or down)
      ************************************************************************************************************************
 
      Note: transformation to natural orbitals
      has been made, which may change the order of the CSFs.
 
      printout of CI-coefficients larger than  0.05 for root  1
      energy=    -224.272523
      conf/sym  111     Coeff  Weight
             1  220  -0.92109 0.84842
             3  202   0.37643 0.14170
             6  022   0.09942 0.00988
 
      Natural orbitals and occupation numbers for root  1
      sym 1:   1.980233   1.716597   0.303170
 
      ************************************************************************************************************************
      *                                                                                                                      *
      *                                                    Final results                                                     *
      *                                                                                                                      *
      ************************************************************************************************************************
 
 
++    Wave function specifications:
      -----------------------------
 
      Number of closed shell electrons          20
      Number of electrons in active shells       4
      Max number of holes in RAS1 space          0
      Max nr of electrons in RAS3 space          0
      Number of inactive orbitals               10
      Number of active orbitals                  3
      Number of secondary orbitals               2
      Spin quantum number                      0.0
      State symmetry                             1
--
 
++    Orbital specifications:
      -----------------------
 
      Symmetry species                           1
                                                 a
      Frozen orbitals                            0
      Inactive orbitals                         10
      Active orbitals                            3
      RAS1 orbitals                              0
      RAS2 orbitals                              3
      RAS3 orbitals                              0
      Secondary orbitals                         2
      Deleted orbitals                           0
      Number of basis functions                 15
--
 
++    CI expansion specifications:
      ----------------------------
 
      Number of CSFs                             6
      Number of determinants                     6
      Number of root(s) required                 1
      CI root used                               1
      highest root included in the CI            1
      Root passed to geometry opt.               1
--
 
++    Final optimization conditions:
      ------------------------------
 
      Average CI energy                            -224.27252302
      RASSCF energy for state  1                   -224.27252302
      Super-CI energy                                -0.00000000
      RASSCF energy change                           -0.00000001
      Max change in MO coefficients              -0.121E-03
      Max non-diagonal density matrix element    -0.134E-03
      Maximum BLB matrix element                  0.134E-04
      (orbital pair   9,  15 in symmetry   1)
      Norm of electronic gradient            0.189E-04
--
 
 
      Final state energy(ies):
      ------------------------
 
::    RASSCF root number  1 Total energy:   -224.27252302
 
++    Molecular orbitals:
      -------------------
 
      Pseudonatural active orbitals and approximate occupation numbers
 
 
 
 
      Molecular orbitals for symmetry species 1: a  
 
 
      Orbital                1         2         3         4         5         6         7         8         9        10
      Energy          -20.8547  -20.8547  -20.8529   -1.7098   -1.5023   -1.0942   -0.8417   -0.7932   -0.6778   -0.5111
      Occ. No.          2.0000    2.0000    2.0000    2.0000    2.0000    2.0000    2.0000    2.0000    2.0000    2.0000
 
    1 O1     1s        -0.7071    0.6990    0.1067   -0.0141    0.0146    0.0144    0.0004   -0.0263   -0.0005   -0.0002
    2 O1     2s        -0.0001   -0.0001    0.0003    0.3561   -0.5573    0.6368    0.0064   -0.4231   -0.0081   -0.0002
    3 O1     2px       -0.0000    0.0000   -0.0000    0.0015   -0.0010   -0.0036    0.3841    0.0192   -0.7157    0.6219
    4 O1     2py        0.0012   -0.0011   -0.0003   -0.1104    0.1005    0.1913    0.0095   -0.4553   -0.0188   -0.0060
    5 O1     2pz       -0.0000    0.0000    0.0000   -0.0000    0.0000   -0.0000    0.0000    0.0000   -0.0000    0.0000
    6 O2     1s        -0.0000    0.1506   -0.9886   -0.0265   -0.0000   -0.0093    0.0002    0.0000    0.0000   -0.0014
    7 O2     2s         0.0000   -0.0008   -0.0008    0.6118    0.0000   -0.6189    0.0042   -0.0000    0.0000   -0.0174
    8 O2     2px        0.0000   -0.0000    0.0001   -0.0053   -0.0000   -0.0037    0.6887    0.0000    0.0000   -0.7874
    9 O2     2py        0.0006    0.0000    0.0000    0.0000   -0.3200   -0.0000   -0.0000    0.5606    0.0123    0.0000
   10 O2     2pz       -0.0000    0.0000    0.0000   -0.0000    0.0000   -0.0000    0.0000    0.0000   -0.0000   -0.0000
   11 O3     1s         0.7071    0.6990    0.1067   -0.0141   -0.0146    0.0144    0.0004    0.0263    0.0005   -0.0002
   12 O3     2s         0.0001   -0.0001    0.0003    0.3561    0.5573    0.6368    0.0064    0.4231    0.0081   -0.0002
   13 O3     2px        0.0000    0.0000   -0.0000    0.0015    0.0010   -0.0036    0.3841   -0.0192    0.7157    0.6219
   14 O3     2py        0.0012    0.0011    0.0003    0.1104    0.1005   -0.1913   -0.0095   -0.4553   -0.0188    0.0060
   15 O3     2pz       -0.0000   -0.0000   -0.0000   -0.0000    0.0000   -0.0000    0.0000    0.0000    0.0000    0.0000
 
 
      Orbital               11        12        13        14        15
      Energy            0.0000    0.0000    0.0000    0.1043    0.5857
      Occ. No.          1.9802    1.7166    0.3032    0.0000    0.0000
 
    1 O1     1s        -0.0000    0.0000    0.0000   -0.0160   -0.0564
    2 O1     2s         0.0000   -0.0000    0.0000   -0.2401   -0.5134
    3 O1     2px        0.0000    0.0000   -0.0000    0.0004   -0.0111
    4 O1     2py        0.0000    0.0000   -0.0000    0.7586    0.6806
    5 O1     2pz        0.3058   -0.7160    0.6639    0.0000    0.0000
    6 O2     1s         0.0000    0.0000   -0.0000    0.0832   -0.0000
    7 O2     2s         0.0000    0.0000   -0.0000    0.8994   -0.0000
    8 O2     2px       -0.0000    0.0000    0.0000   -0.0253    0.0000
    9 O2     2py       -0.0000   -0.0000   -0.0000    0.0000    1.1290
   10 O2     2pz        0.7793    0.0000   -0.6982   -0.0000   -0.0000
   11 O3     1s        -0.0000   -0.0000   -0.0000   -0.0160    0.0564
   12 O3     2s        -0.0000   -0.0000   -0.0000   -0.2401    0.5134
   13 O3     2px        0.0000   -0.0000   -0.0000    0.0004    0.0111
   14 O3     2py        0.0000   -0.0000   -0.0000   -0.7586    0.6806
   15 O3     2pz        0.3058    0.7160    0.6639   -0.0000    0.0000
--
 
      Von Neumann Entropy (Root  1) =  0.61598
 

      Mulliken population analysis for root number:  1
      -----------------------------------------------
 
 
++    Molecular charges:
      ------------------
 
      Mulliken charges per centre and basis function type
      ---------------------------------------------------
 
                O1      O2      O3    
      1s       2.0001  2.0001  2.0001
      2s       1.9135  1.5844  1.9135
      2px      1.9999  1.9993  1.9999
      2pz      1.2549  1.4903  1.2549
      2py      0.7829  1.0234  0.7829
      Total    7.9513  8.0974  7.9513
 
      N-E      0.0487 -0.0974  0.0487
 
      Total electronic charge=   24.000000
 
      Total            charge=   -0.000000
--
 
 

      Expectation values of various properties for root number:  1
      -----------------------------------------------------------
 
 
++    Molecular properties:
      ---------------------
 
      Charge (e):
                      =   -0.0000
      Dipole Moment (Debye):
      Origin of the operator (Ang)=    0.0000    0.0000    0.0000
                   X= -3.9888E-02               Y=  3.8461E-11               Z=  1.0693E-13           Total=  3.9888E-02
      Quadrupole Moment (Debye*Ang):
      Origin of the operator (Ang)=   -0.0112    0.0000    0.0000
                  XX= -1.7412E+01              XY= -6.0383E-13              XZ= -4.4097E-13              YY= -1.6597E+01
                  YZ=  3.1752E-13              ZZ= -1.5685E+01
      In traceless form (Debye*Ang)
                  XX= -1.2712E+00              XY= -9.0574E-13              XZ= -6.6145E-13              YY= -4.8774E-02
                  YZ=  4.7628E-13              ZZ=  1.3200E+00
--
 

      LoProp population analysis for root number:  1
      -----------------------------------------------
 
 
++    LoProp analysis:
      ----------------
 
 
 
  Input file to MOLDEN was generated!
 
 
++    Static properties:
      ------------------
 
 
      LoProp Charges per center
 

                   O1       O2       O3    
      Nuclear      8.0000   8.0000   8.0000
      Electronic  -7.9904  -8.0193  -7.9904
 
      Total        0.0096  -0.0193   0.0096
--
 
 
      Natural Bond Order analysis for root number:  1
 
++    Natural Bond Order analysis
      ---------------------------
      Based on LoProp computed density
      -------------------------------------------------------------------------------------
      Atom A       Atom B       Bond Order | Atom A       Atom B       Bond Order
        O1           O2             1.962  |   O2           O3             1.962
      -------------------------------------------------------------------------------------
      NBO located     12.000 core electrons.
      NBO located      3.972 lone pair electrons.
      NBO located      7.849 electrons involved in    2 bonds.
      The remaining    0.179 electrons are to be considered as diffuse
--
 
--
 
 
  Input file to MOLDEN was generated!
 
      Average orbitals are written to the RASORB file
      Natural orbitals for root   1 are written to the RASORB.1 file
      Spin density orbitals for root   1 are written to the SPDORB.1 file
 
forrtl: warning (525): IEEE_DIVIDE_BY_ZERO is signaling
forrtl: warning (526): IEEE_INVALID is signaling
forrtl: warning (528): IEEE_UNDERFLOW is signaling
--- Stop Module: rasscf at Sat Jan 25 14:11:55 2025 /rc=_RC_ALL_IS_WELL_ ---
*** files: ozone_181.50.LprOrb ozone_181.50.rasscf.molden ozone_181.50.LoProp.molden ozone_181.50.RasOrb ozone_181.50.RasOrb.1 ozone_181.50.rasscf.h5 ozone_181.50.SpdOrb.1 xmldump
    saved to directory /home/grierjones/DDCASPT2/ozone/ANO-RCC-MB/ozone_181.50

>>> COPY /tmp/ozone_181.50/ozone_181.50.rasscf.h5 /home/grierjones/DDCASPT2/ozone/ANO-RCC-MB/ozone_181.50/

>>> COPY /tmp/ozone_181.50/GMJ_Fock_MO.csv /home/grierjones/DDCASPT2/ozone/ANO-RCC-MB/ozone_181.50/ozone_181.50.GMJ_Fock_MO.csv

>>> COPY /tmp/ozone_181.50/GMJ_PT2_Fock_MO.csv /home/grierjones/DDCASPT2/ozone/ANO-RCC-MB/ozone_181.50/ozone_181.50.GMJ_PT2_Fock_MO.csv

*** symbolic link created: INPORB -> ozone_181.50.RasOrb
--- Start Module: motra at Sat Jan 25 14:11:55 2025 ---
 
()()()()()()()()()()()()()()()()()()()()()()()()()()()()()()()()()()()()()()()()()()()()()()()()()()

                                               &MOTRA

                                   only a single process is used
                       available to each process: 2.0 GB of memory, 1 thread?
()()()()()()()()()()()()()()()()()()()()()()()()()()()()()()()()()()()()()()()()()()()()()()()()()()
 
 
      *** WARNING: Default frozen orbitals is overwritten by user input.
      *** Default values:   3
 
      Header of the integral files:
      
       Integrals generated by seward 4.2.0  , Sat Jan 25 14:11:54 2025
 
 
      Header of MO coefficients source file:
      * RASSCF average (pseudo-natural) orbitals                                      
 
 
      Cartesian coordinates in Angstrom:
      -----------------------------------------------------
      No.  Label        X            Y            Z        
      -----------------------------------------------------
       1   O1        -0.01672900   1.27789100   0.00000000
       2   O2         0.00000000   0.00000000   0.00000000
       3   O3        -0.01672900  -1.27789100   0.00000000
      -----------------------------------------------------
      Nuclear repulsion energy =   66.25177763
 
      Orbital specifications:
      -----------------------
 
      Symmetry species:              1
      Number of basis functions:    15
      Frozen orbitals:               0
      Deleted orbitals:              0
      Number of orbitals used:      15

       SYMMETRY  BASIS FUNCTIONS       ORBITALS      INTEGRALS   CPU(SEC)  I/O(SEC)
 
        1 1 1 1   15  15  15  15    15  15  15  15        7260       0.00      0.00

       TOTAL CPU TIME(SEC)    0.00TOTAL I/O TIME(SEC)    0.01
 
--- Stop Module: motra at Sat Jan 25 14:11:55 2025 /rc=_RC_ALL_IS_WELL_ ---
*** files: xmldump
    saved to directory /home/grierjones/DDCASPT2/ozone/ANO-RCC-MB/ozone_181.50

>>> COPY /tmp/ozone_181.50/GMJ_one_int_indx.csv /home/grierjones/DDCASPT2/ozone/ANO-RCC-MB/ozone_181.50/ozone_181.50.GMJ_one_int_indx.csv

>>> COPY /tmp/ozone_181.50/GMJ_one_int.csv /home/grierjones/DDCASPT2/ozone/ANO-RCC-MB/ozone_181.50/ozone_181.50.GMJ_one_int.csv

>>> COPY /tmp/ozone_181.50/GMJ_two_int_indx.csv /home/grierjones/DDCASPT2/ozone/ANO-RCC-MB/ozone_181.50/ozone_181.50.GMJ_two_int_indx.csv

>>> COPY /tmp/ozone_181.50/GMJ_two_int.csv /home/grierjones/DDCASPT2/ozone/ANO-RCC-MB/ozone_181.50/ozone_181.50.GMJ_two_int.csv

*** symbolic link created: INPORB -> ozone_181.50.RasOrb
--- Start Module: caspt2 at Sat Jan 25 14:11:55 2025 ---
 
()()()()()()()()()()()()()()()()()()()()()()()()()()()()()()()()()()()()()()()()()()()()()()()()()()

                                              &CASPT2

                                   only a single process is used
                       available to each process: 2.0 GB of memory, 1 thread?
()()()()()()()()()()()()()()()()()()()()()()()()()()()()()()()()()()()()()()()()()()()()()()()()()()
 
 Cholesky algorithm in CASPT2 =    1
 
 ###############################################################################
 ###############################################################################
 ###                                                                         ###
 ###                                                                         ###
 ###    User changed nr of frozen orbitals.                                  ###
 ###                                                                         ###
 ###                                                                         ###
 ###############################################################################
 ###############################################################################
 
++    Wave function specifications:
      -----------------------------
 
      Number of closed shell electrons          20
      Number of electrons in active shells       4
      Max number of holes in RAS1 space          0
      Max number of electrons in RAS3 space      0
      Number of inactive orbitals               10
      Number of active orbitals                  3
      Number of secondary orbitals               2
      Spin quantum number                      0.0
      State symmetry                             1
      Number of CSFs                             6
      Number of root(s) available                1
      Root passed to geometry opt.               1
      A file JOBMIX will be created.
      This is a CASSCF or RASSCF reference function
--
 
++    Orbital specifications:
      -----------------------
 
      Symmetry species                           1
                                                 a
      Frozen orbitals                            0
      Inactive orbitals                         10
      Active orbitals                            3
      Secondary orbitals                         2
      Deleted orbitals                           0
      Number of basis functions                 15
--
 
      Type of Fock operator: STANDARD
      Type of 0-order Hamiltonian: STANDARD WITH DEFAULT IPEA
        "IP-EA" denominator shift =      0.25
      The input orbitals and the CI vector will be transformed.
 
--------------------------------------------------------------------------------
 Estimated memory requirements:
  POLY3 :                   250202
  RHS:                      251368
  SIGMA :                   251440
  PRPCTL:                        0
 Available workspace:    230399382
 
++ CASPT2 computation for group   1
 
********************************************************************************
 Multi-State initialization phase begins for group   1
--------------------------------------------------------------------------------
********************************************************************************
 Compute H0 matrices for state    1
--------------------------------------------------------------------------------
--------------------------------------------------------------------------------
 H0 matrices have been computed.
 
********************************************************************************
  CASPT2 EQUATION SOLUTION
--------------------------------------------------------------------------------
 
  Total nr of CASPT2 parameters:
   Before reduction:        2100
   After  reduction:        1232
-------------------------------------------------------------------------------------------------------------------
 
  FINAL CASPT2 RESULT:
 
  Correlation energy /Case, /Symm, and sums:
 VJTU     -0.00000000 -0.00000000
 VJTIP    -0.00124270 -0.00124270
 VJTIM     0.00000000  0.00000000
 ATVX     -0.00000000 -0.00000000
 AIVX     -0.05245134 -0.05245134
 VJAIP    -0.00000000 -0.00000000
 VJAIM    -0.00000000 -0.00000000
 BVATP    -0.00061727 -0.00061727
 BVATM    -0.00000460 -0.00000460
 BJATP    -0.00000000 -0.00000000
 BJATM    -0.00000000 -0.00000000
 BJAIP    -0.03467794 -0.03467794
 BJAIM    -0.00642720 -0.00642720
 Summed:  -0.09542104 -0.09542104
 
      Reference energy:        -224.2725230216
      E2 (Non-variational):      -0.0954210390
      E2 (Variational):          -0.0954210278
      Total energy:            -224.3679440493
      Residual norm:              0.0000004948
      Reference weight:           0.95395
 
      Contributions to the CASPT2 correlation energy
      Active & Virtual Only:         -0.0006218639
      One Inactive Excited:          -0.0524513356
      Two Inactive Excited:          -0.0423478394
 
 
++ Denominators, etc.
----------------------------------------------------------------------------------------------------
 Report on small energy denominators, large coefficients, and large energy contributions.
CASE  SYMM ACTIVE-MIX  NON-ACTIVE INDICES          DENOMINATOR     RHS VALUE       COEFFICIENT     CONTRIBUTION
AIVX     1  Mu1.0005  In1.004 Se1.014               2.54752665     -0.08501270      0.03337068     -0.00283693
AIVX     1  Mu1.0003  In1.005 Se1.014               2.01606589      0.05490080     -0.02723165     -0.00149504
AIVX     1  Mu1.0004  In1.006 Se1.014               1.77895307     -0.07817754      0.04394581     -0.00343558
AIVX     1  Mu1.0005  In1.006 Se1.014               1.93188562      0.07564751     -0.03915735     -0.00296216
AIVX     1  Mu1.0002  In1.008 Se1.014               1.21247233     -0.12486391      0.10298289     -0.01285885
AIVX     1  Mu1.0003  In1.008 Se1.014               1.30688055     -0.07472172      0.05717563     -0.00427226
AIVX     1  Mu1.0007  In1.008 Se1.014               1.90909404      0.05546054     -0.02905071     -0.00161117
AIVX     1  Mu1.0004  In1.005 Se1.015               2.66859456     -0.07247064      0.02715686     -0.00196807
AIVX     1  Mu1.0001  In1.008 Se1.015               1.31965843      0.03568198     -0.02703880     -0.00096480
AIVX     1  Mu1.0004  In1.008 Se1.015               1.95940923      0.12837342     -0.06551639     -0.00841056
AIVX     1  Mu1.0005  In1.008 Se1.015               2.11234178     -0.08547533      0.04046473     -0.00345874
BJAIP    1  Se1.014 In1.004 Se1.015 In1.005         3.90216414     -0.10124584      0.02594607     -0.00262693
BJAIP    1  Se1.014 In1.006 Se1.014 In1.006         2.39688161      0.08448902     -0.03524956     -0.00297820
BJAIP    1  Se1.014 In1.004 Se1.015 In1.008         3.19297881      0.08267459     -0.02589262     -0.00214066
BJAIP    1  Se1.014 In1.006 Se1.015 In1.008         2.57733777     -0.10101435      0.03919329     -0.00395909
BJAIP    1  Se1.014 In1.008 Se1.014 In1.008         1.79484939      0.11569594     -0.06445997     -0.00745776
BJAIP    1  Se1.015 In1.008 Se1.015 In1.008         2.75779394      0.11378090     -0.04125794     -0.00469437
BJAIP    1  Se1.014 In1.010 Se1.014 In1.010         1.23066812      0.03238718     -0.02631675     -0.00085233
BJAIM    1  Se1.014 In1.006 Se1.014 In1.008         2.57733777     -0.10344241      0.04013537     -0.00415170
--
 
   (Skipping property calculation,
    use PROP keyword to activate)
--
 
  Total CASPT2 energies:
::    CASPT2 Root  1     Total energy:   -224.36794405
 
  A NEW JOBIPH FILE NAMED 'JOBMIX' IS PREPARED.
********************************************************************************
forrtl: warning (528): IEEE_UNDERFLOW is signaling
--- Stop Module: caspt2 at Sat Jan 25 14:11:55 2025 /rc=_RC_ALL_IS_WELL_ ---
*** files: xmldump
    saved to directory /home/grierjones/DDCASPT2/ozone/ANO-RCC-MB/ozone_181.50

>>> EXPORT i = B

>>> EXPORT j = P

>>> IF (-FILE GMJ_e2_${i}_${j}.csv)

>>> COPY /tmp/ozone_181.50/GMJ_RHS_B_P.csv /home/grierjones/DDCASPT2/ozone/ANO-RCC-MB/ozone_181.50/GMJ_RHS_B_P.csv

>>> COPY /tmp/ozone_181.50/GMJ_IVECW_B_P.csv /home/grierjones/DDCASPT2/ozone/ANO-RCC-MB/ozone_181.50/GMJ_IVECW_B_P.csv

>>> COPY /tmp/ozone_181.50/GMJ_IVECX_B_P.csv /home/grierjones/DDCASPT2/ozone/ANO-RCC-MB/ozone_181.50/GMJ_IVECX_B_P.csv

>>> COPY /tmp/ozone_181.50/GMJ_IVECC2_B_P.csv /home/grierjones/DDCASPT2/ozone/ANO-RCC-MB/ozone_181.50/GMJ_IVECC2_B_P.csv

>>> COPY /tmp/ozone_181.50/GMJ_e2_B_P.csv /home/grierjones/DDCASPT2/ozone/ANO-RCC-MB/ozone_181.50/GMJ_e2_B_P.csv

>>> END FOREACH

>>> EXPORT j = M

>>> IF (-FILE GMJ_e2_${i}_${j}.csv)
(Skipped)

>>> END FOREACH

>>> END FOREACH

>>> EXPORT i = E

>>> EXPORT j = P

>>> IF (-FILE GMJ_e2_${i}_${j}.csv)

>>> COPY /tmp/ozone_181.50/GMJ_RHS_E_P.csv /home/grierjones/DDCASPT2/ozone/ANO-RCC-MB/ozone_181.50/GMJ_RHS_E_P.csv

>>> COPY /tmp/ozone_181.50/GMJ_IVECW_E_P.csv /home/grierjones/DDCASPT2/ozone/ANO-RCC-MB/ozone_181.50/GMJ_IVECW_E_P.csv

>>> COPY /tmp/ozone_181.50/GMJ_IVECX_E_P.csv /home/grierjones/DDCASPT2/ozone/ANO-RCC-MB/ozone_181.50/GMJ_IVECX_E_P.csv

>>> COPY /tmp/ozone_181.50/GMJ_IVECC2_E_P.csv /home/grierjones/DDCASPT2/ozone/ANO-RCC-MB/ozone_181.50/GMJ_IVECC2_E_P.csv

>>> COPY /tmp/ozone_181.50/GMJ_e2_E_P.csv /home/grierjones/DDCASPT2/ozone/ANO-RCC-MB/ozone_181.50/GMJ_e2_E_P.csv

>>> END FOREACH

>>> EXPORT j = M

>>> IF (-FILE GMJ_e2_${i}_${j}.csv)

>>> COPY /tmp/ozone_181.50/GMJ_RHS_E_M.csv /home/grierjones/DDCASPT2/ozone/ANO-RCC-MB/ozone_181.50/GMJ_RHS_E_M.csv

>>> COPY /tmp/ozone_181.50/GMJ_IVECW_E_M.csv /home/grierjones/DDCASPT2/ozone/ANO-RCC-MB/ozone_181.50/GMJ_IVECW_E_M.csv

>>> COPY /tmp/ozone_181.50/GMJ_IVECX_E_M.csv /home/grierjones/DDCASPT2/ozone/ANO-RCC-MB/ozone_181.50/GMJ_IVECX_E_M.csv

>>> COPY /tmp/ozone_181.50/GMJ_IVECC2_E_M.csv /home/grierjones/DDCASPT2/ozone/ANO-RCC-MB/ozone_181.50/GMJ_IVECC2_E_M.csv

>>> COPY /tmp/ozone_181.50/GMJ_e2_E_M.csv /home/grierjones/DDCASPT2/ozone/ANO-RCC-MB/ozone_181.50/GMJ_e2_E_M.csv

>>> END FOREACH

>>> END FOREACH

>>> EXPORT i = F

>>> EXPORT j = P

>>> IF (-FILE GMJ_e2_${i}_${j}.csv)

>>> COPY /tmp/ozone_181.50/GMJ_RHS_F_P.csv /home/grierjones/DDCASPT2/ozone/ANO-RCC-MB/ozone_181.50/GMJ_RHS_F_P.csv

>>> COPY /tmp/ozone_181.50/GMJ_IVECW_F_P.csv /home/grierjones/DDCASPT2/ozone/ANO-RCC-MB/ozone_181.50/GMJ_IVECW_F_P.csv

>>> COPY /tmp/ozone_181.50/GMJ_IVECX_F_P.csv /home/grierjones/DDCASPT2/ozone/ANO-RCC-MB/ozone_181.50/GMJ_IVECX_F_P.csv

>>> COPY /tmp/ozone_181.50/GMJ_IVECC2_F_P.csv /home/grierjones/DDCASPT2/ozone/ANO-RCC-MB/ozone_181.50/GMJ_IVECC2_F_P.csv

>>> COPY /tmp/ozone_181.50/GMJ_e2_F_P.csv /home/grierjones/DDCASPT2/ozone/ANO-RCC-MB/ozone_181.50/GMJ_e2_F_P.csv

>>> END FOREACH

>>> EXPORT j = M

>>> IF (-FILE GMJ_e2_${i}_${j}.csv)

>>> COPY /tmp/ozone_181.50/GMJ_RHS_F_M.csv /home/grierjones/DDCASPT2/ozone/ANO-RCC-MB/ozone_181.50/GMJ_RHS_F_M.csv

>>> COPY /tmp/ozone_181.50/GMJ_IVECW_F_M.csv /home/grierjones/DDCASPT2/ozone/ANO-RCC-MB/ozone_181.50/GMJ_IVECW_F_M.csv

>>> COPY /tmp/ozone_181.50/GMJ_IVECX_F_M.csv /home/grierjones/DDCASPT2/ozone/ANO-RCC-MB/ozone_181.50/GMJ_IVECX_F_M.csv

>>> COPY /tmp/ozone_181.50/GMJ_IVECC2_F_M.csv /home/grierjones/DDCASPT2/ozone/ANO-RCC-MB/ozone_181.50/GMJ_IVECC2_F_M.csv

>>> COPY /tmp/ozone_181.50/GMJ_e2_F_M.csv /home/grierjones/DDCASPT2/ozone/ANO-RCC-MB/ozone_181.50/GMJ_e2_F_M.csv

>>> END FOREACH

>>> END FOREACH

>>> EXPORT i = G

>>> EXPORT j = P

>>> IF (-FILE GMJ_e2_${i}_${j}.csv)

>>> COPY /tmp/ozone_181.50/GMJ_RHS_G_P.csv /home/grierjones/DDCASPT2/ozone/ANO-RCC-MB/ozone_181.50/GMJ_RHS_G_P.csv

>>> COPY /tmp/ozone_181.50/GMJ_IVECW_G_P.csv /home/grierjones/DDCASPT2/ozone/ANO-RCC-MB/ozone_181.50/GMJ_IVECW_G_P.csv

>>> COPY /tmp/ozone_181.50/GMJ_IVECX_G_P.csv /home/grierjones/DDCASPT2/ozone/ANO-RCC-MB/ozone_181.50/GMJ_IVECX_G_P.csv

>>> COPY /tmp/ozone_181.50/GMJ_IVECC2_G_P.csv /home/grierjones/DDCASPT2/ozone/ANO-RCC-MB/ozone_181.50/GMJ_IVECC2_G_P.csv

>>> COPY /tmp/ozone_181.50/GMJ_e2_G_P.csv /home/grierjones/DDCASPT2/ozone/ANO-RCC-MB/ozone_181.50/GMJ_e2_G_P.csv

>>> END FOREACH

>>> EXPORT j = M

>>> IF (-FILE GMJ_e2_${i}_${j}.csv)

>>> COPY /tmp/ozone_181.50/GMJ_RHS_G_M.csv /home/grierjones/DDCASPT2/ozone/ANO-RCC-MB/ozone_181.50/GMJ_RHS_G_M.csv

>>> COPY /tmp/ozone_181.50/GMJ_IVECW_G_M.csv /home/grierjones/DDCASPT2/ozone/ANO-RCC-MB/ozone_181.50/GMJ_IVECW_G_M.csv

>>> COPY /tmp/ozone_181.50/GMJ_IVECX_G_M.csv /home/grierjones/DDCASPT2/ozone/ANO-RCC-MB/ozone_181.50/GMJ_IVECX_G_M.csv

>>> COPY /tmp/ozone_181.50/GMJ_IVECC2_G_M.csv /home/grierjones/DDCASPT2/ozone/ANO-RCC-MB/ozone_181.50/GMJ_IVECC2_G_M.csv

>>> COPY /tmp/ozone_181.50/GMJ_e2_G_M.csv /home/grierjones/DDCASPT2/ozone/ANO-RCC-MB/ozone_181.50/GMJ_e2_G_M.csv

>>> END FOREACH

>>> END FOREACH

>>> EXPORT i = H

>>> EXPORT j = P

>>> IF (-FILE GMJ_e2_${i}_${j}.csv)

>>> COPY /tmp/ozone_181.50/GMJ_RHS_H_P.csv /home/grierjones/DDCASPT2/ozone/ANO-RCC-MB/ozone_181.50/GMJ_RHS_H_P.csv

>>> COPY /tmp/ozone_181.50/GMJ_IVECW_H_P.csv /home/grierjones/DDCASPT2/ozone/ANO-RCC-MB/ozone_181.50/GMJ_IVECW_H_P.csv

>>> COPY /tmp/ozone_181.50/GMJ_IVECX_H_P.csv /home/grierjones/DDCASPT2/ozone/ANO-RCC-MB/ozone_181.50/GMJ_IVECX_H_P.csv

>>> COPY /tmp/ozone_181.50/GMJ_IVECC2_H_P.csv /home/grierjones/DDCASPT2/ozone/ANO-RCC-MB/ozone_181.50/GMJ_IVECC2_H_P.csv

>>> COPY /tmp/ozone_181.50/GMJ_e2_H_P.csv /home/grierjones/DDCASPT2/ozone/ANO-RCC-MB/ozone_181.50/GMJ_e2_H_P.csv

>>> END FOREACH

>>> EXPORT j = M

>>> IF (-FILE GMJ_e2_${i}_${j}.csv)

>>> COPY /tmp/ozone_181.50/GMJ_RHS_H_M.csv /home/grierjones/DDCASPT2/ozone/ANO-RCC-MB/ozone_181.50/GMJ_RHS_H_M.csv

>>> COPY /tmp/ozone_181.50/GMJ_IVECW_H_M.csv /home/grierjones/DDCASPT2/ozone/ANO-RCC-MB/ozone_181.50/GMJ_IVECW_H_M.csv

>>> COPY /tmp/ozone_181.50/GMJ_IVECX_H_M.csv /home/grierjones/DDCASPT2/ozone/ANO-RCC-MB/ozone_181.50/GMJ_IVECX_H_M.csv

>>> COPY /tmp/ozone_181.50/GMJ_IVECC2_H_M.csv /home/grierjones/DDCASPT2/ozone/ANO-RCC-MB/ozone_181.50/GMJ_IVECC2_H_M.csv

>>> COPY /tmp/ozone_181.50/GMJ_e2_H_M.csv /home/grierjones/DDCASPT2/ozone/ANO-RCC-MB/ozone_181.50/GMJ_e2_H_M.csv

>>> END FOREACH

>>> END FOREACH

>>> EXPORT i = A

>>> IF (-FILE GMJ_e2_$i.csv)

>>> COPY /tmp/ozone_181.50/GMJ_RHS_A.csv /home/grierjones/DDCASPT2/ozone/ANO-RCC-MB/ozone_181.50/GMJ_RHS_A.csv

>>> COPY /tmp/ozone_181.50/GMJ_IVECW_A.csv /home/grierjones/DDCASPT2/ozone/ANO-RCC-MB/ozone_181.50/GMJ_IVECW_A.csv

>>> COPY /tmp/ozone_181.50/GMJ_IVECX_A.csv /home/grierjones/DDCASPT2/ozone/ANO-RCC-MB/ozone_181.50/GMJ_IVECX_A.csv

>>> COPY /tmp/ozone_181.50/GMJ_IVECC2_A.csv /home/grierjones/DDCASPT2/ozone/ANO-RCC-MB/ozone_181.50/GMJ_IVECC2_A.csv

>>> COPY /tmp/ozone_181.50/GMJ_e2_A.csv /home/grierjones/DDCASPT2/ozone/ANO-RCC-MB/ozone_181.50/GMJ_e2_A.csv

>>> END FOREACH

>>> EXPORT i = C

>>> IF (-FILE GMJ_e2_$i.csv)

>>> COPY /tmp/ozone_181.50/GMJ_RHS_C.csv /home/grierjones/DDCASPT2/ozone/ANO-RCC-MB/ozone_181.50/GMJ_RHS_C.csv

>>> COPY /tmp/ozone_181.50/GMJ_IVECW_C.csv /home/grierjones/DDCASPT2/ozone/ANO-RCC-MB/ozone_181.50/GMJ_IVECW_C.csv

>>> COPY /tmp/ozone_181.50/GMJ_IVECX_C.csv /home/grierjones/DDCASPT2/ozone/ANO-RCC-MB/ozone_181.50/GMJ_IVECX_C.csv

>>> COPY /tmp/ozone_181.50/GMJ_IVECC2_C.csv /home/grierjones/DDCASPT2/ozone/ANO-RCC-MB/ozone_181.50/GMJ_IVECC2_C.csv

>>> COPY /tmp/ozone_181.50/GMJ_e2_C.csv /home/grierjones/DDCASPT2/ozone/ANO-RCC-MB/ozone_181.50/GMJ_e2_C.csv

>>> END FOREACH

>>> EXPORT i = D

>>> IF (-FILE GMJ_e2_$i.csv)

>>> COPY /tmp/ozone_181.50/GMJ_RHS_D.csv /home/grierjones/DDCASPT2/ozone/ANO-RCC-MB/ozone_181.50/GMJ_RHS_D.csv

>>> COPY /tmp/ozone_181.50/GMJ_IVECW_D.csv /home/grierjones/DDCASPT2/ozone/ANO-RCC-MB/ozone_181.50/GMJ_IVECW_D.csv

>>> COPY /tmp/ozone_181.50/GMJ_IVECX_D.csv /home/grierjones/DDCASPT2/ozone/ANO-RCC-MB/ozone_181.50/GMJ_IVECX_D.csv

>>> COPY /tmp/ozone_181.50/GMJ_IVECC2_D.csv /home/grierjones/DDCASPT2/ozone/ANO-RCC-MB/ozone_181.50/GMJ_IVECC2_D.csv

>>> COPY /tmp/ozone_181.50/GMJ_e2_D.csv /home/grierjones/DDCASPT2/ozone/ANO-RCC-MB/ozone_181.50/GMJ_e2_D.csv

>>> END FOREACH

.########################.
.# Non-zero return code #.
.########################.

    Timing: Wall=1.08 User=0.82 System=0.25
********************************************
*** WorkDir at /tmp/ozone_181.50 cleaned ***
********************************************
