   This run of MOLCAS is using the pymolcas driver

                             OPE
                             OPE          NMOL  CASOP  ENMOLC A   SO
                 OPE        NMOLC        AS  OP EN  MO LC     AS  OP
                OPENM       OL CA        SO  PE NM  OL CA     SOP EN
                OP EN      MO   LC       AS  OP ENMOL  CASO   PENMOL
                OP  EN     MO   LC       AS  OP EN     MO     LC ASO
               OP   E  NMOL  C  AS       OP  EN MO     LC     AS  OP
               OP  E   NMO   LC AS        OPEN  MO     LCASOP EN   M
               O  PEN   MO  LCA  SO
            OPE   NMO   L   CAS    OP
        OPENMOL  CASOP     ENMOL   CASOPE
     OPENMOLCA   SOPENMOLCASOPEN   MOLCASOPE
    OPENMOLCAS   OP           EN   MOL    CAS
    OPENMOLCAS       OP  ENM        O     LCA
    OPENMOLCAS    OPEN  MOLCASO     P  E  NMO
    OPENMOLCAS     OP               E  N  MOL
    OPENMOLCA   SO           PENM   O  L  CAS    OPEN    MO    LCAS
    OPENMOLCA   SOP           ENM   O  L  CAS   OP  EN  MOLC  AS   O
    OPENMOLCA   SOPE           NM      O  LCA   S      OP  EN MO
    OPENMOLC                AS         O  PEN   M      OL  CA  SOPE
    OPENMO        LCASOPE  NMOL        C  ASO   P      ENMOLC     AS
    OPE     NMO      LCA  SO     P     E   NM   OL  CA SO  PE N   MO
          OPENMOLCA            SOPE   NMO        LCAS  O    P  ENMO
     OPENMOLCASOPENMOLCASOPENMOLCASOPENMOLCA
        OPENMOLCASOPENMOLCASOPENMOLCASOPE
            OPENMOLCASOPENMOLCASOPENM
               OPENMOLCASOPENMOLCA        version: ea724fe96-dirty
                   OPENMOLCASO
                       OPE                tag:

 OpenMolcas is free software; you can redistribute it and/or modify it
 under the terms of the GNU Lesser General Public License version 2.1.
 OpenMolcas is distributed in the hope that it will be useful, but it
 is provided "as is" and without any express or implied warranties.
 For more details see the full text of the license in the file
 LICENSE or in <http://www.gnu.org/licenses/>.

                 Copyright (C) The OpenMolcas Authors
           For the author list and the recommended citation,
                   consult the file CONTRIBUTORS.md

           *************************************************
           * pymolcas version py2.28                       *
           *   build c4a6d18ded8cb6cad61d2372a9abd97c      *
           *   (after the EMIL interpreter by V. Veryazov) *
           *************************************************

configuration info
------------------
C Compiler ID: Intel
C flags: -std=gnu99
Fortran Compiler ID: Intel
Fortran flags: -fpp -i8 -r8 -heap-arrays
Definitions: _MOLCAS_;_I8_;_LINUX_
Parallel: OFF (GA=OFF)


   -------------------------------------------------------------------------------
  |
  |              Project: 1.86
  |       Submitted from: /home/grierjones/DDCASPT2/iron_oxo_DDCASPT2/cluster/1.86
  |         Scratch area: /tmp/1.86
  |      Save outputs to: /home/grierjones/DDCASPT2/iron_oxo_DDCASPT2/cluster/1.86
  |               Molcas: /home/grierjones/Test/build
  |
  | Scratch area is empty
  |
  |       MOLCAS_DRIVER = /usr/local/pymolcas
  | MOLCAS_KEEP_WORKDIR = NO
  |  MOLCAS_NEW_WORKDIR = YES
  |       MOLCAS_NPROCS = 1
  |        MOLCAS_PRINT = NORMAL
  |       MOLCAS_SOURCE = /home/grierjones/Test/build
  |    MOLCAS_STRUCTURE = 0
  |
   -------------------------------------------------------------------------------

++ ---------   Input file   ---------

&GATEWAY
coord=1.86.xyz
Basis = ANO-RCC-VDZP
Group = nosymm
Expert
End of Input

&SEWARD
End of Input

&SCF
UHF
charge
2
spin
5
FileOrb
/home/grierjones/DDCASPT2/iron_oxo_DDCASPT2/cluster/1.85/1.85.UhfOrb

>>> COPY $WorkDir/1.86.scf.h5 $CurrDir/

&RASSCF
Title= RASSCF
FileOrb
/home/grierjones/DDCASPT2/iron_oxo_DDCASPT2/cluster/1.85/1.85.RasOrb
NACTEL
10 0 0
RAS2
14
Symmetry
1
Spin
5
charge
2
orblisting
all
ITERation
300 200

>>> COPY $WorkDir/1.86.rasscf.h5 $CurrDir/

>>> COPY $WorkDir/GMJ_Fock_MO.csv $CurrDir/1.86.GMJ_Fock_MO.csv

>>> COPY $WorkDir/GMJ_PT2_Fock_MO.csv $CurrDir/1.86.GMJ_PT2_Fock_MO.csv

&MOTRA
Frozen=0
LUMORB

>>> COPY $WorkDir/GMJ_one_int_indx.csv $CurrDir/1.86.GMJ_one_int_indx.csv

>>> COPY $WorkDir/GMJ_one_int.csv $CurrDir/1.86.GMJ_one_int.csv

>>> COPY $WorkDir/GMJ_two_int_indx.csv $CurrDir/1.86.GMJ_two_int_indx.csv

>>> COPY $WorkDir/GMJ_two_int.csv $CurrDir/1.86.GMJ_two_int.csv

&CASPT2
Frozen
0
MAXITER
50

>>> FOREACH i IN (B,E,F,G,H)

  >>> FOREACH j IN (P,M)

    >>> IF (-FILE GMJ_e2_${i}_${j}.csv)

      >>> COPY $WorkDir/GMJ_RHS_${i}_${j}.csv $CurrDir/GMJ_RHS_${i}_${j}.csv

      >>> COPY $WorkDir/GMJ_IVECW_${i}_${j}.csv $CurrDir/GMJ_IVECW_${i}_${j}.csv

      >>> COPY $WorkDir/GMJ_IVECX_${i}_${j}.csv $CurrDir/GMJ_IVECX_${i}_${j}.csv

      >>> COPY $WorkDir/GMJ_IVECC2_${i}_${j}.csv $CurrDir/GMJ_IVECC2_${i}_${j}.csv

      >>> COPY $WorkDir/GMJ_e2_${i}_${j}.csv $CurrDir/GMJ_e2_${i}_${j}.csv

    >>> END IF

  >>> END FOREACH

>>> END FOREACH

>>> FOREACH i IN (A,C,D)

  >>> IF (-FILE GMJ_e2_$i.csv)

    >>> COPY $WorkDir/GMJ_RHS_$i.csv $CurrDir/GMJ_RHS_$i.csv

    >>> COPY $WorkDir/GMJ_IVECW_$i.csv $CurrDir/GMJ_IVECW_$i.csv

    >>> COPY $WorkDir/GMJ_IVECX_$i.csv $CurrDir/GMJ_IVECX_$i.csv

    >>> COPY $WorkDir/GMJ_IVECC2_$i.csv $CurrDir/GMJ_IVECC2_$i.csv

    >>> COPY $WorkDir/GMJ_e2_$i.csv $CurrDir/GMJ_e2_$i.csv

  >>> END IF

>>> END FOREACH

-- ----------------------------------

--- Start Module: gateway at Mon Dec 23 17:53:47 2024 ---
 
()()()()()()()()()()()()()()()()()()()()()()()()()()()()()()()()()()()()()()()()()()()()()()()()()()

                                              &GATEWAY

                                   only a single process is used
                       available to each process: 2.0 GB of memory, 1 thread?
()()()()()()()()()()()()()()()()()()()()()()()()()()()()()()()()()()()()()()()()()()()()()()()()()()
 
 ###############################################################################
 ###############################################################################
 ###                                                                         ###
 ###                                                                         ###
 ###                                                                         ###
 ###    WARNING: EXPERT option is ON!                                        ###
 ###                                                                         ###
 ###                                                                         ###
 ###############################################################################
 ###############################################################################
 
++    Symmetry information:
      ---------------------
 
                    Character Table for C1 
 
                             E  
                    a        1  x, y, xy, Rz, z, xz, Ry, yz, Rx, I
--
 
 
++    Basis set information:
      ----------------------
 
 
      Basis set label: O.ANO-RCC...3S2P1D.
 
      Electronic valence basis set:
      ------------------
      Associated Effective Charge   8.000000 au
      Associated Actual Charge      8.000000 au
      Nuclear Model: Point charge
 
      Shell  nPrim  nBasis  Cartesian Spherical Contaminant
         s      14       3        X                  
         p       9       2        X                  
         d       4       1                 X         
 
 
      Basis set label: FE.ANO-RCC...5S4P2D1F.
 
      Electronic valence basis set:
      ------------------
      Associated Effective Charge  26.000000 au
      Associated Actual Charge     26.000000 au
      Nuclear Model: Point charge
 
      Shell  nPrim  nBasis  Cartesian Spherical Contaminant
         s      21       5        X                  
         p      15       4        X                  
         d      10       2                 X         
         f       6       1                 X         
--
 
 
++    Molecular structure info:
      -------------------------
 
                    ************************************************ 
                    **** Cartesian Coordinates / Bohr, Angstrom **** 
                    ************************************************ 
 
     Center  Label                x              y              z                     x              y              z
        1      O1               0.000000       0.000000       3.271985              0.000000       0.000000       1.731460
        2      FE2              0.000000       0.000000      -0.248423              0.000000       0.000000      -0.131460
--
 
 
            Nuclear Potential Energy             59.08405075 au
 
 ###############################################################################
 ###############################################################################
 ###                                                                         ###
 ###                                                                         ###
 ###    There were warnings during the execution                             ###
 ###    Please, check the output with care!                                  ###
 ###                                                                         ###
 ###                                                                         ###
 ###############################################################################
 ###############################################################################
--- Stop Module: gateway at Mon Dec 23 17:53:47 2024 /rc=_RC_ALL_IS_WELL_ ---
*** files: xmldump
    saved to directory /home/grierjones/DDCASPT2/iron_oxo_DDCASPT2/cluster/1.86

--- Start Module: seward at Mon Dec 23 17:53:47 2024 ---
 
()()()()()()()()()()()()()()()()()()()()()()()()()()()()()()()()()()()()()()()()()()()()()()()()()()

                                              &SEWARD

                                   only a single process is used
                       available to each process: 2.0 GB of memory, 1 thread?
()()()()()()()()()()()()()()()()()()()()()()()()()()()()()()()()()()()()()()()()()()()()()()()()()()
 
 ###############################################################################
 ###############################################################################
 ###                                                                         ###
 ###                                                                         ###
 ###                                                                         ###
 ###    WARNING: EXPERT option is ON!                                        ###
 ###                                                                         ###
 ###                                                                         ###
 ###############################################################################
 ###############################################################################
               SEWARD will generate:
                  Multipole Moment integrals up to order  2
                  Kinetic Energy integrals
                  Nuclear Attraction integrals (point charge)
                  One-Electron Hamiltonian integrals
                  Velocity integrals
                  Relativistic Douglas-Kroll-Hess integrals:
                    - Parametrization         : EXP
                    - DKH order of Hamiltonian: 2
                    - DKH order of Properties : 0
                         - multipole moment operators
                         - electric potential operators
                         - contact operators
                  Atomic mean-field integrals
                  Two-Electron Repulsion integrals
 
                   Integrals are discarded if absolute value <: 0.10E-13
                   Integral cutoff threshold is set to       <: 0.10E-15
 
            Nuclear Potential Energy             59.08405075 au
 
 
      Basis set specifications :
      Symmetry species         a  
      Basis functions           48
 
 
  Input file to MOLDEN was generated!
 
 ###############################################################################
 ###############################################################################
 ###                                                                         ###
 ###                                                                         ###
 ###    There were warnings during the execution                             ###
 ###    Please, check the output with care!                                  ###
 ###                                                                         ###
 ###                                                                         ###
 ###############################################################################
 ###############################################################################
--- Stop Module: seward at Mon Dec 23 17:53:48 2024 /rc=_RC_ALL_IS_WELL_ ---
*** files: 1.86.GssOrb 1.86.guessorb.h5 1.86.guessorb.molden xmldump
    saved to directory /home/grierjones/DDCASPT2/iron_oxo_DDCASPT2/cluster/1.86
--- Module seward spent 1 second ---

*** symbolic link created: INPORB -> 1.86.GssOrb
--- Start Module: scf at Mon Dec 23 17:53:48 2024 ---
 
()()()()()()()()()()()()()()()()()()()()()()()()()()()()()()()()()()()()()()()()()()()()()()()()()()

                                                &SCF

                                   only a single process is used
                       available to each process: 2.0 GB of memory, 1 thread?
()()()()()()()()()()()()()()()()()()()()()()()()()()()()()()()()()()()()()()()()()()()()()()()()()()
 
 *** Possible bug in opening file
 *** isFreeUnit resets the unit number
++    Input section:
      --------------
 
      Header of the integral files:
      
       Integrals generated by seward 4.2.0  , Mon Dec 23 17:53:47 2024
 
 
      Cartesian coordinates in Angstrom:
      -----------------------------------------------------
      No.  Label        X            Y            Z        
      -----------------------------------------------------
       1   O1         0.00000000   0.00000000   1.73146000
       2   FE2        0.00000000   0.00000000  -0.13146000
      -----------------------------------------------------
      Nuclear repulsion energy =   59.08405075
--
 
++    Orbital specifications:
      -----------------------
 
      Symmetry species               1
                                     a
      Frozen orbitals                0
      Occupied orbitals alpha       18
      Occupied orbitals beta        14
      Secondary orbitals alpha      30
      Secondary orbitals beta       34
      Deleted orbitals               0
      Total number of orbitals      48
      Number of basis functions     48
--
 
      Molecular charge                           2.000
 
++    Optimization specifications:
      ----------------------------
 
      SCF Algorithm: Conventional USCF
      D(i)-D(i-1) density differences are used
      Number of density matrices in core                5
      Maximum number of NDDO SCF iterations           400
      Maximum number of HF SCF iterations             400
      Threshold for SCF energy change            0.10E-08
      Threshold for density matrix               0.10E-03
      Threshold for Fock matrix                  0.15E-03
      Threshold for linear dependence            0.10E-08
      Threshold at which DIIS is turned on       0.15E+00
      Threshold at which QNR/C2DIIS is turned on 0.75E-01
      Threshold for Norm(delta) (QNR/C2DIIS)     0.20E-04
      DIIS extrapolation of the SCF procedure
      All orbitals punched on: UHFORB
--
 
      Input vectors read from INPORB
      Orbital file label: * UHF orbitals
 
 
++ Convergence information
                               UHF SCF        iterations: Energy and convergence statistics
 
Iter     Tot. SCF        One-elec.       Two-elec.     Energy      Max Dij or  Max Fij      DNorm      TNorm      AccCon     Time
         Energy          Energy          Energy        Change      Delta Norm                                                in Sec.
 
 The total and one-electron energies are shifted by a value of      1000. a.u.
 
   1  -345.240304977  -953.722716719   549.398360994   0.00E+00    0.58E-02*   0.14E-02*    0.81E+01   0.19E+03   None         0.
   2  -345.240324480  -953.767214705   549.442839477  -0.20E-04*   0.29E-02*   0.13E-02*    0.13E-01   0.19E+03   EDIIS        0.
   3  -345.240326539  -953.690919439   549.366542152  -0.21E-05*   0.22E-02*   0.73E-03*    0.94E-02   0.19E+03   c2DIIS       0.
   4  -345.240335615  -953.755076745   549.430690382  -0.91E-05*   0.25E-02*   0.38E-03*    0.42E-02   0.19E+03   QNRc2DIIS    0.
   5  -345.240337875  -953.747577123   549.423188501  -0.23E-05*   0.13E-01*   0.40E-03*    0.31E-02   0.19E+03   QNRc2DIIS    0.
   6  -345.240342995  -953.786068459   549.461674717  -0.51E-05*   0.16E-02*   0.21E-03*    0.15E-01   0.19E+03   QNRc2DIIS    0.
   7  -345.240343379  -953.794731552   549.470337425  -0.38E-06*   0.11E-02*   0.11E-03     0.20E-02   0.19E+03   QNRc2DIIS    0.
   8  -345.240343495  -953.796263567   549.471869325  -0.12E-06*   0.13E-03*   0.15E-04     0.14E-02   0.19E+03   QNRc2DIIS    0.
   9  -345.240343499  -953.796376077   549.471981830  -0.42E-08*   0.49E-03*   0.15E-04     0.16E-03   0.19E+03   QNRc2DIIS    0.
  10  -345.240343515  -953.796505482   549.472111219  -0.16E-07*   0.71E-03*   0.52E-04     0.60E-03   0.19E+03   QNRc2DIIS    0.
  11  -345.240343497  -953.796322030   549.471927785   0.18E-07*   0.89E-04*   0.64E-05     0.85E-03   0.19E+03   QNRc2DIIS    0.
  12  -345.240343498  -953.796324195   549.471929949  -0.25E-09    0.99E-05    0.15E-05     0.11E-03   0.19E+03   QNRc2DIIS    0.
 
       Convergence after 12 Macro Iterations
--
 
 *****************************************************************************************************************************
 *                                                                                                                           *
 *                                             SCF/KS-DFT Program, Final results                                             *
 *                                                                                                                           *
 *                                                                                                                           *
 *                                                                                                                           *
 *                                                       Final Results                                                       *
 *                                                                                                                           *
 *****************************************************************************************************************************
 
::    Total SCF energy                              -1345.2403434975
      One-electron energy                           -1953.7963241947
      Two-electron energy                             549.4719299493
      Nuclear repulsion energy                         59.0840507479
      Kinetic energy (interpolated)                  1399.6050443710
      Virial theorem                                    0.9611571128
      Total spin, S(S+1)                                7.0180476868
      Total spin, S                                     2.1959316918
      Max non-diagonal density matrix element           0.0000045108
      Max non-diagonal Fock matrix element              0.0000013669
 
 
      All orbitals with orbital energies smaller than  E(LUMO)+0.5 are printed
 
++    Molecular orbitals:
      -------------------
 
      Title: UHF orbitals (alpha)

      Molecular orbitals for symmetry species 1: a  
 
          Orbital            1         2         3         4         5         6         7         8         9        10    
          Energy         -264.4345  -33.2760  -28.3492  -28.3492  -28.3394  -21.2170   -5.2170   -3.7764   -3.7764   -3.7527
          Occ. No.          1.0000    1.0000    1.0000    1.0000    1.0000    1.0000    1.0000    1.0000    1.0000    1.0000
 
        1 O1     1s        -0.0000    0.0000   -0.0000    0.0000    0.0000    1.0000    0.0001   -0.0000    0.0000   -0.0001
        2 O1     2s        -0.0000    0.0001   -0.0000    0.0000    0.0002   -0.0004    0.0030   -0.0000    0.0000    0.0098
        3 O1     3s        -0.0000    0.0001    0.0000   -0.0000    0.0002   -0.0011    0.0013   -0.0000    0.0000    0.0013
        4 O1     2px        0.0000   -0.0000    0.0000    0.0000   -0.0000    0.0000    0.0000   -0.0007   -0.0018    0.0000
        5 O1     3px       -0.0000   -0.0000    0.0000    0.0001   -0.0000    0.0000    0.0000   -0.0006   -0.0017    0.0000
        6 O1     2py       -0.0000    0.0000   -0.0000    0.0000    0.0000   -0.0000   -0.0000    0.0018   -0.0007   -0.0000
        7 O1     3py        0.0000    0.0000   -0.0001    0.0000    0.0000   -0.0000   -0.0000    0.0017   -0.0006   -0.0000
        8 O1     2pz        0.0000   -0.0001   -0.0000    0.0000   -0.0003    0.0001   -0.0020   -0.0000    0.0000   -0.0041
        9 O1     3pz        0.0000   -0.0001   -0.0000    0.0000   -0.0003    0.0004   -0.0011    0.0000   -0.0000    0.0007
       10 O1     3d2-      -0.0000   -0.0000   -0.0000   -0.0000    0.0000    0.0000    0.0000    0.0000    0.0000    0.0000
       11 O1     3d1-       0.0000   -0.0000   -0.0000    0.0000   -0.0000    0.0000    0.0000   -0.0005    0.0002    0.0000
       12 O1     3d0        0.0000   -0.0000    0.0000   -0.0000    0.0002   -0.0013    0.0003    0.0000   -0.0000    0.0000
       13 O1     3d1+      -0.0000    0.0000    0.0000    0.0000    0.0000   -0.0000   -0.0000    0.0002    0.0005   -0.0000
       14 O1     3d2+      -0.0000   -0.0000   -0.0000    0.0000    0.0000    0.0000    0.0000    0.0000   -0.0000    0.0000
       15 FE2    1s         1.0000   -0.0000   -0.0000    0.0000    0.0000    0.0000   -0.0000    0.0000   -0.0000   -0.0000
       16 FE2    2s         0.0000    1.0000   -0.0000    0.0000   -0.0002    0.0001   -0.0034    0.0000   -0.0000   -0.0002
       17 FE2    3s        -0.0000    0.0032   -0.0000    0.0000   -0.0001    0.0002    0.9993   -0.0000    0.0000    0.0002
       18 FE2    4s         0.0000   -0.0004   -0.0000    0.0000   -0.0004    0.0005   -0.0046    0.0000   -0.0000   -0.0043
       19 FE2    5s        -0.0000    0.0004    0.0000   -0.0000    0.0002   -0.0002    0.0040   -0.0000    0.0000    0.0019
       20 FE2    2px       -0.0000   -0.0000   -0.3413   -0.9400    0.0000   -0.0000   -0.0000    0.0011    0.0029   -0.0000
       21 FE2    3px        0.0000    0.0000   -0.0011   -0.0029    0.0000   -0.0000   -0.0000   -0.3412   -0.9396    0.0000
       22 FE2    4px       -0.0000    0.0000    0.0001    0.0004   -0.0000   -0.0000   -0.0000    0.0053    0.0146   -0.0000
       23 FE2    5px        0.0000    0.0000   -0.0004   -0.0012    0.0000    0.0000    0.0000   -0.0035   -0.0096    0.0000
       24 FE2    2py        0.0000    0.0000    0.9400   -0.3413   -0.0000    0.0000    0.0000   -0.0029    0.0011    0.0000
       25 FE2    3py       -0.0000   -0.0000    0.0029   -0.0011   -0.0000    0.0000    0.0000    0.9396   -0.3412   -0.0000
       26 FE2    4py        0.0000   -0.0000   -0.0004    0.0001    0.0000    0.0000    0.0000   -0.0146    0.0053    0.0000
       27 FE2    5py       -0.0000   -0.0000    0.0012   -0.0004   -0.0000   -0.0000   -0.0000    0.0096   -0.0035   -0.0000
       28 FE2    2pz       -0.0000    0.0002    0.0000   -0.0000    1.0000    0.0000   -0.0001   -0.0000    0.0000   -0.0030
       29 FE2    3pz        0.0000    0.0000    0.0000   -0.0000    0.0029    0.0002   -0.0014    0.0000   -0.0000    0.9990
       30 FE2    4pz        0.0000   -0.0001   -0.0000    0.0000   -0.0007    0.0004   -0.0027   -0.0000    0.0000   -0.0167
       31 FE2    5pz        0.0000    0.0001    0.0000   -0.0000    0.0012   -0.0002    0.0016    0.0000   -0.0000    0.0102
       32 FE2    3d2-      -0.0000   -0.0000   -0.0000   -0.0000    0.0000   -0.0000   -0.0000   -0.0000   -0.0000    0.0000
       33 FE2    4d2-       0.0000    0.0000    0.0000    0.0000   -0.0000   -0.0000    0.0000    0.0000    0.0000   -0.0000
       34 FE2    3d1-       0.0000    0.0000    0.0000   -0.0000   -0.0000    0.0000    0.0000   -0.0013    0.0005    0.0000
       35 FE2    4d1-      -0.0000   -0.0000    0.0000   -0.0000    0.0000    0.0000    0.0000   -0.0024    0.0009    0.0000
       36 FE2    3d0        0.0000   -0.0002   -0.0000    0.0000   -0.0001    0.0002   -0.0048   -0.0000    0.0000   -0.0019
       37 FE2    4d0        0.0000    0.0001    0.0000   -0.0000   -0.0001    0.0002    0.0004    0.0000   -0.0000   -0.0025
       38 FE2    3d1+      -0.0000   -0.0000   -0.0000   -0.0000    0.0000   -0.0000   -0.0000    0.0005    0.0013   -0.0000
       39 FE2    4d1+       0.0000    0.0000   -0.0000   -0.0000   -0.0000   -0.0000   -0.0000    0.0009    0.0024   -0.0000
       40 FE2    3d2+      -0.0000   -0.0000   -0.0000    0.0000    0.0000   -0.0000   -0.0000   -0.0000    0.0000    0.0000
       41 FE2    4d2+       0.0000    0.0000    0.0000   -0.0000   -0.0000   -0.0000    0.0000    0.0000   -0.0000   -0.0000
       42 FE2    4f3-      -0.0000    0.0000   -0.0000    0.0000   -0.0000    0.0000    0.0000   -0.0000    0.0000   -0.0000
       43 FE2    4f2-       0.0000    0.0000    0.0000    0.0000   -0.0000   -0.0000    0.0000   -0.0000   -0.0000   -0.0000
       44 FE2    4f1-       0.0000   -0.0000   -0.0001    0.0000    0.0000    0.0000   -0.0000   -0.0027    0.0010    0.0000
       45 FE2    4f0        0.0000   -0.0000    0.0000   -0.0000   -0.0001    0.0001   -0.0001    0.0000   -0.0000   -0.0010
       46 FE2    4f1+      -0.0000    0.0000    0.0000    0.0001   -0.0000   -0.0000    0.0000    0.0010    0.0027   -0.0000
       47 FE2    4f2+       0.0000    0.0000    0.0000   -0.0000   -0.0000   -0.0000    0.0000   -0.0000    0.0000   -0.0000
       48 FE2    4f3+       0.0000   -0.0000    0.0000    0.0000    0.0000    0.0000   -0.0000    0.0000    0.0000    0.0000
 
          Orbital           11        12        13        14        15        16        17        18        19        20    
          Energy           -1.8046   -1.4735   -1.4735   -1.4533   -1.4533   -1.4472   -1.1356   -1.1356   -0.5835   -0.4535
          Occ. No.          1.0000    1.0000    1.0000    1.0000    1.0000    1.0000    1.0000    1.0000    0.0000    0.0000
 
        1 O1     1s        -0.0026    0.0000    0.0000   -0.0000    0.0000   -0.0112    0.0000   -0.0000   -0.0193    0.0153
        2 O1     2s         0.9588    0.0000    0.0000   -0.0000    0.0000   -0.2625    0.0000   -0.0000   -0.2541    0.1936
        3 O1     3s        -0.0168    0.0000    0.0000   -0.0000    0.0000   -0.0303   -0.0000    0.0000   -0.0402    0.0373
        4 O1     2px       -0.0000   -0.0000   -0.0000   -0.0248   -0.0682    0.0000    0.9275    0.3368   -0.0000    0.0000
        5 O1     3px        0.0000    0.0000    0.0000    0.0084    0.0231   -0.0000   -0.0460   -0.0167   -0.0000    0.0000
        6 O1     2py        0.0000   -0.0000    0.0000    0.0682   -0.0248   -0.0000    0.3368   -0.9275    0.0000   -0.0000
        7 O1     3py       -0.0000    0.0000   -0.0000   -0.0231    0.0084    0.0000   -0.0167    0.0460    0.0000   -0.0000
        8 O1     2pz       -0.1118    0.0000    0.0000    0.0000   -0.0000   -0.0086    0.0000   -0.0000   -0.2976    0.7580
        9 O1     3pz       -0.0087   -0.0000   -0.0000   -0.0000    0.0000    0.0228   -0.0000    0.0000   -0.0153    0.1353
       10 O1     3d2-       0.0000    0.0003    0.0002    0.0000    0.0000   -0.0000    0.0000    0.0000   -0.0000    0.0000
       11 O1     3d1-       0.0000   -0.0000    0.0000   -0.0019    0.0007   -0.0000   -0.0091    0.0251   -0.0000    0.0000
       12 O1     3d0       -0.0214   -0.0000   -0.0000   -0.0000    0.0000    0.0099   -0.0000    0.0000    0.0167   -0.0265
       13 O1     3d1+      -0.0000   -0.0000   -0.0000    0.0007    0.0019    0.0000   -0.0251   -0.0091    0.0000   -0.0000
       14 O1     3d2+       0.0000   -0.0002    0.0003    0.0000   -0.0000   -0.0000   -0.0000    0.0000   -0.0000    0.0000
       15 FE2    1s        -0.0008   -0.0000   -0.0000    0.0000   -0.0000    0.0004    0.0000   -0.0000   -0.0005    0.0024
       16 FE2    2s        -0.0058   -0.0000   -0.0000    0.0000   -0.0000    0.0029    0.0000   -0.0000   -0.0033    0.0177
       17 FE2    3s        -0.0376   -0.0000   -0.0000    0.0000   -0.0000    0.0196    0.0000   -0.0000   -0.0144    0.0876
       18 FE2    4s         0.0068   -0.0000   -0.0000    0.0000   -0.0000    0.0163   -0.0000    0.0000    0.8767    0.3871
       19 FE2    5s        -0.0093   -0.0000   -0.0000   -0.0000    0.0000    0.0017    0.0000   -0.0000   -0.2515    0.0058
       20 FE2    2px       -0.0000    0.0000    0.0000    0.0000    0.0000   -0.0000   -0.0007   -0.0003    0.0000   -0.0000
       21 FE2    3px       -0.0000    0.0000    0.0000   -0.0002   -0.0005   -0.0000   -0.0179   -0.0065    0.0000   -0.0000
       22 FE2    4px        0.0000   -0.0000   -0.0000    0.0002    0.0004   -0.0000    0.0317    0.0115   -0.0000    0.0000
       23 FE2    5px       -0.0000    0.0000    0.0000   -0.0022   -0.0061    0.0000   -0.0064   -0.0023   -0.0000    0.0000
       24 FE2    2py        0.0000    0.0000   -0.0000   -0.0000    0.0000    0.0000   -0.0003    0.0007   -0.0000    0.0000
       25 FE2    3py        0.0000    0.0000   -0.0000    0.0005   -0.0002    0.0000   -0.0065    0.0179   -0.0000    0.0000
       26 FE2    4py       -0.0000   -0.0000    0.0000   -0.0004    0.0002    0.0000    0.0115   -0.0317    0.0000   -0.0000
       27 FE2    5py        0.0000    0.0000   -0.0000    0.0061   -0.0022   -0.0000   -0.0023    0.0064    0.0000   -0.0000
       28 FE2    2pz       -0.0016   -0.0000   -0.0000    0.0000   -0.0000    0.0006    0.0000   -0.0000   -0.0007    0.0031
       29 FE2    3pz       -0.0498   -0.0000   -0.0000    0.0000   -0.0000    0.0151    0.0000   -0.0000   -0.0112    0.0547
       30 FE2    4pz        0.0132   -0.0000   -0.0000    0.0000   -0.0000    0.0109   -0.0000    0.0000   -0.1109   -0.5326
       31 FE2    5pz       -0.0062   -0.0000   -0.0000   -0.0000    0.0000    0.0080    0.0000   -0.0000   -0.0090   -0.0140
       32 FE2    3d2-       0.0000   -0.7633   -0.6378    0.0000    0.0000   -0.0000    0.0000    0.0000   -0.0000   -0.0000
       33 FE2    4d2-      -0.0000    0.0791    0.0661   -0.0000   -0.0000    0.0000   -0.0000   -0.0000   -0.0000   -0.0000
       34 FE2    3d1-       0.0000   -0.0000    0.0000    0.9303   -0.3378   -0.0000   -0.0457    0.1257   -0.0000    0.0000
       35 FE2    4d1-      -0.0000    0.0000   -0.0000   -0.0874    0.0317    0.0000    0.0103   -0.0285    0.0000   -0.0000
       36 FE2    3d0        0.1499   -0.0000   -0.0000    0.0000   -0.0000    0.9883    0.0000   -0.0000   -0.0163    0.0804
       37 FE2    4d0       -0.0071    0.0000    0.0000   -0.0000    0.0000   -0.0891   -0.0000    0.0000   -0.0052   -0.0046
       38 FE2    3d1+      -0.0000   -0.0000   -0.0000   -0.3378   -0.9303    0.0000   -0.1257   -0.0457    0.0000   -0.0000
       39 FE2    4d1+       0.0000    0.0000    0.0000    0.0317    0.0874   -0.0000    0.0285    0.0103   -0.0000    0.0000
       40 FE2    3d2+       0.0000    0.6378   -0.7633    0.0000   -0.0000   -0.0000   -0.0000    0.0000   -0.0000   -0.0000
       41 FE2    4d2+      -0.0000   -0.0661    0.0791   -0.0000    0.0000    0.0000    0.0000   -0.0000   -0.0000   -0.0000
       42 FE2    4f3-      -0.0000    0.0000   -0.0000    0.0000   -0.0000   -0.0000    0.0000   -0.0000   -0.0000   -0.0000
       43 FE2    4f2-      -0.0000    0.0014    0.0012   -0.0000   -0.0000    0.0000   -0.0000   -0.0000    0.0000   -0.0000
       44 FE2    4f1-      -0.0000    0.0000   -0.0000   -0.0014    0.0005    0.0000    0.0020   -0.0056    0.0000   -0.0000
       45 FE2    4f0        0.0040    0.0000    0.0000   -0.0000    0.0000   -0.0016   -0.0000    0.0000    0.0022   -0.0053
       46 FE2    4f1+       0.0000    0.0000    0.0000    0.0005    0.0014   -0.0000    0.0056    0.0020   -0.0000    0.0000
       47 FE2    4f2+      -0.0000   -0.0012    0.0014   -0.0000    0.0000    0.0000    0.0000   -0.0000    0.0000   -0.0000
       48 FE2    4f3+       0.0000    0.0000    0.0000   -0.0000   -0.0000    0.0000    0.0000    0.0000    0.0000   -0.0000
 
          Orbital           21        22        23        24    
          Energy           -0.3876   -0.3876   -0.2592   -0.2003
          Occ. No.          0.0000    0.0000    0.0000    0.0000
 
        1 O1     1s         0.0000   -0.0000   -0.0682   -0.0323
        2 O1     2s         0.0000   -0.0000   -0.5738   -0.2549
        3 O1     3s         0.0000   -0.0000   -0.1593   -0.0727
        4 O1     2px        0.0744    0.2049    0.0000    0.0000
        5 O1     3px        0.0176    0.0485    0.0000    0.0000
        6 O1     2py       -0.2049    0.0744   -0.0000   -0.0000
        7 O1     3py       -0.0485    0.0176   -0.0000   -0.0000
        8 O1     2pz        0.0000   -0.0000    0.4422    0.5853
        9 O1     3pz        0.0000   -0.0000    0.1717    0.2667
       10 O1     3d2-       0.0000    0.0000   -0.0000   -0.0000
       11 O1     3d1-      -0.0024    0.0009   -0.0000    0.0000
       12 O1     3d0       -0.0000    0.0000   -0.0141   -0.0108
       13 O1     3d1+       0.0009    0.0024    0.0000   -0.0000
       14 O1     3d2+       0.0000   -0.0000   -0.0000   -0.0000
       15 FE2    1s         0.0000   -0.0000    0.0031    0.0036
       16 FE2    2s         0.0000   -0.0000    0.0222    0.0264
       17 FE2    3s         0.0000   -0.0000    0.1145    0.1318
       18 FE2    4s         0.0000   -0.0000    0.6901    0.2129
       19 FE2    5s         0.0000   -0.0000    0.3528   -0.9752
       20 FE2    2px       -0.0003   -0.0007   -0.0000   -0.0000
       21 FE2    3px       -0.0074   -0.0205   -0.0000   -0.0000
       22 FE2    4px       -0.3548   -0.9770   -0.0000   -0.0000
       23 FE2    5px       -0.0234   -0.0643   -0.0000   -0.0000
       24 FE2    2py        0.0007   -0.0003    0.0000    0.0000
       25 FE2    3py        0.0205   -0.0074    0.0000    0.0000
       26 FE2    4py        0.9770   -0.3548    0.0000    0.0000
       27 FE2    5py        0.0643   -0.0234    0.0000    0.0000
       28 FE2    2pz        0.0000   -0.0000    0.0048    0.0048
       29 FE2    3pz        0.0000   -0.0000    0.0991    0.0929
       30 FE2    4pz       -0.0000    0.0000    0.9776    0.5115
       31 FE2    5pz       -0.0000    0.0000    0.0949    0.0707
       32 FE2    3d2-       0.0000    0.0000   -0.0000   -0.0000
       33 FE2    4d2-      -0.0000   -0.0000   -0.0000   -0.0000
       34 FE2    3d1-       0.0245   -0.0089    0.0000    0.0000
       35 FE2    4d1-      -0.0328    0.0119   -0.0000   -0.0000
       36 FE2    3d0        0.0000   -0.0000    0.1084    0.0896
       37 FE2    4d0        0.0000   -0.0000   -0.0997   -0.0614
       38 FE2    3d1+      -0.0089   -0.0245   -0.0000   -0.0000
       39 FE2    4d1+       0.0119    0.0328    0.0000    0.0000
       40 FE2    3d2+       0.0000   -0.0000   -0.0000   -0.0000
       41 FE2    4d2+      -0.0000    0.0000   -0.0000   -0.0000
       42 FE2    4f3-      -0.0000    0.0000   -0.0000   -0.0000
       43 FE2    4f2-      -0.0000   -0.0000   -0.0000   -0.0000
       44 FE2    4f1-      -0.0019    0.0007   -0.0000   -0.0000
       45 FE2    4f0       -0.0000    0.0000   -0.0072   -0.0049
       46 FE2    4f1+       0.0007    0.0019    0.0000    0.0000
       47 FE2    4f2+      -0.0000    0.0000   -0.0000   -0.0000
       48 FE2    4f3+       0.0000    0.0000    0.0000    0.0000
--
 
 
  Input file to MOLDEN was generated!
 
 
++    Static properties:
      ------------------
 
 
      LoProp Charges per center
 

                   O1       FE2   
      Nuclear      8.0000  26.0000
      Electronic  -8.0992 -23.9008
 
      Total       -0.0992   2.0992
--
 
 
      All orbitals with orbital energies smaller than  E(LUMO)+0.5 are printed
 
++    Molecular orbitals:
      -------------------
 
      Title: UHF orbitals (beta)

      Molecular orbitals for symmetry species 1: a  
 
          Orbital            1         2         3         4         5         6         7         8         9        10    
          Energy         -264.4316  -33.1290  -28.1993  -28.1988  -28.1988  -21.2080   -4.8220   -3.3042   -3.2851   -3.2851
          Occ. No.          1.0000    1.0000    1.0000    1.0000    1.0000    1.0000    1.0000    1.0000    1.0000    1.0000
 
        1 O1     1s        -0.0000   -0.0000    0.0000    0.0000   -0.0000    1.0000   -0.0004   -0.0010    0.0000   -0.0000
        2 O1     2s        -0.0000   -0.0002   -0.0001    0.0000   -0.0000    0.0001    0.0017    0.0185   -0.0000    0.0000
        3 O1     3s         0.0000   -0.0001   -0.0001    0.0000   -0.0000   -0.0001   -0.0003    0.0005    0.0000   -0.0000
        4 O1     2px       -0.0000    0.0000   -0.0000   -0.0000   -0.0001    0.0000   -0.0000   -0.0000    0.0060    0.0022
        5 O1     3px       -0.0000    0.0000   -0.0000   -0.0000   -0.0001   -0.0000   -0.0000   -0.0000    0.0003    0.0001
        6 O1     2py        0.0000   -0.0000    0.0000    0.0001   -0.0000   -0.0000    0.0000    0.0000    0.0022   -0.0060
        7 O1     3py        0.0000   -0.0000    0.0000    0.0001   -0.0000    0.0000    0.0000    0.0000    0.0001   -0.0003
        8 O1     2pz        0.0000    0.0001    0.0002   -0.0000    0.0000   -0.0004   -0.0022   -0.0145    0.0000   -0.0000
        9 O1     3pz       -0.0000    0.0001    0.0003   -0.0000    0.0000   -0.0003    0.0001    0.0016   -0.0000    0.0000
       10 O1     3d2-      -0.0000   -0.0000   -0.0000    0.0000    0.0000   -0.0000    0.0000   -0.0000    0.0000    0.0000
       11 O1     3d1-      -0.0000    0.0000   -0.0000    0.0000   -0.0000   -0.0000    0.0000   -0.0000   -0.0005    0.0013
       12 O1     3d0        0.0000   -0.0000   -0.0001    0.0000   -0.0000    0.0009    0.0007    0.0029   -0.0000    0.0000
       13 O1     3d1+       0.0000   -0.0000    0.0000   -0.0000   -0.0000    0.0000   -0.0000    0.0000   -0.0013   -0.0005
       14 O1     3d2+      -0.0000   -0.0000   -0.0000    0.0000   -0.0000   -0.0000    0.0000   -0.0000   -0.0000    0.0000
       15 FE2    1s         1.0000    0.0000   -0.0000   -0.0000    0.0000   -0.0000   -0.0000   -0.0000    0.0000   -0.0000
       16 FE2    2s        -0.0000    1.0000   -0.0002   -0.0000    0.0000   -0.0001    0.0008   -0.0001    0.0000   -0.0000
       17 FE2    3s        -0.0000   -0.0008   -0.0001    0.0000   -0.0000   -0.0002    0.9997    0.0062   -0.0000    0.0000
       18 FE2    4s         0.0000    0.0003    0.0003   -0.0000    0.0000   -0.0005    0.0019    0.0018    0.0000   -0.0000
       19 FE2    5s        -0.0000   -0.0003   -0.0002    0.0000   -0.0000    0.0002   -0.0005   -0.0008   -0.0000    0.0000
       20 FE2    2px       -0.0000   -0.0000   -0.0000   -0.3412   -0.9400    0.0000    0.0000   -0.0000    0.0026    0.0010
       21 FE2    3px        0.0000   -0.0000    0.0000    0.0010    0.0026    0.0000   -0.0000   -0.0000    0.9397    0.3412
       22 FE2    4px        0.0000    0.0000   -0.0000   -0.0001   -0.0003    0.0000    0.0000    0.0000   -0.0036   -0.0013
       23 FE2    5px        0.0000   -0.0000    0.0000    0.0004    0.0010    0.0000    0.0000   -0.0000   -0.0015   -0.0006
       24 FE2    2py        0.0000    0.0000    0.0000    0.9400   -0.3412   -0.0000   -0.0000    0.0000    0.0010   -0.0026
       25 FE2    3py       -0.0000    0.0000   -0.0000   -0.0026    0.0010   -0.0000    0.0000    0.0000    0.3412   -0.9397
       26 FE2    4py       -0.0000   -0.0000    0.0000    0.0003   -0.0001   -0.0000   -0.0000   -0.0000   -0.0013    0.0036
       27 FE2    5py       -0.0000    0.0000   -0.0000   -0.0010    0.0004   -0.0000   -0.0000    0.0000   -0.0006    0.0015
       28 FE2    2pz        0.0000    0.0002    1.0000   -0.0000    0.0000   -0.0000    0.0002    0.0025   -0.0000    0.0000
       29 FE2    3pz        0.0000   -0.0001   -0.0025    0.0000   -0.0000   -0.0002   -0.0083    0.9975   -0.0000    0.0000
       30 FE2    4pz        0.0000    0.0002    0.0005   -0.0000    0.0000   -0.0003    0.0009   -0.0002   -0.0000    0.0000
       31 FE2    5pz        0.0000   -0.0000   -0.0011    0.0000   -0.0000    0.0001    0.0004   -0.0030    0.0000   -0.0000
       32 FE2    3d2-       0.0000    0.0000   -0.0000   -0.0000   -0.0000    0.0000    0.0000   -0.0000    0.0000    0.0000
       33 FE2    4d2-       0.0000    0.0000    0.0000    0.0000    0.0000    0.0000    0.0000    0.0000    0.0000    0.0000
       34 FE2    3d1-      -0.0000    0.0000    0.0000   -0.0000    0.0000   -0.0000    0.0000    0.0000   -0.0026    0.0071
       35 FE2    4d1-      -0.0000   -0.0000   -0.0000   -0.0000    0.0000   -0.0000   -0.0000   -0.0000    0.0007   -0.0020
       36 FE2    3d0        0.0000    0.0001    0.0001   -0.0000    0.0000   -0.0001   -0.0004   -0.0041    0.0000   -0.0000
       37 FE2    4d0        0.0000    0.0001    0.0000   -0.0000    0.0000   -0.0002    0.0014    0.0015   -0.0000    0.0000
       38 FE2    3d1+       0.0000   -0.0000   -0.0000    0.0000    0.0000    0.0000   -0.0000   -0.0000   -0.0071   -0.0026
       39 FE2    4d1+       0.0000    0.0000    0.0000    0.0000    0.0000    0.0000    0.0000    0.0000    0.0020    0.0007
       40 FE2    3d2+       0.0000    0.0000   -0.0000   -0.0000    0.0000    0.0000    0.0000   -0.0000   -0.0000    0.0000
       41 FE2    4d2+       0.0000    0.0000    0.0000    0.0000   -0.0000    0.0000    0.0000    0.0000   -0.0000    0.0000
       42 FE2    4f3-       0.0000   -0.0000    0.0000   -0.0000    0.0000    0.0000   -0.0000    0.0000   -0.0000    0.0000
       43 FE2    4f2-       0.0000   -0.0000    0.0000   -0.0000   -0.0000    0.0000   -0.0000    0.0000    0.0000    0.0000
       44 FE2    4f1-      -0.0000    0.0000   -0.0000    0.0002   -0.0001   -0.0000    0.0000   -0.0000    0.0013   -0.0037
       45 FE2    4f0       -0.0000    0.0000   -0.0003   -0.0000    0.0000   -0.0001    0.0004   -0.0061   -0.0000    0.0000
       46 FE2    4f1+       0.0000   -0.0000    0.0000   -0.0001   -0.0002    0.0000   -0.0000    0.0000    0.0037    0.0013
       47 FE2    4f2+       0.0000   -0.0000    0.0000   -0.0000    0.0000    0.0000   -0.0000    0.0000   -0.0000    0.0000
       48 FE2    4f3+       0.0000    0.0000   -0.0000    0.0000    0.0000   -0.0000    0.0000   -0.0000   -0.0000   -0.0000
 
          Orbital           11        12        13        14        15        16        17        18        19        20    
          Energy           -1.7980   -1.2199   -0.9541   -0.9541   -0.5568   -0.5568   -0.5312   -0.4622   -0.4622   -0.4380
          Occ. No.          1.0000    1.0000    1.0000    1.0000    0.0000    0.0000    0.0000    0.0000    0.0000    0.0000
 
        1 O1     1s        -0.0030   -0.0118    0.0000   -0.0000   -0.0000    0.0000    0.0120   -0.0000    0.0000    0.0019
        2 O1     2s         0.9678   -0.1885    0.0000   -0.0000   -0.0000    0.0000    0.1477   -0.0000    0.0000   -0.0166
        3 O1     3s        -0.0043    0.0047    0.0000   -0.0000   -0.0000    0.0000    0.0255   -0.0000    0.0000    0.0088
        4 O1     2px        0.0000   -0.0000   -0.2412   -0.6643   -0.6003   -0.2180    0.0000    0.0000   -0.0000    0.0000
        5 O1     3px       -0.0000    0.0000   -0.0064   -0.0176   -0.0833   -0.0302    0.0000    0.0000   -0.0000   -0.0000
        6 O1     2py       -0.0000    0.0000    0.6643   -0.2412   -0.2180    0.6003   -0.0000   -0.0000   -0.0000   -0.0000
        7 O1     3py        0.0000   -0.0000    0.0176   -0.0064   -0.0302    0.0833   -0.0000   -0.0000   -0.0000    0.0000
        8 O1     2pz       -0.0678   -0.9215    0.0000   -0.0000   -0.0000    0.0000   -0.1507    0.0000   -0.0000    0.1618
        9 O1     3pz       -0.0323    0.0509    0.0000   -0.0000   -0.0000    0.0000   -0.0205    0.0000   -0.0000    0.0138
       10 O1     3d2-      -0.0000    0.0000    0.0000    0.0000    0.0000    0.0000   -0.0000    0.0039   -0.0049   -0.0000
       11 O1     3d1-      -0.0000    0.0000   -0.0292    0.0106   -0.0002    0.0007   -0.0000   -0.0000   -0.0000   -0.0000
       12 O1     3d0        0.0478    0.0186   -0.0000    0.0000   -0.0000    0.0000    0.0067    0.0000   -0.0000    0.0137
       13 O1     3d1+       0.0000   -0.0000    0.0106    0.0292   -0.0007   -0.0002    0.0000    0.0000   -0.0000    0.0000
       14 O1     3d2+      -0.0000    0.0000    0.0000   -0.0000   -0.0000    0.0000   -0.0000    0.0049    0.0039   -0.0000
       15 FE2    1s        -0.0010   -0.0015    0.0000   -0.0000   -0.0000    0.0000   -0.0006    0.0000   -0.0000    0.0004
       16 FE2    2s        -0.0078   -0.0111    0.0000   -0.0000   -0.0000    0.0000   -0.0045    0.0000   -0.0000    0.0029
       17 FE2    3s        -0.0508   -0.0643    0.0000   -0.0000   -0.0000    0.0000   -0.0241    0.0000   -0.0000    0.0160
       18 FE2    4s         0.0140    0.1006   -0.0000    0.0000    0.0000   -0.0000   -0.9691    0.0000   -0.0000    0.1252
       19 FE2    5s        -0.0119   -0.0419    0.0000   -0.0000   -0.0000    0.0000    0.1854   -0.0000    0.0000   -0.0137
       20 FE2    2px        0.0000    0.0000    0.0003    0.0009    0.0010    0.0004   -0.0000   -0.0000    0.0000   -0.0000
       21 FE2    3px        0.0000    0.0000    0.0065    0.0178    0.0271    0.0098   -0.0000   -0.0000    0.0000   -0.0000
       22 FE2    4px        0.0000   -0.0000   -0.0350   -0.0965   -0.1063   -0.0386    0.0000    0.0000   -0.0000    0.0000
       23 FE2    5px        0.0000    0.0000    0.0017    0.0048   -0.0052   -0.0019    0.0000    0.0000   -0.0000    0.0000
       24 FE2    2py       -0.0000   -0.0000   -0.0009    0.0003    0.0004   -0.0010    0.0000    0.0000    0.0000    0.0000
       25 FE2    3py       -0.0000   -0.0000   -0.0178    0.0065    0.0098   -0.0271    0.0000    0.0000    0.0000    0.0000
       26 FE2    4py       -0.0000    0.0000    0.0965   -0.0350   -0.0386    0.1063   -0.0000   -0.0000   -0.0000   -0.0000
       27 FE2    5py       -0.0000   -0.0000   -0.0048    0.0017   -0.0019    0.0052   -0.0000   -0.0000   -0.0000   -0.0000
       28 FE2    2pz       -0.0024   -0.0032    0.0000   -0.0000   -0.0000    0.0000   -0.0011    0.0000   -0.0000    0.0008
       29 FE2    3pz       -0.0740   -0.0745    0.0000   -0.0000   -0.0000    0.0000   -0.0208    0.0000   -0.0000    0.0175
       30 FE2    4pz        0.0270    0.0882   -0.0000    0.0000    0.0000   -0.0000    0.1925   -0.0000    0.0000   -0.4941
       31 FE2    5pz       -0.0068   -0.0096    0.0000   -0.0000   -0.0000    0.0000    0.0108   -0.0000    0.0000   -0.0396
       32 FE2    3d2-       0.0000    0.0000   -0.0000   -0.0000    0.0000    0.0000    0.0000    0.6173   -0.7632   -0.0000
       33 FE2    4d2-      -0.0000    0.0000   -0.0000   -0.0000    0.0000    0.0000    0.0000    0.1190   -0.1471   -0.0000
       34 FE2    3d1-      -0.0000    0.0000    0.5452   -0.1979    0.2788   -0.7678    0.0000    0.0000    0.0000    0.0000
       35 FE2    4d1-      -0.0000    0.0000    0.0848   -0.0308    0.0319   -0.0879    0.0000    0.0000    0.0000    0.0000
       36 FE2    3d0        0.0559    0.1571   -0.0000    0.0000   -0.0000    0.0000    0.2449    0.0000   -0.0000    0.8370
       37 FE2    4d0        0.0150    0.0406   -0.0000    0.0000   -0.0000    0.0000    0.0518    0.0000   -0.0000    0.1572
       38 FE2    3d1+       0.0000   -0.0000   -0.1979   -0.5452    0.7678    0.2788   -0.0000   -0.0000    0.0000   -0.0000
       39 FE2    4d1+       0.0000   -0.0000   -0.0308   -0.0848    0.0879    0.0319   -0.0000   -0.0000    0.0000   -0.0000
       40 FE2    3d2+       0.0000    0.0000   -0.0000    0.0000   -0.0000    0.0000    0.0000    0.7632    0.6173   -0.0000
       41 FE2    4d2+      -0.0000    0.0000   -0.0000    0.0000   -0.0000    0.0000    0.0000    0.1471    0.1190   -0.0000
       42 FE2    4f3-       0.0000    0.0000    0.0000   -0.0000   -0.0000    0.0000   -0.0000    0.0000    0.0000   -0.0000
       43 FE2    4f2-       0.0000    0.0000   -0.0000   -0.0000    0.0000    0.0000   -0.0000   -0.0011    0.0013    0.0000
       44 FE2    4f1-      -0.0000    0.0000    0.0089   -0.0032   -0.0026    0.0070   -0.0000   -0.0000   -0.0000    0.0000
       45 FE2    4f0        0.0045    0.0083   -0.0000    0.0000    0.0000   -0.0000    0.0020   -0.0000    0.0000   -0.0032
       46 FE2    4f1+       0.0000   -0.0000   -0.0032   -0.0089   -0.0070   -0.0026    0.0000    0.0000   -0.0000   -0.0000
       47 FE2    4f2+       0.0000    0.0000   -0.0000    0.0000   -0.0000    0.0000   -0.0000   -0.0013   -0.0011    0.0000
       48 FE2    4f3+      -0.0000   -0.0000   -0.0000   -0.0000   -0.0000   -0.0000    0.0000   -0.0000    0.0000    0.0000
 
          Orbital           21        22        23        24    
          Energy           -0.3576   -0.3576   -0.2342   -0.1967
          Occ. No.          0.0000    0.0000    0.0000    0.0000
 
        1 O1     1s        -0.0000    0.0000   -0.0740   -0.0523
        2 O1     2s        -0.0000    0.0000   -0.6544   -0.4747
        3 O1     3s        -0.0000    0.0000   -0.1676   -0.1167
        4 O1     2px        0.1335    0.3678   -0.0000   -0.0000
        5 O1     3px        0.0328    0.0902   -0.0000   -0.0000
        6 O1     2py       -0.3678    0.1335    0.0000    0.0000
        7 O1     3py       -0.0902    0.0328    0.0000    0.0000
        8 O1     2pz       -0.0000    0.0000    0.2989    0.4803
        9 O1     3pz       -0.0000    0.0000    0.1206    0.1907
       10 O1     3d2-      -0.0000   -0.0000    0.0000    0.0000
       11 O1     3d1-      -0.0056    0.0020    0.0000    0.0000
       12 O1     3d0        0.0000   -0.0000   -0.0150   -0.0036
       13 O1     3d1+       0.0020    0.0056   -0.0000   -0.0000
       14 O1     3d2+      -0.0000    0.0000    0.0000    0.0000
       15 FE2    1s        -0.0000    0.0000    0.0025    0.0031
       16 FE2    2s        -0.0000    0.0000    0.0179    0.0221
       17 FE2    3s        -0.0000    0.0000    0.0936    0.1129
       18 FE2    4s        -0.0000    0.0000    0.6233    0.3038
       19 FE2    5s        -0.0000    0.0000    0.4990   -0.9066
       20 FE2    2px       -0.0001   -0.0004    0.0000    0.0000
       21 FE2    3px       -0.0069   -0.0190    0.0000    0.0000
       22 FE2    4px       -0.3551   -0.9779    0.0000    0.0000
       23 FE2    5px       -0.0314   -0.0864    0.0000    0.0000
       24 FE2    2py        0.0004   -0.0001   -0.0000   -0.0000
       25 FE2    3py        0.0190   -0.0069   -0.0000   -0.0000
       26 FE2    4py        0.9779   -0.3551   -0.0000   -0.0000
       27 FE2    5py        0.0864   -0.0314   -0.0000   -0.0000
       28 FE2    2pz       -0.0000    0.0000    0.0037    0.0043
       29 FE2    3pz       -0.0000    0.0000    0.0821    0.0890
       30 FE2    4pz        0.0000   -0.0000    0.9098    0.6921
       31 FE2    5pz        0.0000   -0.0000    0.0932    0.0813
       32 FE2    3d2-       0.0000    0.0000   -0.0000   -0.0000
       33 FE2    4d2-       0.0000    0.0000   -0.0000   -0.0000
       34 FE2    3d1-       0.0900   -0.0327    0.0000    0.0000
       35 FE2    4d1-      -0.0155    0.0056    0.0000    0.0000
       36 FE2    3d0        0.0000   -0.0000    0.4170    0.3359
       37 FE2    4d0        0.0000   -0.0000    0.0285    0.0190
       38 FE2    3d1+      -0.0327   -0.0900   -0.0000   -0.0000
       39 FE2    4d1+       0.0056    0.0155   -0.0000   -0.0000
       40 FE2    3d2+       0.0000   -0.0000   -0.0000   -0.0000
       41 FE2    4d2+       0.0000   -0.0000   -0.0000   -0.0000
       42 FE2    4f3-      -0.0000    0.0000    0.0000    0.0000
       43 FE2    4f2-       0.0000    0.0000    0.0000    0.0000
       44 FE2    4f1-      -0.0021    0.0007    0.0000    0.0000
       45 FE2    4f0        0.0000   -0.0000   -0.0080   -0.0072
       46 FE2    4f1+       0.0007    0.0021   -0.0000   -0.0000
       47 FE2    4f2+       0.0000   -0.0000    0.0000    0.0000
       48 FE2    4f3+       0.0000    0.0000   -0.0000   -0.0000
--
 
 
++    Molecular charges:
      ------------------
 
      Mulliken charges per centre and basis function type
      ---------------------------------------------------
 
                            O1                      FE2   
                     alpha        beta       alpha        beta
      1s           1.0000      1.0000      1.0000      1.0000
      2s           0.9804      0.9772      1.0000      1.0000
      2px          0.9856      0.5661      1.0000      1.0000
      2pz          0.0153      0.9023      1.0000      1.0000
      2py          0.9856      0.5661      1.0000      1.0000
      3s          -0.0006      0.0003      0.9993      1.0001
      3px          0.0007      0.0030      0.9995      0.9997
      3pz          0.0005      0.0018      0.9989      0.9996
      3py          0.0007      0.0030      0.9995      0.9997
      4s           0.0000      0.0000      0.0008      0.0234
      3d2+        -0.0000      0.0000      0.9894      0.0000
      3d1+         0.0008      0.0038      0.9901      0.3759
      3d0          0.0013      0.0032      0.9858      0.0460
      3d1-         0.0008      0.0038      0.9901      0.3759
      3d2-        -0.0000      0.0000      0.9894      0.0000
      4px          0.0000      0.0000      0.0074      0.0263
      4pz          0.0000      0.0000      0.0046      0.0263
      4py          0.0000      0.0000      0.0074      0.0263
      5s           0.0000      0.0000      0.0003      0.0094
      4d2+         0.0000      0.0000      0.0106      0.0000
      4d1+         0.0000      0.0000      0.0156      0.0249
      4d0          0.0000      0.0000      0.0136      0.0084
      4d1-         0.0000      0.0000      0.0156      0.0249
      4d2-         0.0000      0.0000      0.0106      0.0000
      5px          0.0000      0.0000     -0.0002     -0.0002
      5pz          0.0000      0.0000     -0.0007      0.0010
      5py          0.0000      0.0000     -0.0002     -0.0002
      4f3+         0.0000      0.0000      0.0000      0.0000
      4f2+         0.0000      0.0000      0.0000      0.0000
      4f1+         0.0000      0.0000      0.0005      0.0006
      4f0          0.0000      0.0000      0.0004      0.0009
      4f1-         0.0000      0.0000      0.0005      0.0006
      4f2-         0.0000      0.0000      0.0000      0.0000
      4f3-         0.0000      0.0000      0.0000      0.0000
      Total        3.9711      4.0306     14.0289      9.9694
      Total              8.0017                 23.9983
 
      Charge           -0.0017                  2.0017
 
      Total electronic charge=   32.000000
 
      Total            charge=    2.000000
--
 
 
  Input file to MOLDEN was generated!
 
 
++    Static properties:
      ------------------
 
 
      LoProp Charges per center
 

                   O1       FE2   
      Nuclear      8.0000  26.0000
      Electronic  -8.0992 -23.9008
 
      Total       -0.0992   2.0992
--
 
 
++    Natural Bond Order analysis
      ---------------------------
      Based on LoProp computed density
      -------------------------------------------------------------------------------------
      Atom A       Atom B       Bond Order
        O1           FE2            1.981
      -------------------------------------------------------------------------------------
      NBO located     19.999 core electrons.
      NBO located      1.957 lone pair electrons.
      NBO located      3.962 electrons involved in    1 bonds.
      NBO located      0.921 non-bonded electrons on atom O1        
      NBO located      1.000 non-bonded electrons on atom FE2       
      NBO located      1.000 non-bonded electrons on atom FE2       
      The remaining    3.162 electrons are to be considered as diffuse
--
 
 
++    Molecular orbitals:
      -------------------
 
      Title: Natural orbitals

      Molecular orbitals for symmetry species 1: a  
 
          Orbital            1         2         3         4         5         6         7         8         9        10    
          Energy         -264.4331  -32.7199  -21.1571  -27.8281  -27.8273  -27.7245   -5.6974   -3.9722   -3.9730   -3.8932
          Occ. No.          2.0000    2.0000    2.0000    2.0000    2.0000    2.0000    2.0000    1.9999    1.9999    1.9999
 
        1 O1     1s        -0.0001   -0.0217   -0.9768    0.0000    0.0000   -0.1722   -0.1203   -0.0000   -0.0000   -0.0285
        2 O1     2s         0.0000    0.0011    0.0289   -0.0000   -0.0000   -0.0013   -0.0255   -0.0000   -0.0000   -0.0978
        3 O1     3s        -0.0000   -0.0001    0.0002   -0.0000   -0.0000    0.0002    0.0007    0.0000    0.0000    0.0020
        4 O1     2px        0.0000    0.0000   -0.0000   -0.0005    0.0013    0.0000   -0.0000    0.0076   -0.0209   -0.0000
        5 O1     3px       -0.0000   -0.0000    0.0000    0.0001   -0.0002   -0.0000    0.0000   -0.0005    0.0015    0.0000
        6 O1     2py       -0.0000   -0.0000   -0.0000    0.0013    0.0005    0.0000    0.0000   -0.0209   -0.0076    0.0000
        7 O1     3py        0.0000    0.0000   -0.0000   -0.0002   -0.0001   -0.0000   -0.0000    0.0015    0.0005   -0.0000
        8 O1     2pz        0.0000   -0.0000   -0.0029    0.0000    0.0000    0.0001    0.0025    0.0000    0.0000    0.0108
        9 O1     3pz       -0.0000    0.0000   -0.0006    0.0000   -0.0000    0.0002   -0.0000    0.0000    0.0000    0.0031
       10 O1     3d2-      -0.0000   -0.0000    0.0000   -0.0000    0.0000    0.0000    0.0000   -0.0000    0.0000    0.0000
       11 O1     3d1-      -0.0000    0.0000   -0.0000    0.0000    0.0000   -0.0000   -0.0000    0.0000    0.0000   -0.0000
       12 O1     3d0        0.0000   -0.0000    0.0005   -0.0000   -0.0000    0.0001    0.0001   -0.0000   -0.0000   -0.0006
       13 O1     3d1+       0.0000   -0.0000   -0.0000   -0.0000    0.0000    0.0000    0.0000   -0.0000    0.0000    0.0000
       14 O1     3d2+      -0.0000   -0.0000    0.0000   -0.0000   -0.0000    0.0000    0.0000   -0.0000   -0.0000    0.0000
       15 FE2    1s         1.0000   -0.0000   -0.0001    0.0000    0.0000    0.0000   -0.0001    0.0000    0.0000    0.0001
       16 FE2    2s         0.0000    0.9914   -0.0345    0.0000    0.0000   -0.0179    0.1255    0.0000    0.0000    0.0030
       17 FE2    3s         0.0001   -0.1286   -0.1194    0.0000    0.0000   -0.0042    0.9831    0.0000    0.0000    0.0637
       18 FE2    4s         0.0000    0.0002    0.0006   -0.0000   -0.0000   -0.0002   -0.0016   -0.0000   -0.0000   -0.0036
       19 FE2    5s        -0.0000   -0.0002   -0.0006    0.0000    0.0000    0.0001    0.0021    0.0000    0.0000    0.0024
       20 FE2    2px        0.0000    0.0000   -0.0000   -0.3382    0.9315    0.0000    0.0000   -0.0458    0.1261    0.0000
       21 FE2    3px       -0.0000   -0.0000    0.0000    0.0457   -0.1261   -0.0000    0.0000   -0.3380    0.9310    0.0000
       22 FE2    4px        0.0000    0.0000   -0.0000   -0.0005    0.0014    0.0000   -0.0000    0.0041   -0.0114   -0.0000
       23 FE2    5px        0.0000   -0.0000    0.0000    0.0002   -0.0005   -0.0000    0.0000   -0.0015    0.0041    0.0000
       24 FE2    2py       -0.0000   -0.0000    0.0000    0.9315    0.3382    0.0000   -0.0000    0.1260    0.0458   -0.0000
       25 FE2    3py        0.0000    0.0000   -0.0000   -0.1260   -0.0458   -0.0000   -0.0000    0.9310    0.3380   -0.0000
       26 FE2    4py       -0.0000   -0.0000    0.0000    0.0014    0.0005    0.0000    0.0000   -0.0114   -0.0041    0.0000
       27 FE2    5py       -0.0000    0.0000   -0.0000   -0.0005   -0.0002   -0.0000   -0.0000    0.0041    0.0015   -0.0000
       28 FE2    2pz        0.0000   -0.0130    0.1684    0.0000    0.0000   -0.9780    0.0067    0.0000    0.0000    0.1224
       29 FE2    3pz       -0.0000    0.0065   -0.0402   -0.0000   -0.0000    0.1165   -0.0653    0.0000    0.0000    0.9897
       30 FE2    4pz        0.0000    0.0001    0.0011   -0.0000    0.0000   -0.0011   -0.0010   -0.0000   -0.0000   -0.0117
       31 FE2    5pz        0.0000   -0.0001   -0.0004    0.0000   -0.0000    0.0004    0.0010    0.0000    0.0000    0.0045
       32 FE2    3d2-       0.0000   -0.0000    0.0000    0.0000   -0.0000   -0.0000    0.0000    0.0000   -0.0000   -0.0000
       33 FE2    4d2-       0.0000   -0.0000   -0.0000    0.0000   -0.0000    0.0000    0.0000   -0.0000    0.0000    0.0000
       34 FE2    3d1-      -0.0000   -0.0000   -0.0000    0.0027    0.0010    0.0000    0.0000   -0.0297   -0.0108    0.0000
       35 FE2    4d1-      -0.0000    0.0000    0.0000    0.0001    0.0000    0.0000    0.0000   -0.0008   -0.0003    0.0000
       36 FE2    3d0        0.0000    0.0002    0.0023   -0.0000   -0.0000   -0.0010   -0.0027   -0.0000   -0.0000   -0.0153
       37 FE2    4d0        0.0000   -0.0000    0.0002   -0.0000    0.0000   -0.0001    0.0005   -0.0000   -0.0000   -0.0015
       38 FE2    3d1+       0.0000    0.0000   -0.0000   -0.0010    0.0027    0.0000   -0.0000    0.0108   -0.0297   -0.0000
       39 FE2    4d1+       0.0000   -0.0000   -0.0000   -0.0000    0.0001    0.0000   -0.0000    0.0003   -0.0008   -0.0000
       40 FE2    3d2+       0.0000   -0.0000    0.0000    0.0000    0.0000   -0.0000    0.0000    0.0000    0.0000   -0.0000
       41 FE2    4d2+       0.0000   -0.0000   -0.0000    0.0000    0.0000    0.0000    0.0000   -0.0000   -0.0000    0.0000
       42 FE2    4f3-      -0.0000   -0.0000    0.0000    0.0000    0.0000    0.0000    0.0000   -0.0000   -0.0000    0.0000
       43 FE2    4f2-       0.0000    0.0000   -0.0000    0.0000   -0.0000    0.0000   -0.0000   -0.0000    0.0000    0.0000
       44 FE2    4f1-      -0.0000   -0.0000   -0.0000    0.0000    0.0000    0.0000    0.0000    0.0003    0.0001   -0.0000
       45 FE2    4f0        0.0000   -0.0000    0.0002    0.0000    0.0000   -0.0003    0.0003   -0.0000   -0.0000   -0.0041
       46 FE2    4f1+       0.0000    0.0000   -0.0000   -0.0000    0.0000    0.0000   -0.0000   -0.0001    0.0003    0.0000
       47 FE2    4f2+       0.0000    0.0000   -0.0000    0.0000    0.0000    0.0000   -0.0000   -0.0000   -0.0000    0.0000
       48 FE2    4f3+       0.0000    0.0000   -0.0000   -0.0000    0.0000   -0.0000   -0.0000    0.0000   -0.0000   -0.0000
 
          Orbital           11        12        13        14        15        16        17        18        19        20    
          Energy           -1.8339   -1.1108   -1.1108   -0.9841   -0.9276   -0.9276   -0.9118   -0.9118   -0.7427    0.1305
          Occ. No.          1.9967    1.9808    1.9808    1.2557    1.0000    1.0000    1.0000    1.0000    0.7443    0.0192
 
        1 O1     1s         0.0203    0.0000    0.0000   -0.0147   -0.0000    0.0000    0.0000    0.0000   -0.0002    0.0000
        2 O1     2s         0.9646    0.0000    0.0000   -0.2521   -0.0000    0.0000    0.0000    0.0000   -0.0351    0.0000
        3 O1     3s        -0.0089    0.0000    0.0000   -0.0169   -0.0000    0.0000    0.0000    0.0000    0.0298    0.0000
        4 O1     2px        0.0000   -0.2531    0.6971   -0.0000   -0.0000    0.0000    0.2121   -0.5840   -0.0000   -0.3042
        5 O1     3px       -0.0000    0.0058   -0.0159    0.0000    0.0000    0.0000   -0.0053    0.0146    0.0000    0.3411
        6 O1     2py       -0.0000    0.6971    0.2531    0.0000    0.0000    0.0000   -0.5839   -0.2121    0.0000   -0.1105
        7 O1     3py        0.0000   -0.0159   -0.0058   -0.0000   -0.0000   -0.0000    0.0146    0.0053   -0.0000    0.1239
        8 O1     2pz       -0.1044    0.0000    0.0000   -0.5913   -0.0000    0.0000   -0.0000   -0.0000   -0.7381   -0.0000
        9 O1     3pz       -0.0204   -0.0000   -0.0000    0.0466    0.0000   -0.0000    0.0000    0.0000    0.0246    0.0000
       10 O1     3d2-      -0.0000    0.0000   -0.0000    0.0000    0.0003   -0.0002    0.0000   -0.0000    0.0000   -0.0000
       11 O1     3d1-       0.0000   -0.0246   -0.0089   -0.0000   -0.0000   -0.0000    0.0158    0.0057   -0.0000   -0.0178
       12 O1     3d0        0.0131   -0.0000   -0.0000    0.0158    0.0000   -0.0000    0.0000    0.0000    0.0074    0.0000
       13 O1     3d1+      -0.0000    0.0089   -0.0246    0.0000    0.0000    0.0000   -0.0057    0.0158    0.0000   -0.0489
       14 O1     3d2+      -0.0000    0.0000    0.0000    0.0000   -0.0002   -0.0003    0.0000    0.0000    0.0000    0.0000
       15 FE2    1s        -0.0010    0.0000    0.0000   -0.0007    0.0000   -0.0000   -0.0000   -0.0000   -0.0015    0.0000
       16 FE2    2s        -0.0037    0.0000    0.0000   -0.0053    0.0000   -0.0000   -0.0000   -0.0000   -0.0107    0.0000
       17 FE2    3s        -0.0075    0.0000    0.0000   -0.0288    0.0000   -0.0000   -0.0000   -0.0000   -0.0595   -0.0000
       18 FE2    4s         0.0110   -0.0000   -0.0000    0.0738    0.0000   -0.0000    0.0000    0.0000    0.0683   -0.0000
       19 FE2    5s        -0.0111    0.0000    0.0000   -0.0256   -0.0000    0.0000   -0.0000   -0.0000   -0.0348    0.0000
       20 FE2    2px       -0.0000   -0.0005    0.0015    0.0000    0.0000   -0.0000   -0.0002    0.0006    0.0000   -0.0009
       21 FE2    3px       -0.0000   -0.0081    0.0224    0.0000    0.0000   -0.0000   -0.0080    0.0221    0.0000   -0.0120
       22 FE2    4px        0.0000   -0.0216    0.0596   -0.0000   -0.0000    0.0000    0.0080   -0.0221   -0.0000    0.3775
       23 FE2    5px       -0.0000    0.0009   -0.0025   -0.0000    0.0000   -0.0000   -0.0032    0.0089    0.0000   -0.0241
       24 FE2    2py        0.0000    0.0015    0.0005   -0.0000   -0.0000   -0.0000    0.0006    0.0002   -0.0000   -0.0003
       25 FE2    3py        0.0000    0.0224    0.0081   -0.0000   -0.0000   -0.0000    0.0221    0.0080   -0.0000   -0.0044
       26 FE2    4py       -0.0000    0.0596    0.0216    0.0000   -0.0000    0.0000   -0.0221   -0.0080    0.0000    0.1371
       27 FE2    5py        0.0000   -0.0025   -0.0009    0.0000    0.0000   -0.0000    0.0089    0.0032   -0.0000   -0.0087
       28 FE2    2pz        0.0043    0.0000    0.0000   -0.0014   -0.0000    0.0000   -0.0000   -0.0000   -0.0027   -0.0000
       29 FE2    3pz        0.0534   -0.0000   -0.0000   -0.0233    0.0000   -0.0000   -0.0000   -0.0000   -0.0602   -0.0000
       30 FE2    4pz        0.0199   -0.0000   -0.0000    0.0625    0.0000   -0.0000    0.0000    0.0000    0.0618   -0.0000
       31 FE2    5pz       -0.0065    0.0000    0.0000   -0.0012    0.0000   -0.0000   -0.0000   -0.0000   -0.0138    0.0000
       32 FE2    3d2-       0.0000   -0.0000    0.0000    0.0000   -0.7633    0.6378    0.0000    0.0000   -0.0000   -0.0000
       33 FE2    4d2-      -0.0000   -0.0000    0.0000   -0.0000    0.0791   -0.0661   -0.0000   -0.0000    0.0000    0.0000
       34 FE2    3d1-      -0.0000    0.5464    0.1984    0.0000   -0.0000   -0.0000    0.7651    0.2779   -0.0000    0.0023
       35 FE2    4d1-      -0.0000    0.0230    0.0084   -0.0000    0.0000    0.0000   -0.0833   -0.0303    0.0000    0.2294
       36 FE2    3d0        0.0610   -0.0000   -0.0000    0.7272    0.0000   -0.0000   -0.0000   -0.0000   -0.6906   -0.0000
       37 FE2    4d0        0.0084   -0.0000   -0.0000   -0.0311    0.0000   -0.0000    0.0000    0.0000    0.1061   -0.0000
       38 FE2    3d1+       0.0000   -0.1984    0.5464   -0.0000    0.0000   -0.0000   -0.2779    0.7651    0.0000    0.0063
       39 FE2    4d1+       0.0000   -0.0084    0.0230    0.0000   -0.0000    0.0000    0.0303   -0.0833   -0.0000    0.6317
       40 FE2    3d2+       0.0000   -0.0000   -0.0000    0.0000    0.6378    0.7633    0.0000    0.0000   -0.0000    0.0000
       41 FE2    4d2+      -0.0000   -0.0000   -0.0000   -0.0000   -0.0661   -0.0791   -0.0000   -0.0000    0.0000   -0.0000
       42 FE2    4f3-       0.0000   -0.0000   -0.0000    0.0000    0.0000    0.0000   -0.0000   -0.0000    0.0000    0.0000
       43 FE2    4f2-       0.0000   -0.0000    0.0000    0.0000    0.0014   -0.0012   -0.0000    0.0000    0.0000    0.0000
       44 FE2    4f1-      -0.0000    0.0061    0.0022    0.0000    0.0000    0.0000   -0.0048   -0.0018    0.0000    0.0111
       45 FE2    4f0        0.0040   -0.0000   -0.0000    0.0043    0.0000   -0.0000    0.0000    0.0000    0.0076   -0.0000
       46 FE2    4f1+       0.0000   -0.0022    0.0061   -0.0000   -0.0000   -0.0000    0.0018   -0.0048   -0.0000    0.0306
       47 FE2    4f2+       0.0000   -0.0000   -0.0000    0.0000   -0.0012   -0.0014   -0.0000   -0.0000    0.0000   -0.0000
       48 FE2    4f3+      -0.0000    0.0000   -0.0000   -0.0000    0.0000   -0.0000    0.0000   -0.0000   -0.0000    0.0000
 
          Orbital           21        22        23        24        25        26        27        28        29        30    
          Energy            0.1305    1.2404    1.4689    1.3646    1.3645    0.0627    1.8764    1.8763    1.1187    1.8633
          Occ. No.          0.0192    0.0033    0.0001    0.0001    0.0001    0.0000    0.0000    0.0000    0.0000    0.0000
 
        1 O1     1s         0.0000   -0.0255    0.0264   -0.0000   -0.0000    0.0580    0.0000    0.0000   -0.0574    0.1443
        2 O1     2s         0.0000   -0.2180    0.2955   -0.0000   -0.0000    0.5351    0.0000    0.0000   -0.4149    1.1434
        3 O1     3s         0.0000    0.1197    0.1374   -0.0000   -0.0000    0.3593    0.0000    0.0000   -0.0535    0.9338
        4 O1     2px        0.1105   -0.0000    0.0000   -0.0854    0.0310   -0.0000   -0.2606    0.0946    0.0000   -0.0000
        5 O1     3px       -0.1239   -0.0000    0.0000   -0.2421    0.0879    0.0000   -0.6093    0.2213    0.0000   -0.0000
        6 O1     2py       -0.3042    0.0000   -0.0000   -0.0310   -0.0854    0.0000   -0.0946   -0.2606   -0.0000    0.0000
        7 O1     3py        0.3411    0.0000   -0.0000   -0.0879   -0.2421   -0.0000   -0.2212   -0.6094   -0.0000    0.0000
        8 O1     2pz       -0.0000    0.1501   -0.3325    0.0000    0.0000   -0.5357   -0.0000   -0.0000   -0.0014   -0.5267
        9 O1     3pz        0.0000   -0.2428   -0.1830    0.0000    0.0000   -0.3229    0.0000    0.0000   -0.3569   -0.1126
       10 O1     3d2-       0.0000   -0.0000   -0.0000    0.0000   -0.0000   -0.0000    0.0000   -0.0000    0.0000    0.0000
       11 O1     3d1-      -0.0489   -0.0000   -0.0000   -0.0046   -0.0125   -0.0000   -0.0377   -0.1037    0.0000   -0.0000
       12 O1     3d0        0.0000    0.8693    0.3581   -0.0000   -0.0000    0.4189   -0.0000   -0.0000   -0.0731    0.3678
       13 O1     3d1+       0.0178    0.0000    0.0000   -0.0125    0.0046    0.0000   -0.1037    0.0377   -0.0000    0.0000
       14 O1     3d2+       0.0000   -0.0000   -0.0000   -0.0000   -0.0000   -0.0000   -0.0000   -0.0000    0.0000    0.0000
       15 FE2    1s         0.0000   -0.0034   -0.0034    0.0000    0.0000   -0.0058    0.0000    0.0000   -0.0021   -0.0061
       16 FE2    2s         0.0000   -0.0250   -0.0245    0.0000    0.0000   -0.0419    0.0000    0.0000   -0.0149   -0.0448
       17 FE2    3s        -0.0000   -0.1219   -0.1258    0.0000    0.0000   -0.2129    0.0000    0.0000   -0.0590   -0.2376
       18 FE2    4s        -0.0000    0.1563   -0.1941    0.0000    0.0000   -1.1025   -0.0000   -0.0000    0.0222   -0.8574
       19 FE2    5s         0.0000   -0.0534    0.0966   -0.0000   -0.0000    0.8246   -0.0000   -0.0000    0.0986   -0.1186
       20 FE2    2px        0.0003    0.0000   -0.0000    0.0009   -0.0003   -0.0000    0.0021   -0.0008   -0.0000    0.0000
       21 FE2    3px        0.0044    0.0000   -0.0000    0.0233   -0.0085   -0.0000    0.0401   -0.0146   -0.0000    0.0000
       22 FE2    4px       -0.1371    0.0000   -0.0000    0.4774   -0.1733    0.0000    0.5342   -0.1940   -0.0000    0.0000
       23 FE2    5px        0.0087    0.0000    0.0000   -0.6950    0.2524    0.0000    0.6476   -0.2351   -0.0000   -0.0000
       24 FE2    2py       -0.0009   -0.0000    0.0000    0.0003    0.0009    0.0000    0.0008    0.0021    0.0000   -0.0000
       25 FE2    3py       -0.0120   -0.0000    0.0000    0.0085    0.0233    0.0000    0.0146    0.0401    0.0000   -0.0000
       26 FE2    4py        0.3775   -0.0000    0.0000    0.1733    0.4774   -0.0000    0.1940    0.5342    0.0000   -0.0000
       27 FE2    5py       -0.0241   -0.0000   -0.0000   -0.2523   -0.6950   -0.0000    0.2351    0.6476    0.0000    0.0000
       28 FE2    2pz       -0.0000   -0.0057   -0.0054    0.0000    0.0000   -0.0090    0.0000    0.0000   -0.0012   -0.0113
       29 FE2    3pz       -0.0000   -0.0863   -0.1059    0.0000    0.0000   -0.1652    0.0000    0.0000   -0.0020   -0.2190
       30 FE2    4pz       -0.0000    0.2384   -0.7523    0.0000    0.0000   -0.3491   -0.0000   -0.0000    0.6402   -0.9335
       31 FE2    5pz        0.0000   -0.0219    0.7595   -0.0000   -0.0000    0.0633   -0.0000   -0.0000    0.7520    0.0184
       32 FE2    3d2-       0.0000    0.0000   -0.0000   -0.0000    0.0000    0.0000   -0.0000    0.0000    0.0000   -0.0000
       33 FE2    4d2-      -0.0000    0.0000   -0.0000   -0.0000    0.0000    0.0000    0.0000   -0.0000    0.0000   -0.0000
       34 FE2    3d1-       0.0063   -0.0000    0.0000    0.0069    0.0189   -0.0000    0.0247    0.0680    0.0000   -0.0000
       35 FE2    4d1-       0.6317   -0.0000   -0.0000   -0.0343   -0.0945   -0.0000    0.0616    0.1696    0.0000   -0.0000
       36 FE2    3d0       -0.0000   -0.0277   -0.1085    0.0000    0.0000   -0.1686   -0.0000   -0.0000    0.0740   -0.3433
       37 FE2    4d0       -0.0000    0.1974   -0.0421    0.0000    0.0000   -0.0849   -0.0000   -0.0000    0.2132   -1.1708
       38 FE2    3d1+      -0.0023    0.0000   -0.0000    0.0189   -0.0069    0.0000    0.0680   -0.0247   -0.0000    0.0000
       39 FE2    4d1+      -0.2294    0.0000    0.0000   -0.0945    0.0343    0.0000    0.1695   -0.0616   -0.0000    0.0000
       40 FE2    3d2+       0.0000    0.0000   -0.0000    0.0000    0.0000    0.0000    0.0000    0.0000    0.0000   -0.0000
       41 FE2    4d2+      -0.0000    0.0000   -0.0000    0.0000    0.0000    0.0000   -0.0000   -0.0000    0.0000   -0.0000
       42 FE2    4f3-       0.0000    0.0000    0.0000    0.0000    0.0000    0.0000    0.0000    0.0000    0.0000   -0.0000
       43 FE2    4f2-      -0.0000    0.0000   -0.0000    0.0000   -0.0000    0.0000    0.0000   -0.0000    0.0000    0.0000
       44 FE2    4f1-       0.0306   -0.0000    0.0000    0.1375    0.3788   -0.0000    0.2076    0.5716    0.0000   -0.0000
       45 FE2    4f0       -0.0000    0.0003    0.3128   -0.0000   -0.0000   -0.1589    0.0000    0.0000   -0.3717   -0.5054
       46 FE2    4f1+      -0.0111    0.0000   -0.0000    0.3788   -0.1375    0.0000    0.5716   -0.2075   -0.0000    0.0000
       47 FE2    4f2+      -0.0000    0.0000   -0.0000   -0.0000   -0.0000    0.0000   -0.0000   -0.0000    0.0000    0.0000
       48 FE2    4f3+      -0.0000   -0.0000   -0.0000    0.0000   -0.0000   -0.0000    0.0000   -0.0000   -0.0000   -0.0000
 
          Orbital           31        32        33        34        35        36        37        38        39        40    
          Energy            0.7569    0.9214    0.6410    0.6572    0.8195    0.2817    0.9799    0.4926    1.1605    0.3464
          Occ. No.          0.0000    0.0000    0.0000    0.0000    0.0000    0.0000    0.0000    0.0000    0.0000    0.0000
 
        1 O1     1s         0.0728   -0.0067    0.0000    0.0000    0.0422    0.0932    0.0000   -0.0000    0.0000    0.0000
        2 O1     2s         0.6071   -0.0918    0.0000    0.0001    0.3965    0.7967    0.0003   -0.0003    0.0001    0.0000
        3 O1     3s         1.2871   -0.4317    0.0000    0.0001    0.7485    0.6126    0.0002   -0.0002    0.0001    0.0001
        4 O1     2px       -0.0000    0.0000    0.0082   -0.0189   -0.0000    0.0003   -0.2323    0.1158    0.0894    0.0045
        5 O1     3px       -0.0000    0.0000    0.0271   -0.0616   -0.0000    0.0007   -0.8298    0.4102    0.3199    0.0151
        6 O1     2py        0.0000   -0.0000   -0.0226   -0.0069    0.0000    0.0001   -0.0813    0.0403   -0.2533   -0.0053
        7 O1     3py        0.0000   -0.0000   -0.0749   -0.0227    0.0000    0.0004   -0.2911    0.1402   -0.9124   -0.0194
        8 O1     2pz       -0.3443   -0.0429   -0.0000   -0.0001   -0.1230   -0.5256   -0.0002    0.0002   -0.0001    0.0000
        9 O1     3pz       -0.4240   -0.0718   -0.0000   -0.0002    0.0151   -1.3649   -0.0004    0.0005   -0.0001    0.0000
       10 O1     3d2-       0.0000   -0.0000   -0.0000    0.0000   -0.0000   -0.0000    0.0148    0.0319    0.0248    0.0265
       11 O1     3d1-       0.0000   -0.0000   -0.0781   -0.0280    0.0000   -0.0003   -0.0254   -0.0018   -0.0972   -0.0028
       12 O1     3d0       -0.0505    0.0640   -0.0000    0.0000   -0.0312    0.0340    0.0000   -0.0000    0.0000   -0.0000
       13 O1     3d1+      -0.0000    0.0000    0.0284   -0.0773    0.0000   -0.0008   -0.0662    0.0211    0.0274   -0.0016
       14 O1     3d2+       0.0000    0.0000    0.0000    0.0003    0.0000    0.0001   -0.0155   -0.0309   -0.0006    0.0348
       15 FE2    1s        -0.0080    0.0006   -0.0000   -0.0000   -0.0025   -0.0137   -0.0000    0.0000   -0.0000    0.0000
       16 FE2    2s        -0.0575    0.0043   -0.0000   -0.0000   -0.0185   -0.0981   -0.0000    0.0000   -0.0000    0.0000
       17 FE2    3s        -0.2828    0.0236   -0.0000   -0.0001   -0.0979   -0.4579   -0.0001    0.0002   -0.0001    0.0000
       18 FE2    4s        -0.4553    0.6487   -0.0000   -0.0002   -0.5629   -1.1649   -0.0004    0.0004   -0.0001   -0.0000
       19 FE2    5s         0.5447    0.4482   -0.0000    0.0000   -0.3219    0.1989    0.0001   -0.0001    0.0000   -0.0000
       20 FE2    2px        0.0000   -0.0000   -0.0000    0.0001    0.0000   -0.0000    0.0030   -0.0015   -0.0012   -0.0001
       21 FE2    3px        0.0000   -0.0000    0.0011   -0.0040    0.0000   -0.0001    0.0563   -0.0283   -0.0217   -0.0011
       22 FE2    4px        0.0000    0.0000    0.2270   -0.6309    0.0000   -0.0004    0.3846   -0.1922   -0.1512   -0.0071
       23 FE2    5px       -0.0000    0.0000    0.0641   -0.1769    0.0000   -0.0000    0.0329   -0.0168   -0.0135   -0.0006
       24 FE2    2py       -0.0000    0.0000    0.0001    0.0000   -0.0000   -0.0000    0.0011   -0.0005    0.0033    0.0001
       25 FE2    3py       -0.0000    0.0000   -0.0031   -0.0014   -0.0000   -0.0000    0.0197   -0.0100    0.0610    0.0013
       26 FE2    4py       -0.0000   -0.0000   -0.6247   -0.2290   -0.0000   -0.0002    0.1345   -0.0670    0.4282    0.0090
       27 FE2    5py        0.0000   -0.0000   -0.1763   -0.0642   -0.0000   -0.0000    0.0114   -0.0061    0.0376    0.0008
       28 FE2    2pz       -0.0114    0.0013   -0.0000   -0.0000   -0.0047   -0.0155   -0.0000    0.0000   -0.0000   -0.0000
       29 FE2    3pz       -0.1971    0.0214   -0.0000   -0.0000   -0.0912   -0.2544   -0.0001    0.0001   -0.0000   -0.0000
       30 FE2    4pz       -0.7448   -0.2080    0.0000   -0.0001   -0.7330   -0.8450   -0.0003    0.0003   -0.0001   -0.0000
       31 FE2    5pz       -0.0763   -0.0328    0.0000   -0.0000   -0.1185   -0.0293   -0.0000    0.0000   -0.0000   -0.0000
[...]
--
 
--
 
 
  Input file to MOLDEN was generated!
 
 
  Input file to MOLDEN was generated!
 
      Average orbitals are written to the RASORB file
      Natural orbitals for root   1 are written to the RASORB.1 file
      Spin density orbitals for root   1 are written to the SPDORB.1 file
 
--- Stop Module: rasscf at Mon Dec 23 17:56:00 2024 /rc=_RC_ALL_IS_WELL_ ---
*** files: 1.86.LprOrb 1.86.rasscf.molden 1.86.rasscf.molden.1 1.86.LoProp.molden 1.86.RasOrb 1.86.RasOrb.1 1.86.rasscf.h5 1.86.SpdOrb.1 xmldump
    saved to directory /home/grierjones/DDCASPT2/iron_oxo_DDCASPT2/cluster/1.86
--- Module rasscf spent 2 minutes 11 seconds ---

>>> COPY /tmp/1.86/1.86.rasscf.h5 /home/grierjones/DDCASPT2/iron_oxo_DDCASPT2/cluster/1.86/

>>> COPY /tmp/1.86/GMJ_Fock_MO.csv /home/grierjones/DDCASPT2/iron_oxo_DDCASPT2/cluster/1.86/1.86.GMJ_Fock_MO.csv

>>> COPY /tmp/1.86/GMJ_PT2_Fock_MO.csv /home/grierjones/DDCASPT2/iron_oxo_DDCASPT2/cluster/1.86/1.86.GMJ_PT2_Fock_MO.csv

*** symbolic link created: INPORB -> 1.86.RasOrb
--- Start Module: motra at Mon Dec 23 17:56:00 2024 ---
 
()()()()()()()()()()()()()()()()()()()()()()()()()()()()()()()()()()()()()()()()()()()()()()()()()()

                                               &MOTRA

                                   only a single process is used
                       available to each process: 2.0 GB of memory, 1 thread?
()()()()()()()()()()()()()()()()()()()()()()()()()()()()()()()()()()()()()()()()()()()()()()()()()()
 
 
      *** WARNING: Default frozen orbitals is overwritten by user input.
      *** Default values:   7
 
      Header of the integral files:
      
       Integrals generated by seward 4.2.0  , Mon Dec 23 17:53:47 2024
 
 
      Header of MO coefficients source file:
      * RASSCF average (pseudo-natural) orbitals                                      
 
 
      Cartesian coordinates in Angstrom:
      -----------------------------------------------------
      No.  Label        X            Y            Z        
      -----------------------------------------------------
       1   O1         0.00000000   0.00000000   1.73146000
       2   FE2        0.00000000   0.00000000  -0.13146000
      -----------------------------------------------------
      Nuclear repulsion energy =   59.08405075
 
      Orbital specifications:
      -----------------------
 
      Symmetry species:              1
      Number of basis functions:    48
      Frozen orbitals:               0
      Deleted orbitals:              0
      Number of orbitals used:      48

       SYMMETRY  BASIS FUNCTIONS       ORBITALS      INTEGRALS   CPU(SEC)  I/O(SEC)
 
        1 1 1 1   48  48  48  48    48  48  48  48      692076       0.00      0.00

       TOTAL CPU TIME(SEC)    0.34TOTAL I/O TIME(SEC)    0.86
 
--- Stop Module: motra at Mon Dec 23 17:56:00 2024 /rc=_RC_ALL_IS_WELL_ ---
*** files: xmldump
    saved to directory /home/grierjones/DDCASPT2/iron_oxo_DDCASPT2/cluster/1.86

>>> COPY /tmp/1.86/GMJ_one_int_indx.csv /home/grierjones/DDCASPT2/iron_oxo_DDCASPT2/cluster/1.86/1.86.GMJ_one_int_indx.csv

>>> COPY /tmp/1.86/GMJ_one_int.csv /home/grierjones/DDCASPT2/iron_oxo_DDCASPT2/cluster/1.86/1.86.GMJ_one_int.csv

>>> COPY /tmp/1.86/GMJ_two_int_indx.csv /home/grierjones/DDCASPT2/iron_oxo_DDCASPT2/cluster/1.86/1.86.GMJ_two_int_indx.csv

>>> COPY /tmp/1.86/GMJ_two_int.csv /home/grierjones/DDCASPT2/iron_oxo_DDCASPT2/cluster/1.86/1.86.GMJ_two_int.csv

*** symbolic link created: INPORB -> 1.86.RasOrb
--- Start Module: caspt2 at Mon Dec 23 17:56:00 2024 ---
 
()()()()()()()()()()()()()()()()()()()()()()()()()()()()()()()()()()()()()()()()()()()()()()()()()()

                                              &CASPT2

                                   only a single process is used
                       available to each process: 2.0 GB of memory, 1 thread?
()()()()()()()()()()()()()()()()()()()()()()()()()()()()()()()()()()()()()()()()()()()()()()()()()()
 
 Cholesky algorithm in CASPT2 =    1
 
 ###############################################################################
 ###############################################################################
 ###                                                                         ###
 ###                                                                         ###
 ###    User changed nr of frozen orbitals.                                  ###
 ###                                                                         ###
 ###                                                                         ###
 ###############################################################################
 ###############################################################################
 
++    Wave function specifications:
      -----------------------------
 
      Number of closed shell electrons          22
      Number of electrons in active shells      10
      Max number of holes in RAS1 space          0
      Max number of electrons in RAS3 space      0
      Number of inactive orbitals               11
      Number of active orbitals                 14
      Number of secondary orbitals              23
      Spin quantum number                      2.0
      State symmetry                             1
      Number of CSFs                        975975
      Number of root(s) available                1
      Root passed to geometry opt.               1
      A file JOBMIX will be created.
      This is a CASSCF or RASSCF reference function
--
 
++    Orbital specifications:
      -----------------------
 
      Symmetry species                           1
                                                 a
      Frozen orbitals                            0
      Inactive orbitals                         11
      Active orbitals                           14
      Secondary orbitals                        23
      Deleted orbitals                           0
      Number of basis functions                 48
--
 
      Type of Fock operator: STANDARD
      Type of 0-order Hamiltonian: STANDARD WITH DEFAULT IPEA
        "IP-EA" denominator shift =      0.25
      The input orbitals and the CI vector will be transformed.
 
--------------------------------------------------------------------------------
 Estimated memory requirements:
  POLY3 :                227658189
  RHS:                     4146972
  SIGMA :                   646704
  PRPCTL:                        0
 Available workspace:    229020647
 
++ CASPT2 computation for group   1
 
********************************************************************************
 Multi-State initialization phase begins for group   1
--------------------------------------------------------------------------------
********************************************************************************
 Compute H0 matrices for state    1
--------------------------------------------------------------------------------
--------------------------------------------------------------------------------
 H0 matrices have been computed.
 
********************************************************************************
  CASPT2 EQUATION SOLUTION
--------------------------------------------------------------------------------
 
  Total nr of CASPT2 parameters:
   Before reduction:      408969
   After  reduction:      408969
 
 The contributions to the second order correlation energy in atomic units.
-----------------------------------------------------------------------------------------------------------------------------
  IT.      VJTU        VJTI        ATVX        AIVX        VJAI        BVAT        BJAT        BJAI        TOTAL       RNORM  
-----------------------------------------------------------------------------------------------------------------------------
   1    -0.006789   -0.031181   -0.019031   -0.179087   -0.018770   -0.078337   -0.019090   -0.043290   -0.395575    0.011154
   2    -0.006834   -0.031237   -0.019291   -0.179600   -0.018813   -0.078555   -0.019222   -0.043354   -0.396907    0.001984
   3    -0.006839   -0.031244   -0.019314   -0.179661   -0.018819   -0.078563   -0.019238   -0.043359   -0.397038    0.000355
   4    -0.006838   -0.031243   -0.019312   -0.179645   -0.018820   -0.078557   -0.019236   -0.043357   -0.397007    0.000073
   5    -0.006838   -0.031243   -0.019313   -0.179643   -0.018819   -0.078556   -0.019235   -0.043357   -0.397003    0.000015
   6    -0.006838   -0.031243   -0.019313   -0.179643   -0.018819   -0.078556   -0.019235   -0.043357   -0.397004    0.000003
-------------------------------------------------------------------------------------------------------------------
 
  FINAL CASPT2 RESULT:
 
  Correlation energy /Case, /Symm, and sums:
 VJTU     -0.00683755 -0.00683755
 VJTIP    -0.01151731 -0.01151731
 VJTIM    -0.01972574 -0.01972574
 ATVX     -0.01931269 -0.01931269
 AIVX     -0.17964351 -0.17964351
 VJAIP    -0.01463984 -0.01463984
 VJAIM    -0.00417955 -0.00417955
 BVATP    -0.02303041 -0.02303041
 BVATM    -0.05552563 -0.05552563
 BJATP    -0.01164306 -0.01164306
 BJATM    -0.00759201 -0.00759201
 BJAIP    -0.02942884 -0.02942884
 BJAIM    -0.01392798 -0.01392798
 Summed:  -0.39700411 -0.39700411
 
      Reference energy:       -1345.4802152455
      E2 (Non-variational):      -0.3970041142
      E2 (Variational):          -0.3970040784
      Total energy:           -1345.8772193239
      Residual norm:              0.0000005378
      Reference weight:           0.93750
 
      Contributions to the CASPT2 correlation energy
      Active & Virtual Only:         -0.0978687317
      One Inactive Excited:          -0.2057161291
      Two Inactive Excited:          -0.0934192534
 
 
++ Denominators, etc.
----------------------------------------------------------------------------------------------------
 Report on small energy denominators, large coefficients, and large energy contributions.
CASE  SYMM ACTIVE-MIX  NON-ACTIVE INDICES          DENOMINATOR     RHS VALUE       COEFFICIENT     CONTRIBUTION
VJTIM    1  Mu1.0006  In1.010 In1.008               5.42379288      0.14008573     -0.02582589     -0.00361784
ATVX     1  Mu1.0001  Se1.026                       0.25319889     -0.00036104      0.00185024     -0.00000067
ATVX     1  Mu1.0001  Se1.027                       0.29192908     -0.00000037      0.00000291     -0.00000000
ATVX     1  Mu1.0001  Se1.028                       0.29517323     -0.00000016      0.00000019     -0.00000000
ATVX     1  Mu1.0243  Se1.031                       2.29718696     -0.06580991      0.02803667     -0.00184509
AIVX     1  Mu1.0049  In1.011 Se1.035               3.77614979     -0.12228657      0.03189184     -0.00389994
AIVX     1  Mu1.0025  In1.011 Se1.036               3.54088674     -0.11206648      0.03115365     -0.00349128
AIVX     1  Mu1.0034  In1.011 Se1.036               3.60433693      0.09991981     -0.02729365     -0.00272718
--
 
   (Skipping property calculation,
    use PROP keyword to activate)
--
 
  Total CASPT2 energies:
::    CASPT2 Root  1     Total energy:  -1345.87721932
 
  A NEW JOBIPH FILE NAMED 'JOBMIX' IS PREPARED.
********************************************************************************
--- Stop Module: caspt2 at Mon Dec 23 18:01:34 2024 /rc=_RC_ALL_IS_WELL_ ---
*** files: xmldump
    saved to directory /home/grierjones/DDCASPT2/iron_oxo_DDCASPT2/cluster/1.86
--- Module caspt2 spent 5 minutes 33 seconds ---

>>> EXPORT i = B

>>> EXPORT j = P

>>> IF (-FILE GMJ_e2_${i}_${j}.csv)

>>> COPY /tmp/1.86/GMJ_RHS_B_P.csv /home/grierjones/DDCASPT2/iron_oxo_DDCASPT2/cluster/1.86/GMJ_RHS_B_P.csv

>>> COPY /tmp/1.86/GMJ_IVECW_B_P.csv /home/grierjones/DDCASPT2/iron_oxo_DDCASPT2/cluster/1.86/GMJ_IVECW_B_P.csv

>>> COPY /tmp/1.86/GMJ_IVECX_B_P.csv /home/grierjones/DDCASPT2/iron_oxo_DDCASPT2/cluster/1.86/GMJ_IVECX_B_P.csv

>>> COPY /tmp/1.86/GMJ_IVECC2_B_P.csv /home/grierjones/DDCASPT2/iron_oxo_DDCASPT2/cluster/1.86/GMJ_IVECC2_B_P.csv

>>> COPY /tmp/1.86/GMJ_e2_B_P.csv /home/grierjones/DDCASPT2/iron_oxo_DDCASPT2/cluster/1.86/GMJ_e2_B_P.csv

>>> END FOREACH

>>> EXPORT j = M

>>> IF (-FILE GMJ_e2_${i}_${j}.csv)

>>> COPY /tmp/1.86/GMJ_RHS_B_M.csv /home/grierjones/DDCASPT2/iron_oxo_DDCASPT2/cluster/1.86/GMJ_RHS_B_M.csv

>>> COPY /tmp/1.86/GMJ_IVECW_B_M.csv /home/grierjones/DDCASPT2/iron_oxo_DDCASPT2/cluster/1.86/GMJ_IVECW_B_M.csv

>>> COPY /tmp/1.86/GMJ_IVECX_B_M.csv /home/grierjones/DDCASPT2/iron_oxo_DDCASPT2/cluster/1.86/GMJ_IVECX_B_M.csv

>>> COPY /tmp/1.86/GMJ_IVECC2_B_M.csv /home/grierjones/DDCASPT2/iron_oxo_DDCASPT2/cluster/1.86/GMJ_IVECC2_B_M.csv

>>> COPY /tmp/1.86/GMJ_e2_B_M.csv /home/grierjones/DDCASPT2/iron_oxo_DDCASPT2/cluster/1.86/GMJ_e2_B_M.csv

>>> END FOREACH

>>> END FOREACH

>>> EXPORT i = E

>>> EXPORT j = P

>>> IF (-FILE GMJ_e2_${i}_${j}.csv)

>>> COPY /tmp/1.86/GMJ_RHS_E_P.csv /home/grierjones/DDCASPT2/iron_oxo_DDCASPT2/cluster/1.86/GMJ_RHS_E_P.csv

>>> COPY /tmp/1.86/GMJ_IVECW_E_P.csv /home/grierjones/DDCASPT2/iron_oxo_DDCASPT2/cluster/1.86/GMJ_IVECW_E_P.csv

>>> COPY /tmp/1.86/GMJ_IVECX_E_P.csv /home/grierjones/DDCASPT2/iron_oxo_DDCASPT2/cluster/1.86/GMJ_IVECX_E_P.csv

>>> COPY /tmp/1.86/GMJ_IVECC2_E_P.csv /home/grierjones/DDCASPT2/iron_oxo_DDCASPT2/cluster/1.86/GMJ_IVECC2_E_P.csv

>>> COPY /tmp/1.86/GMJ_e2_E_P.csv /home/grierjones/DDCASPT2/iron_oxo_DDCASPT2/cluster/1.86/GMJ_e2_E_P.csv

>>> END FOREACH

>>> EXPORT j = M

>>> IF (-FILE GMJ_e2_${i}_${j}.csv)

>>> COPY /tmp/1.86/GMJ_RHS_E_M.csv /home/grierjones/DDCASPT2/iron_oxo_DDCASPT2/cluster/1.86/GMJ_RHS_E_M.csv

>>> COPY /tmp/1.86/GMJ_IVECW_E_M.csv /home/grierjones/DDCASPT2/iron_oxo_DDCASPT2/cluster/1.86/GMJ_IVECW_E_M.csv

>>> COPY /tmp/1.86/GMJ_IVECX_E_M.csv /home/grierjones/DDCASPT2/iron_oxo_DDCASPT2/cluster/1.86/GMJ_IVECX_E_M.csv

>>> COPY /tmp/1.86/GMJ_IVECC2_E_M.csv /home/grierjones/DDCASPT2/iron_oxo_DDCASPT2/cluster/1.86/GMJ_IVECC2_E_M.csv

>>> COPY /tmp/1.86/GMJ_e2_E_M.csv /home/grierjones/DDCASPT2/iron_oxo_DDCASPT2/cluster/1.86/GMJ_e2_E_M.csv

>>> END FOREACH

>>> END FOREACH

>>> EXPORT i = F

>>> EXPORT j = P

>>> IF (-FILE GMJ_e2_${i}_${j}.csv)

>>> COPY /tmp/1.86/GMJ_RHS_F_P.csv /home/grierjones/DDCASPT2/iron_oxo_DDCASPT2/cluster/1.86/GMJ_RHS_F_P.csv

>>> COPY /tmp/1.86/GMJ_IVECW_F_P.csv /home/grierjones/DDCASPT2/iron_oxo_DDCASPT2/cluster/1.86/GMJ_IVECW_F_P.csv

>>> COPY /tmp/1.86/GMJ_IVECX_F_P.csv /home/grierjones/DDCASPT2/iron_oxo_DDCASPT2/cluster/1.86/GMJ_IVECX_F_P.csv

>>> COPY /tmp/1.86/GMJ_IVECC2_F_P.csv /home/grierjones/DDCASPT2/iron_oxo_DDCASPT2/cluster/1.86/GMJ_IVECC2_F_P.csv

>>> COPY /tmp/1.86/GMJ_e2_F_P.csv /home/grierjones/DDCASPT2/iron_oxo_DDCASPT2/cluster/1.86/GMJ_e2_F_P.csv

>>> END FOREACH

>>> EXPORT j = M

>>> IF (-FILE GMJ_e2_${i}_${j}.csv)

>>> COPY /tmp/1.86/GMJ_RHS_F_M.csv /home/grierjones/DDCASPT2/iron_oxo_DDCASPT2/cluster/1.86/GMJ_RHS_F_M.csv

>>> COPY /tmp/1.86/GMJ_IVECW_F_M.csv /home/grierjones/DDCASPT2/iron_oxo_DDCASPT2/cluster/1.86/GMJ_IVECW_F_M.csv

>>> COPY /tmp/1.86/GMJ_IVECX_F_M.csv /home/grierjones/DDCASPT2/iron_oxo_DDCASPT2/cluster/1.86/GMJ_IVECX_F_M.csv

>>> COPY /tmp/1.86/GMJ_IVECC2_F_M.csv /home/grierjones/DDCASPT2/iron_oxo_DDCASPT2/cluster/1.86/GMJ_IVECC2_F_M.csv

>>> COPY /tmp/1.86/GMJ_e2_F_M.csv /home/grierjones/DDCASPT2/iron_oxo_DDCASPT2/cluster/1.86/GMJ_e2_F_M.csv

>>> END FOREACH

>>> END FOREACH

>>> EXPORT i = G

>>> EXPORT j = P

>>> IF (-FILE GMJ_e2_${i}_${j}.csv)

>>> COPY /tmp/1.86/GMJ_RHS_G_P.csv /home/grierjones/DDCASPT2/iron_oxo_DDCASPT2/cluster/1.86/GMJ_RHS_G_P.csv

>>> COPY /tmp/1.86/GMJ_IVECW_G_P.csv /home/grierjones/DDCASPT2/iron_oxo_DDCASPT2/cluster/1.86/GMJ_IVECW_G_P.csv

>>> COPY /tmp/1.86/GMJ_IVECX_G_P.csv /home/grierjones/DDCASPT2/iron_oxo_DDCASPT2/cluster/1.86/GMJ_IVECX_G_P.csv

>>> COPY /tmp/1.86/GMJ_IVECC2_G_P.csv /home/grierjones/DDCASPT2/iron_oxo_DDCASPT2/cluster/1.86/GMJ_IVECC2_G_P.csv

>>> COPY /tmp/1.86/GMJ_e2_G_P.csv /home/grierjones/DDCASPT2/iron_oxo_DDCASPT2/cluster/1.86/GMJ_e2_G_P.csv

>>> END FOREACH

>>> EXPORT j = M

>>> IF (-FILE GMJ_e2_${i}_${j}.csv)

>>> COPY /tmp/1.86/GMJ_RHS_G_M.csv /home/grierjones/DDCASPT2/iron_oxo_DDCASPT2/cluster/1.86/GMJ_RHS_G_M.csv

>>> COPY /tmp/1.86/GMJ_IVECW_G_M.csv /home/grierjones/DDCASPT2/iron_oxo_DDCASPT2/cluster/1.86/GMJ_IVECW_G_M.csv

>>> COPY /tmp/1.86/GMJ_IVECX_G_M.csv /home/grierjones/DDCASPT2/iron_oxo_DDCASPT2/cluster/1.86/GMJ_IVECX_G_M.csv

>>> COPY /tmp/1.86/GMJ_IVECC2_G_M.csv /home/grierjones/DDCASPT2/iron_oxo_DDCASPT2/cluster/1.86/GMJ_IVECC2_G_M.csv

>>> COPY /tmp/1.86/GMJ_e2_G_M.csv /home/grierjones/DDCASPT2/iron_oxo_DDCASPT2/cluster/1.86/GMJ_e2_G_M.csv

>>> END FOREACH

>>> END FOREACH

>>> EXPORT i = H

>>> EXPORT j = P

>>> IF (-FILE GMJ_e2_${i}_${j}.csv)

>>> COPY /tmp/1.86/GMJ_RHS_H_P.csv /home/grierjones/DDCASPT2/iron_oxo_DDCASPT2/cluster/1.86/GMJ_RHS_H_P.csv

>>> COPY /tmp/1.86/GMJ_IVECW_H_P.csv /home/grierjones/DDCASPT2/iron_oxo_DDCASPT2/cluster/1.86/GMJ_IVECW_H_P.csv

>>> COPY /tmp/1.86/GMJ_IVECX_H_P.csv /home/grierjones/DDCASPT2/iron_oxo_DDCASPT2/cluster/1.86/GMJ_IVECX_H_P.csv

>>> COPY /tmp/1.86/GMJ_IVECC2_H_P.csv /home/grierjones/DDCASPT2/iron_oxo_DDCASPT2/cluster/1.86/GMJ_IVECC2_H_P.csv

>>> COPY /tmp/1.86/GMJ_e2_H_P.csv /home/grierjones/DDCASPT2/iron_oxo_DDCASPT2/cluster/1.86/GMJ_e2_H_P.csv

>>> END FOREACH

>>> EXPORT j = M

>>> IF (-FILE GMJ_e2_${i}_${j}.csv)

>>> COPY /tmp/1.86/GMJ_RHS_H_M.csv /home/grierjones/DDCASPT2/iron_oxo_DDCASPT2/cluster/1.86/GMJ_RHS_H_M.csv

>>> COPY /tmp/1.86/GMJ_IVECW_H_M.csv /home/grierjones/DDCASPT2/iron_oxo_DDCASPT2/cluster/1.86/GMJ_IVECW_H_M.csv

>>> COPY /tmp/1.86/GMJ_IVECX_H_M.csv /home/grierjones/DDCASPT2/iron_oxo_DDCASPT2/cluster/1.86/GMJ_IVECX_H_M.csv

>>> COPY /tmp/1.86/GMJ_IVECC2_H_M.csv /home/grierjones/DDCASPT2/iron_oxo_DDCASPT2/cluster/1.86/GMJ_IVECC2_H_M.csv

>>> COPY /tmp/1.86/GMJ_e2_H_M.csv /home/grierjones/DDCASPT2/iron_oxo_DDCASPT2/cluster/1.86/GMJ_e2_H_M.csv

>>> END FOREACH

>>> END FOREACH

>>> EXPORT i = A

>>> IF (-FILE GMJ_e2_$i.csv)

>>> COPY /tmp/1.86/GMJ_RHS_A.csv /home/grierjones/DDCASPT2/iron_oxo_DDCASPT2/cluster/1.86/GMJ_RHS_A.csv

>>> COPY /tmp/1.86/GMJ_IVECW_A.csv /home/grierjones/DDCASPT2/iron_oxo_DDCASPT2/cluster/1.86/GMJ_IVECW_A.csv

>>> COPY /tmp/1.86/GMJ_IVECX_A.csv /home/grierjones/DDCASPT2/iron_oxo_DDCASPT2/cluster/1.86/GMJ_IVECX_A.csv

>>> COPY /tmp/1.86/GMJ_IVECC2_A.csv /home/grierjones/DDCASPT2/iron_oxo_DDCASPT2/cluster/1.86/GMJ_IVECC2_A.csv

>>> COPY /tmp/1.86/GMJ_e2_A.csv /home/grierjones/DDCASPT2/iron_oxo_DDCASPT2/cluster/1.86/GMJ_e2_A.csv

>>> END FOREACH

>>> EXPORT i = C

>>> IF (-FILE GMJ_e2_$i.csv)

>>> COPY /tmp/1.86/GMJ_RHS_C.csv /home/grierjones/DDCASPT2/iron_oxo_DDCASPT2/cluster/1.86/GMJ_RHS_C.csv

>>> COPY /tmp/1.86/GMJ_IVECW_C.csv /home/grierjones/DDCASPT2/iron_oxo_DDCASPT2/cluster/1.86/GMJ_IVECW_C.csv

>>> COPY /tmp/1.86/GMJ_IVECX_C.csv /home/grierjones/DDCASPT2/iron_oxo_DDCASPT2/cluster/1.86/GMJ_IVECX_C.csv

>>> COPY /tmp/1.86/GMJ_IVECC2_C.csv /home/grierjones/DDCASPT2/iron_oxo_DDCASPT2/cluster/1.86/GMJ_IVECC2_C.csv

>>> COPY /tmp/1.86/GMJ_e2_C.csv /home/grierjones/DDCASPT2/iron_oxo_DDCASPT2/cluster/1.86/GMJ_e2_C.csv

>>> END FOREACH

>>> EXPORT i = D

>>> IF (-FILE GMJ_e2_$i.csv)

>>> COPY /tmp/1.86/GMJ_RHS_D.csv /home/grierjones/DDCASPT2/iron_oxo_DDCASPT2/cluster/1.86/GMJ_RHS_D.csv

>>> COPY /tmp/1.86/GMJ_IVECW_D.csv /home/grierjones/DDCASPT2/iron_oxo_DDCASPT2/cluster/1.86/GMJ_IVECW_D.csv

>>> COPY /tmp/1.86/GMJ_IVECX_D.csv /home/grierjones/DDCASPT2/iron_oxo_DDCASPT2/cluster/1.86/GMJ_IVECX_D.csv

>>> COPY /tmp/1.86/GMJ_IVECC2_D.csv /home/grierjones/DDCASPT2/iron_oxo_DDCASPT2/cluster/1.86/GMJ_IVECC2_D.csv

>>> COPY /tmp/1.86/GMJ_e2_D.csv /home/grierjones/DDCASPT2/iron_oxo_DDCASPT2/cluster/1.86/GMJ_e2_D.csv

>>> END FOREACH

.########################.
.# Non-zero return code #.
.########################.

    Timing: Wall=467.26 User=463.66 System=3.45
************************************
*** WorkDir at /tmp/1.86 cleaned ***
************************************
