[Molden Format]
[N_Atoms]
                     2
[Atoms] (AU)
F1          1      9           0.00000000      0.00000000      0.00000000
O2          2      8           0.00000000      0.00000000      2.64561657
[Charge] (Mulliken)
 -0.100542059643853     
  0.100542059643832     
[GTO] (AU)
   1
   s  14
  1.031094600E+05  1.713099991E-04
  1.528100700E+04  7.123999962E-04
  3.441539200E+03  2.990479984E-03
  9.670948300E+02  1.164036994E-02
  3.140353400E+02  3.968642979E-02
  1.134423000E+02  1.128546094E-01
  4.464472700E+01  2.473650687E-01
  1.894287400E+01  3.672702681E-01
  8.532743000E+00  2.896286985E-01
  3.919401000E+00  7.786681959E-02
  1.568157000E+00  4.562139976E-03
  6.232900000E-01  2.468879987E-03
  2.408610000E-01  1.106309994E-03
  8.430100000E-02  1.739699991E-04
   s  14
  1.031094600E+05 -4.044999995E-05
  1.528100700E+04 -1.682299998E-04
  3.441539200E+03 -7.084299991E-04
  9.670948300E+02 -2.767999996E-03
  3.140353400E+02 -9.611379987E-03
  1.134423000E+02 -2.833957996E-02
  4.464472700E+01 -6.839343991E-02
  1.894287400E+01 -1.237379298E-01
  8.532743000E+00 -1.512859698E-01
  3.919401000E+00 -9.099909988E-03
  1.568157000E+00  3.716257695E-01
  6.232900000E-01  5.500214393E-01
  2.408610000E-01  2.092318697E-01
  8.430100000E-02  8.074639989E-03
   p   9
  2.453302900E+02  1.024860004E-03
  5.691900500E+01  8.344290032E-03
  1.760456800E+01  4.078927016E-02
  6.274995000E+00  1.351370605E-01
  2.447030000E+00  2.798830811E-01
  9.950600000E-01  3.597966414E-01
  4.039730000E-01  3.055347412E-01
  1.548100000E-01  1.354703905E-01
  5.418400000E-02  2.804449011E-02
 
   2
   s  14
  1.053749500E+05  1.238600013E-04
  1.567924000E+04  5.120100053E-04
  3.534544700E+03  2.152910022E-03
  9.873651600E+02  8.528440089E-03
  3.159787500E+02  3.018049031E-02
  1.116542800E+02  9.099702095E-02
  4.269945100E+01  2.177936423E-01
  1.739559600E+01  3.686245738E-01
  7.438309000E+00  3.366707335E-01
  3.222862000E+00  9.657630101E-02
  1.253877000E+00  2.144520022E-03
  4.951550000E-01  1.194350012E-03
  1.916650000E-01  5.390200056E-04
  6.708300000E-02  2.103400022E-04
   s  14
  1.053749500E+05 -2.815000008E-05
  1.567924000E+04 -1.163000003E-04
  3.534544700E+03 -4.909200013E-04
  9.873651600E+02 -1.946160005E-03
  3.159787500E+02 -7.005300019E-03
  1.116542800E+02 -2.167814006E-02
  4.269945100E+01 -5.641213015E-02
  1.739559600E+01 -1.127053003E-01
  7.438309000E+00 -1.589119704E-01
  3.222862000E+00 -3.355083009E-02
  1.253877000E+00  3.531902810E-01
  4.951550000E-01  5.534199315E-01
  1.916650000E-01  2.301839106E-01
  6.708300000E-02  1.127267003E-02
   p   9
  2.000000000E+02  9.173000030E-04
  4.653336700E+01  7.377140024E-03
  1.462180900E+01  3.483515011E-02
  5.313064000E+00  1.144397004E-01
  2.102525000E+00  2.554966408E-01
  8.502230000E-01  3.722557412E-01
  3.375970000E-01  3.323314911E-01
  1.288920000E-01  1.400847905E-01
  4.511200000E-02  2.395784008E-02
 
[MO]
Sym=     1a  
Ene=   -26.4280
Spin= Alpha
Occup=    1.00000
   1         1.00000397
   2        -0.00333769
   3         0.00000000
   4         0.00000000
   5         0.00086911
   6        -0.00003058
   7        -0.00034858
   8         0.00000000
   9        -0.00000000
  10         0.00017841
Sym=     1a  
Ene=   -26.4390
Spin= Beta
Occup=    1.00000
   1         1.00000830
   2        -0.00277554
   3         0.00000000
   4         0.00000000
   5         0.00091618
   6        -0.00003140
   7        -0.00040557
   8        -0.00000000
   9        -0.00000000
  10         0.00023903
Sym=     2a  
Ene=   -20.8690
Spin= Alpha
Occup=    1.00000
   1        -0.00010510
   2        -0.00063375
   3         0.00000000
   4        -0.00000000
   5        -0.00032396
   6         1.00001556
   7         0.00105291
   8        -0.00000000
   9        -0.00000000
  10        -0.00116210
Sym=     2a  
Ene=   -20.8230
Spin= Beta
Occup=    1.00000
   1        -0.00007108
   2        -0.00024328
   3         0.00000000
   4        -0.00000000
   5        -0.00000512
   6         1.00000093
   7        -0.00161185
   8        -0.00000000
   9        -0.00000000
  10        -0.00097214
Sym=     3a  
Ene=    -1.7273
Spin= Alpha
Occup=    1.00000
   1        -0.00677493
   2         0.76551295
   3        -0.00000000
   4        -0.00000000
   5         0.08740897
   6        -0.01117230
   7         0.43690306
   8        -0.00000000
   9        -0.00000000
  10        -0.12604690
Sym=     3a  
Ene=    -1.7295
Spin= Beta
Occup=    1.00000
   1        -0.00348695
   2         0.88304195
   3        -0.00000000
   4         0.00000000
   5         0.10440193
   6        -0.01194771
   7         0.24194185
   8         0.00000000
   9        -0.00000000
  10        -0.09533436
Sym=     4a  
Ene=    -1.3763
Spin= Alpha
Occup=    1.00000
   1        -0.01177110
   2        -0.60109397
   3        -0.00000000
   4        -0.00000000
   5         0.10849107
   6         0.00228764
   7         0.86682700
   8         0.00000000
   9         0.00000000
  10         0.04240462
Sym=     4a  
Ene=    -1.2341
Spin= Beta
Occup=    1.00000
   1        -0.01255346
   2        -0.44350096
   3        -0.00000000
   4        -0.00000000
   5         0.24377757
   6        -0.00129468
   7         0.87791094
   8         0.00000000
   9         0.00000000
  10         0.00085590
Sym=     5a  
Ene=    -0.8329
Spin= Alpha
Occup=    1.00000
   1        -0.00000000
   2        -0.00000000
   3         0.57485323
   4         0.17806434
   5         0.00000000
   6        -0.00000000
   7        -0.00000000
   8         0.68228802
   9         0.21134293
  10        -0.00000000
Sym=     5a  
Ene=    -0.7885
Spin= Beta
Occup=    1.00000
   1        -0.00000000
   2        -0.00000000
   3        -0.25356872
   4         0.81860748
   5         0.00000000
   6        -0.00000000
   7        -0.00000000
   8        -0.11941270
   9         0.38550548
  10        -0.00000000
Sym=     6a  
Ene=    -0.7944
Spin= Alpha
Occup=    1.00000
   1        -0.00000000
   2        -0.00000000
   3        -0.22592296
   4         0.72935741
   5         0.00000000
   6        -0.00000000
   7        -0.00000000
   8        -0.16044526
   9         0.51797275
  10        -0.00000000
Sym=     6a  
Ene=    -0.7437
Spin= Beta
Occup=    1.00000
   1        -0.00000000
   2        -0.00000000
   3         0.92922850
   4         0.28783426
   5         0.00000000
   6        -0.00000000
   7        -0.00000000
   8         0.12283506
   9         0.03804892
  10        -0.00000000
Sym=     7a  
Ene=    -0.7350
Spin= Alpha
Occup=    1.00000
   1         0.02109624
   2         0.29123217
   3        -0.00000000
   4         0.00000000
   5        -0.55196174
   6         0.01427094
   7         0.22597199
   8         0.00000000
   9         0.00000000
  10         0.73719184
Sym=     7a  
Ene=    -0.7436
Spin= Beta
Occup=    1.00000
   1        -0.00877804
   2        -0.12488134
   3        -0.00000000
   4        -0.00000000
   5         0.79913415
   6        -0.02388631
   7        -0.44726256
   8        -0.00000000
   9        -0.00000000
  10        -0.43916217
Sym=     8a  
Ene=    -0.6766
Spin= Alpha
Occup=    1.00000
   1        -0.00000000
   2        -0.00000000
   3        -0.77625179
   4        -0.24044879
   5         0.00000000
   6        -0.00000000
   7        -0.00000000
   8         0.68374421
   9         0.21179399
  10        -0.00000000
Sym=     8a  
Ene=    -0.5946
Spin= Beta
Occup=    1.00000
   1        -0.00000000
   2        -0.00000000
   3         0.15882516
   4        -0.51274251
   5        -0.00000000
   6         0.00000000
   7         0.00000000
   8        -0.27434127
   9         0.88566845
  10        -0.00000000
Sym=     9a  
Ene=    -0.6291
Spin= Alpha
Occup=    1.00000
   1         0.00000000
   2         0.00000000
   3         0.19616662
   4        -0.63329366
   5        -0.00000000
   6         0.00000000
   7         0.00000000
   8        -0.25254672
   9         0.81530811
  10         0.00000000
Sym=     9a  
Ene=     0.0578
Spin= Beta
Occup=    0.00000
   1         0.00000000
   2         0.00000000
   3        -0.26373752
   4        -0.08169433
   5         0.00000000
   6        -0.00000000
   7        -0.00000000
   8         0.95808905
   9         0.29677400
  10         0.00000000
Sym=    10a  
Ene=     0.1474
Spin= Alpha
Occup=    0.00000
   1         0.02888466
   2         0.33066743
   3         0.00000000
   4        -0.00000000
   5         0.91111648
   6        -0.03024212
   7        -0.37390537
   8        -0.00000000
   9         0.00000000
  10         0.77563476
Sym=    10a  
Ene=     0.1760
Spin= Beta
Occup=    0.00000
   1         0.03476173
   2         0.38656617
   3         0.00000000
   4        -0.00000000
   5         0.66728030
   6        -0.02371863
   7        -0.32223142
   8        -0.00000000
   9         0.00000000
  10         0.98020134
