   This run of MOLCAS is using the pymolcas driver

                             OPE
                             OPE          NMOL  CASOP  ENMOLC A   SO
                 OPE        NMOLC        AS  OP EN  MO LC     AS  OP
                OPENM       OL CA        SO  PE NM  OL CA     SOP EN
                OP EN      MO   LC       AS  OP ENMOL  CASO   PENMOL
                OP  EN     MO   LC       AS  OP EN     MO     LC ASO
               OP   E  NMOL  C  AS       OP  EN MO     LC     AS  OP
               OP  E   NMO   LC AS        OPEN  MO     LCASOP EN   M
               O  PEN   MO  LCA  SO
            OPE   NMO   L   CAS    OP
        OPENMOL  CASOP     ENMOL   CASOPE
     OPENMOLCA   SOPENMOLCASOPEN   MOLCASOPE
    OPENMOLCAS   OP           EN   MOL    CAS
    OPENMOLCAS       OP  ENM        O     LCA
    OPENMOLCAS    OPEN  MOLCASO     P  E  NMO
    OPENMOLCAS     OP               E  N  MOL
    OPENMOLCA   SO           PENM   O  L  CAS    OPEN    MO    LCAS
    OPENMOLCA   SOP           ENM   O  L  CAS   OP  EN  MOLC  AS   O
    OPENMOLCA   SOPE           NM      O  LCA   S      OP  EN MO
    OPENMOLC                AS         O  PEN   M      OL  CA  SOPE
    OPENMO        LCASOPE  NMOL        C  ASO   P      ENMOLC     AS
    OPE     NMO      LCA  SO     P     E   NM   OL  CA SO  PE N   MO
          OPENMOLCA            SOPE   NMO        LCAS  O    P  ENMO
     OPENMOLCASOPENMOLCASOPENMOLCASOPENMOLCA
        OPENMOLCASOPENMOLCASOPENMOLCASOPE
            OPENMOLCASOPENMOLCASOPENM
               OPENMOLCASOPENMOLCA        version: 24.02
                   OPENMOLCASO
                       OPE                tag: 126-g611b04c8f

 OpenMolcas is free software; you can redistribute it and/or modify it
 under the terms of the GNU Lesser General Public License version 2.1.
 OpenMolcas is distributed in the hope that it will be useful, but it
 is provided "as is" and without any express or implied warranties.
 For more details see the full text of the license in the file
 LICENSE or in <http://www.gnu.org/licenses/>.

                 Copyright (C) The OpenMolcas Authors
           For the author list and the recommended citation,
                   consult the file CONTRIBUTORS.md

           *************************************************
           * pymolcas version py2.28                       *
           *   build c4a6d18ded8cb6cad61d2372a9abd97c      *
           *   (after the EMIL interpreter by V. Veryazov) *
           *************************************************

configuration info
------------------
Host name: debian (Linux)
C Compiler ID: GNU
C flags: -std=gnu99
Fortran Compiler ID: Intel
Fortran flags: -fpp -i8 -heap-arrays
Definitions: _MOLCAS_;_I8_;_LINUX_
Parallel: OFF (GA=OFF)


   -----------------------------------------------------------------
  |
  |              Project: 1.70
  |       Submitted from: /home/grierjones/DDCASPT2/delta_ML/BO/1.70
  |         Scratch area: /tmp/1.70
  |      Save outputs to: /home/grierjones/DDCASPT2/delta_ML/BO/1.70
  |               Molcas: /usr/local
  |
  | Scratch area is empty
  |
  |       MOLCAS_DRIVER = /usr/local/pymolcas
  | MOLCAS_KEEP_WORKDIR = NO
  |  MOLCAS_NEW_WORKDIR = YES
  |       MOLCAS_NPROCS = 1
  |       MOLCAS_SOURCE = /usr/local
  |    MOLCAS_STRUCTURE = 0
  |
   -----------------------------------------------------------------

++ ---------   Input file   ---------

&GATEWAY
coord=1.70.xyz
Basis = ANO-RCC-MB
Group = nosymm
End of Input

&SEWARD
End of Input

&SCF
UHF

&MBPT2
Frozen
0

&RASSCF
Title= RASSCF
FileOrb
/home/grierjones/DDCASPT2/delta_ML/BO/1.60/1.60.RasOrb

NACTEL
1 0 0
Inactive
6
RAS2
2
Symmetry
1
Spin
2
orblisting
all
ITERation
200 100
CIMX
200
SDAV
500

&CASPT2
Imaginary Shift
0.0
Frozen
0

-- ----------------------------------

--- Start Module: gateway at Thu Apr 25 13:38:37 2024 ---
 
()()()()()()()()()()()()()()()()()()()()()()()()()()()()()()()()()()()()()()()()()()()()()()()()()()

                                              &GATEWAY

                                   only a single process is used
                       available to each process: 2.0 GB of memory, 1 thread?
                                             pid: 98193
()()()()()()()()()()()()()()()()()()()()()()()()()()()()()()()()()()()()()()()()()()()()()()()()()()
 
 
++    Symmetry information:
      ---------------------
 
                    Character Table for C1 
 
                             E  
                    a        1  x, y, xy, Rz, z, xz, Ry, yz, Rx, I
--
 
 
++    Basis set information:
      ----------------------
 
 
      Basis set label: B.ANO-RCC...2S1P.
 
      Electronic valence basis set:
      ------------------
      Associated Effective Charge   5.000000 au
      Associated Actual Charge      5.000000 au
      Nuclear Model: Point charge
 
      Shell  nPrim  nBasis  Cartesian Spherical Contaminant
         s      14       2        X                  
         p       9       1        X                  
 
 
      Basis set label: O.ANO-RCC...2S1P.
 
      Electronic valence basis set:
      ------------------
      Associated Effective Charge   8.000000 au
      Associated Actual Charge      8.000000 au
      Nuclear Model: Point charge
 
      Shell  nPrim  nBasis  Cartesian Spherical Contaminant
         s      14       2        X                  
         p       9       1        X                  
--
 
 
++    Molecular structure info:
      -------------------------
 
                    ************************************************ 
                    **** Cartesian Coordinates / Bohr, Angstrom **** 
                    ************************************************ 
 
     Center  Label                x              y              z                     x              y              z
        1      B1               0.000000       0.000000       0.000000              0.000000       0.000000       0.000000
        2      O2               0.000000       0.000000       3.212534              0.000000       0.000000       1.700000
--
 
 
            Nuclear Potential Energy             12.45122849 au
 
--- Stop Module: gateway at Thu Apr 25 13:38:37 2024 /rc=_RC_ALL_IS_WELL_ ---
*** files: xmldump
    saved to directory /home/grierjones/DDCASPT2/delta_ML/BO/1.70

--- Start Module: seward at Thu Apr 25 13:38:37 2024 ---
 
()()()()()()()()()()()()()()()()()()()()()()()()()()()()()()()()()()()()()()()()()()()()()()()()()()

                                              &SEWARD

                                   only a single process is used
                       available to each process: 2.0 GB of memory, 1 thread?
                                             pid: 98196
()()()()()()()()()()()()()()()()()()()()()()()()()()()()()()()()()()()()()()()()()()()()()()()()()()
 
               SEWARD will generate:
                  Multipole Moment integrals up to order  2
                  Kinetic Energy integrals
                  Nuclear Attraction integrals (point charge)
                  One-Electron Hamiltonian integrals
                  Velocity integrals
                  Relativistic Douglas-Kroll-Hess integrals:
                    - Parametrization         : EXP
                    - DKH order of Hamiltonian: 2
                    - DKH order of Properties : 0
                         - multipole moment operators
                         - electric potential operators
                         - contact operators
                  Orbital angular momentum around ( 0.0000  0.0000  1.9028 )
                  Velocity quadrupole around ( 0.0000  0.0000  1.9028 )
                  Atomic mean-field integrals
                  Two-Electron Repulsion integrals
 
                   Integrals are discarded if absolute value <: 1.00E-14
                   Integral cutoff threshold is set to       <: 1.00E-16
 
            Nuclear Potential Energy             12.45122849 au
 
 
      Basis set specifications :
      Symmetry species         a  
      Basis functions           10
 
 
      Input file to MOLDEN was generated!
 
--- Stop Module: seward at Thu Apr 25 13:38:38 2024 /rc=_RC_ALL_IS_WELL_ ---
*** files: 1.70.GssOrb 1.70.guessorb.h5 1.70.guessorb.molden xmldump
    saved to directory /home/grierjones/DDCASPT2/delta_ML/BO/1.70

*** symbolic link created: INPORB -> 1.70.GssOrb
--- Start Module: scf at Thu Apr 25 13:38:38 2024 ---
 
()()()()()()()()()()()()()()()()()()()()()()()()()()()()()()()()()()()()()()()()()()()()()()()()()()

                                                &SCF

                                   only a single process is used
                       available to each process: 2.0 GB of memory, 1 thread?
                                             pid: 98200
()()()()()()()()()()()()()()()()()()()()()()()()()()()()()()()()()()()()()()()()()()()()()()()()()()
 
++    Input section:
      --------------
 
      Header of the integral files:
      
       Integrals generated by Gateway/Seward, Thu Apr 25 13:38:37 2024
 
 
      Cartesian coordinates in Angstrom:
      -----------------------------------------------------
      No.  Label        X            Y            Z        
      -----------------------------------------------------
       1   B1         0.00000000   0.00000000   0.00000000
       2   O2         0.00000000   0.00000000   1.70000000
      -----------------------------------------------------
      Nuclear repulsion energy =   12.45122849
--
 
++    Orbital specifications:
      -----------------------
 
      Symmetry species               1
                                     a
      Frozen orbitals                0
      Occupied orbitals alpha        7
      Occupied orbitals beta         6
      Secondary orbitals alpha       3
      Secondary orbitals beta        4
      Deleted orbitals               0
      Total number of orbitals      10
      Number of basis functions     10
--
 
      Molecular charge                           0.000
 
++    Optimization specifications:
      ----------------------------
 
      SCF Algorithm: Conventional USCF
      D(i)-D(i-1) density differences are used
      Number of density matrices in core                 5
      Maximum number of NDDO SCF iterations            400
      Maximum number of HF SCF iterations              400
      Threshold for SCF energy change             1.00E-09
      Threshold for density matrix                1.00E-04
      Threshold for Fock matrix                   1.50E-04
      Threshold for linear dependence             1.00E-09
      Threshold at which DIIS is turned on        1.50E-01
      Maximum depth in the DIIS procedure                5
      Maximum depth in the BFGS Hessian update          30
      Threshold at which QNR/C2DIIS is turned on  7.50E-02
      Threshold for Norm(delta) (QNR/C2DIIS)      1.00E-03
      All orbitals punched on: UHFORB
--
 
      Input vectors read from INPORB
      Orbital file label: *Guess orbitals
 
 
++ Convergence information
                               UHF SCF        iterations: Energy and convergence statistics
 
Iter     Tot. SCF        One-elec.       Two-elec.     Energy      Max Dij or  Max Fij      DNorm      TNorm      AccCon     Time
         Energy          Energy          Energy        Change      Delta Norm                                                in Sec.
   1   -99.098816260  -163.803135844    52.253091092   0.00E+00    9.08E-01*   2.20E-01*    5.07E+00   2.40E+01   None         0.
   2   -98.032976531  -154.307259369    43.823054346   1.07E+00*   3.45E-01*   1.04E-01*    3.17E+00   2.18E+01   EDIIS        0.
   3   -99.321055532  -159.835631389    48.063347366  -1.29E+00*   2.78E-01*   1.08E-01*    1.32E+00   2.30E+01   EDIIS        0.
   4   -99.341185840  -162.263025140    50.470610808  -2.01E-02*   1.37E-01*   6.33E-02*    8.68E-01   2.36E+01   EDIIS        0.
   5   -99.384550510  -160.990840810    49.155061809  -4.34E-02*   8.05E-02*   2.37E-02*    3.10E-01   2.32E+01   c2DIIS       0.
   6   -99.390824648  -161.262113872    49.420060732  -6.27E-03*   7.99E-02*   1.03E-01*    2.15E-01   2.33E+01   c2DIIS       0.
   7   -99.401817880  -161.265046183    49.411999811  -1.10E-02*   3.79E-02*   4.98E-02*    2.65E-01   2.33E+01   c2DIIS       0.
   8   -99.404750101  -160.981024968    49.125046375  -2.93E-03*   1.30E-01*   1.94E-02*    3.42E-01   2.33E+01   QNRc2DIIS    0.
   9   -99.406106889  -161.310069117    49.452733736  -1.36E-03*   5.32E-02*   1.51E-02*    1.79E-01   2.33E+01   QNRc2DIIS    0.
  10   -99.407041265  -161.204737846    49.346468089  -9.34E-04*   1.25E-01*   7.29E-03*    7.42E-02   2.33E+01   QNRc2DIIS    0.
  11   -99.407733625  -161.156401438    49.297439320  -6.92E-04*   4.09E-02*   4.48E-03*    1.73E-01   2.33E+01   QNRc2DIIS    0.
  12   -99.407858098  -161.168590414    49.309503824  -1.24E-04*   2.25E-02*   1.11E-03*    6.33E-02   2.33E+01   QNRc2DIIS    0.
  13   -99.407874196  -161.158889773    49.299787085  -1.61E-05*   1.14E-02*   5.25E-04*    3.11E-02   2.33E+01   QNRc2DIIS    0.
  14   -99.407876103  -161.160078461    49.300973866  -1.91E-06*   7.78E-03*   3.08E-04*    1.68E-02   2.33E+01   QNRc2DIIS    0.
  15   -99.407878239  -161.157920798    49.298814067  -2.14E-06*   2.31E-03*   1.78E-04*    1.07E-02   2.33E+01   QNRc2DIIS    0.
  16   -99.407878521  -161.158316706    49.299209693  -2.82E-07*   9.04E-04    6.43E-05     3.42E-03   2.33E+01   QNRc2DIIS    0.
  17   -99.407878565  -161.158109938    49.299002881  -4.39E-08*   1.81E-04    2.40E-05     1.31E-03   2.33E+01   QNRc2DIIS    0.
  18   -99.407878568  -161.158178545    49.299071485  -3.09E-09*   6.81E-05    1.10E-05     2.63E-04   2.33E+01   QNRc2DIIS    0.
  19   -99.407878569  -161.158219208    49.299112148  -5.28E-10    8.80E-06    2.05E-06     1.06E-04   2.33E+01   QNRc2DIIS    0.
 
       Convergence after  19 Macro Iterations
--
 
 *****************************************************************************************************************************
 *                                                                                                                           *
 *                                             SCF/KS-DFT Program, Final results                                             *
 *                                                                                                                           *
 *                                                                                                                           *
 *                                                                                                                           *
 *                                                       Final Results                                                       *
 *                                                                                                                           *
 *****************************************************************************************************************************
 
::    Total SCF energy                                -99.4078785686
      One-electron energy                            -161.1582192082
      Two-electron energy                              49.2991121477
      Nuclear repulsion energy                         12.4512284918
      Kinetic energy (interpolated)                   100.0321253192
      Virial theorem                                    0.9937595373
      Total spin, S(S+1)                                0.8233116458
      Total spin, S                                     0.5360075510
      Max non-diagonal density matrix element           0.0000048255
      Max non-diagonal Fock matrix element              0.0000009026
 
 
      All orbitals with orbital energies smaller than  E(LUMO)+0.5 are printed
 
++    Molecular orbitals:
      -------------------
 
      Title: UHF orbitals (alpha)

      Molecular orbitals for symmetry species 1: a  
 
          Orbital            1         2         3         4         5         6         7         8         9        10    
          Energy          -20.5220   -7.8183   -1.2554   -0.6456   -0.4869   -0.4869   -0.4849    0.0636    0.0636    0.2800
          Occ. No.          1.0000    1.0000    1.0000    1.0000    1.0000    1.0000    1.0000    0.0000    0.0000    0.0000
 
        1 B1     1s        -0.0001    0.9999   -0.0171    0.0317    0.0000   -0.0000    0.0125    0.0000   -0.0000    0.0285
        2 B1     2s        -0.0006    0.0138    0.0910   -0.6077    0.0000   -0.0000    0.6851   -0.0000    0.0000    0.5862
        3 B1     2px       -0.0000    0.0000   -0.0000    0.0000   -0.0396    0.1832    0.0000   -0.1903    0.9808    0.0000
        4 B1     2py       -0.0000    0.0000    0.0000   -0.0000    0.1832    0.0396   -0.0000    0.9808    0.1903    0.0000
        5 B1     2pz       -0.0005    0.0005    0.0762   -0.0304   -0.0000    0.0000   -0.5520    0.0000   -0.0000    0.9785
        6 O2     1s         1.0000   -0.0001   -0.0061    0.0142    0.0000   -0.0000    0.0086    0.0000    0.0000   -0.0523
        7 O2     2s         0.0013    0.0001    0.9426    0.2668    0.0000   -0.0000    0.0518    0.0000    0.0000   -0.5563
        8 O2     2px       -0.0000   -0.0000   -0.0000   -0.0000   -0.2007    0.9277    0.0000    0.0693   -0.3574    0.0000
        9 O2     2py        0.0000    0.0000    0.0000    0.0000    0.9277    0.2007   -0.0000   -0.3574   -0.0693   -0.0000
       10 O2     2pz       -0.0007   -0.0005   -0.0381    0.6486    0.0000   -0.0000    0.5363    0.0000   -0.0000    0.6906
--
 
 
      Input file to MOLDEN was generated!
 
 
++    Static properties:
      ------------------
 
 
      LoProp Charges per center
 

                   B1       O2    
      Nuclear      5.0000   8.0000
      Electronic  -4.6192  -8.3808
 
      Total        0.3808  -0.3808
--
 
 
      All orbitals with orbital energies smaller than  E(LUMO)+0.5 are printed
 
++    Molecular orbitals:
      -------------------
 
      Title: UHF orbitals (beta)

      Molecular orbitals for symmetry species 1: a  
 
          Orbital            1         2         3         4         5         6         7         8         9        10    
          Energy          -20.4970   -7.8172   -1.1501   -0.5156   -0.4401   -0.4401    0.0238    0.0656    0.0656    0.4167
          Occ. No.          1.0000    1.0000    1.0000    1.0000    1.0000    1.0000    0.0000    0.0000    0.0000    0.0000
 
        1 B1     1s        -0.0001    0.9999   -0.0192    0.0139   -0.0000    0.0000    0.0149   -0.0000   -0.0000    0.0376
        2 B1     2s        -0.0004    0.0130    0.1326   -0.9464   -0.0000    0.0000    0.2772    0.0000    0.0000    0.4477
        3 B1     2px       -0.0000   -0.0000   -0.0000   -0.0000   -0.0229    0.2614   -0.0000   -0.9271    0.3242    0.0000
        4 B1     2py       -0.0000    0.0000    0.0000    0.0000    0.2614    0.0229    0.0000    0.3242    0.9271   -0.0000
        5 B1     2pz       -0.0004    0.0012    0.0783   -0.0479    0.0000   -0.0000   -0.7514    0.0000    0.0000    0.8341
        6 O2     1s         1.0000   -0.0001   -0.0056    0.0222    0.0000   -0.0000    0.0255   -0.0000   -0.0000   -0.0435
        7 O2     2s        -0.0003   -0.0001    0.9211    0.4130    0.0000   -0.0000    0.2986   -0.0000   -0.0000   -0.4044
        8 O2     2px       -0.0000   -0.0000   -0.0000    0.0000   -0.0804    0.9154   -0.0000    0.4104   -0.1435   -0.0000
        9 O2     2py        0.0000    0.0000    0.0000   -0.0000    0.9154    0.0804    0.0000   -0.1435   -0.4104    0.0000
       10 O2     2pz       -0.0007   -0.0000   -0.0875    0.1867   -0.0000    0.0000    0.5332   -0.0000   -0.0000    0.9273
--
 
 
++    Molecular charges:
      ------------------
 
      Mulliken charges per centre and basis function type
      ---------------------------------------------------
 
                            B1                      O2    
                     alpha        beta       alpha        beta
      1s           1.0001      1.0001      1.0000      1.0000
      2s           0.8453      0.8991      0.9650      0.9729
      2px          0.0671      0.1122      0.9329      0.8878
      2pz          0.3982      0.0309      0.7913      0.0970
      2py          0.0671      0.1122      0.9329      0.8878
      Total        2.3779      2.1545      4.6221      3.8455
      Total              4.5324                  8.4676
 
      Charge            0.4676                 -0.4676
 
      Total electronic charge=   13.000000
 
      Total            charge=   -0.000000
--
 
 
      Input file to MOLDEN was generated!
 
 
++    Static properties:
      ------------------
 
 
      LoProp Charges per center
 

                   B1       O2    
      Nuclear      5.0000   8.0000
      Electronic  -4.6192  -8.3808
 
      Total        0.3808  -0.3808
--
 
 
++    Natural Bond Order analysis
      ---------------------------
      Based on LoProp computed density
      -------------------------------------------------------------------------------------
      Atom A       Atom B       Bond Order
      -------------------------------------------------------------------------------------
      NBO located      0.999 non-bonded electrons on atom B1        
      NBO located      0.961 non-bonded electrons on atom B1        
      The remaining    4.783 electrons are to be considered as diffuse
--
 
 
++    Molecular orbitals:
      -------------------
 
      Title: Natural orbitals

      Molecular orbitals for symmetry species 1: a  
 
          Orbital            1         2         3         4         5         6         7         8         9        10    
          Energy          -20.5095   -7.8177   -1.2009   -0.4627   -0.4627   -0.5546   -0.2314    0.3214    0.0638    0.0638
          Occ. No.          2.0000    2.0000    2.0000    1.9972    1.9972    1.9686    1.0000    0.0314    0.0028    0.0028
 
        1 B1     1s        -0.0001    0.9999    0.0196    0.0000    0.0000   -0.0162   -0.0240    0.0308    0.0000    0.0000
        2 B1     2s        -0.0011    0.0116   -0.1372    0.0000   -0.0000    0.8930   -0.3819    0.4779    0.0000    0.0000
        3 B1     2px       -0.0000    0.0000    0.0000   -0.0476    0.2200    0.0000    0.0000    0.0000   -0.1891   -0.9731
        4 B1     2py       -0.0000   -0.0000   -0.0000    0.2200    0.0476   -0.0000   -0.0000   -0.0000    0.9731   -0.1891
        5 B1     2pz       -0.0003    0.0011   -0.0785    0.0000   -0.0000   -0.0783    0.5138    0.9963    0.0000    0.0000
        6 O2     1s         1.0000   -0.0001    0.0072   -0.0000    0.0000   -0.0150   -0.0136   -0.0508   -0.0000   -0.0000
        7 O2     2s         0.0015    0.0009   -0.9191   -0.0000    0.0000   -0.3556   -0.1857   -0.5158   -0.0000   -0.0000
        8 O2     2px        0.0000    0.0000    0.0000   -0.1977    0.9136    0.0000    0.0000   -0.0000    0.0762    0.3923
        9 O2     2py       -0.0000   -0.0000   -0.0000    0.9136    0.1977   -0.0000   -0.0000    0.0000   -0.3923    0.0762
       10 O2     2pz       -0.0007    0.0002    0.0884   -0.0000    0.0000   -0.2799   -0.7521    0.7313    0.0000    0.0000
--
 
 
++    Molecular properties:
      ---------------------
 
      Charge (e):
                      =   -0.0000
      Dipole Moment (Debye):
      Origin of the operator (Ang)=    0.0000    0.0000    0.0000
                   X= -9.6271E-13               Y=  6.8240E-13               Z= -2.6122E+00           Total=  2.6122E+00
      Quadrupole Moment (Debye*Ang):
      Origin of the operator (Ang)=    0.0000    0.0000    1.0069
                  XX= -1.1525E+01              XY=  8.9426E-15              XZ=  3.9542E-13              YY= -1.1525E+01
                  YZ= -1.7335E-13              ZZ= -1.1360E+01
      In traceless form (Debye*Ang)
                  XX= -8.2277E-02              XY=  1.3414E-14              XZ=  5.9312E-13              YY= -8.2277E-02
                  YZ= -2.6003E-13              ZZ=  1.6455E-01
--
 
 
      Input file to MOLDEN was generated!
 
 ###############################################################################
 ###############################################################################
 ###                                                                         ###
 ###                                                                         ###
 ###    WARNING: RunFile label nBas                                          ###
 ###    was used       87 times                                              ###
 ###                                                                         ###
 ###                                                                         ###
 ###############################################################################
 ###############################################################################
--- Stop Module: scf at Thu Apr 25 13:38:38 2024 /rc=_RC_ALL_IS_WELL_ ---
*** files: 1.70.LprOrb 1.70.LoProp.molden 1.70.scf.molden 1.70.scf.h5 1.70.UhfOrb 1.70.UnaOrb xmldump
    saved to directory /home/grierjones/DDCASPT2/delta_ML/BO/1.70

*** symbolic link created: INPORB -> 1.70.UnaOrb
--- Start Module: mbpt2 at Thu Apr 25 13:38:38 2024 ---
 
()()()()()()()()()()()()()()()()()()()()()()()()()()()()()()()()()()()()()()()()()()()()()()()()()()

                                               &MBPT2

                                   only a single process is used
                       available to each process: 2.0 GB of memory, 1 thread?
                                             pid: 98204
()()()()()()()()()()()()()()()()()()()()()()()()()()()()()()()()()()()()()()()()()()()()()()()()()()
 
 
 ###############################################################################
 ###############################################################################
 ###                                                                         ###
 ###                                                                         ###
 ###    WARNING: MP2 implementation intended for RHF references only         ###
 ###                                                                         ###
 ###                                                                         ###
 ###############################################################################
 ###############################################################################
MBPT2 WARNING: Reference function according to RunFile:UHF-SCF 
I'll assume you know what you're doing and continue
 
 
WARNING!
Default frozen orbitals as non valence orbitals is overwritten by user input.
Default values:   2
 
 
      Cartesian coordinates in Angstrom:
      -----------------------------------------------------
      No.  Label        X            Y            Z        
      -----------------------------------------------------
       1   B1         0.00000000   0.00000000   0.00000000
       2   O2         0.00000000   0.00000000   1.70000000
      -----------------------------------------------------
      Nuclear repulsion energy =   12.45122849
 
      Contents of RUNFILE file:
      -------------------------
 
      Symmetry species                           1
                                                 a
      Number of basis functions                 10
      Frozen occupied orbitals                   0
      Active occupied orbitals                   7
      Active external orbitals                   3
      Deleted external orbitals                  0
 
 
      Energies of the active occupied orbitals
 
      symmetry species 1                   -20.521991     -7.818317     -1.255396     -0.645571     -0.486882
                                            -0.486882     -0.484882
 
 
      Energies of the active external orbitals
 
      symmetry species 1                     0.063567      0.063567      0.280027
 
 
      ********************************************************************************************************
      *                                               Results                                                *
      ********************************************************************************************************
 
 Conventional algorithm used...

       SCF energy                           =      -99.4078785686 a.u.
       Second-order correlation energy      =       -0.0653694292 a.u.

       Total energy                         =      -99.4732479978 a.u.
       Reference weight ( Cref**2 )         =        0.95505
 
::    Total MBPT2 energy                              -99.4732479978
 
 
       Zeroth-order energy (E0)             =      -50.9486118625 a.u.
 
       Shanks-type energy S1(E)             =      -99.4733362974 a.u.
 
 


       Data processing and timing information:

       Section                                              time(sec)
                                                          CPU  Elapsed

      Input data processing                              0.03      0.04
      Transformation of integrals                        0.00      0.01
      MBPT2 calculations (BJAI)                          0.00      0.00
      Total MBPT2 calculations                           0.03      0.05
 
 
--- Stop Module: mbpt2 at Thu Apr 25 13:38:39 2024 /rc=_RC_ALL_IS_WELL_ ---
*** files: xmldump
    saved to directory /home/grierjones/DDCASPT2/delta_ML/BO/1.70

*** symbolic link created: INPORB -> 1.70.UnaOrb
--- Start Module: rasscf at Thu Apr 25 13:38:39 2024 ---
 
()()()()()()()()()()()()()()()()()()()()()()()()()()()()()()()()()()()()()()()()()()()()()()()()()()

                                              &RASSCF

                                   only a single process is used
                       available to each process: 2.0 GB of memory, 1 thread?
                                             pid: 98207
()()()()()()()()()()()()()()()()()()()()()()()()()()()()()()()()()()()()()()()()()()()()()()()()()()
 
 
      Header of the ONEINT file:
      --------------------------
      
      Integrals generated by Gateway/Seward, Thu Apr 25 13:38:37 2024
 
 
      OrdInt status: non-squared
 
 
      Cartesian coordinates in Angstrom:
      -----------------------------------------------------
      No.  Label        X            Y            Z        
      -----------------------------------------------------
       1   B1         0.00000000   0.00000000   0.00000000
       2   O2         0.00000000   0.00000000   1.70000000
      -----------------------------------------------------
      Nuclear repulsion energy =   12.45122849
 
++    Wave function specifications:
      -----------------------------
 
      Number of closed shell electrons          12
      Number of electrons in active shells       1
      Max number of holes in RAS1 space          0
      Max nr of electrons in RAS3 space          0
      Number of inactive orbitals                6
      Number of active orbitals                  2
      Number of secondary orbitals               2
      Spin quantum number                      0.5
      State symmetry                             1
--
 
++    Orbital specifications:
      -----------------------
 
      Symmetry species                           1
                                                 a
      Frozen orbitals                            0
      Inactive orbitals                          6
      Active orbitals                            2
      RAS1 orbitals                              0
      RAS2 orbitals                              2
      RAS3 orbitals                              0
      Secondary orbitals                         2
      Deleted orbitals                           0
      Number of basis functions                 10
--
 
++    CI expansion specifications:
      ----------------------------
 
      Number of CSFs                             2
      Number of determinants                     2
      Number of root(s) required                 1
      Root chosen for geometry opt.              1
      CI root used                               1
         
      highest root included in the CI            1
      max. size of the explicit Hamiltonian      2
--
 
++    Optimization specifications:
      ----------------------------
 
      RASSCF algorithm: Conventional
      Maximum number of macro iterations       200
      Maximum number of SX iterations          100
      Threshold for RASSCF energy            1.000E-08
      Threshold for max MO rotation          1.000E-01
      Threshold for max BLB element          1.000E-04
      Level shift parameter                  5.000E-01
      Make Quasi-Newton update
--
 
      The MO-coefficients are taken from the file:
      /home/grierjones/DDCASPT2/delta_ML/BO/1.60/1.60.RasOrb                                                                                                                                                                                                          
      Title: RASSCF average (pseudo-natural) orbitals                                      
 
      Total molecular charge    0.00
 
      ************************************************************************************************************************
      *                                                                                                                      *
      *                                            Wave function control section                                             *
      *                                                                                                                      *
      ************************************************************************************************************************
 
 
                                         RASSCF iterations: Energy and convergence statistics
                                         ----------------------------------------------------
 
      Iter CI   SX   CI       RASSCF       Energy    max ROT     max BLB   max BLB  Level Ln srch  Step   QN   Walltime
          iter iter root      energy       change     param      element    value   shift minimum  type update hh:mm:ss
 Nr of preliminary CI iterations:   1
 ###############################################################################
 ###############################################################################
 ###                                                                         ###
 ###                                                                         ###
 ###    WARNING: Problems in orbital optimization.                           ###
 ###                                                                         ###
 ###                                                                         ###
 ###############################################################################
 ###############################################################################
  Warning: In symmetry  1, orbital p=   8 has diagonal density matrix element D(p,p) close to zero. D(p,p)=  2.920405E-30
        1   1    5    1   -99.39382450    0.00E+00   2.00E-02    4  10 1 -3.05E-02*  0.50   0.00    SX    NO    0:00:00
 ###############################################################################
 ###############################################################################
 ###                                                                         ###
 ###                                                                         ###
 ###    WARNING: Problems in orbital optimization.                           ###
 ###                                                                         ###
 ###                                                                         ###
 ###############################################################################
 ###############################################################################
  Warning: In symmetry  1, orbital p=   8 has diagonal density matrix element D(p,p) close to zero. D(p,p)=  4.599393E-29
        2   1    5    1   -99.39509168   -1.27E-03* -1.23E-02    4  10 1 -1.63E-02*  0.50   0.00    SX    NO    0:00:00
 ###############################################################################
 ###############################################################################
 ###                                                                         ###
 ###                                                                         ###
 ###    WARNING: Problems in orbital optimization.                           ###
 ###                                                                         ###
 ###                                                                         ###
 ###############################################################################
 ###############################################################################
  Warning: In symmetry  1, orbital p=   8 has diagonal density matrix element D(p,p) close to zero. D(p,p)=  8.529471E-29
        3   1    5    1   -99.39563477   -5.43E-04* -1.05E-02    4  10 1 -9.40E-03*  0.50   0.00    SX    NO    0:00:00
 ###############################################################################
 ###############################################################################
 ###                                                                         ###
 ###                                                                         ###
 ###    WARNING: Problems in orbital optimization.                           ###
 ###                                                                         ###
 ###                                                                         ###
 ###############################################################################
 ###############################################################################
  Warning: In symmetry  1, orbital p=   8 has diagonal density matrix element D(p,p) close to zero. D(p,p)=  1.339474E-28
        4   1    5    1   -99.39592381   -2.89E-04* -8.90E-03    4   7 1 -7.38E-03*  0.50   0.00    SX    NO    0:00:00
 ###############################################################################
 ###############################################################################
 ###                                                                         ###
 ###                                                                         ###
 ###    WARNING: Problems in orbital optimization.                           ###
 ###                                                                         ###
 ###                                                                         ###
 ###############################################################################
 ###############################################################################
  Warning: In symmetry  1, orbital p=   8 has diagonal density matrix element D(p,p) close to zero. D(p,p)=  1.854329E-28
        5   1    4    1   -99.39609905   -1.75E-04* -1.30E-02    4   7 1 -6.25E-03*  0.50   2.50    LS   YES    0:00:00
 ###############################################################################
 ###############################################################################
 ###                                                                         ###
 ###                                                                         ###
 ###    WARNING: Problems in orbital optimization.                           ###
 ###                                                                         ###
 ###                                                                         ###
 ###############################################################################
 ###############################################################################
  Warning: In symmetry  1, orbital p=   8 has diagonal density matrix element D(p,p) close to zero. D(p,p)=  2.725730E-28
        6   1    4    1   -99.39628280   -1.84E-04* -1.87E-02    4   7 1 -4.50E-03*  0.50   2.50    LS   YES    0:00:00
 ###############################################################################
 ###############################################################################
 ###                                                                         ###
 ###                                                                         ###
 ###    WARNING: Problems in orbital optimization.                           ###
 ###                                                                         ###
 ###                                                                         ###
 ###############################################################################
 ###############################################################################
  Warning: In symmetry  1, orbital p=   8 has diagonal density matrix element D(p,p) close to zero. D(p,p)=  2.288970E-28
        7   1    5    1   -99.39638918   -1.06E-04*  5.88E-03    4  10 1  6.11E-03*  0.50   1.05    QN   YES    0:00:00
 ###############################################################################
 ###############################################################################
 ###                                                                         ###
 ###                                                                         ###
 ###    WARNING: Problems in orbital optimization.                           ###
 ###                                                                         ###
 ###                                                                         ###
 ###############################################################################
 ###############################################################################
  Warning: In symmetry  1, orbital p=   8 has diagonal density matrix element D(p,p) close to zero. D(p,p)=  2.122462E-28
        8   1    5    1   -99.39644842   -5.92E-05*  8.64E-03    4  10 1  4.68E-03*  0.50   2.50    LS   YES    0:00:00
 ###############################################################################
 ###############################################################################
 ###                                                                         ###
 ###                                                                         ###
 ###    WARNING: Problems in orbital optimization.                           ###
 ###                                                                         ###
 ###                                                                         ###
 ###############################################################################
 ###############################################################################
  Warning: In symmetry  1, orbital p=   8 has diagonal density matrix element D(p,p) close to zero. D(p,p)=  1.759068E-28
        9   1    4    1   -99.39650361   -5.52E-05*  7.80E-03    4  10 1  2.59E-03*  0.50   1.92    LS   YES    0:00:00
 ###############################################################################
 ###############################################################################
 ###                                                                         ###
 ###                                                                         ###
 ###    WARNING: Problems in orbital optimization.                           ###
 ###                                                                         ###
 ###                                                                         ###
 ###############################################################################
 ###############################################################################
  Warning: In symmetry  1, orbital p=   8 has diagonal density matrix element D(p,p) close to zero. D(p,p)=  1.534813E-28
       10   1    4    1   -99.39652024   -1.66E-05*  2.56E-03    7  10 1 -1.47E-03*  0.50   1.02    QN   YES    0:00:00
 ###############################################################################
 ###############################################################################
 ###                                                                         ###
 ###                                                                         ###
 ###    WARNING: Problems in orbital optimization.                           ###
 ###                                                                         ###
 ###                                                                         ###
 ###############################################################################
 ###############################################################################
  Warning: In symmetry  1, orbital p=   8 has diagonal density matrix element D(p,p) close to zero. D(p,p)=  1.937075E-28
       11   1    4    1   -99.39652903   -8.79E-06*  1.92E-03    7  10 1 -9.24E-04*  0.50   1.42    QN   YES    0:00:00
 ###############################################################################
 ###############################################################################
 ###                                                                         ###
 ###                                                                         ###
 ###    WARNING: Problems in orbital optimization.                           ###
 ###                                                                         ###
 ###                                                                         ###
 ###############################################################################
 ###############################################################################
  Warning: In symmetry  1, orbital p=   8 has diagonal density matrix element D(p,p) close to zero. D(p,p)=  2.136449E-28
       12   1    4    1   -99.39653351   -4.48E-06*  1.77E-03    4  10 1 -8.28E-04*  0.50   1.93    LS   YES    0:00:00
 ###############################################################################
 ###############################################################################
 ###                                                                         ###
 ###                                                                         ###
 ###    WARNING: Problems in orbital optimization.                           ###
 ###                                                                         ###
 ###                                                                         ###
 ###############################################################################
 ###############################################################################
  Warning: In symmetry  1, orbital p=   8 has diagonal density matrix element D(p,p) close to zero. D(p,p)=  1.723294E-28
       13   1    4    1   -99.39653487   -1.35E-06* -1.03E-03    4  10 1 -1.03E-03*  0.50   1.00    QN   YES    0:00:00
 ###############################################################################
 ###############################################################################
 ###                                                                         ###
 ###                                                                         ###
 ###    WARNING: Problems in orbital optimization.                           ###
 ###                                                                         ###
 ###                                                                         ###
 ###############################################################################
 ###############################################################################
  Warning: In symmetry  1, orbital p=   8 has diagonal density matrix element D(p,p) close to zero. D(p,p)=  1.881125E-28
       14   1    4    1   -99.39653624   -1.38E-06* -5.89E-04    4  10 1 -4.07E-04*  0.50   1.57    LS   YES    0:00:00
 ###############################################################################
 ###############################################################################
 ###                                                                         ###
 ###                                                                         ###
 ###    WARNING: Problems in orbital optimization.                           ###
 ###                                                                         ###
 ###                                                                         ###
 ###############################################################################
 ###############################################################################
  Warning: In symmetry  1, orbital p=   8 has diagonal density matrix element D(p,p) close to zero. D(p,p)=  1.718064E-28
       15   1    3    1   -99.39653646   -2.10E-07*  3.18E-05    3  10 1  8.26E-05   0.50   1.00    QN   YES    0:00:00
 ###############################################################################
 ###############################################################################
 ###                                                                         ###
 ###                                                                         ###
 ###    WARNING: Problems in orbital optimization.                           ###
 ###                                                                         ###
 ###                                                                         ###
 ###############################################################################
 ###############################################################################
  Warning: In symmetry  1, orbital p=   8 has diagonal density matrix element D(p,p) close to zero. D(p,p)=  1.465256E-28
       16   1    3    1   -99.39653646   -7.72E-09   3.60E-05    3  10 1  3.82E-05   0.50   2.03    QN   YES    0:00:00
      Convergence after 16 iterations
       17   1    3    1   -99.39653647   -2.73E-09   3.60E-05    3  10 1 -2.22E-06   0.50   2.03    QN   YES    0:00:00
 
      ************************************************************************************************************************
                                                      Wave function printout:
                       occupation of active orbitals, and spin coupling of open shells (u,d: Spin up or down)
      ************************************************************************************************************************
 
      Note: transformation to natural orbitals
      has been made, which may change the order of the CSFs.
 
      printout of CI-coefficients larger than  0.05 for root  1
      energy=     -99.396536
      conf/sym  11     Coeff  Weight
             1  u0   1.00000 1.00000
 
      Natural orbitals and occupation numbers for root  1
      sym 1:   1.000000   0.000000
 
      ************************************************************************************************************************
      *                                                                                                                      *
      *                                                    Final results                                                     *
      *                                                                                                                      *
      ************************************************************************************************************************
 
 
++    Wave function specifications:
      -----------------------------
 
      Number of closed shell electrons          12
      Number of electrons in active shells       1
      Max number of holes in RAS1 space          0
      Max nr of electrons in RAS3 space          0
      Number of inactive orbitals                6
      Number of active orbitals                  2
      Number of secondary orbitals               2
      Spin quantum number                      0.5
      State symmetry                             1
--
 
++    Orbital specifications:
      -----------------------
 
      Symmetry species                           1
                                                 a
      Frozen orbitals                            0
      Inactive orbitals                          6
      Active orbitals                            2
      RAS1 orbitals                              0
      RAS2 orbitals                              2
      RAS3 orbitals                              0
      Secondary orbitals                         2
      Deleted orbitals                           0
      Number of basis functions                 10
--
 
++    CI expansion specifications:
      ----------------------------
 
      Number of CSFs                             2
      Number of determinants                     2
      Number of root(s) required                 1
      CI root used                               1
      highest root included in the CI            1
      Root passed to geometry opt.               1
--
 
++    Final optimization conditions:
      ------------------------------
 
      Average CI energy                             -99.39653647
      RASSCF energy for state  1                    -99.39653647
      Super-CI energy                                -0.00000000
      RASSCF energy change                           -0.00000000
      Max change in MO coefficients              -3.707E-05
      Max non-diagonal density matrix element     3.598E-05
      Maximum BLB matrix element                 -2.215E-06
      (orbital pair   3,  10 in symmetry   1)
      Norm of electronic gradient            2.730E-06
--
 
 
      Final state energy(ies):
      ------------------------
 
::    RASSCF root number  1 Total energy:    -99.39653647
 
++    Molecular orbitals:
      -------------------
 
      Pseudonatural active orbitals and approximate occupation numbers
 
 
 
 
      Molecular orbitals for symmetry species 1: a  
 
 
      Orbital                 1         2         3         4         5         6         7         8         9        10
      Energy           -20.5118   -7.8188   -1.2080   -0.5507   -0.4725   -0.4725   -0.2349    0.0000    0.0635    0.3176
      Occ. No.           2.0000    2.0000    2.0000    2.0000    2.0000    2.0000    1.0000    0.0000    0.0000    0.0000
 
     1 B1     1s        -0.0001    0.9999   -0.0190    0.0155   -0.0000    0.0000   -0.0276   -0.0000    0.0000   -0.0292
     2 B1     2s        -0.0005    0.0133    0.1056   -0.9380    0.0000    0.0000   -0.2892   -0.0000   -0.0000   -0.4646
     3 B1     2px        0.0000    0.0000    0.0000    0.0000    0.0201   -0.2110    0.0000    0.2614   -0.9593   -0.0000
     4 B1     2py       -0.0000    0.0000    0.0000    0.0000   -0.2110   -0.0201    0.0000   -0.9593   -0.2614    0.0000
     5 B1     2pz       -0.0004    0.0012    0.0820    0.1413   -0.0000    0.0000    0.4476    0.0000    0.0000   -1.0207
     6 O2     1s         1.0000   -0.0001   -0.0059    0.0140    0.0000   -0.0000   -0.0128   -0.0000    0.0000    0.0516
     7 O2     2s         0.0005   -0.0001    0.9301    0.2981    0.0000   -0.0000   -0.2030    0.0000    0.0000    0.5260
     8 O2     2px       -0.0000   -0.0000   -0.0000   -0.0000    0.0892   -0.9357   -0.0000   -0.1018    0.3736   -0.0000
     9 O2     2py        0.0000    0.0000   -0.0000   -0.0000   -0.9357   -0.0892   -0.0000    0.3736    0.1018    0.0000
    10 O2     2pz       -0.0007   -0.0001   -0.0835    0.1852   -0.0000    0.0000   -0.8183   -0.0000   -0.0000   -0.6898
--
 
      Von Neumann Entropy (Root   1) =  0.50000
 

      Mulliken population analysis for root number:  1
      -----------------------------------------------
 
 
++    Molecular charges:
      ------------------
 
      Mulliken charges per centre and basis function type
      ---------------------------------------------------
 
                B1      O2    
      1s       2.0002  2.0001
      2s       1.8270  1.9279
      2px      0.1614  1.8386
      2pz      0.3826  0.8623
      2py      0.1614  1.8386
      Total    4.5327  8.4673
 
      N-E      0.4673 -0.4673
 
      Total electronic charge=   13.000000
 
      Total            charge=   -0.000000
--
 
 

      Expectation values of various properties for root number:  1
      -----------------------------------------------------------
 
 
++    Molecular properties:
      ---------------------
 
      Charge (e):
                      =   -0.0000
      Dipole Moment (Debye):
      Origin of the operator (Ang)=    0.0000    0.0000    0.0000
                   X=  1.1834E-12               Y=  6.8259E-13               Z= -2.1940E+00           Total=  2.1940E+00
      Quadrupole Moment (Debye*Ang):
      Origin of the operator (Ang)=    0.0000    0.0000    1.0069
                  XX= -1.1511E+01              XY=  4.8175E-15              XZ= -1.0181E-12              YY= -1.1511E+01
                  YZ= -9.4118E-13              ZZ= -1.2027E+01
      In traceless form (Debye*Ang)
                  XX=  2.5816E-01              XY=  7.2262E-15              XZ= -1.5271E-12              YY=  2.5816E-01
                  YZ= -1.4118E-12              ZZ= -5.1633E-01
--
 

      Mulliken spin population analysis for root number:  1
      ---------------------------------------------------
 
 
++    Molecular charges:
      ------------------
 
      Mulliken spin population per centre and basis function type
      ---------------------------------------------------
 
                B1      O2    
      1s      -0.0000  0.0000
      2s       0.0339  0.0228
      2px      0.0000  0.0000
      2pz      0.2531  0.6903
      2py      0.0000  0.0000
      Total    0.2869  0.7131
 
      Total electronic spin=    1.000000
--
 
 

      LoProp population analysis for root number:  1
      -----------------------------------------------
 
 
++    LoProp analysis:
      ----------------
 
 
 
      Input file to MOLDEN was generated!
 
 
++    Static properties:
      ------------------
 
 
      LoProp Charges per center
 

                   B1       O2    
      Nuclear      5.0000   8.0000
      Electronic  -4.6278  -8.3722
 
      Total        0.3722  -0.3722
--
 
 
      Natural Bond Order analysis for root number:  1
 
++    Natural Bond Order analysis
      ---------------------------
      Based on LoProp computed density
      -------------------------------------------------------------------------------------
      Atom A       Atom B       Bond Order
      -------------------------------------------------------------------------------------
      NBO located      0.999 non-bonded electrons on atom B1        
      The remaining    5.732 electrons are to be considered as diffuse
--
 
--
 
 
      Input file to MOLDEN was generated!
 
 
      Input file to MOLDEN was generated!
 
      Average orbitals are written to the RASORB file
      Natural orbitals for root   1 are written to the RASORB.1 file
      Spin density orbitals for root   1 are written to the SPDORB.1 file
 
--- Stop Module: rasscf at Thu Apr 25 13:38:40 2024 /rc=_RC_ALL_IS_WELL_ ---
*** files: 1.70.LprOrb 1.70.rasscf.molden 1.70.rasscf.molden.1 1.70.LoProp.molden 1.70.RasOrb.1 1.70.RasOrb 1.70.rasscf.h5 1.70.SpdOrb.1 xmldump
    saved to directory /home/grierjones/DDCASPT2/delta_ML/BO/1.70

*** symbolic link created: INPORB -> 1.70.RasOrb
--- Start Module: caspt2 at Thu Apr 25 13:38:40 2024 ---
 
()()()()()()()()()()()()()()()()()()()()()()()()()()()()()()()()()()()()()()()()()()()()()()()()()()

                                              &CASPT2

                                   only a single process is used
                       available to each process: 2.0 GB of memory, 1 thread?
                                             pid: 98210
()()()()()()()()()()()()()()()()()()()()()()()()()()()()()()()()()()()()()()()()()()()()()()()()()()
 
 ###############################################################################
 ###############################################################################
 ###                                                                         ###
 ###                                                                         ###
 ###    WARNING: User changed nr of frozen orbitals.                         ###
 ###                                                                         ###
 ###                                                                         ###
 ###############################################################################
 ###############################################################################
 
++    Wave function specifications:
      -----------------------------
 
      Number of closed shell electrons          12
      Number of electrons in active shells       1
      Max number of holes in RAS1 space          0
      Max number of electrons in RAS3 space      0
      Number of inactive orbitals                6
      Number of active orbitals                  2
      Number of secondary orbitals               2
      Spin quantum number                      0.5
      State symmetry                             1
      Number of CSFs                             2
      Number of CASSCF root(s) available         1
      CASPT2 state passed to geometry opt.       1
      A file JOBMIX will be created
      This is a CASSCF or RASSCF reference function
--
 
++    Orbital specifications:
      -----------------------
 
      Symmetry species                           1
                                                 a
      Frozen orbitals                            0
      Inactive orbitals                          6
      Active orbitals                            2
      Secondary orbitals                         2
      Deleted orbitals                           0
      Number of basis functions                 10
--
 
++    CASPT2 specifications:
      ----------------------
 
      Type of calculation                        SS-CASPT2
      Fock operator                              state-specific
      IPEA shift                                 0.25
      Real shift                                 0.00
      Imaginary shift                            0.00
      The input orbitals will be transformed to quasi-canonical
--
 
--------------------------------------------------------------------------------
 Estimated memory requirements:
  POLY3 :                   250056
  RHS:                      250428
  SIGMA :                   250384
  PRPCTL:                        0
 Available workspace:    230392719
 
++ CASPT2 computation for group   1
 
********************************************************************************
 Multi-State initialization phase begins for group   1
--------------------------------------------------------------------------------
********************************************************************************
 Compute H0 matrices for state    1
--------------------------------------------------------------------------------
--------------------------------------------------------------------------------
 H0 matrices have been computed.
 
********************************************************************************
  CASPT2 EQUATION SOLUTION
--------------------------------------------------------------------------------
 
  Total nr of CASPT2 parameters:
   Before reduction:         518
   After  reduction:         377
 
 Variance of |WF0>:       0.1068062177
 
 The contributions to the second order correlation energy in atomic units.
-----------------------------------------------------------------------------------------------------------------------------
  IT.      VJTU        VJTI        ATVX        AIVX        VJAI        BVAT        BJAT        BJAI        TOTAL       RNORM  
-----------------------------------------------------------------------------------------------------------------------------
   1    -0.000373   -0.015629   -0.000000   -0.016181   -0.021064    0.000000   -0.009584   -0.015941   -0.078771    0.001794
   2    -0.000374   -0.015646   -0.000000   -0.016330   -0.021075    0.000000   -0.009604   -0.015970   -0.079000    0.000109
   3    -0.000374   -0.015645   -0.000000   -0.016331   -0.021076    0.000000   -0.009604   -0.015970   -0.078999    0.000006
-----------------------------------------------------------------------------------------------------------------------------
 
  FINAL CASPT2 RESULT:
 
      Reference energy:         -99.3965364655
      E2 (Non-variational):      -0.0789981052
      E2 (Variational):          -0.0789981072
      Total energy:             -99.4755345727
      Residual norm:              0.0000001346
      Reference weight:           0.93894
 
      Contributions to the CASPT2 correlation energy
      Active & Virtual Only:         -0.0000000017
      One Inactive Excited:          -0.0263074595
      Two Inactive Excited:          -0.0526906440
 
 
++ Denominators, etc.
--------------------------------------------------------------------------------------------------------------
 Report on small energy denominators, large coefficients, and large energy contributions.
CASE  SYMM ACTIVE-MIX  NON-ACTIVE INDICES          DENOMINATOR     RHS VALUE       COEFFICIENT     CONTRIBUTION
VJTIP    1  Mu1.0002  In1.004 In1.004               1.22836989      0.08334592     -0.06856061     -0.00571425
VJTIP    1  Mu1.0001  In1.005 In1.004               0.97683810      0.03883605     -0.03897043     -0.00151346
VJTIP    1  Mu1.0002  In1.005 In1.005               1.07197042      0.06290734     -0.05868384     -0.00369164
VJTIM    1  Mu1.0001  In1.005 In1.004               0.97683810      0.05711978     -0.05866468     -0.00335091
AIVX     1  Mu1.0001  In1.004 Se1.010               1.03498145     -0.04920402      0.04918207     -0.00241996
AIVX     1  Mu1.0003  In1.004 Se1.010               1.36831479     -0.08522501      0.06398195     -0.00545286
AIVX     1  Mu1.0002  In1.005 Se1.010               1.17178045     -0.08040103      0.06920937     -0.00556450
AIVX     1  Mu1.0004  In1.005 Se1.010               1.33844711     -0.05277316      0.03910476     -0.00206368
VJAIP    1  Mu1.0001  Se1.010 In1.004 In1.004       1.30916768     -0.02624359      0.02538061     -0.00066608
VJAIP    1  Mu1.0001  Se1.009 In1.006 In1.004       0.97683810      0.03883605     -0.03898932     -0.00151419
VJAIP    1  Mu1.0002  Se1.009 In1.006 In1.005       1.07197042     -0.05463167      0.05096378     -0.00278424
VJAIM    1  Mu1.0001  Se1.010 In1.004 In1.003       1.96647078      0.05286934     -0.02691539     -0.00142300
VJAIM    1  Mu1.0001  Se1.009 In1.006 In1.004       0.97683810      0.05711978     -0.05865715     -0.00335048
VJAIM    1  Mu1.0002  Se1.009 In1.006 In1.005       1.07197042     -0.08530908      0.07958156     -0.00678903
BJATP    1  Mu1.0001  In1.006 Se1.010 Se1.009       1.21344711     -0.05277316      0.04314773     -0.00227704
BJATM    1  Mu1.0001  In1.006 Se1.010 Se1.009       1.21344711     -0.08040103      0.06682088     -0.00537247
BJAIP    1  Se1.009 In1.004 Se1.009 In1.004         1.22836989      0.08334592     -0.06856061     -0.00571425
BJAIP    1  Se1.010 In1.004 Se1.010 In1.004         1.73662958      0.05385334     -0.03199243     -0.00172290
BJAIP    1  Se1.009 In1.006 Se1.009 In1.006         1.07197042      0.06290734     -0.05868384     -0.00369164
--
 
   (Skipping property calculation,
    use PROP keyword to activate)
--
 
  Total CASPT2 energies:
::    CASPT2 Root  1     Total energy:    -99.47553457
 
  A NEW JOBIPH FILE NAMED 'JOBMIX' IS PREPARED.
********************************************************************************
--- Stop Module: caspt2 at Thu Apr 25 13:38:40 2024 /rc=_RC_ALL_IS_WELL_ ---
*** files: xmldump
    saved to directory /home/grierjones/DDCASPT2/delta_ML/BO/1.70

.##################.
.# Happy landing! #.
.##################.

    Timing: Wall=2.72 User=1.82 System=0.24
************************************
*** WorkDir at /tmp/1.70 removed ***
************************************
