[Molden Format]
[N_Atoms]
                     2
[Atoms] (AU)
B1          1      5           0.00000000      0.00000000      0.00000000
O2          2      8           0.00000000      0.00000000      3.21253441
[Charge] (Mulliken)
  0.467588543066618     
 -0.467588543066659     
[GTO] (AU)
   1
   s  14
  3.336021700E+04  1.039699991E-04
  4.972095200E+03  5.254399956E-04
  1.125641700E+03  2.509059979E-03
  3.164913600E+02  1.031887991E-02
  1.020072600E+02  3.636632969E-02
  3.629587300E+01  1.064607991E-01
  1.397141000E+01  2.403999880E-01
  5.741156000E+00  3.748581168E-01
  2.494268000E+00  3.100066974E-01
  1.114202000E+00  7.922455933E-02
  4.215490000E-01 -4.947589958E-03
  1.696330000E-01 -7.737119935E-03
  6.853500000E-02 -1.501079987E-03
  2.398700000E-02 -1.333299989E-04
   s  14
  3.336021700E+04 -2.030000008E-05
  4.972095200E+03 -1.025700004E-04
  1.125641700E+03 -4.911300020E-04
  3.164913600E+02 -2.026570008E-03
  1.020072600E+02 -7.261010030E-03
  3.629587300E+01 -2.197722009E-02
  1.397141000E+01 -5.408428022E-02
  5.741156000E+00 -1.022402604E-01
  2.494268000E+00 -1.423595206E-01
  1.114202000E+00 -4.658690019E-02
  4.215490000E-01  3.799402916E-01
  1.696330000E-01  5.890463624E-01
  6.853500000E-02  1.749075107E-01
  2.398700000E-02 -1.142030005E-03
   p   9
  5.500000000E+01  1.229800005E-03
  1.336610100E+01  8.827380035E-03
  4.135394000E+00  3.843340015E-02
  1.481256000E+00  1.150031805E-01
  6.021360000E-01  2.733674011E-01
  2.556360000E-01  4.061972116E-01
  1.111510000E-01  3.014967912E-01
  4.764800000E-02  7.684809030E-02
  1.667700000E-02 -8.170000032E-06
 
   2
   s  14
  1.053749500E+05  1.238600013E-04
  1.567924000E+04  5.120100053E-04
  3.534544700E+03  2.152910022E-03
  9.873651600E+02  8.528440089E-03
  3.159787500E+02  3.018049031E-02
  1.116542800E+02  9.099702095E-02
  4.269945100E+01  2.177936423E-01
  1.739559600E+01  3.686245738E-01
  7.438309000E+00  3.366707335E-01
  3.222862000E+00  9.657630101E-02
  1.253877000E+00  2.144520022E-03
  4.951550000E-01  1.194350012E-03
  1.916650000E-01  5.390200056E-04
  6.708300000E-02  2.103400022E-04
   s  14
  1.053749500E+05 -2.815000008E-05
  1.567924000E+04 -1.163000003E-04
  3.534544700E+03 -4.909200013E-04
  9.873651600E+02 -1.946160005E-03
  3.159787500E+02 -7.005300019E-03
  1.116542800E+02 -2.167814006E-02
  4.269945100E+01 -5.641213015E-02
  1.739559600E+01 -1.127053003E-01
  7.438309000E+00 -1.589119704E-01
  3.222862000E+00 -3.355083009E-02
  1.253877000E+00  3.531902810E-01
  4.951550000E-01  5.534199315E-01
  1.916650000E-01  2.301839106E-01
  6.708300000E-02  1.127267003E-02
   p   9
  2.000000000E+02  9.173000030E-04
  4.653336700E+01  7.377140024E-03
  1.462180900E+01  3.483515011E-02
  5.313064000E+00  1.144397004E-01
  2.102525000E+00  2.554966408E-01
  8.502230000E-01  3.722557412E-01
  3.375970000E-01  3.323314911E-01
  1.288920000E-01  1.400847905E-01
  4.511200000E-02  2.395784008E-02
 
[MO]
Sym=     1a  
Ene=   -20.5220
Spin= Alpha
Occup=    1.00000
   1        -0.00007033
   2        -0.00055709
   3        -0.00000000
   4        -0.00000000
   5        -0.00052504
   6         1.00003281
   7         0.00134336
   8        -0.00000000
   9         0.00000000
  10        -0.00070358
Sym=     1a  
Ene=   -20.4970
Spin= Beta
Occup=    1.00000
   1        -0.00005886
   2        -0.00037485
   3        -0.00000000
   4        -0.00000000
   5        -0.00037298
   6         1.00002306
   7        -0.00028901
   8        -0.00000000
   9         0.00000000
  10        -0.00073662
Sym=     2a  
Ene=    -7.8183
Spin= Alpha
Occup=    1.00000
   1         0.99988129
   2         0.01377509
   3         0.00000000
   4         0.00000000
   5         0.00047646
   6        -0.00007592
   7         0.00011229
   8        -0.00000000
   9         0.00000000
  10        -0.00052905
Sym=     2a  
Ene=    -7.8172
Spin= Beta
Occup=    1.00000
   1         0.99991580
   2         0.01298944
   3        -0.00000000
   4         0.00000000
   5         0.00117686
   6        -0.00007889
   7        -0.00011629
   8        -0.00000000
   9         0.00000000
  10        -0.00002140
Sym=     3a  
Ene=    -1.2554
Spin= Alpha
Occup=    1.00000
   1        -0.01714001
   2         0.09096877
   3        -0.00000000
   4         0.00000000
   5         0.07615115
   6        -0.00608299
   7         0.94256043
   8        -0.00000000
   9         0.00000000
  10        -0.03811630
Sym=     3a  
Ene=    -1.1501
Spin= Beta
Occup=    1.00000
   1        -0.01917512
   2         0.13262215
   3        -0.00000000
   4         0.00000000
   5         0.07833847
   6        -0.00559681
   7         0.92114542
   8        -0.00000000
   9         0.00000000
  10        -0.08747116
Sym=     4a  
Ene=    -0.6456
Spin= Alpha
Occup=    1.00000
   1         0.03165153
   2        -0.60768135
   3         0.00000000
   4        -0.00000000
   5        -0.03043783
   6         0.01420023
   7         0.26684822
   8        -0.00000000
   9         0.00000000
  10         0.64859362
Sym=     4a  
Ene=    -0.5156
Spin= Beta
Occup=    1.00000
   1         0.01388240
   2        -0.94643261
   3        -0.00000000
   4         0.00000000
   5        -0.04785776
   6         0.02222013
   7         0.41303274
   8         0.00000000
   9        -0.00000000
  10         0.18670027
Sym=     5a  
Ene=    -0.4869
Spin= Alpha
Occup=    1.00000
   1         0.00000000
   2         0.00000000
   3        -0.03964406
   4         0.18321430
   5        -0.00000000
   6         0.00000000
   7         0.00000000
   8        -0.20073195
   9         0.92767913
  10         0.00000000
Sym=     5a  
Ene=    -0.4401
Spin= Beta
Occup=    1.00000
   1        -0.00000000
   2        -0.00000000
   3        -0.02294800
   4         0.26140454
   5         0.00000000
   6         0.00000000
   7         0.00000000
   8        -0.08036124
   9         0.91540862
  10        -0.00000000
Sym=     6a  
Ene=    -0.4869
Spin= Alpha
Occup=    1.00000
   1        -0.00000000
   2        -0.00000000
   3         0.18321430
   4         0.03964406
   5         0.00000000
   6        -0.00000000
   7        -0.00000000
   8         0.92767913
   9         0.20073195
  10        -0.00000000
Sym=     6a  
Ene=    -0.4401
Spin= Beta
Occup=    1.00000
   1         0.00000000
   2         0.00000000
   3         0.26140454
   4         0.02294800
   5        -0.00000000
   6        -0.00000000
   7        -0.00000000
   8         0.91540862
   9         0.08036124
  10         0.00000000
Sym=     7a  
Ene=    -0.4849
Spin= Alpha
Occup=    1.00000
   1         0.01249288
   2         0.68511338
   3         0.00000000
   4        -0.00000000
   5        -0.55197305
   6         0.00856992
   7         0.05184814
   8         0.00000000
   9        -0.00000000
  10         0.53627364
Sym=     7a  
Ene=     0.0238
Spin= Beta
Occup=    0.00000
   1         0.01485297
   2         0.27719186
   3        -0.00000000
   4         0.00000000
   5        -0.75140109
   6         0.02554301
   7         0.29862700
   8        -0.00000000
   9         0.00000000
  10         0.53316523
Sym=     8a  
Ene=     0.0636
Spin= Alpha
Occup=    0.00000
   1         0.00000000
   2        -0.00000000
   3        -0.19030550
   4         0.98084192
   5         0.00000000
   6         0.00000000
   7         0.00000000
   8         0.06933871
   9        -0.35737438
  10         0.00000000
Sym=     8a  
Ene=     0.0656
Spin= Beta
Occup=    0.00000
   1        -0.00000000
   2         0.00000000
   3        -0.92707399
   4         0.32416208
   5         0.00000000
   6        -0.00000000
   7        -0.00000000
   8         0.41035071
   9        -0.14348384
  10        -0.00000000
Sym=     9a  
Ene=     0.0636
Spin= Alpha
Occup=    0.00000
   1        -0.00000000
   2         0.00000000
   3         0.98084192
   4         0.19030550
   5        -0.00000000
   6         0.00000000
   7         0.00000000
   8        -0.35737438
   9        -0.06933871
  10        -0.00000000
Sym=     9a  
Ene=     0.0656
Spin= Beta
Occup=    0.00000
   1        -0.00000000
   2         0.00000000
   3         0.32416208
   4         0.92707399
   5         0.00000000
   6        -0.00000000
   7        -0.00000000
   8        -0.14348384
   9        -0.41035071
  10        -0.00000000
Sym=    10a  
Ene=     0.2800
Spin= Alpha
Occup=    0.00000
   1         0.02854559
   2         0.58618810
   3         0.00000000
   4         0.00000000
   5         0.97846843
   6        -0.05229350
   7        -0.55634073
   8         0.00000000
   9        -0.00000000
  10         0.69058408
Sym=    10a  
Ene=     0.4167
Spin= Beta
Occup=    0.00000
   1         0.03763612
   2         0.44767323
   3         0.00000000
   4        -0.00000000
   5         0.83412725
   6        -0.04345916
   7        -0.40441326
   8        -0.00000000
   9         0.00000000
  10         0.92728054
