   This run of MOLCAS is using the pymolcas driver

                             OPE
                             OPE          NMOL  CASOP  ENMOLC A   SO
                 OPE        NMOLC        AS  OP EN  MO LC     AS  OP
                OPENM       OL CA        SO  PE NM  OL CA     SOP EN
                OP EN      MO   LC       AS  OP ENMOL  CASO   PENMOL
                OP  EN     MO   LC       AS  OP EN     MO     LC ASO
               OP   E  NMOL  C  AS       OP  EN MO     LC     AS  OP
               OP  E   NMO   LC AS        OPEN  MO     LCASOP EN   M
               O  PEN   MO  LCA  SO
            OPE   NMO   L   CAS    OP
        OPENMOL  CASOP     ENMOL   CASOPE
     OPENMOLCA   SOPENMOLCASOPEN   MOLCASOPE
    OPENMOLCAS   OP           EN   MOL    CAS
    OPENMOLCAS       OP  ENM        O     LCA
    OPENMOLCAS    OPEN  MOLCASO     P  E  NMO
    OPENMOLCAS     OP               E  N  MOL
    OPENMOLCA   SO           PENM   O  L  CAS    OPEN    MO    LCAS
    OPENMOLCA   SOP           ENM   O  L  CAS   OP  EN  MOLC  AS   O
    OPENMOLCA   SOPE           NM      O  LCA   S      OP  EN MO
    OPENMOLC                AS         O  PEN   M      OL  CA  SOPE
    OPENMO        LCASOPE  NMOL        C  ASO   P      ENMOLC     AS
    OPE     NMO      LCA  SO     P     E   NM   OL  CA SO  PE N   MO
          OPENMOLCA            SOPE   NMO        LCAS  O    P  ENMO
     OPENMOLCASOPENMOLCASOPENMOLCASOPENMOLCA
        OPENMOLCASOPENMOLCASOPENMOLCASOPE
            OPENMOLCASOPENMOLCASOPENM
               OPENMOLCASOPENMOLCA        version: ea724fe96-dirty
                   OPENMOLCASO
                       OPE                tag:

 OpenMolcas is free software; you can redistribute it and/or modify it
 under the terms of the GNU Lesser General Public License version 2.1.
 OpenMolcas is distributed in the hope that it will be useful, but it
 is provided "as is" and without any express or implied warranties.
 For more details see the full text of the license in the file
 LICENSE or in <http://www.gnu.org/licenses/>.

                 Copyright (C) The OpenMolcas Authors
           For the author list and the recommended citation,
                   consult the file CONTRIBUTORS.md

           *************************************************
           * pymolcas version py2.28                       *
           *   build c4a6d18ded8cb6cad61d2372a9abd97c      *
           *   (after the EMIL interpreter by V. Veryazov) *
           *************************************************

configuration info
------------------
C Compiler ID: Intel
C flags: -std=gnu99
Fortran Compiler ID: Intel
Fortran flags: -fpp -i8 -r8 -heap-arrays
Definitions: _MOLCAS_;_I8_;_LINUX_
Parallel: OFF (GA=OFF)


   -------------------------------------------------------------------------------
  |
  |              Project: 3.33
  |       Submitted from: /home/grierjones/DDCASPT2/iron_oxo_DDCASPT2/cluster/3.33
  |         Scratch area: /tmp/3.33
  |      Save outputs to: /home/grierjones/DDCASPT2/iron_oxo_DDCASPT2/cluster/3.33
  |               Molcas: /home/grierjones/Test/build
  |
  | Scratch area is empty
  |
  |       MOLCAS_DRIVER = /usr/local/pymolcas
  | MOLCAS_KEEP_WORKDIR = NO
  |  MOLCAS_NEW_WORKDIR = YES
  |       MOLCAS_NPROCS = 1
  |        MOLCAS_PRINT = NORMAL
  |       MOLCAS_SOURCE = /home/grierjones/Test/build
  |    MOLCAS_STRUCTURE = 0
  |
   -------------------------------------------------------------------------------

++ ---------   Input file   ---------

&GATEWAY
coord=3.33.xyz
Basis = ANO-RCC-VDZP
Group = nosymm
Expert
End of Input

&SEWARD
End of Input

&SCF
UHF
charge
2
spin
5

>>> COPY $WorkDir/3.33.scf.h5 $CurrDir/

&RASSCF
Title= RASSCF
FileOrb
/home/grierjones/DDCASPT2/iron_oxo_DDCASPT2/cluster/3.32/3.32.RasOrb
NACTEL
10 0 0
RAS2
14
Symmetry
1
Spin
5
charge
2
orblisting
all
ITERation
300 200

>>> COPY $WorkDir/3.33.rasscf.h5 $CurrDir/

>>> COPY $WorkDir/GMJ_Fock_MO.csv $CurrDir/3.33.GMJ_Fock_MO.csv

>>> COPY $WorkDir/GMJ_PT2_Fock_MO.csv $CurrDir/3.33.GMJ_PT2_Fock_MO.csv

&MOTRA
Frozen=0
LUMORB

>>> COPY $WorkDir/GMJ_one_int_indx.csv $CurrDir/3.33.GMJ_one_int_indx.csv

>>> COPY $WorkDir/GMJ_one_int.csv $CurrDir/3.33.GMJ_one_int.csv

>>> COPY $WorkDir/GMJ_two_int_indx.csv $CurrDir/3.33.GMJ_two_int_indx.csv

>>> COPY $WorkDir/GMJ_two_int.csv $CurrDir/3.33.GMJ_two_int.csv

&CASPT2
Frozen
0
MAXITER
50

>>> FOREACH i IN (B,E,F,G,H)

  >>> FOREACH j IN (P,M)

    >>> IF (-FILE GMJ_e2_${i}_${j}.csv)

      >>> COPY $WorkDir/GMJ_RHS_${i}_${j}.csv $CurrDir/GMJ_RHS_${i}_${j}.csv

      >>> COPY $WorkDir/GMJ_IVECW_${i}_${j}.csv $CurrDir/GMJ_IVECW_${i}_${j}.csv

      >>> COPY $WorkDir/GMJ_IVECX_${i}_${j}.csv $CurrDir/GMJ_IVECX_${i}_${j}.csv

      >>> COPY $WorkDir/GMJ_IVECC2_${i}_${j}.csv $CurrDir/GMJ_IVECC2_${i}_${j}.csv

      >>> COPY $WorkDir/GMJ_e2_${i}_${j}.csv $CurrDir/GMJ_e2_${i}_${j}.csv

    >>> END IF

  >>> END FOREACH

>>> END FOREACH

>>> FOREACH i IN (A,C,D)

  >>> IF (-FILE GMJ_e2_$i.csv)

    >>> COPY $WorkDir/GMJ_RHS_$i.csv $CurrDir/GMJ_RHS_$i.csv

    >>> COPY $WorkDir/GMJ_IVECW_$i.csv $CurrDir/GMJ_IVECW_$i.csv

    >>> COPY $WorkDir/GMJ_IVECX_$i.csv $CurrDir/GMJ_IVECX_$i.csv

    >>> COPY $WorkDir/GMJ_IVECC2_$i.csv $CurrDir/GMJ_IVECC2_$i.csv

    >>> COPY $WorkDir/GMJ_e2_$i.csv $CurrDir/GMJ_e2_$i.csv

  >>> END IF

>>> END FOREACH

-- ----------------------------------

--- Start Module: gateway at Sun Dec 22 16:37:41 2024 ---
 
()()()()()()()()()()()()()()()()()()()()()()()()()()()()()()()()()()()()()()()()()()()()()()()()()()

                                              &GATEWAY

                                   only a single process is used
                       available to each process: 2.0 GB of memory, 1 thread?
()()()()()()()()()()()()()()()()()()()()()()()()()()()()()()()()()()()()()()()()()()()()()()()()()()
 
 ###############################################################################
 ###############################################################################
 ###                                                                         ###
 ###                                                                         ###
 ###                                                                         ###
 ###    WARNING: EXPERT option is ON!                                        ###
 ###                                                                         ###
 ###                                                                         ###
 ###############################################################################
 ###############################################################################
 
++    Symmetry information:
      ---------------------
 
                    Character Table for C1 
 
                             E  
                    a        1  x, y, xy, Rz, z, xz, Ry, yz, Rx, I
--
 
 
++    Basis set information:
      ----------------------
 
 
      Basis set label: O.ANO-RCC...3S2P1D.
 
      Electronic valence basis set:
      ------------------
      Associated Effective Charge   8.000000 au
      Associated Actual Charge      8.000000 au
      Nuclear Model: Point charge
 
      Shell  nPrim  nBasis  Cartesian Spherical Contaminant
         s      14       3        X                  
         p       9       2        X                  
         d       4       1                 X         
 
 
      Basis set label: FE.ANO-RCC...5S4P2D1F.
 
      Electronic valence basis set:
      ------------------
      Associated Effective Charge  26.000000 au
      Associated Actual Charge     26.000000 au
      Nuclear Model: Point charge
 
      Shell  nPrim  nBasis  Cartesian Spherical Contaminant
         s      21       5        X                  
         p      15       4        X                  
         d      10       2                 X         
         f       6       1                 X         
--
 
 
++    Molecular structure info:
      -------------------------
 
                    ************************************************ 
                    **** Cartesian Coordinates / Bohr, Angstrom **** 
                    ************************************************ 
 
     Center  Label                x              y              z                     x              y              z
        1      O1               0.000000       0.000000       4.659176              0.000000       0.000000       2.465530
        2      FE2              0.000000       0.000000      -1.635615              0.000000       0.000000      -0.865530
--
 
 
            Nuclear Potential Energy             33.04319340 au
 
 ###############################################################################
 ###############################################################################
 ###                                                                         ###
 ###                                                                         ###
 ###    There were warnings during the execution                             ###
 ###    Please, check the output with care!                                  ###
 ###                                                                         ###
 ###                                                                         ###
 ###############################################################################
 ###############################################################################
--- Stop Module: gateway at Sun Dec 22 16:37:41 2024 /rc=_RC_ALL_IS_WELL_ ---
*** files: xmldump
    saved to directory /home/grierjones/DDCASPT2/iron_oxo_DDCASPT2/cluster/3.33

--- Start Module: seward at Sun Dec 22 16:37:41 2024 ---
 
()()()()()()()()()()()()()()()()()()()()()()()()()()()()()()()()()()()()()()()()()()()()()()()()()()

                                              &SEWARD

                                   only a single process is used
                       available to each process: 2.0 GB of memory, 1 thread?
()()()()()()()()()()()()()()()()()()()()()()()()()()()()()()()()()()()()()()()()()()()()()()()()()()
 
 ###############################################################################
 ###############################################################################
 ###                                                                         ###
 ###                                                                         ###
 ###                                                                         ###
 ###    WARNING: EXPERT option is ON!                                        ###
 ###                                                                         ###
 ###                                                                         ###
 ###############################################################################
 ###############################################################################
               SEWARD will generate:
                  Multipole Moment integrals up to order  2
                  Kinetic Energy integrals
                  Nuclear Attraction integrals (point charge)
                  One-Electron Hamiltonian integrals
                  Velocity integrals
                  Relativistic Douglas-Kroll-Hess integrals:
                    - Parametrization         : EXP
                    - DKH order of Hamiltonian: 2
                    - DKH order of Properties : 0
                         - multipole moment operators
                         - electric potential operators
                         - contact operators
                  Atomic mean-field integrals
                  Two-Electron Repulsion integrals
 
                   Integrals are discarded if absolute value <: 0.10E-13
                   Integral cutoff threshold is set to       <: 0.10E-15
 
            Nuclear Potential Energy             33.04319340 au
 
 
      Basis set specifications :
      Symmetry species         a  
      Basis functions           48
 
 
  Input file to MOLDEN was generated!
 
 ###############################################################################
 ###############################################################################
 ###                                                                         ###
 ###                                                                         ###
 ###    There were warnings during the execution                             ###
 ###    Please, check the output with care!                                  ###
 ###                                                                         ###
 ###                                                                         ###
 ###############################################################################
 ###############################################################################
--- Stop Module: seward at Sun Dec 22 16:37:42 2024 /rc=_RC_ALL_IS_WELL_ ---
*** files: 3.33.GssOrb 3.33.guessorb.h5 3.33.guessorb.molden xmldump
    saved to directory /home/grierjones/DDCASPT2/iron_oxo_DDCASPT2/cluster/3.33

*** symbolic link created: INPORB -> 3.33.GssOrb
--- Start Module: scf at Sun Dec 22 16:37:42 2024 ---
 
()()()()()()()()()()()()()()()()()()()()()()()()()()()()()()()()()()()()()()()()()()()()()()()()()()

                                                &SCF

                                   only a single process is used
                       available to each process: 2.0 GB of memory, 1 thread?
()()()()()()()()()()()()()()()()()()()()()()()()()()()()()()()()()()()()()()()()()()()()()()()()()()
 
 *** Possible bug in opening file
 *** isFreeUnit resets the unit number
++    Input section:
      --------------
 
      Header of the integral files:
      
       Integrals generated by seward 4.2.0  , Sun Dec 22 16:37:41 2024
 
 
      Cartesian coordinates in Angstrom:
      -----------------------------------------------------
      No.  Label        X            Y            Z        
      -----------------------------------------------------
       1   O1         0.00000000   0.00000000   2.46553000
       2   FE2        0.00000000   0.00000000  -0.86553000
      -----------------------------------------------------
      Nuclear repulsion energy =   33.04319340
--
 
++    Orbital specifications:
      -----------------------
 
      Symmetry species               1
                                     a
      Frozen orbitals                0
      Start temperature = 0.500
      End temperature   = 0.010
      Temperature Factor= 0.460
      Deleted orbitals               0
      Total number of orbitals      48
      Number of basis functions     48
--
 
      Molecular charge                           2.000
 
++    Optimization specifications:
      ----------------------------
 
      SCF Algorithm: Conventional USCF
      D(i)-D(i-1) density differences are used
      Number of density matrices in core                5
      Maximum number of NDDO SCF iterations           400
      Maximum number of HF SCF iterations             400
      Threshold for SCF energy change            0.10E-08
      Threshold for density matrix               0.10E-03
      Threshold for Fock matrix                  0.15E-03
      Threshold for linear dependence            0.10E-08
      Threshold at which DIIS is turned on       0.15E+00
      Threshold at which QNR/C2DIIS is turned on 0.75E-01
      Threshold for Norm(delta) (QNR/C2DIIS)     0.20E-04
      DIIS extrapolation of the SCF procedure
      All orbitals punched on: UHFORB
--
 
      Input vectors read from INPORB
      Orbital file label: *Guess orbitals
 
 
++ Convergence information
                               UHF SCF        iterations: Energy and convergence statistics
 
Iter     Tot. SCF        One-elec.       Two-elec.     Energy      Max Dij or  Max Fij      DNorm      TNorm      AccCon     Time
         Energy          Energy          Energy        Change      Delta Norm                                                in Sec.
 
 The total and one-electron energies are shifted by a value of      1000. a.u.
 
   1  -343.244146675  -898.062241374   521.774901296   0.00E+00    0.16E+00*   0.39E+00*    0.75E+01   0.18E+03   None         0.
   2  -343.444279102  -893.812050163   517.324577657  -0.20E+00*   0.12E+00*   0.22E+00*    0.11E+01   0.18E+03   EDIIS        0.
   3  -341.683177929  -941.416942976   566.690571643   0.18E+01*   0.66E-01*   0.20E+00*    0.18E+01   0.19E+03   EDIIS        0.
   4  -343.161520860  -884.002863486   507.798149222  -0.15E+01*   0.15E+00*   0.10E+00*    0.15E+01   0.18E+03   EDIIS        0.
   5  -344.198056603  -913.520419826   536.279169820  -0.10E+01*   0.23E+00*   0.90E-01*    0.99E+00   0.18E+03   EDIIS        0.
   6  -344.445838978  -890.450883234   512.961850852  -0.25E+00*   0.51E+00*   0.26E+00*    0.17E+01   0.18E+03   EDIIS        0.
   7  -342.775311147  -925.748853362   549.930348811   0.17E+01*   0.71E-01*   0.75E-01*    0.29E+01   0.19E+03   EDIIS        0.
   8  -345.216727013  -898.211134399   519.951213983  -0.24E+01*   0.36E+00*   0.11E+00*    0.15E+01   0.18E+03   EDIIS        0.
   9  -345.293763093  -899.317713855   520.980757358  -0.77E-01*   0.10E+00*   0.99E-01*    0.92E+00   0.18E+03   EDIIS        0.
  10  -345.307355790  -899.167865626   520.817316432  -0.14E-01*   0.53E-01*   0.28E-01*    0.31E+00   0.18E+03   EDIIS        0.
  11  -345.309914777  -899.157919865   520.804811684  -0.26E-02*   0.31E-01*   0.13E-01*    0.14E+00   0.18E+03   EDIIS        0.
 
       Fermi aufbau procedure completed!
      nOcc(alpha)=   18
      nOcc(beta) =   14
 
  12  -345.310779514  -899.177650670   520.823677753  -0.86E-03*   0.19E-01*   0.56E-02*    0.74E-01   0.18E+03   EDIIS        0.
  13  -345.311150853  -899.157268123   520.802923867  -0.37E-03*   0.16E-01*   0.45E-02*    0.48E-01   0.18E+03   EDIIS        0.
  14  -345.311329407  -899.162092620   520.807569809  -0.18E-03*   0.11E-01*   0.28E-02*    0.33E-01   0.18E+03   EDIIS        0.
  15  -345.311417645  -899.156294780   520.801683731  -0.88E-04*   0.82E-02*   0.19E-02*    0.23E-01   0.18E+03   EDIIS        0.
  16  -345.311461762  -899.156499147   520.801843981  -0.44E-04*   0.63E-03*   0.48E-02*    0.16E-01   0.18E+03   c2DIIS       0.
  17  -345.311506279  -899.151213533   520.796513851  -0.45E-04*   0.44E-03*   0.68E-04     0.18E-02   0.18E+03   QNRc2DIIS    0.
  18  -345.311506318  -899.153996534   520.799296812  -0.39E-07*   0.32E-03*   0.26E-04     0.66E-03   0.18E+03   QNRc2DIIS    0.
  19  -345.311506327  -899.153317719   520.798617988  -0.92E-08*   0.35E-04*   0.59E-05     0.48E-03   0.18E+03   QNRc2DIIS    0.
  20  -345.311506327  -899.153275617   520.798575886  -0.24E-09    0.32E-04*   0.27E-05     0.48E-04   0.18E+03   QNRc2DIIS    0.
  21  -345.311506327  -899.153274885   520.798575154  -0.76E-10    0.69E-05    0.62E-06     0.45E-04   0.18E+03   QNRc2DIIS    0.
 
       Convergence after 21 Macro Iterations
--
 
 *****************************************************************************************************************************
 *                                                                                                                           *
 *                                             SCF/KS-DFT Program, Final results                                             *
 *                                                                                                                           *
 *                                                                                                                           *
 *                                                                                                                           *
 *                                                       Final Results                                                       *
 *                                                                                                                           *
 *****************************************************************************************************************************
 
::    Total SCF energy                              -1345.3115063272
      One-electron energy                           -1899.1532748849
      Two-electron energy                             520.7985751540
      Nuclear repulsion energy                         33.0431934037
      Kinetic energy (interpolated)                  1399.7832307110
      Virial theorem                                    0.9610856001
      Total spin, S(S+1)                                8.0159305737
      Total spin, S                                     2.3750531428
      Max non-diagonal density matrix element           0.0000035751
      Max non-diagonal Fock matrix element              0.0000005424
 
 
      All orbitals with orbital energies smaller than  E(LUMO)+0.5 are printed
 
++    Molecular orbitals:
      -------------------
 
      Title: UHF orbitals (alpha)

      Molecular orbitals for symmetry species 1: a  
 
          Orbital            1         2         3         4         5         6         7         8         9        10    
          Energy         -264.6034  -33.4811  -28.5449  -28.5449  -28.5449  -20.9766   -5.4291   -3.9692   -3.9692   -3.9688
          Occ. No.          1.0000    1.0000    1.0000    1.0000    1.0000    1.0000    1.0000    1.0000    1.0000    1.0000
 
        1 O1     1s         0.0000   -0.0000   -0.0000   -0.0000    0.0000    1.0000   -0.0000   -0.0000   -0.0000   -0.0000
        2 O1     2s         0.0000   -0.0000   -0.0001    0.0000    0.0000   -0.0022   -0.0003    0.0000   -0.0000    0.0000
        3 O1     3s         0.0000   -0.0000   -0.0002    0.0000    0.0000    0.0005   -0.0003    0.0000   -0.0000    0.0003
        4 O1     2px        0.0000   -0.0000   -0.0000   -0.0000   -0.0000    0.0000    0.0000   -0.0000   -0.0000    0.0000
        5 O1     3px       -0.0000    0.0000   -0.0000   -0.0001   -0.0000   -0.0000   -0.0000   -0.0000   -0.0000   -0.0000
        6 O1     2py        0.0000   -0.0000   -0.0000    0.0000   -0.0000    0.0000    0.0000    0.0000   -0.0000   -0.0000
        7 O1     3py        0.0000   -0.0000   -0.0000    0.0000   -0.0001   -0.0000    0.0000    0.0000   -0.0000   -0.0000
        8 O1     2pz       -0.0000   -0.0000    0.0001   -0.0000   -0.0000   -0.0002   -0.0004   -0.0000    0.0000   -0.0005
        9 O1     3pz       -0.0000   -0.0000    0.0001   -0.0000   -0.0000   -0.0000   -0.0008   -0.0000    0.0000   -0.0010
       10 O1     3d2-       0.0000    0.0000    0.0000   -0.0000    0.0000    0.0000    0.0000    0.0000    0.0000    0.0000
       11 O1     3d1-       0.0000    0.0000    0.0000   -0.0000    0.0000   -0.0000    0.0000    0.0000   -0.0000   -0.0000
       12 O1     3d0        0.0000    0.0000   -0.0000    0.0000    0.0000    0.0009    0.0002    0.0000   -0.0000    0.0003
       13 O1     3d1+       0.0000    0.0000    0.0000    0.0000    0.0000    0.0000   -0.0000   -0.0000   -0.0000    0.0000
       14 O1     3d2+      -0.0000    0.0000   -0.0000   -0.0000    0.0000    0.0000   -0.0000   -0.0000   -0.0000   -0.0000
       15 FE2    1s         1.0000   -0.0000   -0.0000    0.0000    0.0000   -0.0000    0.0000   -0.0000    0.0000   -0.0000
       16 FE2    2s         0.0000    1.0000   -0.0000    0.0000    0.0000   -0.0000   -0.0035   -0.0000    0.0000   -0.0000
       17 FE2    3s        -0.0000    0.0035    0.0000   -0.0000   -0.0000   -0.0000    0.9999   -0.0000    0.0000   -0.0002
       18 FE2    4s         0.0000   -0.0003    0.0001   -0.0000   -0.0000   -0.0002   -0.0079    0.0000    0.0000   -0.0004
       19 FE2    5s        -0.0000    0.0004    0.0001   -0.0000   -0.0000   -0.0001    0.0082   -0.0000    0.0000   -0.0001
       20 FE2    2px       -0.0000    0.0000    0.0000    0.9937    0.1117    0.0000    0.0000   -0.0035   -0.0001    0.0000
       21 FE2    3px        0.0000   -0.0000    0.0000    0.0034    0.0004    0.0000    0.0000    0.9987    0.0428   -0.0000
       22 FE2    4px        0.0000   -0.0000   -0.0000   -0.0006   -0.0001    0.0000    0.0000   -0.0191   -0.0008    0.0000
       23 FE2    5px        0.0000   -0.0000    0.0000    0.0015    0.0002    0.0000    0.0000    0.0181    0.0008   -0.0000
       24 FE2    2py       -0.0000   -0.0000    0.0000   -0.1117    0.9937   -0.0000    0.0000    0.0001   -0.0035    0.0000
       25 FE2    3py        0.0000    0.0000    0.0000   -0.0004    0.0034   -0.0000   -0.0000   -0.0428    0.9987   -0.0000
       26 FE2    4py       -0.0000    0.0000   -0.0000    0.0001   -0.0006    0.0000   -0.0000    0.0008   -0.0191    0.0000
       27 FE2    5py       -0.0000    0.0000    0.0000   -0.0002    0.0015   -0.0000    0.0000   -0.0008    0.0181   -0.0000
       28 FE2    2pz        0.0000    0.0000    1.0000   -0.0000   -0.0000   -0.0000   -0.0000   -0.0000   -0.0000   -0.0035
       29 FE2    3pz       -0.0000    0.0000    0.0035   -0.0000   -0.0000   -0.0000    0.0001    0.0000    0.0000    0.9996
       30 FE2    4pz       -0.0000   -0.0000   -0.0005    0.0000    0.0000   -0.0002   -0.0002   -0.0000   -0.0000   -0.0197
       31 FE2    5pz       -0.0000    0.0000    0.0015   -0.0000   -0.0000   -0.0001   -0.0001    0.0000    0.0000    0.0181
       32 FE2    3d2-      -0.0000    0.0000   -0.0000   -0.0000    0.0000   -0.0000    0.0000    0.0000    0.0000   -0.0000
       33 FE2    4d2-       0.0000   -0.0000    0.0000    0.0000    0.0000    0.0000   -0.0000   -0.0000   -0.0000   -0.0000
       34 FE2    3d1-      -0.0000    0.0000    0.0000   -0.0000    0.0000   -0.0000   -0.0000   -0.0000    0.0002    0.0000
       35 FE2    4d1-      -0.0000    0.0000    0.0000   -0.0000    0.0000    0.0000   -0.0000    0.0000   -0.0001    0.0000
       36 FE2    3d0       -0.0000   -0.0000    0.0000   -0.0000   -0.0000   -0.0000   -0.0002    0.0000    0.0000    0.0002
       37 FE2    4d0       -0.0000   -0.0000    0.0001   -0.0000   -0.0000   -0.0001   -0.0001   -0.0000    0.0000   -0.0004
       38 FE2    3d1+      -0.0000   -0.0000    0.0000    0.0000    0.0000   -0.0000    0.0000    0.0002    0.0000   -0.0000
       39 FE2    4d1+       0.0000   -0.0000    0.0000    0.0000    0.0000    0.0000    0.0000   -0.0001   -0.0000    0.0000
       40 FE2    3d2+       0.0000   -0.0000   -0.0000    0.0000   -0.0000   -0.0000    0.0000    0.0000    0.0000    0.0000
       41 FE2    4d2+      -0.0000    0.0000   -0.0000    0.0000    0.0000    0.0000   -0.0000    0.0000   -0.0000   -0.0000
       42 FE2    4f3-       0.0000   -0.0000   -0.0000   -0.0000   -0.0000   -0.0000   -0.0000    0.0000   -0.0000   -0.0000
       43 FE2    4f2-      -0.0000    0.0000    0.0000    0.0000   -0.0000    0.0000   -0.0000   -0.0000    0.0000   -0.0000
       44 FE2    4f1-      -0.0000    0.0000    0.0000   -0.0000    0.0000   -0.0000    0.0000    0.0000   -0.0001    0.0000
       45 FE2    4f0       -0.0000    0.0000    0.0000   -0.0000   -0.0000   -0.0000   -0.0000   -0.0000   -0.0000   -0.0001
       46 FE2    4f1+      -0.0000    0.0000    0.0000    0.0000    0.0000    0.0000    0.0000   -0.0001   -0.0000    0.0000
       47 FE2    4f2+      -0.0000    0.0000    0.0000   -0.0000    0.0000   -0.0000    0.0000    0.0000   -0.0000   -0.0000
       48 FE2    4f3+      -0.0000    0.0000    0.0000   -0.0000    0.0000   -0.0000   -0.0000    0.0000    0.0000    0.0000
 
          Orbital           11        12        13        14        15        16        17        18        19        20    
          Energy           -1.6500   -1.6500   -1.6496   -1.6496   -1.6495   -1.4152   -0.9461   -0.8453   -0.4748   -0.4748
          Occ. No.          1.0000    1.0000    1.0000    1.0000    1.0000    1.0000    1.0000    1.0000    0.0000    0.0000
 
        1 O1     1s         0.0000    0.0000    0.0000   -0.0000    0.0002    0.0021   -0.0007    0.0015    0.0000   -0.0000
        2 O1     2s         0.0000    0.0000    0.0000   -0.0000    0.0079    0.9973   -0.0466    0.0451    0.0000   -0.0000
        3 O1     3s         0.0000   -0.0000    0.0000   -0.0000    0.0000    0.0208    0.0050   -0.0170    0.0000   -0.0000
        4 O1     2px       -0.0000    0.0000   -0.0001    0.0006    0.0000   -0.0000   -0.0000    0.0000    0.0073    0.0149
        5 O1     3px       -0.0000   -0.0000   -0.0001    0.0005    0.0000    0.0000   -0.0000    0.0000   -0.0027   -0.0055
        6 O1     2py        0.0000   -0.0000    0.0006    0.0001   -0.0000   -0.0000    0.0000   -0.0000    0.0149   -0.0073
        7 O1     3py        0.0000   -0.0000    0.0005    0.0001   -0.0000   -0.0000    0.0000   -0.0000   -0.0055    0.0027
        8 O1     2pz       -0.0000   -0.0000   -0.0000    0.0000   -0.0016   -0.0354   -0.1936    0.9584   -0.0000   -0.0000
        9 O1     3pz        0.0000    0.0000    0.0000   -0.0000    0.0035   -0.0138    0.0082    0.0497   -0.0000   -0.0000
       10 O1     3d2-       0.0000   -0.0000   -0.0000    0.0000   -0.0000    0.0000    0.0000    0.0000   -0.0000    0.0000
       11 O1     3d1-       0.0000   -0.0000    0.0001    0.0000   -0.0000   -0.0000    0.0000   -0.0000   -0.0012    0.0006
       12 O1     3d0       -0.0000   -0.0000   -0.0000    0.0000   -0.0004    0.0314    0.0013   -0.0126    0.0000    0.0000
       13 O1     3d1+      -0.0000    0.0000   -0.0000    0.0001    0.0000    0.0000    0.0000   -0.0000   -0.0006   -0.0012
       14 O1     3d2+       0.0000    0.0000   -0.0000    0.0000    0.0000    0.0000    0.0000    0.0000   -0.0000   -0.0000
       15 FE2    1s         0.0000   -0.0000    0.0000   -0.0000    0.0000   -0.0000   -0.0000    0.0002   -0.0000   -0.0000
       16 FE2    2s         0.0000    0.0000    0.0000   -0.0000    0.0000   -0.0003    0.0003    0.0016   -0.0000    0.0000
       17 FE2    3s         0.0000   -0.0000    0.0000   -0.0000    0.0003   -0.0015    0.0090    0.0108   -0.0000   -0.0000
       18 FE2    4s        -0.0000   -0.0000    0.0000   -0.0000    0.0011    0.0085    0.9016    0.2505   -0.0000    0.0000
       19 FE2    5s         0.0000   -0.0000    0.0000   -0.0000    0.0001   -0.0061   -0.3561   -0.1033    0.0000   -0.0000
       20 FE2    2px        0.0000    0.0000    0.0000   -0.0000   -0.0000   -0.0000    0.0000    0.0000    0.0002    0.0004
       21 FE2    3px       -0.0000   -0.0000    0.0000   -0.0002   -0.0000   -0.0000   -0.0000    0.0000    0.0081    0.0166
       22 FE2    4px        0.0000    0.0000    0.0001   -0.0006   -0.0000    0.0000    0.0000    0.0000    0.4379    0.8983
       23 FE2    5px       -0.0000    0.0000    0.0000   -0.0001   -0.0000    0.0000    0.0000   -0.0000    0.0149    0.0305
       24 FE2    2py       -0.0000    0.0000   -0.0000   -0.0000    0.0000   -0.0000   -0.0000    0.0000    0.0004   -0.0002
       25 FE2    3py       -0.0000   -0.0000   -0.0002   -0.0000    0.0000    0.0000    0.0000   -0.0000    0.0166   -0.0081
       26 FE2    4py       -0.0000    0.0000   -0.0006   -0.0001    0.0000    0.0000    0.0000   -0.0000    0.8983   -0.4379
       27 FE2    5py       -0.0000    0.0000   -0.0001   -0.0000    0.0000    0.0000   -0.0000    0.0000    0.0305   -0.0149
       28 FE2    2pz        0.0000    0.0000    0.0000    0.0000    0.0000   -0.0000   -0.0000    0.0002   -0.0000    0.0000
       29 FE2    3pz       -0.0000   -0.0000   -0.0000    0.0000   -0.0003   -0.0014   -0.0008    0.0038   -0.0000    0.0000
       30 FE2    4pz        0.0000   -0.0000   -0.0000    0.0000    0.0001    0.0074   -0.0039   -0.1145   -0.0000    0.0000
       31 FE2    5pz        0.0000    0.0000    0.0000   -0.0000    0.0004   -0.0004    0.0014   -0.0029    0.0000    0.0000
       32 FE2    3d2-       0.9906   -0.0177   -0.0000    0.0000   -0.0000   -0.0000    0.0000    0.0000   -0.0000   -0.0000
       33 FE2    4d2-      -0.1357    0.0024    0.0000   -0.0000    0.0000    0.0000    0.0000    0.0000    0.0000   -0.0000
       34 FE2    3d1-       0.0000   -0.0000    0.9831    0.1221   -0.0000   -0.0000    0.0000    0.0000    0.0003   -0.0002
       35 FE2    4d1-      -0.0000    0.0000   -0.1350   -0.0168    0.0000    0.0000    0.0000   -0.0000   -0.0008    0.0004
       36 FE2    3d0        0.0000    0.0000    0.0000   -0.0000    0.9908   -0.0106   -0.0015    0.0089    0.0000    0.0000
       37 FE2    4d0       -0.0000   -0.0000   -0.0000    0.0000   -0.1357    0.0051    0.0032   -0.0225   -0.0000    0.0000
       38 FE2    3d1+      -0.0000   -0.0000   -0.1221    0.9831    0.0000   -0.0000   -0.0000   -0.0000    0.0002    0.0003
       39 FE2    4d1+       0.0000    0.0000    0.0168   -0.1350   -0.0000   -0.0000   -0.0000    0.0000   -0.0004   -0.0008
       40 FE2    3d2+       0.0177    0.9906    0.0000    0.0000   -0.0000   -0.0000    0.0000    0.0000   -0.0000   -0.0000
       41 FE2    4d2+      -0.0024   -0.1357   -0.0000   -0.0000    0.0000    0.0000   -0.0000    0.0000    0.0000    0.0000
       42 FE2    4f3-       0.0000   -0.0000   -0.0000    0.0000    0.0000   -0.0000    0.0000   -0.0000   -0.0000    0.0000
       43 FE2    4f2-       0.0001   -0.0000    0.0000    0.0000   -0.0000   -0.0000    0.0000   -0.0000    0.0000   -0.0000
       44 FE2    4f1-       0.0000   -0.0000    0.0001    0.0000   -0.0000    0.0000    0.0000   -0.0000   -0.0001    0.0000
       45 FE2    4f0        0.0000   -0.0000    0.0000   -0.0000    0.0001    0.0004    0.0001   -0.0012   -0.0000    0.0000
       46 FE2    4f1+      -0.0000   -0.0000   -0.0000    0.0001    0.0000   -0.0000    0.0000    0.0000   -0.0000   -0.0001
       47 FE2    4f2+       0.0000    0.0001    0.0000    0.0000   -0.0000   -0.0000    0.0000    0.0000    0.0000    0.0000
       48 FE2    4f3+       0.0000    0.0000   -0.0000    0.0000   -0.0000    0.0000   -0.0000    0.0000   -0.0000    0.0000
 
          Orbital           21        22        23        24    
          Energy           -0.4622   -0.2401   -0.2361   -0.2361
          Occ. No.          0.0000    0.0000    0.0000    0.0000
 
        1 O1     1s        -0.0100   -0.0159   -0.0000   -0.0000
        2 O1     2s        -0.1329   -0.1625   -0.0000    0.0000
        3 O1     3s        -0.0381   -0.0484   -0.0000   -0.0000
        4 O1     2px        0.0000   -0.0000    0.9483   -0.0009
        5 O1     3px        0.0000   -0.0000    0.3084   -0.0003
        6 O1     2py       -0.0000   -0.0000    0.0009    0.9483
        7 O1     3py       -0.0000   -0.0000    0.0003    0.3084
        8 O1     2pz        0.2449    0.0748   -0.0000    0.0000
        9 O1     3pz        0.0375    0.0270   -0.0000    0.0000
       10 O1     3d2-      -0.0000   -0.0000    0.0000   -0.0000
       11 O1     3d1-      -0.0000    0.0000   -0.0000   -0.0113
       12 O1     3d0       -0.0001   -0.0026    0.0000   -0.0000
       13 O1     3d1+      -0.0000    0.0000   -0.0113    0.0000
       14 O1     3d2+       0.0000   -0.0000   -0.0000   -0.0000
       15 FE2    1s         0.0001    0.0001   -0.0000    0.0000
       16 FE2    2s         0.0007    0.0002   -0.0000    0.0000
       17 FE2    3s         0.0041   -0.0026   -0.0000    0.0000
       18 FE2    4s         0.0574    0.3981    0.0000    0.0000
       19 FE2    5s        -0.0224    0.9469    0.0000    0.0000
       20 FE2    2px       -0.0000    0.0000   -0.0002    0.0000
       21 FE2    3px       -0.0000    0.0000   -0.0048    0.0000
       22 FE2    4px       -0.0000    0.0000   -0.0985    0.0001
       23 FE2    5px       -0.0000   -0.0000    0.0011   -0.0000
       24 FE2    2py        0.0000   -0.0000   -0.0000   -0.0002
       25 FE2    3py        0.0000    0.0000   -0.0000   -0.0048
       26 FE2    4py        0.0000   -0.0000   -0.0001   -0.0985
       27 FE2    5py        0.0000   -0.0000    0.0000    0.0011
       28 FE2    2pz        0.0006    0.0001   -0.0000   -0.0000
       29 FE2    3pz        0.0215    0.0026   -0.0000    0.0000
       30 FE2    4pz        1.0225    0.0536   -0.0000    0.0000
       31 FE2    5pz        0.0344   -0.0004   -0.0000   -0.0000
       32 FE2    3d2-      -0.0000   -0.0000    0.0000    0.0000
       33 FE2    4d2-      -0.0000   -0.0000    0.0000    0.0000
       34 FE2    3d1-       0.0000    0.0000    0.0000    0.0007
       35 FE2    4d1-      -0.0000    0.0000    0.0000    0.0499
       36 FE2    3d0        0.0035   -0.0001   -0.0000    0.0000
       37 FE2    4d0       -0.0132   -0.0179    0.0000   -0.0000
       38 FE2    3d1+      -0.0000   -0.0000    0.0007   -0.0000
       39 FE2    4d1+       0.0000   -0.0000    0.0499   -0.0000
       40 FE2    3d2+       0.0000    0.0000   -0.0000    0.0000
       41 FE2    4d2+      -0.0000   -0.0000   -0.0000   -0.0000
       42 FE2    4f3-       0.0000    0.0000    0.0000   -0.0000
       43 FE2    4f2-       0.0000    0.0000    0.0000   -0.0000
       44 FE2    4f1-      -0.0000   -0.0000    0.0000    0.0014
       45 FE2    4f0       -0.0007   -0.0004    0.0000   -0.0000
       46 FE2    4f1+       0.0000   -0.0000    0.0014   -0.0000
       47 FE2    4f2+       0.0000    0.0000   -0.0000    0.0000
       48 FE2    4f3+       0.0000   -0.0000   -0.0000    0.0000
--
 
 
  Input file to MOLDEN was generated!
 
 
++    Static properties:
      ------------------
 
 
      LoProp Charges per center
 

                   O1       FE2   
      Nuclear      8.0000  26.0000
      Electronic  -7.9743 -24.0257
 
      Total        0.0257   1.9743
--
 
 
      All orbitals with orbital energies smaller than  E(LUMO)+0.5 are printed
 
++    Molecular orbitals:
      -------------------
 
      Title: UHF orbitals (beta)

      Molecular orbitals for symmetry species 1: a  
 
          Orbital            1         2         3         4         5         6         7         8         9        10    
          Energy         -264.5955  -33.3045  -28.3725  -28.3725  -28.3725  -21.0631   -4.9551   -3.4069   -3.4069   -3.4063
          Occ. No.          1.0000    1.0000    1.0000    1.0000    1.0000    1.0000    1.0000    1.0000    1.0000    1.0000
 
        1 O1     1s         0.0000    0.0000   -0.0000    0.0000    0.0000    1.0000   -0.0000   -0.0000    0.0000    0.0000
        2 O1     2s         0.0000    0.0000    0.0000    0.0000    0.0001    0.0018   -0.0001    0.0000   -0.0000    0.0008
        3 O1     3s         0.0000    0.0000    0.0000    0.0000    0.0001   -0.0018   -0.0001    0.0000   -0.0000    0.0009
        4 O1     2px        0.0000   -0.0000    0.0000    0.0000   -0.0000    0.0000    0.0000    0.0002    0.0000    0.0000
        5 O1     3px       -0.0000    0.0000    0.0001    0.0000   -0.0000   -0.0000   -0.0000    0.0004    0.0000   -0.0000
        6 O1     2py        0.0000   -0.0000   -0.0000    0.0000   -0.0000    0.0000    0.0000   -0.0000    0.0002   -0.0000
        7 O1     3py        0.0000   -0.0000   -0.0000    0.0001   -0.0000   -0.0000    0.0000   -0.0000    0.0004   -0.0000
        8 O1     2pz       -0.0000    0.0000   -0.0000   -0.0000   -0.0000   -0.0002   -0.0002   -0.0000    0.0000   -0.0009
        9 O1     3pz       -0.0000    0.0000   -0.0000   -0.0000   -0.0001    0.0003   -0.0004    0.0000    0.0000   -0.0009
       10 O1     3d2-       0.0000    0.0000   -0.0000    0.0000    0.0000   -0.0000    0.0000    0.0000    0.0000    0.0000
       11 O1     3d1-       0.0000    0.0000    0.0000   -0.0000    0.0000    0.0000    0.0000    0.0000   -0.0001   -0.0000
       12 O1     3d0        0.0000   -0.0000   -0.0000    0.0000    0.0000   -0.0004    0.0001    0.0000   -0.0000    0.0002
       13 O1     3d1+       0.0000    0.0000   -0.0000   -0.0000    0.0000   -0.0000   -0.0000   -0.0001   -0.0000    0.0000
       14 O1     3d2+      -0.0000    0.0000   -0.0000    0.0000   -0.0000   -0.0000   -0.0000   -0.0000   -0.0000   -0.0000
       15 FE2    1s         1.0000   -0.0000   -0.0000   -0.0000   -0.0000    0.0000    0.0000   -0.0000    0.0000   -0.0000
       16 FE2    2s         0.0000    1.0000   -0.0000   -0.0000   -0.0001    0.0000    0.0011   -0.0000    0.0000   -0.0000
       17 FE2    3s        -0.0000   -0.0011   -0.0000   -0.0000   -0.0000    0.0000    1.0000   -0.0000    0.0000   -0.0008
       18 FE2    4s         0.0000    0.0002   -0.0000   -0.0000   -0.0001    0.0002   -0.0029    0.0000    0.0000   -0.0004
       19 FE2    5s        -0.0000   -0.0002   -0.0000   -0.0000   -0.0000    0.0001    0.0032   -0.0000    0.0000   -0.0004
       20 FE2    2px       -0.0000   -0.0000    0.9997    0.0257   -0.0000    0.0000    0.0000    0.0032    0.0000   -0.0000
       21 FE2    3px        0.0000   -0.0000   -0.0032   -0.0001    0.0000    0.0000    0.0000    0.9998    0.0111   -0.0000
       22 FE2    4px        0.0000   -0.0000    0.0004    0.0000   -0.0000   -0.0000    0.0000   -0.0115   -0.0001    0.0000
       23 FE2    5px        0.0000   -0.0000   -0.0011   -0.0000    0.0000    0.0000    0.0000    0.0054    0.0001   -0.0000
       24 FE2    2py       -0.0000   -0.0000   -0.0257    0.9997   -0.0000    0.0000    0.0000   -0.0000    0.0032   -0.0000
       25 FE2    3py        0.0000    0.0000    0.0001   -0.0032    0.0000   -0.0000   -0.0000   -0.0111    0.9998   -0.0000
       26 FE2    4py       -0.0000    0.0000   -0.0000    0.0004   -0.0000    0.0000   -0.0000    0.0001   -0.0115    0.0000
       27 FE2    5py       -0.0000    0.0000    0.0000   -0.0011    0.0000   -0.0000    0.0000   -0.0001    0.0054   -0.0000
       28 FE2    2pz        0.0000    0.0001    0.0000    0.0000    1.0000    0.0000   -0.0000    0.0000    0.0000    0.0032
       29 FE2    3pz       -0.0000    0.0000   -0.0000   -0.0000   -0.0032    0.0000    0.0007    0.0000    0.0000    0.9999
       30 FE2    4pz       -0.0000    0.0000    0.0000    0.0000    0.0004    0.0002   -0.0001   -0.0000   -0.0000   -0.0120
       31 FE2    5pz       -0.0000    0.0000   -0.0000   -0.0000   -0.0011    0.0001   -0.0000    0.0000    0.0000    0.0053
       32 FE2    3d2-      -0.0000    0.0000   -0.0000   -0.0000   -0.0000   -0.0000    0.0000    0.0000    0.0000    0.0000
       33 FE2    4d2-       0.0000   -0.0000    0.0000    0.0000    0.0000    0.0000    0.0000   -0.0000   -0.0000   -0.0000
       34 FE2    3d1-      -0.0000    0.0000   -0.0000    0.0000   -0.0000   -0.0000   -0.0000   -0.0000    0.0004    0.0000
       35 FE2    4d1-      -0.0000    0.0000    0.0000   -0.0000    0.0000    0.0000   -0.0000    0.0000   -0.0001    0.0000
       36 FE2    3d0       -0.0000   -0.0000   -0.0000   -0.0000   -0.0000    0.0000   -0.0002    0.0000    0.0000    0.0002
       37 FE2    4d0       -0.0000    0.0000   -0.0000   -0.0000   -0.0000    0.0001   -0.0000   -0.0000    0.0000   -0.0003
       38 FE2    3d1+      -0.0000   -0.0000    0.0000    0.0000   -0.0000    0.0000    0.0000    0.0004    0.0000   -0.0000
       39 FE2    4d1+       0.0000   -0.0000   -0.0000   -0.0000    0.0000   -0.0000    0.0000   -0.0001   -0.0000    0.0000
       40 FE2    3d2+       0.0000   -0.0000   -0.0000   -0.0000   -0.0000   -0.0000    0.0000    0.0000    0.0000    0.0000
       41 FE2    4d2+      -0.0000    0.0000    0.0000    0.0000   -0.0000    0.0000   -0.0000    0.0000   -0.0000   -0.0000
       42 FE2    4f3-       0.0000   -0.0000   -0.0000   -0.0000   -0.0000   -0.0000    0.0000    0.0000   -0.0000    0.0000
       43 FE2    4f2-      -0.0000    0.0000    0.0000   -0.0000    0.0000    0.0000   -0.0000   -0.0000    0.0000   -0.0000
       44 FE2    4f1-      -0.0000    0.0000    0.0000   -0.0000    0.0000   -0.0000    0.0000    0.0000   -0.0001    0.0000
       45 FE2    4f0       -0.0000   -0.0000   -0.0000   -0.0000   -0.0000    0.0000   -0.0000   -0.0000   -0.0000   -0.0001
       46 FE2    4f1+      -0.0000    0.0000   -0.0000   -0.0000    0.0000   -0.0000    0.0000   -0.0001   -0.0000    0.0000
       47 FE2    4f2+      -0.0000    0.0000   -0.0000    0.0000    0.0000   -0.0000    0.0000    0.0000   -0.0000   -0.0000
       48 FE2    4f3+      -0.0000    0.0000    0.0000    0.0000    0.0000   -0.0000   -0.0000    0.0000    0.0000    0.0000
 
          Orbital           11        12        13        14        15        16        17        18        19        20    
          Energy           -1.7609   -1.0504   -1.0504   -0.9513   -0.5626   -0.5595   -0.5595   -0.5587   -0.5587   -0.5578
          Occ. No.          1.0000    1.0000    1.0000    1.0000    0.0000    0.0000    0.0000    0.0000    0.0000    0.0000
 
        1 O1     1s        -0.0019   -0.0000   -0.0000    0.0008    0.0016   -0.0000   -0.0000   -0.0000   -0.0000   -0.0028
        2 O1     2s         0.9995    0.0000    0.0000    0.0385    0.0263   -0.0000   -0.0000   -0.0000   -0.0000   -0.0380
        3 O1     3s        -0.0301    0.0000   -0.0000   -0.0194    0.0019    0.0000   -0.0000   -0.0000   -0.0000   -0.0086
        4 O1     2px       -0.0000    0.9980    0.0141    0.0000   -0.0000    0.0000   -0.0000    0.0004   -0.0170    0.0000
        5 O1     3px        0.0000   -0.0575   -0.0008   -0.0000   -0.0000    0.0000   -0.0000    0.0001   -0.0039    0.0000
        6 O1     2py        0.0000   -0.0141    0.9980   -0.0000    0.0000   -0.0000    0.0000   -0.0170   -0.0004   -0.0000
        7 O1     3py       -0.0000    0.0008   -0.0575    0.0000   -0.0000   -0.0000    0.0000   -0.0039   -0.0001   -0.0000
        8 O1     2pz       -0.0316   -0.0000    0.0000    0.9860   -0.0924    0.0000    0.0000    0.0000    0.0000    0.1071
        9 O1     3pz       -0.0079    0.0000   -0.0000   -0.0126   -0.0073    0.0000    0.0000    0.0000    0.0000    0.0091
       10 O1     3d2-      -0.0000    0.0000   -0.0000   -0.0000   -0.0000    0.0001    0.0000   -0.0000    0.0000    0.0000
       11 O1     3d1-       0.0000    0.0002   -0.0109   -0.0000   -0.0000   -0.0000   -0.0000   -0.0004   -0.0000   -0.0000
       12 O1     3d0       -0.0191    0.0000   -0.0000   -0.0156   -0.0006    0.0000    0.0000    0.0000    0.0000    0.0010
       13 O1     3d1+      -0.0000   -0.0109   -0.0002   -0.0000   -0.0000    0.0000   -0.0000    0.0000   -0.0004    0.0000
       14 O1     3d2+      -0.0000   -0.0000   -0.0000   -0.0000   -0.0000   -0.0000    0.0001   -0.0000    0.0000    0.0000
       15 FE2    1s        -0.0000   -0.0000   -0.0000    0.0001   -0.0000    0.0000    0.0000    0.0000    0.0000    0.0000
       16 FE2    2s        -0.0002    0.0000    0.0000    0.0010    0.0001   -0.0000    0.0000    0.0000    0.0000    0.0001
       17 FE2    3s        -0.0009   -0.0000    0.0000    0.0053   -0.0042    0.0000    0.0000    0.0000   -0.0000    0.0025
       18 FE2    4s        -0.0012   -0.0000   -0.0000   -0.0492   -0.9154    0.0000    0.0000    0.0000   -0.0000    0.3377
       19 FE2    5s        -0.0032   -0.0000    0.0000    0.0132    0.2290   -0.0000   -0.0000   -0.0000    0.0000   -0.0824
       20 FE2    2px       -0.0000   -0.0000   -0.0000    0.0000   -0.0000    0.0000    0.0000    0.0000   -0.0000    0.0000
       21 FE2    3px       -0.0000   -0.0005   -0.0000    0.0000    0.0000   -0.0000   -0.0000    0.0000   -0.0003   -0.0000
       22 FE2    4px        0.0000    0.0017    0.0000    0.0000   -0.0000   -0.0000    0.0000   -0.0001    0.0053   -0.0000
       23 FE2    5px        0.0000   -0.0002   -0.0000   -0.0000   -0.0000   -0.0000    0.0000   -0.0000    0.0003   -0.0000
       24 FE2    2py       -0.0000    0.0000   -0.0000    0.0000   -0.0000   -0.0000    0.0000   -0.0000   -0.0000    0.0000
       25 FE2    3py        0.0000    0.0000   -0.0005   -0.0000   -0.0000   -0.0000   -0.0000   -0.0003   -0.0000   -0.0000
       26 FE2    4py        0.0000   -0.0000    0.0017   -0.0000   -0.0000    0.0000    0.0000    0.0053    0.0001   -0.0000
       27 FE2    5py        0.0000    0.0000   -0.0002    0.0000   -0.0000    0.0000    0.0000    0.0003    0.0000   -0.0000
       28 FE2    2pz       -0.0000    0.0000   -0.0000    0.0002   -0.0000    0.0000    0.0000    0.0000    0.0000    0.0000
       29 FE2    3pz       -0.0011   -0.0000    0.0000    0.0046   -0.0007    0.0000    0.0000   -0.0000   -0.0000    0.0005
       30 FE2    4pz       -0.0010   -0.0000   -0.0000   -0.0402    0.0022    0.0000   -0.0000   -0.0000    0.0000   -0.0026
       31 FE2    5pz       -0.0011   -0.0000   -0.0000   -0.0028    0.0004   -0.0000   -0.0000   -0.0000    0.0000   -0.0004
       32 FE2    3d2-       0.0000   -0.0000   -0.0000   -0.0000    0.0000    0.9829    0.1328   -0.0000    0.0000    0.0000
       33 FE2    4d2-      -0.0000    0.0000    0.0000    0.0000    0.0000    0.1267    0.0171   -0.0000    0.0000    0.0000
       34 FE2    3d1-       0.0000   -0.0001    0.0038   -0.0000    0.0000    0.0000   -0.0000    0.9918    0.0230   -0.0000
       35 FE2    4d1-       0.0000   -0.0000    0.0014   -0.0000    0.0000    0.0000   -0.0000    0.1277    0.0030   -0.0000
       36 FE2    3d0        0.0013    0.0000   -0.0000   -0.0355    0.3383   -0.0000   -0.0000    0.0000    0.0000    0.9335
       37 FE2    4d0        0.0000    0.0000   -0.0000   -0.0135    0.0458   -0.0000   -0.0000    0.0000    0.0000    0.1182
       38 FE2    3d1+      -0.0000    0.0038    0.0001    0.0000   -0.0000   -0.0000    0.0000   -0.0230    0.9918   -0.0000
       39 FE2    4d1+      -0.0000    0.0014    0.0000    0.0000   -0.0000   -0.0000    0.0000   -0.0030    0.1277   -0.0000
       40 FE2    3d2+       0.0000    0.0000   -0.0000    0.0000    0.0000   -0.1328    0.9829    0.0000   -0.0000   -0.0000
       41 FE2    4d2+      -0.0000   -0.0000   -0.0000    0.0000    0.0000   -0.0171    0.1267    0.0000   -0.0000   -0.0000
       42 FE2    4f3-      -0.0000    0.0000   -0.0000   -0.0000    0.0000    0.0000   -0.0000   -0.0000    0.0000    0.0000
       43 FE2    4f2-      -0.0000    0.0000   -0.0000   -0.0000    0.0000    0.0003    0.0000   -0.0000    0.0000    0.0000
       44 FE2    4f1-       0.0000   -0.0000    0.0002   -0.0000   -0.0000    0.0000   -0.0000    0.0003    0.0000   -0.0000
       45 FE2    4f0        0.0001    0.0000   -0.0000   -0.0009    0.0002    0.0000   -0.0000    0.0000    0.0000    0.0001
       46 FE2    4f1+      -0.0000    0.0002    0.0000    0.0000   -0.0000   -0.0000   -0.0000   -0.0000    0.0003   -0.0000
       47 FE2    4f2+      -0.0000   -0.0000    0.0000    0.0000   -0.0000   -0.0000    0.0003    0.0000    0.0000   -0.0000
       48 FE2    4f3+       0.0000   -0.0000    0.0000    0.0000    0.0000    0.0000    0.0000   -0.0000    0.0000   -0.0000
 
          Orbital           21        22        23        24    
          Energy           -0.3839   -0.3839   -0.3733   -0.2192
          Occ. No.          0.0000    0.0000    0.0000    0.0000
 
        1 O1     1s        -0.0000   -0.0000   -0.0100   -0.0157
        2 O1     2s        -0.0000   -0.0000   -0.1152   -0.1502
        3 O1     3s        -0.0000   -0.0000   -0.0179   -0.0363
        4 O1     2px       -0.0234   -0.0255    0.0000    0.0000
        5 O1     3px        0.0004    0.0005    0.0000    0.0000
        6 O1     2py       -0.0255    0.0234   -0.0000   -0.0000
        7 O1     3py        0.0005   -0.0004   -0.0000    0.0000
        8 O1     2pz        0.0000    0.0000    0.1612    0.0558
        9 O1     3pz       -0.0000    0.0000    0.0084    0.0250
       10 O1     3d2-      -0.0000   -0.0000   -0.0000   -0.0000
       11 O1     3d1-      -0.0016    0.0015   -0.0000    0.0000
       12 O1     3d0        0.0000    0.0000    0.0045   -0.0016
       13 O1     3d1+      -0.0015   -0.0016    0.0000    0.0000
       14 O1     3d2+      -0.0000   -0.0000    0.0000    0.0000
       15 FE2    1s        -0.0000   -0.0000    0.0000    0.0000
       16 FE2    2s        -0.0000    0.0000    0.0003    0.0005
       17 FE2    3s        -0.0000   -0.0000    0.0016   -0.0006
       18 FE2    4s        -0.0000    0.0000    0.0174    0.2699
       19 FE2    5s         0.0000   -0.0000   -0.0242    0.9862
       20 FE2    2px       -0.0002   -0.0002    0.0000    0.0000
       21 FE2    3px        0.0074    0.0081   -0.0000   -0.0000
       22 FE2    4px        0.6756    0.7345   -0.0000   -0.0000
       23 FE2    5px        0.0497    0.0540   -0.0000    0.0000
       24 FE2    2py       -0.0002    0.0002    0.0000   -0.0000
       25 FE2    3py        0.0081   -0.0074    0.0000   -0.0000
       26 FE2    4py        0.7345   -0.6756    0.0000   -0.0000
       27 FE2    5py        0.0540   -0.0497    0.0000   -0.0000
       28 FE2    2pz       -0.0000   -0.0000   -0.0003    0.0000
       29 FE2    3pz        0.0000    0.0000    0.0124    0.0020
       30 FE2    4pz        0.0000    0.0000    1.0165    0.0636
       31 FE2    5pz        0.0000    0.0000    0.0732    0.0035
       32 FE2    3d2-      -0.0000    0.0000   -0.0000   -0.0000
       33 FE2    4d2-       0.0000   -0.0000   -0.0000   -0.0000
       34 FE2    3d1-      -0.0031    0.0029    0.0000    0.0000
       35 FE2    4d1-       0.0008   -0.0007   -0.0000    0.0000
       36 FE2    3d0        0.0000    0.0000    0.0127    0.0108
       37 FE2    4d0       -0.0000    0.0000   -0.0044   -0.0074
       38 FE2    3d1+      -0.0029   -0.0031   -0.0000   -0.0000
       39 FE2    4d1+       0.0007    0.0008    0.0000    0.0000
       40 FE2    3d2+      -0.0000   -0.0000    0.0000    0.0000
       41 FE2    4d2+       0.0000    0.0000    0.0000    0.0000
       42 FE2    4f3-      -0.0000    0.0000    0.0000    0.0000
       43 FE2    4f2-       0.0000   -0.0000    0.0000    0.0000
       44 FE2    4f1-      -0.0001    0.0001   -0.0000   -0.0000
       45 FE2    4f0       -0.0000    0.0000   -0.0004   -0.0003
       46 FE2    4f1+      -0.0001   -0.0001    0.0000    0.0000
       47 FE2    4f2+       0.0000    0.0000    0.0000    0.0000
       48 FE2    4f3+      -0.0000    0.0000    0.0000   -0.0000
--
 
 
++    Molecular charges:
      ------------------
 
      Mulliken charges per centre and basis function type
      ---------------------------------------------------
 
                            O1                      FE2   
                     alpha        beta       alpha        beta
      1s           1.0000      1.0000      1.0000      1.0000
      2s           0.9983      0.9995      1.0000      1.0000
      2px          0.0000      0.9965      1.0000      1.0000
      2pz          0.9669      0.9834      1.0000      1.0000
      2py          0.0000      0.9965      1.0000      1.0000
      3s           0.0013      0.0016      1.0000      1.0000
      3px          0.0000      0.0033      0.9993      0.9998
      3pz         -0.0010     -0.0001      0.9992      0.9998
      3py          0.0000      0.0033      0.9993      0.9998
      4s           0.0000      0.0000      0.8630      0.0062
      3d2+         0.0000      0.0000      0.9816      0.0000
      3d1+        -0.0000      0.0001      0.9815      0.0000
      3d0          0.0012      0.0007      0.9814      0.0020
      3d1-        -0.0000      0.0001      0.9815      0.0000
      3d2-         0.0000      0.0000      0.9816      0.0000
      4px          0.0000      0.0000      0.0004      0.0002
      4pz          0.0000      0.0000      0.0284      0.0060
      4py          0.0000      0.0000      0.0004      0.0002
      5s           0.0000      0.0000      0.1394     -0.0005
      4d2+         0.0000      0.0000      0.0184      0.0000
      4d1+         0.0000      0.0000      0.0185      0.0001
      4d0          0.0000      0.0000      0.0214      0.0013
      4d1-         0.0000      0.0000      0.0185      0.0001
      4d2-         0.0000      0.0000      0.0184      0.0000
      5px          0.0000      0.0000      0.0003      0.0000
      5pz          0.0000      0.0000      0.0005      0.0001
      5py          0.0000      0.0000      0.0003      0.0000
      4f3+         0.0000      0.0000      0.0000      0.0000
      4f2+         0.0000      0.0000      0.0000      0.0000
      4f1+         0.0000      0.0000      0.0000      0.0000
      4f0          0.0000      0.0000      0.0000      0.0000
      4f1-         0.0000      0.0000      0.0000      0.0000
      4f2-         0.0000      0.0000      0.0000      0.0000
      4f3-         0.0000      0.0000      0.0000      0.0000
      Total        2.9667      4.9848     15.0333      9.0152
      Total              7.9515                 24.0485
 
      Charge            0.0485                  1.9515
 
      Total electronic charge=   32.000000
 
      Total            charge=    2.000000
--
 
 
  Input file to MOLDEN was generated!
 
 
++    Static properties:
      ------------------
 
 
      LoProp Charges per center
 

                   O1       FE2   
      Nuclear      8.0000  26.0000
      Electronic  -7.9743 -24.0257
 
      Total        0.0257   1.9743
--
 
 
++    Natural Bond Order analysis
      ---------------------------
      Based on LoProp computed density
      -------------------------------------------------------------------------------------
      Atom A       Atom B       Bond Order
      -------------------------------------------------------------------------------------
      NBO located     20.000 core electrons.
      NBO located      3.952 lone pair electrons.
      The remaining    8.049 electrons are to be considered as diffuse
--
 
 
++    Molecular orbitals:
      -------------------
 
      Title: Natural orbitals

      Molecular orbitals for symmetry species 1: a  
 
          Orbital            1         2         3         4         5         6         7         8         9        10    
          Energy         -264.5995  -33.0444  -27.1512  -27.6922  -27.6914  -21.4109   -5.5958   -4.5146   -4.4542   -4.4550
          Occ. No.          2.0000    2.0000    2.0000    2.0000    2.0000    2.0000    2.0000    1.9999    1.9999    1.9999
 
        1 O1     1s         0.0000    0.0092    0.2607    0.0000    0.0000    0.9633    0.0543   -0.0027    0.0000   -0.0000
        2 O1     2s         0.0000   -0.0004   -0.0087   -0.0000   -0.0000   -0.0328    0.0027   -0.0084   -0.0000    0.0000
        3 O1     3s         0.0000    0.0000   -0.0003   -0.0000   -0.0000   -0.0003    0.0001    0.0017    0.0000    0.0000
        4 O1     2px        0.0000   -0.0000    0.0000   -0.0000   -0.0000   -0.0000   -0.0000   -0.0000    0.0000   -0.0000
        5 O1     3px       -0.0000    0.0000   -0.0000   -0.0000   -0.0000    0.0000    0.0000   -0.0000    0.0002   -0.0000
        6 O1     2py        0.0000   -0.0000   -0.0000    0.0000   -0.0000    0.0000   -0.0000    0.0000   -0.0000   -0.0000
        7 O1     3py        0.0000   -0.0000   -0.0000    0.0000   -0.0000    0.0000    0.0000   -0.0000   -0.0000   -0.0002
        8 O1     2pz       -0.0000    0.0001    0.0028   -0.0000   -0.0000   -0.0044   -0.0009   -0.0592   -0.0000   -0.0000
        9 O1     3pz       -0.0000    0.0001    0.0003    0.0000    0.0000    0.0003    0.0005   -0.0018    0.0000   -0.0000
       10 O1     3d2-       0.0000    0.0000    0.0000   -0.0000    0.0000    0.0000   -0.0000    0.0000    0.0000   -0.0000
       11 O1     3d1-       0.0000    0.0000    0.0000   -0.0000    0.0000   -0.0000   -0.0000    0.0000    0.0000    0.0001
       12 O1     3d0        0.0000   -0.0000   -0.0000    0.0000    0.0000    0.0002   -0.0001    0.0010    0.0000    0.0000
       13 O1     3d1+       0.0000    0.0000    0.0000    0.0000    0.0000   -0.0000    0.0000    0.0000   -0.0001    0.0000
       14 O1     3d2+      -0.0000    0.0000    0.0000   -0.0000    0.0000   -0.0000    0.0000   -0.0000   -0.0000    0.0000
       15 FE2    1s         1.0000   -0.0000    0.0000    0.0000    0.0000   -0.0000   -0.0000   -0.0000   -0.0000   -0.0000
       16 FE2    2s         0.0000    0.9939    0.0015   -0.0000   -0.0000   -0.0037   -0.1101    0.0017    0.0000    0.0000
       17 FE2    3s        -0.0000   -0.1098    0.0311   -0.0000    0.0000    0.0485   -0.9922    0.0071    0.0000   -0.0000
       18 FE2    4s         0.0000    0.0005   -0.0001    0.0000    0.0000    0.0002    0.0024    0.0022    0.0000    0.0000
       19 FE2    5s        -0.0000   -0.0006    0.0002   -0.0000   -0.0000    0.0002   -0.0045   -0.0009   -0.0000   -0.0000
       20 FE2    2px       -0.0000    0.0000    0.0000    0.9783    0.1098   -0.0000   -0.0000    0.0000    0.1754   -0.0117
       21 FE2    3px        0.0000   -0.0000   -0.0000   -0.1747   -0.0196    0.0000    0.0000   -0.0000    0.9820   -0.0657
       22 FE2    4px        0.0000    0.0000    0.0000    0.0026    0.0003   -0.0000   -0.0000    0.0000   -0.0150    0.0010
       23 FE2    5px        0.0000   -0.0000   -0.0000   -0.0019   -0.0002    0.0000    0.0000   -0.0000    0.0116   -0.0008
       24 FE2    2py       -0.0000    0.0000    0.0000   -0.1098    0.9783   -0.0000   -0.0000   -0.0000   -0.0117   -0.1755
       25 FE2    3py        0.0000   -0.0000   -0.0000    0.0196   -0.1747    0.0000    0.0000    0.0000   -0.0657   -0.9820
       26 FE2    4py       -0.0000    0.0000    0.0000   -0.0003    0.0026   -0.0000   -0.0000   -0.0000    0.0010    0.0150
       27 FE2    5py        0.0000   -0.0000   -0.0000    0.0002   -0.0019    0.0000    0.0000    0.0000   -0.0008   -0.0116
       28 FE2    2pz       -0.0000   -0.0007    0.9485   -0.0000   -0.0000   -0.2573    0.0186    0.1837    0.0000    0.0000
       29 FE2    3pz       -0.0000   -0.0008   -0.1770    0.0000    0.0000    0.0499    0.0044    0.9806    0.0000    0.0000
       30 FE2    4pz       -0.0000    0.0000    0.0025   -0.0000   -0.0000   -0.0005    0.0002   -0.0111   -0.0000   -0.0000
       31 FE2    5pz       -0.0000    0.0000   -0.0019    0.0000    0.0000    0.0006    0.0001    0.0117    0.0000    0.0000
       32 FE2    3d2-      -0.0000    0.0000   -0.0000   -0.0000    0.0000   -0.0000   -0.0000    0.0000    0.0000   -0.0000
       33 FE2    4d2-       0.0000   -0.0000    0.0000    0.0000    0.0000    0.0000   -0.0000   -0.0000   -0.0000    0.0000
       34 FE2    3d1-      -0.0000   -0.0000   -0.0000    0.0000   -0.0001    0.0000    0.0000    0.0000   -0.0000   -0.0004
       35 FE2    4d1-      -0.0000    0.0000    0.0000   -0.0000    0.0000   -0.0000   -0.0000    0.0000    0.0000    0.0001
       36 FE2    3d0       -0.0000    0.0000   -0.0001    0.0000    0.0000    0.0002    0.0002    0.0023    0.0000    0.0000
       37 FE2    4d0       -0.0000    0.0000    0.0000    0.0000    0.0000    0.0000    0.0001    0.0005   -0.0000    0.0000
       38 FE2    3d1+       0.0000   -0.0000   -0.0000   -0.0001   -0.0000    0.0000    0.0000   -0.0000    0.0004   -0.0000
       39 FE2    4d1+       0.0000    0.0000    0.0000    0.0000    0.0000   -0.0000   -0.0000    0.0000   -0.0001    0.0000
       40 FE2    3d2+       0.0000   -0.0000   -0.0000    0.0000   -0.0000   -0.0000   -0.0000   -0.0000    0.0000   -0.0000
       41 FE2    4d2+      -0.0000    0.0000    0.0000   -0.0000    0.0000    0.0000    0.0000   -0.0000    0.0000    0.0000
       42 FE2    4f3-       0.0000   -0.0000   -0.0000   -0.0000    0.0000   -0.0000   -0.0000    0.0000    0.0000    0.0000
       43 FE2    4f2-      -0.0000    0.0000    0.0000    0.0000   -0.0000   -0.0000    0.0000   -0.0000   -0.0000   -0.0000
       44 FE2    4f1-      -0.0000    0.0000    0.0000   -0.0000    0.0000   -0.0000   -0.0000   -0.0000    0.0000    0.0001
       45 FE2    4f0       -0.0000    0.0000    0.0000   -0.0000   -0.0000   -0.0000    0.0000   -0.0000   -0.0000    0.0000
       46 FE2    4f1+      -0.0000    0.0000    0.0000    0.0000    0.0000   -0.0000   -0.0000    0.0000   -0.0001    0.0000
       47 FE2    4f2+      -0.0000    0.0000    0.0000   -0.0000    0.0000   -0.0000   -0.0000   -0.0000    0.0000    0.0000
       48 FE2    4f3+      -0.0000    0.0000    0.0000   -0.0000   -0.0000   -0.0000    0.0000    0.0000    0.0000   -0.0000
 
          Orbital           11        12        13        14        15        16        17        18        19        20    
          Energy           -1.5325   -0.9876   -0.8384   -0.8384   -1.0710   -1.0710   -1.0695   -0.7462   -0.8328   -0.8328
          Occ. No.          1.9975    1.9948    1.0055    1.0055    1.0000    1.0000    1.0000    1.0000    0.9945    0.9945
 
        1 O1     1s         0.0335   -0.0058   -0.0000    0.0000    0.0000    0.0000   -0.0002    0.0001   -0.0000    0.0000
        2 O1     2s         0.9574   -0.2881    0.0000    0.0000   -0.0000    0.0000    0.0013    0.0149    0.0000    0.0000
        3 O1     3s        -0.0106   -0.0160   -0.0000    0.0000   -0.0000   -0.0000    0.0010    0.0001    0.0000   -0.0000
        4 O1     2px        0.0000    0.0000   -0.0867    0.6989    0.0000   -0.0000   -0.0000   -0.0000    0.0875   -0.7019
        5 O1     3px        0.0000    0.0000    0.0049   -0.0399   -0.0000    0.0000   -0.0000   -0.0000   -0.0051    0.0408
        6 O1     2py       -0.0000   -0.0000    0.6989    0.0867   -0.0000    0.0000    0.0000    0.0000   -0.7019   -0.0875
        7 O1     3py       -0.0000    0.0000   -0.0399   -0.0049    0.0000   -0.0000   -0.0000   -0.0000    0.0408    0.0051
        8 O1     2pz        0.2929    0.9334   -0.0000   -0.0000    0.0000   -0.0000   -0.0417   -0.1110   -0.0000    0.0000
        9 O1     3pz       -0.0049    0.0186   -0.0000   -0.0000    0.0000   -0.0000   -0.0056   -0.0230   -0.0000   -0.0000
       10 O1     3d2-      -0.0000   -0.0000   -0.0000    0.0000    0.0000   -0.0000    0.0000    0.0000    0.0000   -0.0000
       11 O1     3d1-      -0.0000   -0.0000   -0.0076   -0.0009    0.0000    0.0000    0.0000    0.0000    0.0077    0.0010
       12 O1     3d0        0.0012   -0.0153    0.0000    0.0000   -0.0000    0.0000    0.0013    0.0022    0.0000   -0.0000
       13 O1     3d1+       0.0000   -0.0000    0.0009   -0.0076   -0.0000    0.0000   -0.0000   -0.0000   -0.0010    0.0077
       14 O1     3d2+       0.0000   -0.0000   -0.0000   -0.0000   -0.0000   -0.0000   -0.0000    0.0000    0.0000    0.0000
       15 FE2    1s         0.0000    0.0002   -0.0000   -0.0000    0.0000   -0.0000   -0.0000   -0.0000   -0.0000    0.0000
       16 FE2    2s         0.0007    0.0010   -0.0000   -0.0000    0.0000   -0.0000   -0.0001   -0.0001   -0.0000   -0.0000
       17 FE2    3s         0.0049    0.0049   -0.0000   -0.0000    0.0000   -0.0000   -0.0007   -0.0055   -0.0000   -0.0000
       18 FE2    4s        -0.0182   -0.0407   -0.0000   -0.0000    0.0000   -0.0000    0.0028   -0.9350   -0.0000   -0.0000
       19 FE2    5s         0.0025    0.0123    0.0000    0.0000   -0.0000    0.0000   -0.0015    0.3707    0.0000    0.0000
       20 FE2    2px        0.0000   -0.0000    0.0000   -0.0000    0.0000    0.0000   -0.0000   -0.0000   -0.0000    0.0000
       21 FE2    3px       -0.0000   -0.0000    0.0001   -0.0006   -0.0000    0.0000   -0.0000    0.0000   -0.0000    0.0000
       22 FE2    4px        0.0000    0.0000   -0.0001    0.0008    0.0000   -0.0000   -0.0000   -0.0000    0.0002   -0.0016
       23 FE2    5px       -0.0000   -0.0000    0.0000   -0.0002   -0.0000    0.0000   -0.0000    0.0000   -0.0000    0.0001
       24 FE2    2py        0.0000   -0.0000   -0.0000   -0.0000   -0.0000    0.0000   -0.0000   -0.0000    0.0000    0.0000
       25 FE2    3py        0.0000   -0.0000   -0.0006   -0.0001   -0.0000    0.0000    0.0000    0.0000    0.0000    0.0000
       26 FE2    4py        0.0000   -0.0000    0.0008    0.0001   -0.0000   -0.0000    0.0000    0.0000   -0.0016   -0.0002
       27 FE2    5py        0.0000    0.0000   -0.0002   -0.0000   -0.0000    0.0000    0.0000    0.0000    0.0001    0.0000
       28 FE2    2pz        0.0033    0.0068   -0.0000   -0.0000    0.0000   -0.0000   -0.0000   -0.0001    0.0000   -0.0000
       29 FE2    3pz        0.0257    0.0588    0.0000   -0.0000    0.0000   -0.0000   -0.0000   -0.0006   -0.0000    0.0000
       30 FE2    4pz       -0.0219   -0.0716    0.0000    0.0000   -0.0000    0.0000    0.0047    0.0389    0.0000    0.0000
       31 FE2    5pz       -0.0014   -0.0020   -0.0000   -0.0000    0.0000   -0.0000   -0.0003   -0.0004   -0.0000    0.0000
       32 FE2    3d2-      -0.0000   -0.0000   -0.0000   -0.0000    0.7982   -0.5870    0.0000    0.0000   -0.0000   -0.0000
       33 FE2    4d2-       0.0000    0.0000    0.0000    0.0000   -0.1094    0.0804   -0.0000   -0.0000    0.0000    0.0000
       34 FE2    3d1-       0.0000   -0.0000    0.6959    0.0863    0.0000   -0.0000   -0.0000   -0.0000    0.6944    0.0866
       35 FE2    4d1-       0.0000   -0.0000   -0.0942   -0.0117   -0.0000    0.0000    0.0000    0.0000   -0.0967   -0.0121
       36 FE2    3d0       -0.0106   -0.0336   -0.0000    0.0000    0.0000    0.0000   -0.9903   -0.0035   -0.0000    0.0000
       37 FE2    4d0       -0.0033   -0.0147    0.0000   -0.0000   -0.0000   -0.0000    0.1366    0.0042    0.0000   -0.0000
       38 FE2    3d1+       0.0000    0.0000   -0.0863    0.6959    0.0000   -0.0000    0.0000   -0.0000   -0.0866    0.6944
       39 FE2    4d1+       0.0000    0.0000    0.0117   -0.0942   -0.0000    0.0000   -0.0000    0.0000    0.0121   -0.0967
       40 FE2    3d2+       0.0000    0.0000   -0.0000    0.0000   -0.5870   -0.7982   -0.0000    0.0000   -0.0000    0.0000
       41 FE2    4d2+      -0.0000    0.0000    0.0000   -0.0000    0.0804    0.1094    0.0000   -0.0000    0.0000   -0.0000
       42 FE2    4f3-      -0.0000   -0.0000   -0.0000    0.0000    0.0000   -0.0000   -0.0000   -0.0000   -0.0000    0.0000
       43 FE2    4f2-      -0.0000   -0.0000    0.0000   -0.0000    0.0001   -0.0001    0.0000    0.0000    0.0000   -0.0000
       44 FE2    4f1-      -0.0000   -0.0000    0.0002    0.0000    0.0000   -0.0000   -0.0000   -0.0000   -0.0000   -0.0000
       45 FE2    4f0       -0.0001   -0.0011   -0.0000    0.0000   -0.0000    0.0000   -0.0001    0.0002    0.0000    0.0000
       46 FE2    4f1+      -0.0000    0.0000   -0.0000    0.0002    0.0000    0.0000    0.0000   -0.0000    0.0000   -0.0000
       47 FE2    4f2+      -0.0000    0.0000    0.0000    0.0000   -0.0001   -0.0001   -0.0000    0.0000   -0.0000    0.0000
       48 FE2    4f3+       0.0000    0.0000    0.0000   -0.0000    0.0000   -0.0000    0.0000    0.0000   -0.0000    0.0000
 
          Orbital           21        22        23        24        25        26        27        28        29        30    
          Energy           -0.1534    1.1602    0.9679    0.9679    1.2431   -0.2099    0.9210    0.0010    0.0010    0.6687
          Occ. No.          0.0052    0.0025    0.0001    0.0001    0.0001    0.0000    0.0000    0.0000    0.0000    0.0000
 
        1 O1     1s        -0.0060    0.0015   -0.0000    0.0000    0.0078    0.0133   -0.0193    0.0000    0.0000   -0.0100
        2 O1     2s        -0.0803    0.0201   -0.0000    0.0000    0.0779    0.1295   -0.2115    0.0000    0.0000   -0.1064
        3 O1     3s         0.1501    0.6899    0.0000    0.0000    0.0750    0.1670   -0.7818    0.0000    0.0000    0.2807
        4 O1     2px        0.0000    0.0000   -0.0071    0.0061    0.0000   -0.0000   -0.0000   -0.0252   -0.0515    0.0000
        5 O1     3px       -0.0000    0.0000   -0.0223    0.0192    0.0000   -0.0000   -0.0000   -0.0859   -0.1755    0.0000
        6 O1     2py       -0.0000    0.0000   -0.0061   -0.0071   -0.0000    0.0000   -0.0000   -0.0515    0.0252    0.0000
        7 O1     3py        0.0000   -0.0000   -0.0192   -0.0223   -0.0000    0.0000   -0.0000   -0.1755    0.0859    0.0000
        8 O1     2pz        0.1553   -0.0074   -0.0000   -0.0000   -0.0161   -0.0326    0.1834   -0.0000   -0.0000    0.1100
        9 O1     3pz       -0.5470    0.1905   -0.0000   -0.0000    0.2501    0.0931    0.6918   -0.0000   -0.0000    0.6714
       10 O1     3d2-      -0.0000    0.0000    0.0000    0.0000   -0.0000    0.0000   -0.0000    0.0000    0.0000    0.0000
       11 O1     3d1-      -0.0000   -0.0000    0.0012    0.0013   -0.0000   -0.0000    0.0000    0.0322   -0.0157   -0.0000
       12 O1     3d0        0.1350    0.6928    0.0000   -0.0000    0.0296    0.0173    0.3603   -0.0000   -0.0000   -0.5111
       13 O1     3d1+       0.0000    0.0000    0.0013   -0.0012    0.0000    0.0000    0.0000    0.0157    0.0322   -0.0000
       14 O1     3d2+       0.0000    0.0000    0.0000    0.0000    0.0000   -0.0000    0.0000   -0.0000   -0.0000   -0.0000
       15 FE2    1s        -0.0007    0.0001   -0.0000   -0.0000    0.0003    0.0001    0.0010   -0.0000   -0.0000    0.0008
       16 FE2    2s        -0.0050    0.0007   -0.0000   -0.0000    0.0022    0.0006    0.0072   -0.0000   -0.0000    0.0061
       17 FE2    3s        -0.0260    0.0025   -0.0000   -0.0000    0.0111    0.0063    0.0376   -0.0000   -0.0000    0.0313
       18 FE2    4s        -0.1038   -0.0266   -0.0000   -0.0000    0.0499   -0.3642    0.3417   -0.0000   -0.0000    0.2463
       19 FE2    5s         0.0250    0.0334   -0.0000   -0.0000   -0.0283   -0.9363    0.2039   -0.0000   -0.0000    0.1290
       20 FE2    2px        0.0000   -0.0000   -0.0001    0.0001   -0.0000   -0.0000    0.0000    0.0000    0.0000   -0.0000
       21 FE2    3px        0.0000    0.0000   -0.0135    0.0116   -0.0000    0.0000    0.0000    0.0037    0.0076   -0.0000
       22 FE2    4px       -0.0000    0.0000   -0.3870    0.3331   -0.0000    0.0000    0.0000    0.3838    0.7847   -0.0000
       23 FE2    5px        0.0000   -0.0000    0.6518   -0.5609    0.0000    0.0000    0.0000    0.2305    0.4712   -0.0000
       24 FE2    2py       -0.0000    0.0000   -0.0001   -0.0001    0.0000    0.0000    0.0000    0.0000   -0.0000    0.0000
       25 FE2    3py        0.0000   -0.0000   -0.0116   -0.0135    0.0000   -0.0000    0.0000    0.0076   -0.0037   -0.0000
       26 FE2    4py        0.0000   -0.0000   -0.3331   -0.3870   -0.0000   -0.0000    0.0000    0.7847   -0.3838   -0.0000
       27 FE2    5py       -0.0000    0.0000    0.5609    0.6518   -0.0000   -0.0000    0.0000    0.4712   -0.2305   -0.0000
       28 FE2    2pz       -0.0007   -0.0000    0.0000    0.0000    0.0005    0.0001    0.0011   -0.0000   -0.0000    0.0009
       29 FE2    3pz       -0.0048   -0.0045   -0.0000    0.0000    0.0211    0.0020    0.0282   -0.0000   -0.0000    0.0231
       30 FE2    4pz        0.6520   -0.2123   -0.0000    0.0000    0.2572    0.1082    0.6325   -0.0000   -0.0000    0.5475
       31 FE2    5pz       -0.0013    0.0118    0.0000   -0.0000   -0.9366    0.0618    0.3523   -0.0000   -0.0000    0.2854
       32 FE2    3d2-      -0.0000    0.0000    0.0000    0.0000   -0.0000   -0.0000    0.0000   -0.0000   -0.0000   -0.0000
       33 FE2    4d2-      -0.0000    0.0000    0.0000    0.0000   -0.0000   -0.0000    0.0000   -0.0000   -0.0000   -0.0000
       34 FE2    3d1-      -0.0000   -0.0000    0.0000    0.0000    0.0000   -0.0000    0.0000    0.0113   -0.0055   -0.0000
       35 FE2    4d1-       0.0000    0.0000   -0.0006   -0.0007   -0.0000   -0.0000    0.0000    0.0631   -0.0309   -0.0000
       36 FE2    3d0       -0.0064   -0.0049   -0.0000   -0.0000    0.0047    0.0021    0.0865   -0.0000   -0.0000    0.0002
       37 FE2    4d0        0.0377    0.0310    0.0000   -0.0000   -0.0035    0.0162    0.4401   -0.0000   -0.0000   -0.1402
       38 FE2    3d1+       0.0000    0.0000    0.0000   -0.0000   -0.0000    0.0000    0.0000    0.0055    0.0113    0.0000
       39 FE2    4d1+      -0.0000   -0.0000   -0.0007    0.0006    0.0000    0.0000    0.0000    0.0309    0.0631    0.0000
       40 FE2    3d2+       0.0000   -0.0000    0.0000   -0.0000   -0.0000   -0.0000    0.0000    0.0000   -0.0000   -0.0000
       41 FE2    4d2+      -0.0000   -0.0000    0.0000   -0.0000   -0.0000   -0.0000    0.0000    0.0000   -0.0000   -0.0000
       42 FE2    4f3-      -0.0000   -0.0000    0.0000    0.0000   -0.0000   -0.0000   -0.0000   -0.0000   -0.0000    0.0000
       43 FE2    4f2-      -0.0000   -0.0000   -0.0000   -0.0000   -0.0000    0.0000   -0.0000   -0.0000   -0.0000    0.0000
       44 FE2    4f1-       0.0000    0.0000    0.0008    0.0009   -0.0000   -0.0000    0.0000    0.0016   -0.0008   -0.0000
       45 FE2    4f0        0.0035    0.0017    0.0000   -0.0000   -0.0004   -0.0058    0.0424   -0.0000   -0.0000   -0.0125
       46 FE2    4f1+      -0.0000   -0.0000    0.0009   -0.0008    0.0000    0.0000   -0.0000    0.0008    0.0016    0.0000
       47 FE2    4f2+       0.0000    0.0000   -0.0000    0.0000   -0.0000    0.0000   -0.0000    0.0000    0.0000    0.0000
       48 FE2    4f3+       0.0000    0.0000   -0.0000    0.0000    0.0000    0.0000    0.0000   -0.0000   -0.0000   -0.0000
 
          Orbital           31        32        33        34        35        36        37        38        39        40    
          Energy            0.8982    0.3545    0.3082    0.2966    0.2585    2.7057    0.2875    0.2884    2.9922    1.7938
          Occ. No.          0.0000    0.0000    0.0000    0.0000    0.0000    0.0000    0.0000    0.0000    0.0000    0.0000
 
        1 O1     1s         0.0072    0.0000    0.0000   -0.0000    0.0000   -0.0027   -0.0000    0.0000   -0.0000    0.0000
        2 O1     2s         0.0804    0.0000    0.0000   -0.0000    0.0000   -0.0277   -0.0001    0.0000   -0.0000    0.0000
        3 O1     3s        -0.1187   -0.0000   -0.0000    0.0000   -0.0000    0.0379    0.0002   -0.0000    0.0000   -0.0000
        4 O1     2px        0.0000    0.0361   -0.0497    0.0426    0.0081    0.0000    0.0001   -0.0001   -0.0075    0.0190
        5 O1     3px        0.0000    0.5434   -0.8404    0.0209   -0.0374    0.0000    0.0009    0.0002   -0.0308    0.1151
        6 O1     2py       -0.0000    0.0574    0.0358   -0.0132    0.0282   -0.0000    0.0001   -0.0002    0.0031    0.0051
        7 O1     3py       -0.0000    0.8160    0.5373   -0.0329   -0.1974    0.0000    0.0003   -0.0005    0.0303    0.0329
        8 O1     2pz       -0.0857   -0.0000   -0.0000    0.0000   -0.0000    0.0249    0.0001   -0.0000    0.0000   -0.0000
        9 O1     3pz       -0.0671   -0.0000   -0.0000    0.0000   -0.0000    0.0141    0.0001   -0.0000    0.0000   -0.0000
       10 O1     3d2-       0.0000    0.0000   -0.0001   -0.0015   -0.0031    0.0011    0.0207   -0.0024   -0.0100    0.0140
       11 O1     3d1-       0.0000   -0.1451   -0.0866    0.0154   -0.0480    0.0003    0.0080   -0.0101    0.2373    0.1694
       12 O1     3d0        0.3292    0.0000    0.0000   -0.0000    0.0000   -0.1012   -0.0005    0.0001   -0.0000    0.0000
       13 O1     3d1+      -0.0000   -0.0815    0.0957   -0.0680   -0.0320    0.0000    0.0003    0.0025   -0.1817    0.9519
       14 O1     3d2+      -0.0000   -0.0000    0.0001    0.0010    0.0021   -0.0008   -0.0168    0.0058   -0.0168    0.1203
       15 FE2    1s        -0.0001   -0.0000   -0.0000    0.0000   -0.0000    0.0000    0.0000   -0.0000    0.0000   -0.0000
       16 FE2    2s        -0.0007   -0.0000   -0.0000    0.0000   -0.0000    0.0001    0.0000   -0.0000    0.0000   -0.0000
       17 FE2    3s        -0.0037   -0.0000   -0.0000    0.0000   -0.0000    0.0008    0.0000   -0.0000    0.0000   -0.0000
       18 FE2    4s        -0.0345   -0.0000   -0.0000    0.0000   -0.0000    0.0114    0.0001   -0.0000    0.0000   -0.0000
       19 FE2    5s        -0.0131   -0.0000   -0.0000    0.0000   -0.0000    0.0110    0.0001   -0.0000    0.0000   -0.0000
       20 FE2    2px       -0.0000   -0.0002    0.0003   -0.0000    0.0000   -0.0000   -0.0000    0.0000    0.0000   -0.0000
       21 FE2    3px       -0.0000   -0.0037    0.0058    0.0001    0.0003   -0.0000   -0.0000    0.0000    0.0002   -0.0002
       22 FE2    4px       -0.0000    0.0020    0.0023    0.0351    0.0091   -0.0000   -0.0001   -0.0000    0.0014    0.0007
       23 FE2    5px        0.0000    0.0052   -0.0058    0.0147    0.0034   -0.0000   -0.0000   -0.0000    0.0001    0.0011
       24 FE2    2py        0.0000   -0.0003   -0.0002    0.0000    0.0001   -0.0000    0.0000   -0.0000   -0.0000   -0.0000
       25 FE2    3py        0.0000   -0.0056   -0.0037    0.0001    0.0016    0.0000    0.0000   -0.0000   -0.0000   -0.0001
       26 FE2    4py       -0.0000    0.0059    0.0021   -0.0094    0.0345    0.0000    0.0001   -0.0002    0.0008    0.0009
       27 FE2    5py       -0.0000    0.0090    0.0052   -0.0042    0.0127    0.0000    0.0000   -0.0001    0.0004    0.0006
       28 FE2    2pz       -0.0001   -0.0000   -0.0000    0.0000   -0.0000    0.0000    0.0000   -0.0000    0.0000   -0.0000
       29 FE2    3pz       -0.0019   -0.0000   -0.0000    0.0000   -0.0000    0.0003    0.0000   -0.0000    0.0000   -0.0000
       30 FE2    4pz        0.0640    0.0000    0.0000   -0.0000    0.0000   -0.0238   -0.0001    0.0000   -0.0000    0.0000
       31 FE2    5pz        0.0281    0.0000    0.0000   -0.0000    0.0000   -0.0103   -0.0001    0.0000   -0.0000    0.0000
       32 FE2    3d2-      -0.0000   -0.0000   -0.0001   -0.0004    0.0003    0.0008   -0.1343    0.0177   -0.0008   -0.0001
       33 FE2    4d2-      -0.0000   -0.0000   -0.0006   -0.0026    0.0020    0.0055   -0.9804    0.1294   -0.0060   -0.0010
       34 FE2    3d1-       0.0000   -0.0486   -0.0255    0.0365   -0.1231   -0.0000   -0.0003    0.0006   -0.0015   -0.0042
       35 FE2    4d1-       0.0000   -0.2810   -0.1379    0.2624   -0.9122   -0.0000   -0.0024    0.0043   -0.0130   -0.0316
       36 FE2    3d0       -0.1213   -0.0000   -0.0000    0.0000   -0.0000    0.0519    0.0003   -0.0001    0.0000   -0.0000
       37 FE2    4d0       -0.8534   -0.0000   -0.0000    0.0000   -0.0000    0.3698    0.0019   -0.0004    0.0000   -0.0000
       38 FE2    3d1+      -0.0000   -0.0251    0.0185   -0.1322   -0.0328   -0.0000    0.0003    0.0003    0.0005   -0.0056
       39 FE2    4d1+       0.0000   -0.1347    0.0609   -0.9593   -0.2417   -0.0000    0.0022    0.0018    0.0059   -0.0524
       40 FE2    3d2+       0.0000    0.0000    0.0000    0.0002    0.0006    0.0001    0.0181    0.1343   -0.0001   -0.0002
       41 FE2    4d2+       0.0000    0.0000    0.0003    0.0012    0.0040    0.0006    0.1324    0.9804   -0.0009   -0.0008
       42 FE2    4f3-       0.0000   -0.0003    0.0008   -0.0001    0.0001    0.0000    0.0004    0.0018    0.0340    0.0084
       43 FE2    4f2-      -0.0000    0.0000   -0.0002   -0.0006   -0.0002   -0.0008   -0.0130    0.0345   -0.0230   -0.0674
       44 FE2    4f1-       0.0000   -0.0044   -0.0026    0.0009   -0.0039    0.0016    0.0298   -0.0257    0.3633    0.0168
       45 FE2    4f0       -0.3884    0.0000    0.0000   -0.0000    0.0000   -0.9211   -0.0048    0.0011   -0.0000   -0.0000
       46 FE2    4f1+      -0.0000   -0.0019    0.0021   -0.0038   -0.0022   -0.0010   -0.0253    0.0209    0.6830    0.0821
       47 FE2    4f2+       0.0000   -0.0000    0.0000    0.0013    0.0037    0.0015    0.0289   -0.0324    0.0251    0.0103
       48 FE2    4f3+      -0.0000    0.0003    0.0000    0.0001   -0.0002   -0.0000   -0.0044    0.0025    0.5541    0.1378
 
          Orbital           41        42        43        44        45        46        47    
          Energy            2.6050    2.0707    1.7805    3.1150    2.7717    2.8912    3.1185
          Occ. No.          0.0000    0.0000    0.0000    0.0000    0.0000    0.0000    0.0000
 
        1 O1     1s        -0.0000   -0.0000    0.0000    0.0000   -0.0000    0.0000    0.0000
        2 O1     2s        -0.0000   -0.0000    0.0000    0.0000   -0.0000    0.0000    0.0000
        3 O1     3s        -0.0000    0.0001    0.0000    0.0000   -0.0000   -0.0000    0.0000
        4 O1     2px        0.0014    0.0002    0.0022    0.0017   -0.0001    0.0021   -0.0000
        5 O1     3px        0.0075    0.0073    0.0130   -0.0005   -0.0000    0.0060   -0.0008
        6 O1     2py        0.0050   -0.0183    0.0003    0.0013   -0.0005   -0.0038    0.0000
        7 O1     3py        0.0330   -0.1288    0.0020    0.0016   -0.0020   -0.0083    0.0004
        8 O1     2pz        0.0000    0.0000   -0.0000   -0.0000    0.0000   -0.0000   -0.0000
        9 O1     3pz        0.0000    0.0000   -0.0000   -0.0000    0.0000   -0.0000   -0.0000
       10 O1     3d2-       0.4665   -0.0398   -0.5832   -0.0016   -0.4151   -0.3347    0.0056
       11 O1     3d1-       0.2136   -0.8484    0.0079   -0.0085   -0.0190    0.0025    0.0013
       12 O1     3d0        0.0000   -0.0002   -0.0000   -0.0000    0.0000    0.0000   -0.0000
       13 O1     3d1+       0.0552    0.1292    0.1066   -0.0640   -0.0003    0.0099    0.0003
       14 O1     3d2+      -0.3307    0.0365   -0.8051   -0.0061    0.2948    0.2462   -0.0040
       15 FE2    1s         0.0000    0.0000   -0.0000   -0.0000    0.0000   -0.0000   -0.0000
       16 FE2    2s         0.0000    0.0000   -0.0000   -0.0000    0.0000   -0.0000   -0.0000
       17 FE2    3s         0.0000    0.0000   -0.0000   -0.0000    0.0000   -0.0000   -0.0000
       18 FE2    4s         0.0000    0.0000   -0.0000   -0.0000    0.0000   -0.0000   -0.0000
       19 FE2    5s         0.0000    0.0000    0.0000   -0.0000    0.0000   -0.0000   -0.0000
       20 FE2    2px       -0.0000    0.0000   -0.0000   -0.0000    0.0000   -0.0000    0.0000
       21 FE2    3px       -0.0000    0.0000   -0.0000   -0.0001   -0.0000   -0.0001    0.0000
       22 FE2    4px        0.0002    0.0004    0.0001   -0.0011   -0.0001   -0.0007   -0.0000
       23 FE2    5px        0.0001    0.0001    0.0001   -0.0003   -0.0000   -0.0001   -0.0000
       24 FE2    2py       -0.0000    0.0000   -0.0000   -0.0000    0.0000    0.0000   -0.0000
       25 FE2    3py       -0.0001    0.0004   -0.0000   -0.0000    0.0000    0.0001   -0.0000
       26 FE2    4py        0.0003   -0.0008    0.0001   -0.0007   -0.0002    0.0014    0.0000
       27 FE2    5py        0.0004   -0.0012    0.0000   -0.0001   -0.0001    0.0002    0.0000
       28 FE2    2pz        0.0000    0.0000   -0.0000   -0.0000    0.0000   -0.0000   -0.0000
       29 FE2    3pz        0.0000    0.0000   -0.0000   -0.0000    0.0000   -0.0000   -0.0000
       30 FE2    4pz        0.0000   -0.0000   -0.0000   -0.0000    0.0000    0.0000   -0.0000
       31 FE2    5pz        0.0000   -0.0000   -0.0000   -0.0000    0.0000    0.0000   -0.0000
       32 FE2    3d2-      -0.0008   -0.0047    0.0011    0.0000    0.0007    0.0005   -0.0000
       33 FE2    4d2-      -0.0039   -0.0339    0.0070    0.0002    0.0045    0.0036   -0.0003
       34 FE2    3d1-      -0.0021    0.0060   -0.0004    0.0004    0.0006   -0.0002   -0.0000
       35 FE2    4d1-      -0.0172    0.0513   -0.0027    0.0030    0.0048   -0.0016   -0.0003
       36 FE2    3d0       -0.0000    0.0001   -0.0000    0.0000   -0.0000   -0.0000   -0.0000
       37 FE2    4d0       -0.0000    0.0006   -0.0000    0.0000   -0.0000   -0.0000   -0.0000
       38 FE2    3d1+      -0.0010    0.0006   -0.0006    0.0005    0.0004   -0.0001    0.0000
       39 FE2    4d1+      -0.0077    0.0022   -0.0057    0.0043    0.0028   -0.0005    0.0001
       40 FE2    3d2+      -0.0030   -0.0042    0.0016   -0.0000   -0.0001   -0.0005    0.0002
       41 FE2    4d2+      -0.0227   -0.0310    0.0098   -0.0002    0.0006   -0.0035    0.0018
       42 FE2    4f3-       0.0021    0.0069   -0.0000    0.0488   -0.0037   -0.0029   -0.9981
       43 FE2    4f2-       0.7781    0.2403   -0.0022    0.0364    0.4885    0.2367    0.0000
       44 FE2    4f1-      -0.0031   -0.1278   -0.0001   -0.2780    0.0003    0.6719   -0.0000
       45 FE2    4f0        0.0000   -0.0015   -0.0000    0.0000    0.0000   -0.0000    0.0000
       46 FE2    4f1+      -0.0008    0.3067   -0.0016   -0.5189    0.0000   -0.3278   -0.0000
       47 FE2    4f2+      -0.1188   -0.2267   -0.0030   -0.0209    0.7083   -0.4616   -0.0000
       48 FE2    4f3+      -0.0354    0.1388    0.0000    0.8034   -0.0021    0.0004    0.0606
--
 
 
++    Molecular properties:
      ---------------------
 
      Charge (e):
                      =    2.0000
      Dipole Moment (Debye):
      Origin of the operator (Ang)=    0.0000    0.0000    0.0000
                   X=  3.6664E-13               Y=  1.1696E-12               Z= -7.1899E+00           Total=  7.1899E+00
      Center of Charge (Ang)
                     X=    0.00000000               Y=    0.00000000               Z=   -0.74845324
      Quadrupole Moment (Debye*Ang):
      Origin of the operator (Ang)=    0.0000    0.0000   -0.1248
                  XX= -1.4286E+01              XY= -1.3495E-13              XZ= -6.8743E-12              YY= -1.4286E+01
                  YZ=  6.0083E-12              ZZ= -7.8261E+00
      In traceless form (Debye*Ang)
                  XX= -3.2300E+00              XY= -2.0243E-13              XZ= -1.0311E-11              YY= -3.2300E+00
                  YZ=  9.0125E-12              ZZ=  6.4600E+00
--
 
 
  Input file to MOLDEN was generated!
 
 ###############################################################################
 ###############################################################################
 ###                                                                         ###
 ###                                                                         ###
 ###    RunFile label nBas                                                   ###
 ###    was used       86 times                                              ###
 ###                                                                         ###
 ###                                                                         ###
 ###############################################################################
 ###############################################################################
--- Stop Module: scf at Sun Dec 22 16:37:42 2024 /rc=_RC_ALL_IS_WELL_ ---
*** files: 3.33.LprOrb 3.33.LoProp.molden 3.33.scf.molden 3.33.scf.h5 3.33.UhfOrb 3.33.UnaOrb xmldump
    saved to directory /home/grierjones/DDCASPT2/iron_oxo_DDCASPT2/cluster/3.33

>>> COPY /tmp/3.33/3.33.scf.h5 /home/grierjones/DDCASPT2/iron_oxo_DDCASPT2/cluster/3.33/

*** symbolic link created: INPORB -> 3.33.UnaOrb
--- Start Module: rasscf at Sun Dec 22 16:37:42 2024 ---
 
()()()()()()()()()()()()()()()()()()()()()()()()()()()()()()()()()()()()()()()()()()()()()()()()()()

                                              &RASSCF

                                   only a single process is used
                       available to each process: 2.0 GB of memory, 1 thread?
()()()()()()()()()()()()()()()()()()()()()()()()()()()()()()()()()()()()()()()()()()()()()()()()()()
 
 ###############################################################################
 ###############################################################################
 ###                                                                         ###
 ###                                                                         ###
 ###    LUMORB input error.                                                  ###
 ###                                                                         ###
 ###                                                                         ###
 ###############################################################################
 ###############################################################################
  Keyword LUMORB used with file name StartOrbFile=
 /home/grierjones/DDCASPT2/iron_oxo_DDCASPT2/cluster/3.32/3.32.RasOrb           
                                                  
  but that file cannot be used. Perhaps it does
  not exist?
 
 *************** WARNING ****************
 ###############################################################################
 ###############################################################################
 ###                                                                         ###
 ###                                                                         ###
 ###    Too many macro-iterations.                                           ###
 ###                                                                         ###
 ###                                                                         ###
 ###############################################################################
 ###############################################################################
 Too many macro-iterations requested.
 Reset to maximum, new MAXIT=     200
 ****************************************
 
 *************** WARNING ****************
 ###############################################################################
 ###############################################################################
 ###                                                                         ###
 ###                                                                         ###
 ###    Too many SX-iterations.                                              ###
 ###                                                                         ###
 ###                                                                         ###
 ###############################################################################
 ###############################################################################
 Too many SX-iterations requested.
 Reset to maximum, new ITMAX=     100
 ****************************************
 
      Header of the ONEINT file:
      --------------------------
      
      Integrals generated by seward 4.2.0  , Sun Dec 22 16:37:41 2024
 
 
      OrdInt status: non-squared
 
 
      Cartesian coordinates in Angstrom:
      -----------------------------------------------------
      No.  Label        X            Y            Z        
      -----------------------------------------------------
       1   O1         0.00000000   0.00000000   2.46553000
       2   FE2        0.00000000   0.00000000  -0.86553000
      -----------------------------------------------------
      Nuclear repulsion energy =   33.04319340
 
++    Wave function specifications:
      -----------------------------
 
      Number of closed shell electrons          22
      Number of electrons in active shells      10
      Max number of holes in RAS1 space          0
      Max nr of electrons in RAS3 space          0
      Number of inactive orbitals               11
      Number of active orbitals                 14
      Number of secondary orbitals              23
      Spin quantum number                      2.0
      State symmetry                             1
--
 
++    Orbital specifications:
      -----------------------
 
      Symmetry species                           1
                                                 a
      Frozen orbitals                            0
      Inactive orbitals                         11
      Active orbitals                           14
      RAS1 orbitals                              0
      RAS2 orbitals                             14
      RAS3 orbitals                              0
      Secondary orbitals                        23
      Deleted orbitals                           0
      Number of basis functions                 48
--
 
++    CI expansion specifications:
      ----------------------------
 
      Number of CSFs                        975975
      Number of determinants               1249248
      Number of root(s) required                 1
      Root chosen for geometry opt.              1
      CI root used                               1
         
      highest root included in the CI            1
      max. size of the explicit Hamiltonian    200
--
 
++    Optimization specifications:
      ----------------------------
 
      RASSCF algorithm: Conventional
      Maximum number of macro iterations       200
      Maximum number of SX iterations          100
      Threshold for RASSCF energy            0.100E-07
      Threshold for max MO rotation          0.100E+00
      Threshold for max BLB element          0.100E-03
      Level shift parameter                  0.500E+00
      Make Quasi-Newton update
--
 
 RdVec: File 
 /home/grierjones/DDCASPT2/iron_oxo_DDCASPT2/cluster/3.32/3.32.RasOrb 
  not found!
[ process      0]: xquit (rc =    128): _INTERNAL_ERROR_
abort: 
--- Stop Module: rasscf at Sun Dec 22 16:37:42 2024 /rc=_RC_FLOATING_EXCEPTION_ ---
*** files: xmldump
    saved to directory /home/grierjones/DDCASPT2/iron_oxo_DDCASPT2/cluster/3.33

.########################.
.# Non-zero return code #.
.########################.

    Timing: Wall=1.79 User=1.52 System=0.27
************************************
*** WorkDir at /tmp/3.33 cleaned ***
************************************
