   This run of MOLCAS is using the pymolcas driver

                             OPE
                             OPE          NMOL  CASOP  ENMOLC A   SO
                 OPE        NMOLC        AS  OP EN  MO LC     AS  OP
                OPENM       OL CA        SO  PE NM  OL CA     SOP EN
                OP EN      MO   LC       AS  OP ENMOL  CASO   PENMOL
                OP  EN     MO   LC       AS  OP EN     MO     LC ASO
               OP   E  NMOL  C  AS       OP  EN MO     LC     AS  OP
               OP  E   NMO   LC AS        OPEN  MO     LCASOP EN   M
               O  PEN   MO  LCA  SO
            OPE   NMO   L   CAS    OP
        OPENMOL  CASOP     ENMOL   CASOPE
     OPENMOLCA   SOPENMOLCASOPEN   MOLCASOPE
    OPENMOLCAS   OP           EN   MOL    CAS
    OPENMOLCAS       OP  ENM        O     LCA
    OPENMOLCAS    OPEN  MOLCASO     P  E  NMO
    OPENMOLCAS     OP               E  N  MOL
    OPENMOLCA   SO           PENM   O  L  CAS    OPEN    MO    LCAS
    OPENMOLCA   SOP           ENM   O  L  CAS   OP  EN  MOLC  AS   O
    OPENMOLCA   SOPE           NM      O  LCA   S      OP  EN MO
    OPENMOLC                AS         O  PEN   M      OL  CA  SOPE
    OPENMO        LCASOPE  NMOL        C  ASO   P      ENMOLC     AS
    OPE     NMO      LCA  SO     P     E   NM   OL  CA SO  PE N   MO
          OPENMOLCA            SOPE   NMO        LCAS  O    P  ENMO
     OPENMOLCASOPENMOLCASOPENMOLCASOPENMOLCA
        OPENMOLCASOPENMOLCASOPENMOLCASOPE
            OPENMOLCASOPENMOLCASOPENM
               OPENMOLCASOPENMOLCA        version: 24.02
                   OPENMOLCASO
                       OPE                tag: 126-g611b04c8f

 OpenMolcas is free software; you can redistribute it and/or modify it
 under the terms of the GNU Lesser General Public License version 2.1.
 OpenMolcas is distributed in the hope that it will be useful, but it
 is provided "as is" and without any express or implied warranties.
 For more details see the full text of the license in the file
 LICENSE or in <http://www.gnu.org/licenses/>.

                 Copyright (C) The OpenMolcas Authors
           For the author list and the recommended citation,
                   consult the file CONTRIBUTORS.md

           *************************************************
           * pymolcas version py2.28                       *
           *   build c4a6d18ded8cb6cad61d2372a9abd97c      *
           *   (after the EMIL interpreter by V. Veryazov) *
           *************************************************

configuration info
------------------
Host name: debian (Linux)
C Compiler ID: GNU
C flags: -std=gnu99
Fortran Compiler ID: Intel
Fortran flags: -fpp -i8 -heap-arrays
Definitions: _MOLCAS_;_I8_;_LINUX_
Parallel: OFF (GA=OFF)


   -----------------------------------------------------------------
  |
  |              Project: 0.90
  |       Submitted from: /home/grierjones/DDCASPT2/delta_ML/BF/0.90
  |         Scratch area: /tmp/0.90
  |      Save outputs to: /home/grierjones/DDCASPT2/delta_ML/BF/0.90
  |               Molcas: /usr/local
  |
  | Scratch area is empty
  |
  |       MOLCAS_DRIVER = /usr/local/pymolcas
  | MOLCAS_KEEP_WORKDIR = NO
  |  MOLCAS_NEW_WORKDIR = YES
  |       MOLCAS_NPROCS = 1
  |       MOLCAS_SOURCE = /usr/local
  |    MOLCAS_STRUCTURE = 0
  |
   -----------------------------------------------------------------

++ ---------   Input file   ---------

&GATEWAY
coord=0.90.xyz
Basis = ANO-RCC-MB
Group = nosymm
End of Input

&SEWARD
End of Input

&SCF
UHF

&MBPT2
Frozen
0

&RASSCF
Title= RASSCF
FileOrb
/home/grierjones/DDCASPT2/delta_ML/BF/0.80/0.80.RasOrb

NACTEL
2 0 0
Inactive
6
RAS2
2
Symmetry
1
Spin
1
orblisting
all
ITERation
200 100
CIMX
200
SDAV
500

&CASPT2
Imaginary Shift
0.0
Frozen
0

-- ----------------------------------

--- Start Module: gateway at Thu Apr 25 13:34:11 2024 ---
 
()()()()()()()()()()()()()()()()()()()()()()()()()()()()()()()()()()()()()()()()()()()()()()()()()()

                                              &GATEWAY

                                   only a single process is used
                       available to each process: 2.0 GB of memory, 1 thread?
                                             pid: 94795
()()()()()()()()()()()()()()()()()()()()()()()()()()()()()()()()()()()()()()()()()()()()()()()()()()
 
 
++    Symmetry information:
      ---------------------
 
                    Character Table for C1 
 
                             E  
                    a        1  x, y, xy, Rz, z, xz, Ry, yz, Rx, I
--
 
 
++    Basis set information:
      ----------------------
 
 
      Basis set label: B.ANO-RCC...2S1P.
 
      Electronic valence basis set:
      ------------------
      Associated Effective Charge   5.000000 au
      Associated Actual Charge      5.000000 au
      Nuclear Model: Point charge
 
      Shell  nPrim  nBasis  Cartesian Spherical Contaminant
         s      14       2        X                  
         p       9       1        X                  
 
 
      Basis set label: F.ANO-RCC...2S1P.
 
      Electronic valence basis set:
      ------------------
      Associated Effective Charge   9.000000 au
      Associated Actual Charge      9.000000 au
      Nuclear Model: Point charge
 
      Shell  nPrim  nBasis  Cartesian Spherical Contaminant
         s      14       2        X                  
         p       9       1        X                  
--
 
 
++    Molecular structure info:
      -------------------------
 
                    ************************************************ 
                    **** Cartesian Coordinates / Bohr, Angstrom **** 
                    ************************************************ 
 
     Center  Label                x              y              z                     x              y              z
        1      B1               0.000000       0.000000       0.000000              0.000000       0.000000       0.000000
        2      F2               0.000000       0.000000       1.700754              0.000000       0.000000       0.900000
--
 
 
            Nuclear Potential Energy             26.45886055 au
 
--- Stop Module: gateway at Thu Apr 25 13:34:11 2024 /rc=_RC_ALL_IS_WELL_ ---
*** files: xmldump
    saved to directory /home/grierjones/DDCASPT2/delta_ML/BF/0.90

--- Start Module: seward at Thu Apr 25 13:34:11 2024 ---
 
()()()()()()()()()()()()()()()()()()()()()()()()()()()()()()()()()()()()()()()()()()()()()()()()()()

                                              &SEWARD

                                   only a single process is used
                       available to each process: 2.0 GB of memory, 1 thread?
                                             pid: 94803
()()()()()()()()()()()()()()()()()()()()()()()()()()()()()()()()()()()()()()()()()()()()()()()()()()
 
               SEWARD will generate:
                  Multipole Moment integrals up to order  2
                  Kinetic Energy integrals
                  Nuclear Attraction integrals (point charge)
                  One-Electron Hamiltonian integrals
                  Velocity integrals
                  Relativistic Douglas-Kroll-Hess integrals:
                    - Parametrization         : EXP
                    - DKH order of Hamiltonian: 2
                    - DKH order of Properties : 0
                         - multipole moment operators
                         - electric potential operators
                         - contact operators
                  Orbital angular momentum around ( 0.0000  0.0000  1.0768 )
                  Velocity quadrupole around ( 0.0000  0.0000  1.0768 )
                  Atomic mean-field integrals
                  Two-Electron Repulsion integrals
 
                   Integrals are discarded if absolute value <: 1.00E-14
                   Integral cutoff threshold is set to       <: 1.00E-16
 
            Nuclear Potential Energy             26.45886055 au
 
 
      Basis set specifications :
      Symmetry species         a  
      Basis functions           10
 
 
      Input file to MOLDEN was generated!
 
--- Stop Module: seward at Thu Apr 25 13:34:12 2024 /rc=_RC_ALL_IS_WELL_ ---
*** files: 0.90.GssOrb 0.90.guessorb.h5 0.90.guessorb.molden xmldump
    saved to directory /home/grierjones/DDCASPT2/delta_ML/BF/0.90

*** symbolic link created: INPORB -> 0.90.GssOrb
--- Start Module: scf at Thu Apr 25 13:34:12 2024 ---
 
()()()()()()()()()()()()()()()()()()()()()()()()()()()()()()()()()()()()()()()()()()()()()()()()()()

                                                &SCF

                                   only a single process is used
                       available to each process: 2.0 GB of memory, 1 thread?
                                             pid: 94806
()()()()()()()()()()()()()()()()()()()()()()()()()()()()()()()()()()()()()()()()()()()()()()()()()()
 
++    Input section:
      --------------
 
      Header of the integral files:
      
       Integrals generated by Gateway/Seward, Thu Apr 25 13:34:11 2024
 
 
      Cartesian coordinates in Angstrom:
      -----------------------------------------------------
      No.  Label        X            Y            Z        
      -----------------------------------------------------
       1   B1         0.00000000   0.00000000   0.00000000
       2   F2         0.00000000   0.00000000   0.90000000
      -----------------------------------------------------
      Nuclear repulsion energy =   26.45886055
--
 
++    Orbital specifications:
      -----------------------
 
      Symmetry species               1
                                     a
      Frozen orbitals                0
      Occupied orbitals alpha        7
      Occupied orbitals beta         7
      Secondary orbitals alpha       3
      Secondary orbitals beta        3
      Deleted orbitals               0
      Total number of orbitals      10
      Number of basis functions     10
--
 
      Molecular charge                           0.000
 
++    Optimization specifications:
      ----------------------------
 
      SCF Algorithm: Conventional USCF
      D(i)-D(i-1) density differences are used
      Number of density matrices in core                 5
      Maximum number of NDDO SCF iterations            400
      Maximum number of HF SCF iterations              400
      Threshold for SCF energy change             1.00E-09
      Threshold for density matrix                1.00E-04
      Threshold for Fock matrix                   1.50E-04
      Threshold for linear dependence             1.00E-09
      Threshold at which DIIS is turned on        1.50E-01
      Maximum depth in the DIIS procedure                5
      Maximum depth in the BFGS Hessian update          30
      Threshold at which QNR/C2DIIS is turned on  7.50E-02
      Threshold for Norm(delta) (QNR/C2DIIS)      1.00E-03
      All orbitals punched on: UHFORB
--
 
      Input vectors read from INPORB
      Orbital file label: *Guess orbitals
 
 
++ Convergence information
                               UHF SCF        iterations: Energy and convergence statistics
 
Iter     Tot. SCF        One-elec.       Two-elec.     Energy      Max Dij or  Max Fij      DNorm      TNorm      AccCon     Time
         Energy          Energy          Energy        Change      Delta Norm                                                in Sec.
   1  -123.562731798  -219.006929658    68.985337315   0.00E+00    1.69E-01*   2.17E-01*    5.51E+00   3.13E+01   None         0.
   2  -123.637092761  -221.194596140    71.098642834  -7.44E-02*   5.44E-02*   3.04E-02*    1.23E+00   3.18E+01   EDIIS        0.
   3  -123.640694714  -220.728891882    70.629336623  -3.60E-03*   3.96E-03*   8.69E-03*    2.22E-01   3.17E+01   c2DIIS       0.
   4  -123.640873792  -220.811374533    70.711640196  -1.79E-04*   2.83E-03*   1.19E-03*    3.18E-02   3.17E+01   QNRc2DIIS    0.
   5  -123.640877522  -220.810090122    70.710352055  -3.73E-06*   1.07E-03*   3.00E-04*    8.67E-03   3.17E+01   QNRc2DIIS    0.
   6  -123.640877816  -220.810008826    70.710270465  -2.93E-07*   3.92E-05    1.74E-05     3.49E-03   3.17E+01   QNRc2DIIS    0.
   7  -123.640877816  -220.809901359    70.710162997  -5.96E-10    9.46E-06    2.82E-06     9.51E-05   3.17E+01   QNRc2DIIS    0.
 
       Convergence after   7 Macro Iterations
--
 
 *****************************************************************************************************************************
 *                                                                                                                           *
 *                                             SCF/KS-DFT Program, Final results                                             *
 *                                                                                                                           *
 *                                                                                                                           *
 *                                                                                                                           *
 *                                                       Final Results                                                       *
 *                                                                                                                           *
 *****************************************************************************************************************************
 
::    Total SCF energy                               -123.6408778164
      One-electron energy                            -220.8099013589
      Two-electron energy                              70.7101629973
      Nuclear repulsion energy                         26.4588605451
      Kinetic energy (interpolated)                   127.0821242897
      Virial theorem                                    0.9729210816
      Total spin, S(S+1)                               -0.0000000000
      Total spin, S                                    -0.0000000000
      Max non-diagonal density matrix element           0.0000043237
      Max non-diagonal Fock matrix element              0.0000008915
 
 
      All orbitals with orbital energies smaller than  E(LUMO)+0.5 are printed
 
++    Molecular orbitals:
      -------------------
 
      Title: UHF orbitals (alpha)

      Molecular orbitals for symmetry species 1: a  
 
          Orbital            1         2         3         4         5         6         7         8         9        10    
          Energy          -26.5466   -7.8597   -1.9965   -0.9910   -0.9451   -0.9451   -0.4108    0.2316    0.2316    0.7157
          Occ. No.          1.0000    1.0000    1.0000    1.0000    1.0000    1.0000    1.0000    0.0000    0.0000    0.0000
 
        1 B1     1s        -0.0007    0.9956   -0.1865    0.1645    0.0000    0.0000   -0.0469   -0.0000   -0.0000    0.2385
        2 B1     2s        -0.0016    0.0090   -0.0298    0.0444   -0.0000    0.0000   -0.9553   -0.0000   -0.0000    1.0790
        3 B1     2px        0.0000    0.0000   -0.0000   -0.0000    0.1590   -0.0263    0.0000   -1.0772   -0.2240    0.0000
        4 B1     2py        0.0000    0.0000   -0.0000   -0.0000    0.0263    0.1590    0.0000    0.2240   -1.0772   -0.0000
        5 B1     2pz       -0.0008    0.0041    0.0865   -0.1227    0.0000   -0.0000    0.4527    0.0000    0.0000    1.3296
        6 F2     1s         1.0002   -0.0028   -0.0053    0.0122   -0.0000    0.0000    0.0184    0.0000    0.0000   -0.2231
        7 F2     2s        -0.0010    0.0117    0.9290    0.3346    0.0000    0.0000    0.1988   -0.0000    0.0000   -1.3572
        8 F2     2px       -0.0000   -0.0000   -0.0000    0.0000    0.9066   -0.1502   -0.0000    0.6129    0.1275   -0.0000
        9 F2     2py       -0.0000   -0.0000   -0.0000   -0.0000    0.1502    0.9066   -0.0000   -0.1275    0.6129    0.0000
       10 F2     2pz       -0.0022   -0.0141   -0.3100    0.9730    0.0000    0.0000   -0.1617   -0.0000   -0.0000    0.4592
--
 
 
      Input file to MOLDEN was generated!
 
 
++    Static properties:
      ------------------
 
 
      LoProp Charges per center
 

                   B1       F2    
      Nuclear      5.0000   9.0000
      Electronic  -5.0015  -8.9985
 
      Total       -0.0015   0.0015
--
 
 
      All orbitals with orbital energies smaller than  E(LUMO)+0.5 are printed
 
++    Molecular orbitals:
      -------------------
 
      Title: UHF orbitals (beta)

      Molecular orbitals for symmetry species 1: a  
 
          Orbital            1         2         3         4         5         6         7         8         9        10    
          Energy          -26.5466   -7.8597   -1.9965   -0.9910   -0.9451   -0.9451   -0.4108    0.2316    0.2316    0.7157
          Occ. No.          1.0000    1.0000    1.0000    1.0000    1.0000    1.0000    1.0000    0.0000    0.0000    0.0000
 
        1 B1     1s        -0.0007    0.9956   -0.1865    0.1645    0.0000    0.0000   -0.0469   -0.0000   -0.0000    0.2385
        2 B1     2s        -0.0016    0.0090   -0.0298    0.0444   -0.0000    0.0000   -0.9553   -0.0000   -0.0000    1.0790
        3 B1     2px        0.0000    0.0000   -0.0000   -0.0000    0.1590   -0.0263    0.0000   -1.0772   -0.2240    0.0000
        4 B1     2py        0.0000    0.0000   -0.0000   -0.0000    0.0263    0.1590    0.0000    0.2240   -1.0772   -0.0000
        5 B1     2pz       -0.0008    0.0041    0.0865   -0.1227    0.0000   -0.0000    0.4527    0.0000    0.0000    1.3296
        6 F2     1s         1.0002   -0.0028   -0.0053    0.0122   -0.0000    0.0000    0.0184    0.0000    0.0000   -0.2231
        7 F2     2s        -0.0010    0.0117    0.9290    0.3346    0.0000    0.0000    0.1988   -0.0000    0.0000   -1.3572
        8 F2     2px       -0.0000   -0.0000   -0.0000    0.0000    0.9066   -0.1502   -0.0000    0.6129    0.1275   -0.0000
        9 F2     2py       -0.0000   -0.0000   -0.0000   -0.0000    0.1502    0.9066   -0.0000   -0.1275    0.6129    0.0000
       10 F2     2pz       -0.0022   -0.0141   -0.3100    0.9730    0.0000    0.0000   -0.1617   -0.0000   -0.0000    0.4592
--
 
 
++    Molecular charges:
      ------------------
 
      Mulliken charges per centre and basis function type
      ---------------------------------------------------
 
                            B1                      F2    
                     alpha        beta       alpha        beta
      1s           1.0007      1.0007      1.0002      1.0002
      2s           0.7493      0.7493      0.9718      0.9718
      2px          0.0907      0.0907      0.9093      0.9093
      2pz          0.3067      0.3067      0.9712      0.9712
      2py          0.0907      0.0907      0.9093      0.9093
      Total        2.2382      2.2382      4.7618      4.7618
      Total              4.4764                  9.5236
 
      Charge            0.5236                 -0.5236
 
      Total electronic charge=   14.000000
 
      Total            charge=   -0.000000
--
 
 
      Input file to MOLDEN was generated!
 
 
++    Static properties:
      ------------------
 
 
      LoProp Charges per center
 

                   B1       F2    
      Nuclear      5.0000   9.0000
      Electronic  -5.0015  -8.9985
 
      Total       -0.0015   0.0015
--
 
 
++    Natural Bond Order analysis
      ---------------------------
      Based on LoProp computed density
      -------------------------------------------------------------------------------------
      Atom A       Atom B       Bond Order
        B1           F2             0.774
      -------------------------------------------------------------------------------------
      NBO located      1.547 electrons involved in    1 bonds.
      NBO located      0.972 non-bonded electrons on atom B1        
      The remaining    4.457 electrons are to be considered as diffuse
--
 
 
++    Molecular orbitals:
      -------------------
 
      Title: Natural orbitals

      Molecular orbitals for symmetry species 1: a  
 
          Orbital            1         2         3         4         5         6         7         8         9        10    
          Energy          -26.5466   -7.8597   -1.9965   -0.9910   -0.9451   -0.9451   -0.4108    0.2316    0.2316    0.7157
          Occ. No.          2.0000    2.0000    2.0000    2.0000    2.0000    2.0000    2.0000    0.0000    0.0000    0.0000
 
        1 B1     1s        -0.0007    0.9956   -0.1865    0.1645    0.0000    0.0000    0.0469   -0.0000   -0.0000    0.2385
        2 B1     2s        -0.0016    0.0090   -0.0298    0.0443   -0.0000    0.0000    0.9553   -0.0000   -0.0000    1.0790
        3 B1     2px        0.0000    0.0000   -0.0000   -0.0000    0.1589   -0.0263   -0.0000   -1.0772   -0.2240    0.0000
        4 B1     2py        0.0000    0.0000   -0.0000   -0.0000    0.0263    0.1589   -0.0000    0.2240   -1.0772   -0.0000
        5 B1     2pz       -0.0008    0.0041    0.0865   -0.1227    0.0000   -0.0000   -0.4527    0.0000    0.0000    1.3296
        6 F2     1s         1.0002   -0.0028   -0.0053    0.0122   -0.0000    0.0000   -0.0184    0.0000    0.0000   -0.2231
        7 F2     2s        -0.0010    0.0117    0.9290    0.3347    0.0000    0.0000   -0.1988   -0.0000    0.0000   -1.3572
        8 F2     2px       -0.0000   -0.0000   -0.0000    0.0000    0.9066   -0.1502    0.0000    0.6129    0.1275   -0.0000
        9 F2     2py       -0.0000   -0.0000   -0.0000   -0.0000    0.1502    0.9066    0.0000   -0.1275    0.6129    0.0000
       10 F2     2pz       -0.0022   -0.0141   -0.3100    0.9730    0.0000    0.0000    0.1616   -0.0000   -0.0000    0.4592
--
 
 
++    Molecular properties:
      ---------------------
 
      Charge (e):
                      =   -0.0000
      Dipole Moment (Debye):
      Origin of the operator (Ang)=    0.0000    0.0000    0.0000
                   X=  1.0352E-13               Y=  9.3833E-14               Z=  1.5025E+00           Total=  1.5025E+00
      Quadrupole Moment (Debye*Ang):
      Origin of the operator (Ang)=    0.0000    0.0000    0.5698
                  XX= -1.0176E+01              XY= -1.4261E-14              XZ= -1.1120E-13              YY= -1.0176E+01
                  YZ= -1.0724E-13              ZZ= -1.5328E+01
      In traceless form (Debye*Ang)
                  XX=  2.5760E+00              XY= -2.1391E-14              XZ= -1.6680E-13              YY=  2.5760E+00
                  YZ= -1.6085E-13              ZZ= -5.1521E+00
--
 
 
      Input file to MOLDEN was generated!
 
 ###############################################################################
 ###############################################################################
 ###                                                                         ###
 ###                                                                         ###
 ###    WARNING: RunFile label nBas                                          ###
 ###    was used       87 times                                              ###
 ###                                                                         ###
 ###                                                                         ###
 ###############################################################################
 ###############################################################################
--- Stop Module: scf at Thu Apr 25 13:34:12 2024 /rc=_RC_ALL_IS_WELL_ ---
*** files: 0.90.LprOrb 0.90.LoProp.molden 0.90.scf.molden 0.90.scf.h5 0.90.UhfOrb 0.90.UnaOrb xmldump
    saved to directory /home/grierjones/DDCASPT2/delta_ML/BF/0.90

*** symbolic link created: INPORB -> 0.90.UnaOrb
--- Start Module: mbpt2 at Thu Apr 25 13:34:12 2024 ---
 
()()()()()()()()()()()()()()()()()()()()()()()()()()()()()()()()()()()()()()()()()()()()()()()()()()

                                               &MBPT2

                                   only a single process is used
                       available to each process: 2.0 GB of memory, 1 thread?
                                             pid: 94809
()()()()()()()()()()()()()()()()()()()()()()()()()()()()()()()()()()()()()()()()()()()()()()()()()()
 
 
 ###############################################################################
 ###############################################################################
 ###                                                                         ###
 ###                                                                         ###
 ###    WARNING: MP2 implementation intended for RHF references only         ###
 ###                                                                         ###
 ###                                                                         ###
 ###############################################################################
 ###############################################################################
MBPT2 WARNING: Reference function according to RunFile:UHF-SCF 
I'll assume you know what you're doing and continue
 
 
WARNING!
Default frozen orbitals as non valence orbitals is overwritten by user input.
Default values:   2
 
 
      Cartesian coordinates in Angstrom:
      -----------------------------------------------------
      No.  Label        X            Y            Z        
      -----------------------------------------------------
       1   B1         0.00000000   0.00000000   0.00000000
       2   F2         0.00000000   0.00000000   0.90000000
      -----------------------------------------------------
      Nuclear repulsion energy =   26.45886055
 
      Contents of RUNFILE file:
      -------------------------
 
      Symmetry species                           1
                                                 a
      Number of basis functions                 10
      Frozen occupied orbitals                   0
      Active occupied orbitals                   7
      Active external orbitals                   3
      Deleted external orbitals                  0
 
 
      Energies of the active occupied orbitals
 
      symmetry species 1                   -26.546604     -7.859659     -1.996539     -0.990981     -0.945121
                                            -0.945121     -0.410764
 
 
      Energies of the active external orbitals
 
      symmetry species 1                     0.231631      0.231631      0.715678
 
 
      ********************************************************************************************************
      *                                               Results                                                *
      ********************************************************************************************************
 
 Conventional algorithm used...

       SCF energy                           =     -123.6408778164 a.u.
       Second-order correlation energy      =       -0.0437763916 a.u.

       Total energy                         =     -123.6846542079 a.u.
       Reference weight ( Cref**2 )         =        0.98057
 
::    Total MBPT2 energy                             -123.6846542079
 
 
       Zeroth-order energy (E0)             =      -52.9307148191 a.u.
 
       Shanks-type energy S1(E)             =     -123.6846813265 a.u.
 
 


       Data processing and timing information:

       Section                                              time(sec)
                                                          CPU  Elapsed

      Input data processing                              0.03      0.05
      Transformation of integrals                        0.00      0.00
      MBPT2 calculations (BJAI)                          0.00      0.00
      Total MBPT2 calculations                           0.03      0.05
 
 
--- Stop Module: mbpt2 at Thu Apr 25 13:34:12 2024 /rc=_RC_ALL_IS_WELL_ ---
*** files: xmldump
    saved to directory /home/grierjones/DDCASPT2/delta_ML/BF/0.90

*** symbolic link created: INPORB -> 0.90.UnaOrb
--- Start Module: rasscf at Thu Apr 25 13:34:12 2024 ---
 
()()()()()()()()()()()()()()()()()()()()()()()()()()()()()()()()()()()()()()()()()()()()()()()()()()

                                              &RASSCF

                                   only a single process is used
                       available to each process: 2.0 GB of memory, 1 thread?
                                             pid: 94812
()()()()()()()()()()()()()()()()()()()()()()()()()()()()()()()()()()()()()()()()()()()()()()()()()()
 
 
      Header of the ONEINT file:
      --------------------------
      
      Integrals generated by Gateway/Seward, Thu Apr 25 13:34:11 2024
 
 
      OrdInt status: non-squared
 
 
      Cartesian coordinates in Angstrom:
      -----------------------------------------------------
      No.  Label        X            Y            Z        
      -----------------------------------------------------
       1   B1         0.00000000   0.00000000   0.00000000
       2   F2         0.00000000   0.00000000   0.90000000
      -----------------------------------------------------
      Nuclear repulsion energy =   26.45886055
 
++    Wave function specifications:
      -----------------------------
 
      Number of closed shell electrons          12
      Number of electrons in active shells       2
      Max number of holes in RAS1 space          0
      Max nr of electrons in RAS3 space          0
      Number of inactive orbitals                6
      Number of active orbitals                  2
      Number of secondary orbitals               2
      Spin quantum number                      0.0
      State symmetry                             1
--
 
++    Orbital specifications:
      -----------------------
 
      Symmetry species                           1
                                                 a
      Frozen orbitals                            0
      Inactive orbitals                          6
      Active orbitals                            2
      RAS1 orbitals                              0
      RAS2 orbitals                              2
      RAS3 orbitals                              0
      Secondary orbitals                         2
      Deleted orbitals                           0
      Number of basis functions                 10
--
 
++    CI expansion specifications:
      ----------------------------
 
      Number of CSFs                             3
      Number of determinants                     3
      Number of root(s) required                 1
      Root chosen for geometry opt.              1
      CI root used                               1
         
      highest root included in the CI            1
      max. size of the explicit Hamiltonian      3
--
 
++    Optimization specifications:
      ----------------------------
 
      RASSCF algorithm: Conventional
      Maximum number of macro iterations       200
      Maximum number of SX iterations          100
      Threshold for RASSCF energy            1.000E-08
      Threshold for max MO rotation          1.000E-01
      Threshold for max BLB element          1.000E-04
      Level shift parameter                  5.000E-01
      Make Quasi-Newton update
--
 
      The MO-coefficients are taken from the file:
      /home/grierjones/DDCASPT2/delta_ML/BF/0.80/0.80.RasOrb                                                                                                                                                                                                          
      Title: RASSCF average (pseudo-natural) orbitals                                      
 
      Total molecular charge    0.00
 
      ************************************************************************************************************************
      *                                                                                                                      *
      *                                            Wave function control section                                             *
      *                                                                                                                      *
      ************************************************************************************************************************
 
 
                                         RASSCF iterations: Energy and convergence statistics
                                         ----------------------------------------------------
 
      Iter CI   SX   CI       RASSCF       Energy    max ROT     max BLB   max BLB  Level Ln srch  Step   QN   Walltime
          iter iter root      energy       change     param      element    value   shift minimum  type update hh:mm:ss
 Nr of preliminary CI iterations:   1
        1   1    5    1  -123.64825196    0.00E+00   2.33E-02    3  10 1  6.45E-02*  0.00   0.00    SX    NO    0:00:00
        2   1    5    1  -123.65004280   -1.79E-03* -1.19E-02    4   8 1 -1.04E-02*  0.00   0.00    SX    NO    0:00:00
        3   1    5    1  -123.65014793   -1.05E-04*  6.23E-03    3  10 1  3.41E-03*  0.00   0.00    SX    NO    0:00:00
        4   1    4    1  -123.65015706   -9.13E-06* -3.36E-03    4   8 1 -6.56E-04*  0.00   0.00    SX    NO    0:00:00
        5   1    4    1  -123.65015830   -1.24E-06*  3.33E-03    3  10 1  1.98E-04*  0.00   1.43    QN   YES    0:00:00
        6   1    4    1  -123.65015867   -3.73E-07* -6.03E-04    6  10 1  9.52E-05   0.00   1.13    QN   YES    0:00:00
        7   1    4    1  -123.65015869   -1.82E-08*  1.16E-04    6  10 1  4.39E-05   0.00   1.29    QN   YES    0:00:00
        8   1    3    1  -123.65015869   -1.78E-09  -1.74E-05    6  10 1  4.13E-06   0.00   1.08    QN   YES    0:00:00
      Convergence after  8 iterations
        9   1    3    1  -123.65015869   -3.43E-11  -1.74E-05    4   8 1 -6.62E-07   0.00   1.08    QN   YES    0:00:00
 
      ************************************************************************************************************************
                                                      Wave function printout:
                       occupation of active orbitals, and spin coupling of open shells (u,d: Spin up or down)
      ************************************************************************************************************************
 
      Note: transformation to natural orbitals
      has been made, which may change the order of the CSFs.
 
      printout of CI-coefficients larger than  0.05 for root  1
      energy=    -123.650159
      conf/sym  11     Coeff  Weight
             1  20   0.99327 0.98659
             3  02  -0.11579 0.01341
 
      Natural orbitals and occupation numbers for root  1
      sym 1:   1.973184   0.026816
 
      ************************************************************************************************************************
      *                                                                                                                      *
      *                                                    Final results                                                     *
      *                                                                                                                      *
      ************************************************************************************************************************
 
 
++    Wave function specifications:
      -----------------------------
 
      Number of closed shell electrons          12
      Number of electrons in active shells       2
      Max number of holes in RAS1 space          0
      Max nr of electrons in RAS3 space          0
      Number of inactive orbitals                6
      Number of active orbitals                  2
      Number of secondary orbitals               2
      Spin quantum number                      0.0
      State symmetry                             1
--
 
++    Orbital specifications:
      -----------------------
 
      Symmetry species                           1
                                                 a
      Frozen orbitals                            0
      Inactive orbitals                          6
      Active orbitals                            2
      RAS1 orbitals                              0
      RAS2 orbitals                              2
      RAS3 orbitals                              0
      Secondary orbitals                         2
      Deleted orbitals                           0
      Number of basis functions                 10
--
 
++    CI expansion specifications:
      ----------------------------
 
      Number of CSFs                             3
      Number of determinants                     3
      Number of root(s) required                 1
      CI root used                               1
      highest root included in the CI            1
      Root passed to geometry opt.               1
--
 
++    Final optimization conditions:
      ------------------------------
 
      Average CI energy                            -123.65015869
      RASSCF energy for state  1                   -123.65015869
      Super-CI energy                                -0.00000000
      RASSCF energy change                           -0.00000000
      Max change in MO coefficients              -1.704E-05
      Max non-diagonal density matrix element    -1.744E-05
      Maximum BLB matrix element                 -6.617E-07
      (orbital pair   4,   8 in symmetry   1)
      Norm of electronic gradient            8.744E-07
--
 
 
      Final state energy(ies):
      ------------------------
 
::    RASSCF root number  1 Total energy:   -123.65015869
 
++    Molecular orbitals:
      -------------------
 
      Pseudonatural active orbitals and approximate occupation numbers
 
 
 
 
      Molecular orbitals for symmetry species 1: a  
 
 
      Orbital                 1         2         3         4         5         6         7         8         9        10
      Energy           -26.5386   -7.8586   -1.9917   -0.9769   -0.9424   -0.9406   -0.4188    0.0000    0.2323    0.7170
      Occ. No.           2.0000    2.0000    2.0000    2.0000    2.0000    2.0000    1.9732    0.0268    0.0000    0.0000
 
     1 B1     1s        -0.0007    0.9952   -0.1865    0.1691   -0.0000    0.0000   -0.0375    0.0000    0.0000   -0.2386
     2 B1     2s        -0.0009   -0.0047   -0.0451    0.1664   -0.0000    0.0000   -0.9446   -0.0000    0.0000   -1.0760
     3 B1     2px        0.0000    0.0000   -0.0000   -0.0000    0.1552    0.0281    0.0000   -1.0844   -0.1885   -0.0000
     4 B1     2py        0.0000    0.0000   -0.0000   -0.0000   -0.0270    0.1614   -0.0000    0.1887   -1.0835    0.0000
     5 B1     2pz       -0.0012    0.0103    0.0943   -0.1801   -0.0000   -0.0000    0.4273    0.0000   -0.0000   -1.3309
     6 F2     1s         1.0002   -0.0025   -0.0050    0.0098    0.0000    0.0000    0.0215   -0.0000    0.0000    0.2230
     7 F2     2s        -0.0011    0.0150    0.9326    0.3056    0.0000    0.0000    0.2285   -0.0000    0.0000    1.3568
     8 F2     2px        0.0000   -0.0000   -0.0000   -0.0000    0.9074    0.1573   -0.0000    0.6138    0.1077    0.0000
     9 F2     2py       -0.0000   -0.0000    0.0000   -0.0000   -0.1579    0.9039    0.0000   -0.1068    0.6190   -0.0000
    10 F2     2pz       -0.0022   -0.0143   -0.3092    0.9859   -0.0000    0.0000   -0.0315    0.0000   -0.0000   -0.4595
--
 
      Von Neumann Entropy (Root   1) =  0.10262
 

      Mulliken population analysis for root number:  1
      -----------------------------------------------
 
 
++    Molecular charges:
      ------------------
 
      Mulliken charges per centre and basis function type
      ---------------------------------------------------
 
                B1      F2    
      1s       2.0015  2.0004
      2s       1.4856  1.9425
      2px      0.2005  1.8255
      2pz      0.6017  1.9415
      2py      0.1856  1.8152
      Total    4.4748  9.5252
 
      N-E      0.5252 -0.5252
 
      Total electronic charge=   14.000000
 
      Total            charge=   -0.000000
--
 
 

      Expectation values of various properties for root number:  1
      -----------------------------------------------------------
 
 
++    Molecular properties:
      ---------------------
 
      Charge (e):
                      =   -0.0000
      Dipole Moment (Debye):
      Origin of the operator (Ang)=    0.0000    0.0000    0.0000
                   X= -3.7534E-13               Y=  3.4183E-14               Z=  1.4134E+00           Total=  1.4134E+00
      Quadrupole Moment (Debye*Ang):
      Origin of the operator (Ang)=    0.0000    0.0000    0.5698
                  XX= -1.0220E+01              XY=  8.0867E-03              XZ=  3.3833E-13              YY= -1.0175E+01
                  YZ= -1.2927E-14              ZZ= -1.5194E+01
      In traceless form (Debye*Ang)
                  XX=  2.4647E+00              XY=  1.2130E-02              XZ=  5.0749E-13              YY=  2.5323E+00
                  YZ= -1.9390E-14              ZZ= -4.9970E+00
--
 

      LoProp population analysis for root number:  1
      -----------------------------------------------
 
 
++    LoProp analysis:
      ----------------
 
 
 
      Input file to MOLDEN was generated!
 
 
++    Static properties:
      ------------------
 
 
      LoProp Charges per center
 

                   B1       F2    
      Nuclear      5.0000   9.0000
      Electronic  -4.9982  -9.0018
 
      Total        0.0018  -0.0018
--
 
 
      Natural Bond Order analysis for root number:  1
 
++    Natural Bond Order analysis
      ---------------------------
      Based on LoProp computed density
      -------------------------------------------------------------------------------------
      Atom A       Atom B       Bond Order
        B1           F2             0.767
      -------------------------------------------------------------------------------------
      NBO located      1.534 electrons involved in    1 bonds.
      NBO located      0.971 non-bonded electrons on atom B1        
      The remaining    4.460 electrons are to be considered as diffuse
--
 
--
 
 
      Input file to MOLDEN was generated!
 
      Average orbitals are written to the RASORB file
      Natural orbitals for root   1 are written to the RASORB.1 file
      Spin density orbitals for root   1 are written to the SPDORB.1 file
 
--- Stop Module: rasscf at Thu Apr 25 13:34:13 2024 /rc=_RC_ALL_IS_WELL_ ---
*** files: 0.90.LprOrb 0.90.rasscf.molden 0.90.LoProp.molden 0.90.RasOrb.1 0.90.RasOrb 0.90.rasscf.h5 0.90.SpdOrb.1 xmldump
    saved to directory /home/grierjones/DDCASPT2/delta_ML/BF/0.90

*** symbolic link created: INPORB -> 0.90.RasOrb
--- Start Module: caspt2 at Thu Apr 25 13:34:13 2024 ---
 
()()()()()()()()()()()()()()()()()()()()()()()()()()()()()()()()()()()()()()()()()()()()()()()()()()

                                              &CASPT2

                                   only a single process is used
                       available to each process: 2.0 GB of memory, 1 thread?
                                             pid: 94817
()()()()()()()()()()()()()()()()()()()()()()()()()()()()()()()()()()()()()()()()()()()()()()()()()()
 
 ###############################################################################
 ###############################################################################
 ###                                                                         ###
 ###                                                                         ###
 ###    WARNING: User changed nr of frozen orbitals.                         ###
 ###                                                                         ###
 ###                                                                         ###
 ###############################################################################
 ###############################################################################
 
++    Wave function specifications:
      -----------------------------
 
      Number of closed shell electrons          12
      Number of electrons in active shells       2
      Max number of holes in RAS1 space          0
      Max number of electrons in RAS3 space      0
      Number of inactive orbitals                6
      Number of active orbitals                  2
      Number of secondary orbitals               2
      Spin quantum number                      0.0
      State symmetry                             1
      Number of CSFs                             3
      Number of CASSCF root(s) available         1
      CASPT2 state passed to geometry opt.       1
      A file JOBMIX will be created
      This is a CASSCF or RASSCF reference function
--
 
++    Orbital specifications:
      -----------------------
 
      Symmetry species                           1
                                                 a
      Frozen orbitals                            0
      Inactive orbitals                          6
      Active orbitals                            2
      Secondary orbitals                         2
      Deleted orbitals                           0
      Number of basis functions                 10
--
 
++    CASPT2 specifications:
      ----------------------
 
      Type of calculation                        SS-CASPT2
      Fock operator                              state-specific
      IPEA shift                                 0.25
      Real shift                                 0.00
      Imaginary shift                            0.00
      The input orbitals will be transformed to quasi-canonical
--
 
--------------------------------------------------------------------------------
 Estimated memory requirements:
  POLY3 :                   250070
  RHS:                      250428
  SIGMA :                   250384
  PRPCTL:                        0
 Available workspace:    230392690
 
++ CASPT2 computation for group   1
 
********************************************************************************
 Multi-State initialization phase begins for group   1
--------------------------------------------------------------------------------
********************************************************************************
 Compute H0 matrices for state    1
--------------------------------------------------------------------------------
--------------------------------------------------------------------------------
 H0 matrices have been computed.
 
********************************************************************************
  CASPT2 EQUATION SOLUTION
--------------------------------------------------------------------------------
 
  Total nr of CASPT2 parameters:
   Before reduction:         518
   After  reduction:         358
 
 Variance of |WF0>:       0.1084302852
 
 The contributions to the second order correlation energy in atomic units.
-----------------------------------------------------------------------------------------------------------------------------
  IT.      VJTU        VJTI        ATVX        AIVX        VJAI        BVAT        BJAT        BJAI        TOTAL       RNORM  
-----------------------------------------------------------------------------------------------------------------------------
   1    -0.000000   -0.004026   -0.000000   -0.001375   -0.014177   -0.004789   -0.001696   -0.011534   -0.037597    0.000863
   2    -0.000000   -0.004026   -0.000000   -0.001377   -0.014179   -0.004820   -0.001700   -0.011539   -0.037641    0.000036
   3    -0.000000   -0.004026   -0.000000   -0.001377   -0.014178   -0.004820   -0.001699   -0.011539   -0.037640    0.000002
-----------------------------------------------------------------------------------------------------------------------------
 
  FINAL CASPT2 RESULT:
 
      Reference energy:        -123.6501586908
      E2 (Non-variational):      -0.0376399608
      E2 (Variational):          -0.0376399611
      Total energy:            -123.6877986519
      Residual norm:              0.0000000563
      Reference weight:           0.98511
 
      Contributions to the CASPT2 correlation energy
      Active & Virtual Only:         -0.0048198261
      One Inactive Excited:          -0.0030764373
      Two Inactive Excited:          -0.0297436974
 
 
++ Denominators, etc.
--------------------------------------------------------------------------------------------------------------
 Report on small energy denominators, large coefficients, and large energy contributions.
CASE  SYMM ACTIVE-MIX  NON-ACTIVE INDICES          DENOMINATOR     RHS VALUE       COEFFICIENT     CONTRIBUTION
VJTIP    1  Mu1.0001  In1.005 In1.005               2.44623706      0.09552326     -0.03905072     -0.00373025
VJAIP    1  Mu1.0001  Se1.009 In1.006 In1.005       2.32827108     -0.08814804      0.03786165     -0.00333743
VJAIM    1  Mu1.0001  Se1.009 In1.006 In1.005       2.32827108     -0.12028209      0.05166464     -0.00621433
BVATP    1  Mu1.0001  Se1.009 Se1.009               1.40987442     -0.07665508      0.05407833     -0.00414538
BJATM    1  Mu1.0001  In1.006 Se1.010 Se1.009       2.29473381      0.05649357     -0.02519356     -0.00142327
BJAIP    1  Se1.009 In1.006 Se1.009 In1.006         2.34591349      0.09908843     -0.04223874     -0.00418537
--
 
   (Skipping property calculation,
    use PROP keyword to activate)
--
 
  Total CASPT2 energies:
::    CASPT2 Root  1     Total energy:   -123.68779865
 
  A NEW JOBIPH FILE NAMED 'JOBMIX' IS PREPARED.
********************************************************************************
--- Stop Module: caspt2 at Thu Apr 25 13:34:13 2024 /rc=_RC_ALL_IS_WELL_ ---
*** files: xmldump
    saved to directory /home/grierjones/DDCASPT2/delta_ML/BF/0.90

.##################.
.# Happy landing! #.
.##################.

    Timing: Wall=2.29 User=1.51 System=0.23
************************************
*** WorkDir at /tmp/0.90 removed ***
************************************
