[Molden Format]
[N_Atoms]
                     2
[Atoms] (AU)
B1          1      5           0.00000000      0.00000000      0.00000000
F2          2      9           0.00000000      0.00000000      1.70075351
[Charge] (Mulliken)
   2.46069421578203     
 -0.460694215782052     
[GTO] (AU)
   1
   s  14
  3.336021700E+04  1.039699991E-04
  4.972095200E+03  5.254399956E-04
  1.125641700E+03  2.509059979E-03
  3.164913600E+02  1.031887991E-02
  1.020072600E+02  3.636632969E-02
  3.629587300E+01  1.064607991E-01
  1.397141000E+01  2.403999880E-01
  5.741156000E+00  3.748581168E-01
  2.494268000E+00  3.100066974E-01
  1.114202000E+00  7.922455933E-02
  4.215490000E-01 -4.947589958E-03
  1.696330000E-01 -7.737119935E-03
  6.853500000E-02 -1.501079987E-03
  2.398700000E-02 -1.333299989E-04
   s  14
  3.336021700E+04 -2.030000008E-05
  4.972095200E+03 -1.025700004E-04
  1.125641700E+03 -4.911300020E-04
  3.164913600E+02 -2.026570008E-03
  1.020072600E+02 -7.261010030E-03
  3.629587300E+01 -2.197722009E-02
  1.397141000E+01 -5.408428022E-02
  5.741156000E+00 -1.022402604E-01
  2.494268000E+00 -1.423595206E-01
  1.114202000E+00 -4.658690019E-02
  4.215490000E-01  3.799402916E-01
  1.696330000E-01  5.890463624E-01
  6.853500000E-02  1.749075107E-01
  2.398700000E-02 -1.142030005E-03
   p   9
  5.500000000E+01  1.229800005E-03
  1.336610100E+01  8.827380035E-03
  4.135394000E+00  3.843340015E-02
  1.481256000E+00  1.150031805E-01
  6.021360000E-01  2.733674011E-01
  2.556360000E-01  4.061972116E-01
  1.111510000E-01  3.014967912E-01
  4.764800000E-02  7.684809030E-02
  1.667700000E-02 -8.170000032E-06
 
   2
   s  14
  1.031094600E+05  1.713099991E-04
  1.528100700E+04  7.123999962E-04
  3.441539200E+03  2.990479984E-03
  9.670948300E+02  1.164036994E-02
  3.140353400E+02  3.968642979E-02
  1.134423000E+02  1.128546094E-01
  4.464472700E+01  2.473650687E-01
  1.894287400E+01  3.672702681E-01
  8.532743000E+00  2.896286985E-01
  3.919401000E+00  7.786681959E-02
  1.568157000E+00  4.562139976E-03
  6.232900000E-01  2.468879987E-03
  2.408610000E-01  1.106309994E-03
  8.430100000E-02  1.739699991E-04
   s  14
  1.031094600E+05 -4.044999995E-05
  1.528100700E+04 -1.682299998E-04
  3.441539200E+03 -7.084299991E-04
  9.670948300E+02 -2.767999996E-03
  3.140353400E+02 -9.611379987E-03
  1.134423000E+02 -2.833957996E-02
  4.464472700E+01 -6.839343991E-02
  1.894287400E+01 -1.237379298E-01
  8.532743000E+00 -1.512859698E-01
  3.919401000E+00 -9.099909988E-03
  1.568157000E+00  3.716257695E-01
  6.232900000E-01  5.500214393E-01
  2.408610000E-01  2.092318697E-01
  8.430100000E-02  8.074639989E-03
   p   9
  2.453302900E+02  1.024860004E-03
  5.691900500E+01  8.344290032E-03
  1.760456800E+01  4.078927016E-02
  6.274995000E+00  1.351370605E-01
  2.447030000E+00  2.798830811E-01
  9.950600000E-01  3.597966414E-01
  4.039730000E-01  3.055347412E-01
  1.548100000E-01  1.354703905E-01
  5.418400000E-02  2.804449011E-02
 
[MO]
Sym=     1a  
Ene=   -27.3960
Spin= Alpha
Occup=    2.00000
   1        -0.00165195
   2        -0.00174718
   3        -0.00000302
   4         0.00000011
   5        -0.00014714
   6         1.00013260
   7         0.00116468
   8        -0.00001336
   9         0.00000048
  10        -0.00549181
Sym=     2a  
Ene=    -9.1088
Spin= Alpha
Occup=    2.00000
   1         0.99695883
   2         0.00778856
   3         0.00000133
   4        -0.00000005
   5         0.00032789
   6        -0.00234669
   7         0.00944418
   8         0.00000623
   9        -0.00000022
  10        -0.00924819
Sym=     3a  
Ene=    -1.8580
Spin= Alpha
Occup=    2.00000
   1        -0.05138069
   2         0.01861763
   3        -0.00179252
   4         0.00006416
   5         0.11521187
   6        -0.01725559
   7        -0.77298307
   8        -0.00795580
   9         0.00028476
  10        -0.70469923
Sym=     4a  
Ene=    -1.6748
Spin= Alpha
Occup=    2.00000
   1        -0.00139650
   2         0.00004341
   3         0.20120655
   4        -0.00720176
   5         0.00164545
   6        -0.00021010
   7        -0.00422946
   8         0.89480578
   9        -0.03202767
  10        -0.00916227
Sym=     5a  
Ene=    -1.6748
Spin= Alpha
Occup=    2.00000
   1         0.00000000
   2        -0.00000000
   3         0.00720211
   4         0.20121618
   5        -0.00000000
   6         0.00000000
   7         0.00000000
   8         0.03202920
   9         0.89484851
  10         0.00000000
Sym=     6a  
Ene=    -2.6430
Spin= Alpha
Occup=    1.99888
   1        -0.22960929
   2        -0.02710060
   3        -0.00082411
   4         0.00002950
   5         0.15380784
   6        -0.01794992
   7         0.65028607
   8        -0.00362379
   9         0.00012971
  10        -0.71304767
Sym=     7a  
Ene=     0.0001
Spin= Alpha
Occup=    0.00112
   1        -0.24386237
   2        -1.37704984
   3         0.00371821
   4        -0.00013309
   5        -1.02044505
   6         0.21031132
   7         1.30286778
   8        -0.00224910
   9         0.00008050
  10        -0.52159902
Sym=     8a  
Ene=    -0.8177
Spin= Alpha
Occup=    0.00000
   1        -0.05820170
   2         0.42715331
   3         0.00530322
   4        -0.00018982
   5        -0.95759768
   6         0.07472463
   7         0.37232794
   8        -0.00319230
   9         0.00011426
  10        -0.05195871
Sym=     9a  
Ene=    -0.5991
Spin= Alpha
Occup=    0.00000
   1         0.00000000
   2         0.00000000
   3        -0.03911717
   4        -1.09287574
   5         0.00000000
   6        -0.00000000
   7        -0.00000000
   8         0.02358290
   9         0.65887138
  10         0.00000000
Sym=    10a  
Ene=    -0.5991
Spin= Alpha
Occup=    0.00000
   1        -0.00111060
   2        -0.00261439
   3        -1.09285654
   4         0.03911648
   5        -0.00812071
   6         0.00107854
   7         0.00623829
   8         0.65885983
   9        -0.02358249
  10        -0.00202007
