[Molden Format]
[N_Atoms]
                     2
[Atoms] (AU)
O1          1      8           0.00000000      0.00000000      0.00000000
O2          2      8           0.00000000      0.00000000      3.59047964
[Charge] (Mulliken)
   1.00063496016559     
  0.999365039834373     
[GTO] (AU)
   1
   s  14
  1.053749500E+05  1.238600013E-04
  1.567924000E+04  5.120100053E-04
  3.534544700E+03  2.152910022E-03
  9.873651600E+02  8.528440089E-03
  3.159787500E+02  3.018049031E-02
  1.116542800E+02  9.099702095E-02
  4.269945100E+01  2.177936423E-01
  1.739559600E+01  3.686245738E-01
  7.438309000E+00  3.366707335E-01
  3.222862000E+00  9.657630101E-02
  1.253877000E+00  2.144520022E-03
  4.951550000E-01  1.194350012E-03
  1.916650000E-01  5.390200056E-04
  6.708300000E-02  2.103400022E-04
   s  14
  1.053749500E+05 -2.815000008E-05
  1.567924000E+04 -1.163000003E-04
  3.534544700E+03 -4.909200013E-04
  9.873651600E+02 -1.946160005E-03
  3.159787500E+02 -7.005300019E-03
  1.116542800E+02 -2.167814006E-02
  4.269945100E+01 -5.641213015E-02
  1.739559600E+01 -1.127053003E-01
  7.438309000E+00 -1.589119704E-01
  3.222862000E+00 -3.355083009E-02
  1.253877000E+00  3.531902810E-01
  4.951550000E-01  5.534199315E-01
  1.916650000E-01  2.301839106E-01
  6.708300000E-02  1.127267003E-02
   p   9
  2.000000000E+02  9.173000030E-04
  4.653336700E+01  7.377140024E-03
  1.462180900E+01  3.483515011E-02
  5.313064000E+00  1.144397004E-01
  2.102525000E+00  2.554966408E-01
  8.502230000E-01  3.722557412E-01
  3.375970000E-01  3.323314911E-01
  1.288920000E-01  1.400847905E-01
  4.511200000E-02  2.395784008E-02
 
   2
   s  14
  1.053749500E+05  1.238600013E-04
  1.567924000E+04  5.120100053E-04
  3.534544700E+03  2.152910022E-03
  9.873651600E+02  8.528440089E-03
  3.159787500E+02  3.018049031E-02
  1.116542800E+02  9.099702095E-02
  4.269945100E+01  2.177936423E-01
  1.739559600E+01  3.686245738E-01
  7.438309000E+00  3.366707335E-01
  3.222862000E+00  9.657630101E-02
  1.253877000E+00  2.144520022E-03
  4.951550000E-01  1.194350012E-03
  1.916650000E-01  5.390200056E-04
  6.708300000E-02  2.103400022E-04
   s  14
  1.053749500E+05 -2.815000008E-05
  1.567924000E+04 -1.163000003E-04
  3.534544700E+03 -4.909200013E-04
  9.873651600E+02 -1.946160005E-03
  3.159787500E+02 -7.005300019E-03
  1.116542800E+02 -2.167814006E-02
  4.269945100E+01 -5.641213015E-02
  1.739559600E+01 -1.127053003E-01
  7.438309000E+00 -1.589119704E-01
  3.222862000E+00 -3.355083009E-02
  1.253877000E+00  3.531902810E-01
  4.951550000E-01  5.534199315E-01
  1.916650000E-01  2.301839106E-01
  6.708300000E-02  1.127267003E-02
   p   9
  2.000000000E+02  9.173000030E-04
  4.653336700E+01  7.377140024E-03
  1.462180900E+01  3.483515011E-02
  5.313064000E+00  1.144397004E-01
  2.102525000E+00  2.554966408E-01
  8.502230000E-01  3.722557412E-01
  3.375970000E-01  3.323314911E-01
  1.288920000E-01  1.400847905E-01
  4.511200000E-02  2.395784008E-02
 
[MO]
Sym=     1a  
Ene=   -22.1100
Spin= Alpha
Occup=    2.00000
   1         0.04185499
   2        -0.00063971
   3         0.00000000
   4         0.00000000
   5         0.00014703
   6         0.99912078
   7        -0.00202320
   8         0.00000000
   9         0.00000000
  10        -0.00045303
Sym=     2a  
Ene=   -22.1070
Spin= Alpha
Occup=    2.00000
   1        -0.99898725
   2         0.01509927
   3        -0.00000000
   4        -0.00000001
   5        -0.00164975
   6         0.04184947
   7        -0.00082432
   8         0.00000000
   9         0.00000000
  10         0.00156495
Sym=     3a  
Ene=    -2.2613
Spin= Alpha
Occup=    2.00000
   1         0.00452049
   2        -0.00147325
   3        -0.00000010
   4        -0.00000015
   5        -0.05843441
   6        -0.00123736
   7        -0.98574352
   8         0.00000007
   9         0.00000010
  10         0.07399301
Sym=     4a  
Ene=    -1.5713
Spin= Alpha
Occup=    2.00000
   1         0.00000000
   2        -0.00000000
   3         0.84442552
   4        -0.53283828
   5        -0.00000000
   6         0.00000000
   7         0.00000000
   8         0.01552964
   9        -0.00979687
  10         0.00000000
Sym=     5a  
Ene=    -1.5711
Spin= Alpha
Occup=    2.00000
   1         0.00000013
   2        -0.00000074
   3         0.00892611
   4         0.01414969
   5        -0.00000703
   6         0.00000010
   7         0.00000269
   8         0.53291742
   9         0.84455089
  10         0.00001123
Sym=     6a  
Ene=    -1.5401
Spin= Alpha
Occup=    2.00000
   1         0.00745659
   2        -0.07812533
   3        -0.00000133
   4        -0.00000211
   5        -0.65122979
   6         0.00925226
   7         0.20736989
   8        -0.00000739
   9        -0.00001171
  10         0.64681097
Sym=     7a  
Ene=    -2.2018
Spin= Alpha
Occup=    1.97364
   1        -0.01683580
   2        -1.00611691
   3         0.00000027
   4         0.00000042
   5         0.10368931
   6         0.00247065
   7         0.06164825
   8        -0.00000001
   9        -0.00000001
  10        -0.12129806
Sym=     8a  
Ene=    -0.0000
Spin= Alpha
Occup=    0.02636
   1         0.00000003
   2         0.00000026
   3        -0.53501637
   4        -0.84787723
   5         0.00000536
   6        -0.00000007
   7        -0.00000085
   8         0.04817927
   9         0.07635299
  10         0.00000230
Sym=     9a  
Ene=    -1.0423
Spin= Alpha
Occup=    0.00000
   1         0.01036943
   2         0.12043403
   3         0.00000259
   4         0.00000410
   5         0.78519783
   6        -0.01036486
   7        -0.12087963
   8        -0.00000168
   9        -0.00000266
  10         0.78501554
Sym=    10a  
Ene=    -0.9671
Spin= Alpha
Occup=    0.00000
   1         0.00000000
   2         0.00000000
   3        -0.07772745
   4         0.04904656
   5         0.00000000
   6        -0.00000000
   7        -0.00000000
   8         0.84785307
   9        -0.53500116
  10         0.00000000
