[Molden Format]
[N_Atoms]
                     2
[Atoms] (AU)
LI1         1      3           0.00000000      0.00000000      0.00000000
N2          2      7           0.00000000      0.00000000      4.53534270
[Charge] (Mulliken)
  0.303038754374747     
 -0.303038754374772     
[GTO] (AU)
   1
   s  14
  9.497934400E+03  9.668999974E-05
  1.416811200E+03  6.087099984E-04
  3.214599400E+02  3.101519992E-03
  9.112416300E+01  1.266904997E-02
  2.999989100E+01  4.248012989E-02
  1.101763100E+01  1.150183297E-01
  4.372801000E+00  2.398650094E-01
  1.831256000E+00  3.584300090E-01
  8.022610000E-01  3.048527792E-01
  3.626480000E-01  8.824261976E-02
  1.139950000E-01 -8.445899977E-04
  5.123700000E-02 -7.943959979E-03
  2.246800000E-02 -3.764419990E-03
  7.860000000E-03 -8.868999976E-05
   s  14
  9.497934400E+03 -1.244999993E-05
  1.416811200E+03 -7.838999954E-05
  3.214599400E+02 -4.007099976E-04
  9.112416300E+01 -1.645249990E-03
  2.999989100E+01 -5.634599967E-03
  1.101763100E+01 -1.590780991E-02
  4.372801000E+00 -3.612581979E-02
  1.831256000E+00 -6.459927962E-02
  8.022610000E-01 -1.008321794E-01
  3.626480000E-01 -9.757613942E-02
  1.139950000E-01  2.301215886E-01
  5.123700000E-02  6.102389764E-01
  2.246800000E-02  2.849406083E-01
  7.860000000E-03  4.026899976E-03
   p   9
  1.311950400E+01  1.524940000E-03
  3.077424200E+00  8.314830000E-03
  1.098800500E+00  1.933203000E-02
  4.357784000E-01  4.934293000E-02
  1.802432000E-01  1.623554000E-01
  7.613330000E-02  3.847505400E-01
  3.254650000E-02  4.336100400E-01
  1.401820000E-02  1.287005900E-01
  4.906400000E-03 -1.018520000E-03
 
   2
   s  14
  7.476171500E+04  1.182599996E-04
  1.112365400E+04  5.172899983E-04
  2.512685700E+03  2.266659992E-03
  7.037772900E+02  9.145289970E-03
  2.254787900E+02  3.239342989E-02
  7.961581000E+01  9.770792967E-02
  3.023728300E+01  2.317036792E-01
  1.226362200E+01  3.768898887E-01
  5.265086000E+00  3.177420689E-01
  2.333471000E+00  8.211308973E-02
  9.018560000E-01  3.312089989E-03
  3.583360000E-01  3.720819988E-03
  1.410930000E-01  3.165419989E-03
  4.938300000E-02  4.595799985E-04
   s  14
  7.476171500E+04 -2.707000010E-05
  1.112365400E+04 -1.183700004E-04
  2.512685700E+03 -5.203800020E-04
  7.037772900E+02 -2.102930008E-03
  2.254787900E+02 -7.568200028E-03
  7.961581000E+01 -2.346767009E-02
  3.023728300E+01 -6.042901023E-02
  1.226362200E+01 -1.170549104E-01
  5.265086000E+00 -1.555321506E-01
  2.333471000E+00 -2.468935009E-02
  9.018560000E-01  3.625054514E-01
  3.583360000E-01  5.550845021E-01
  1.410930000E-01  2.148376908E-01
  4.938300000E-02  8.983850034E-03
   p   9
  1.266665700E+02  1.233630000E-03
  2.983738900E+01  9.493409996E-03
  9.394038000E+00  4.293961998E-02
  3.405104000E+00  1.362925399E-01
  1.350000000E+00  2.921362499E-01
  5.576960000E-01  3.887887598E-01
  2.324490000E-01  2.946801399E-01
  9.426400000E-02  8.012875997E-02
  3.299200000E-02  5.405199998E-04
 
[MO]
Sym=     1a  
Ene=   -15.3560
Spin= Alpha
Occup=    1.00000
   1        -0.00013609
   2        -0.00104364
   3        -0.00000000
   4        -0.00000000
   5        -0.00128998
   6         1.00006730
   7        -0.00453983
   8         0.00000000
   9        -0.00000000
  10        -0.00106332
Sym=     1a  
Ene=   -15.3560
Spin= Beta
Occup=    1.00000
   1        -0.00013609
   2        -0.00104364
   3        -0.00000000
   4        -0.00000000
   5        -0.00128998
   6         1.00006730
   7        -0.00453983
   8         0.00000000
   9        -0.00000000
  10        -0.00106332
Sym=     2a  
Ene=    -2.4974
Spin= Alpha
Occup=    1.00000
   1         0.99987461
   2         0.01251655
   3         0.00000000
   4         0.00000000
   5        -0.00207686
   6         0.00005091
   7         0.00163470
   8        -0.00000000
   9         0.00000000
  10        -0.00091671
Sym=     2a  
Ene=    -2.4974
Spin= Beta
Occup=    1.00000
   1         0.99987461
   2         0.01251655
   3         0.00000000
   4         0.00000000
   5        -0.00207686
   6         0.00005091
   7         0.00163470
   8        -0.00000000
   9         0.00000000
  10        -0.00091671
Sym=     3a  
Ene=    -0.7976
Spin= Alpha
Occup=    1.00000
   1        -0.01306573
   2         0.04567812
   3         0.00000000
   4        -0.00000000
   5         0.04427934
   6         0.00223284
   7         0.97065614
   8         0.00000000
   9        -0.00000000
  10        -0.01434425
Sym=     3a  
Ene=    -0.7976
Spin= Beta
Occup=    1.00000
   1        -0.01306573
   2         0.04567812
   3         0.00000000
   4        -0.00000000
   5         0.04427934
   6         0.00223284
   7         0.97065614
   8         0.00000000
   9        -0.00000000
  10        -0.01434425
Sym=     4a  
Ene=    -0.2687
Spin= Alpha
Occup=    1.00000
   1        -0.00000000
   2         0.00000000
   3         0.19132654
   4         0.01078430
   5         0.00000000
   6        -0.00000000
   7        -0.00000000
   8         0.95465352
   9         0.05380993
  10        -0.00000000
Sym=     4a  
Ene=    -0.2687
Spin= Beta
Occup=    1.00000
   1        -0.00000000
   2         0.00000000
   3         0.19132654
   4         0.01078430
   5         0.00000000
   6        -0.00000000
   7        -0.00000000
   8         0.95465352
   9         0.05380993
  10        -0.00000000
Sym=     5a  
Ene=    -0.2369
Spin= Alpha
Occup=    1.00000
   1        -0.02611438
   2         0.44051714
   3         0.00000000
   4         0.00000000
   5         0.18050924
   6        -0.01946745
   7        -0.21938252
   8        -0.00000000
   9         0.00000000
  10        -0.81602830
Sym=     5a  
Ene=    -0.2369
Spin= Beta
Occup=    1.00000
   1        -0.02611438
   2         0.44051714
   3         0.00000000
   4         0.00000000
   5         0.18050924
   6        -0.01946745
   7        -0.21938252
   8        -0.00000000
   9         0.00000000
  10        -0.81602830
Sym=     6a  
Ene=     0.0052
Spin= Alpha
Occup=    0.00000
   1        -0.00288681
   2         0.75959534
   3         0.00000000
   4        -0.00000000
   5        -0.59983646
   6         0.00679832
   7         0.03475182
   8         0.00000000
   9        -0.00000000
  10         0.28900384
Sym=     6a  
Ene=     0.0052
Spin= Beta
Occup=    0.00000
   1        -0.00288681
   2         0.75959534
   3         0.00000000
   4        -0.00000000
   5        -0.59983646
   6         0.00679832
   7         0.03475182
   8         0.00000000
   9        -0.00000000
  10         0.28900384
Sym=     7a  
Ene=     0.0510
Spin= Alpha
Occup=    0.00000
   1         0.00000000
   2         0.00000000
   3        -0.05462820
   4         0.96917067
   5        -0.00000000
   6         0.00000000
   7         0.00000000
   8        -0.00806192
   9         0.14302817
  10         0.00000000
Sym=     7a  
Ene=     0.0510
Spin= Beta
Occup=    0.00000
   1         0.00000000
   2         0.00000000
   3        -0.05462820
   4         0.96917067
   5        -0.00000000
   6         0.00000000
   7         0.00000000
   8        -0.00806192
   9         0.14302817
  10         0.00000000
Sym=     8a  
Ene=     0.0761
Spin= Alpha
Occup=    0.00000
   1         0.00000000
   2        -0.00000000
   3         0.98913493
   4         0.05575351
   5        -0.00000000
   6         0.00000000
   7         0.00000000
   8        -0.32191677
   9        -0.01814514
  10         0.00000000
Sym=     8a  
Ene=     0.0761
Spin= Beta
Occup=    0.00000
   1         0.00000000
   2        -0.00000000
   3         0.98913493
   4         0.05575351
   5        -0.00000000
   6         0.00000000
   7         0.00000000
   8        -0.32191677
   9        -0.01814514
  10         0.00000000
Sym=     9a  
Ene=     0.1977
Spin= Alpha
Occup=    0.00000
   1         0.01569015
   2         0.57366311
   3         0.00000000
   4        -0.00000000
   5         0.89682050
   6        -0.05211447
   7        -0.51206251
   8         0.00000000
   9        -0.00000000
  10         0.54333841
Sym=     9a  
Ene=     0.1977
Spin= Beta
Occup=    0.00000
   1         0.01569015
   2         0.57366311
   3         0.00000000
   4        -0.00000000
   5         0.89682050
   6        -0.05211447
   7        -0.51206251
   8         0.00000000
   9        -0.00000000
  10         0.54333841
Sym=    10a  
Ene=     0.2742
Spin= Alpha
Occup=    0.00000
   1         0.00000000
   2         0.00000000
   3         0.01550851
   4        -0.27513988
   5         0.00000000
   6        -0.00000000
   7        -0.00000000
   8        -0.05621174
   9         0.99726460
  10         0.00000000
Sym=    10a  
Ene=     0.2742
Spin= Beta
Occup=    0.00000
   1         0.00000000
   2         0.00000000
   3         0.01550851
   4        -0.27513988
   5         0.00000000
   6        -0.00000000
   7        -0.00000000
   8        -0.05621174
   9         0.99726460
  10         0.00000000
