   This run of MOLCAS is using the pymolcas driver

                             OPE
                             OPE          NMOL  CASOP  ENMOLC A   SO
                 OPE        NMOLC        AS  OP EN  MO LC     AS  OP
                OPENM       OL CA        SO  PE NM  OL CA     SOP EN
                OP EN      MO   LC       AS  OP ENMOL  CASO   PENMOL
                OP  EN     MO   LC       AS  OP EN     MO     LC ASO
               OP   E  NMOL  C  AS       OP  EN MO     LC     AS  OP
               OP  E   NMO   LC AS        OPEN  MO     LCASOP EN   M
               O  PEN   MO  LCA  SO
            OPE   NMO   L   CAS    OP
        OPENMOL  CASOP     ENMOL   CASOPE
     OPENMOLCA   SOPENMOLCASOPEN   MOLCASOPE
    OPENMOLCAS   OP           EN   MOL    CAS
    OPENMOLCAS       OP  ENM        O     LCA
    OPENMOLCAS    OPEN  MOLCASO     P  E  NMO
    OPENMOLCAS     OP               E  N  MOL
    OPENMOLCA   SO           PENM   O  L  CAS    OPEN    MO    LCAS
    OPENMOLCA   SOP           ENM   O  L  CAS   OP  EN  MOLC  AS   O
    OPENMOLCA   SOPE           NM      O  LCA   S      OP  EN MO
    OPENMOLC                AS         O  PEN   M      OL  CA  SOPE
    OPENMO        LCASOPE  NMOL        C  ASO   P      ENMOLC     AS
    OPE     NMO      LCA  SO     P     E   NM   OL  CA SO  PE N   MO
          OPENMOLCA            SOPE   NMO        LCAS  O    P  ENMO
     OPENMOLCASOPENMOLCASOPENMOLCASOPENMOLCA
        OPENMOLCASOPENMOLCASOPENMOLCASOPE
            OPENMOLCASOPENMOLCASOPENM
               OPENMOLCASOPENMOLCA        version: 24.02
                   OPENMOLCASO
                       OPE                tag: 126-g611b04c8f

 OpenMolcas is free software; you can redistribute it and/or modify it
 under the terms of the GNU Lesser General Public License version 2.1.
 OpenMolcas is distributed in the hope that it will be useful, but it
 is provided "as is" and without any express or implied warranties.
 For more details see the full text of the license in the file
 LICENSE or in <http://www.gnu.org/licenses/>.

                 Copyright (C) The OpenMolcas Authors
           For the author list and the recommended citation,
                   consult the file CONTRIBUTORS.md

           *************************************************
           * pymolcas version py2.28                       *
           *   build c4a6d18ded8cb6cad61d2372a9abd97c      *
           *   (after the EMIL interpreter by V. Veryazov) *
           *************************************************

configuration info
------------------
Host name: debian (Linux)
C Compiler ID: GNU
C flags: -std=gnu99
Fortran Compiler ID: Intel
Fortran flags: -fpp -i8 -heap-arrays
Definitions: _MOLCAS_;_I8_;_LINUX_
Parallel: OFF (GA=OFF)


   ------------------------------------------------------------------
  |
  |              Project: 2.40
  |       Submitted from: /home/grierjones/DDCASPT2/delta_ML/LiN/2.40
  |         Scratch area: /tmp/2.40
  |      Save outputs to: /home/grierjones/DDCASPT2/delta_ML/LiN/2.40
  |               Molcas: /usr/local
  |
  | Scratch area is empty
  |
  |       MOLCAS_DRIVER = /usr/local/pymolcas
  | MOLCAS_KEEP_WORKDIR = NO
  |  MOLCAS_NEW_WORKDIR = YES
  |       MOLCAS_NPROCS = 1
  |       MOLCAS_SOURCE = /usr/local
  |    MOLCAS_STRUCTURE = 0
  |
   ------------------------------------------------------------------

++ ---------   Input file   ---------

&GATEWAY
coord=2.40.xyz
Basis = ANO-RCC-MB
Group = nosymm
End of Input

&SEWARD
End of Input

&SCF
UHF

&MBPT2
Frozen
0

&RASSCF
Title= RASSCF
FileOrb
/home/grierjones/DDCASPT2/delta_ML/LiN/2.30/2.30.RasOrb

NACTEL
2 0 0
Inactive
4
RAS2
2
Symmetry
1
Spin
1
orblisting
all
ITERation
200 100
CIMX
200
SDAV
500

&CASPT2
Imaginary Shift
0.0
Frozen
0

-- ----------------------------------

--- Start Module: gateway at Thu Apr 25 14:03:27 2024 ---
 
()()()()()()()()()()()()()()()()()()()()()()()()()()()()()()()()()()()()()()()()()()()()()()()()()()

                                              &GATEWAY

                                   only a single process is used
                       available to each process: 2.0 GB of memory, 1 thread?
                                            pid: 114741
()()()()()()()()()()()()()()()()()()()()()()()()()()()()()()()()()()()()()()()()()()()()()()()()()()
 
 
++    Symmetry information:
      ---------------------
 
                    Character Table for C1 
 
                             E  
                    a        1  x, y, xy, Rz, z, xz, Ry, yz, Rx, I
--
 
 
++    Basis set information:
      ----------------------
 
 
      Basis set label: LI.ANO-RCC...2S1P.
 
      Electronic valence basis set:
      ------------------
      Associated Effective Charge   3.000000 au
      Associated Actual Charge      3.000000 au
      Nuclear Model: Point charge
 
      Shell  nPrim  nBasis  Cartesian Spherical Contaminant
         s      14       2        X                  
         p       9       1        X                  
 
 
      Basis set label: N.ANO-RCC...2S1P.
 
      Electronic valence basis set:
      ------------------
      Associated Effective Charge   7.000000 au
      Associated Actual Charge      7.000000 au
      Nuclear Model: Point charge
 
      Shell  nPrim  nBasis  Cartesian Spherical Contaminant
         s      14       2        X                  
         p       9       1        X                  
--
 
 
++    Molecular structure info:
      -------------------------
 
                    ************************************************ 
                    **** Cartesian Coordinates / Bohr, Angstrom **** 
                    ************************************************ 
 
     Center  Label                x              y              z                     x              y              z
        1      LI1              0.000000       0.000000       0.000000              0.000000       0.000000       0.000000
        2      N2               0.000000       0.000000       4.535343              0.000000       0.000000       2.400000
--
 
 
            Nuclear Potential Energy              4.63030060 au
 
--- Stop Module: gateway at Thu Apr 25 14:03:27 2024 /rc=_RC_ALL_IS_WELL_ ---
*** files: xmldump
    saved to directory /home/grierjones/DDCASPT2/delta_ML/LiN/2.40

--- Start Module: seward at Thu Apr 25 14:03:27 2024 ---
 
()()()()()()()()()()()()()()()()()()()()()()()()()()()()()()()()()()()()()()()()()()()()()()()()()()

                                              &SEWARD

                                   only a single process is used
                       available to each process: 2.0 GB of memory, 1 thread?
                                            pid: 114744
()()()()()()()()()()()()()()()()()()()()()()()()()()()()()()()()()()()()()()()()()()()()()()()()()()
 
               SEWARD will generate:
                  Multipole Moment integrals up to order  2
                  Kinetic Energy integrals
                  Nuclear Attraction integrals (point charge)
                  One-Electron Hamiltonian integrals
                  Velocity integrals
                  Relativistic Douglas-Kroll-Hess integrals:
                    - Parametrization         : EXP
                    - DKH order of Hamiltonian: 2
                    - DKH order of Properties : 0
                         - multipole moment operators
                         - electric potential operators
                         - contact operators
                  Orbital angular momentum around ( 0.0000  0.0000  3.0215 )
                  Velocity quadrupole around ( 0.0000  0.0000  3.0215 )
                  Atomic mean-field integrals
                  Two-Electron Repulsion integrals
 
                   Integrals are discarded if absolute value <: 1.00E-14
                   Integral cutoff threshold is set to       <: 1.00E-16
 
            Nuclear Potential Energy              4.63030060 au
 
 
      Basis set specifications :
      Symmetry species         a  
      Basis functions           10
 
 
      Input file to MOLDEN was generated!
 
--- Stop Module: seward at Thu Apr 25 14:03:28 2024 /rc=_RC_ALL_IS_WELL_ ---
*** files: 2.40.GssOrb 2.40.guessorb.h5 2.40.guessorb.molden xmldump
    saved to directory /home/grierjones/DDCASPT2/delta_ML/LiN/2.40

*** symbolic link created: INPORB -> 2.40.GssOrb
--- Start Module: scf at Thu Apr 25 14:03:28 2024 ---
 
()()()()()()()()()()()()()()()()()()()()()()()()()()()()()()()()()()()()()()()()()()()()()()()()()()

                                                &SCF

                                   only a single process is used
                       available to each process: 2.0 GB of memory, 1 thread?
                                            pid: 114749
()()()()()()()()()()()()()()()()()()()()()()()()()()()()()()()()()()()()()()()()()()()()()()()()()()
 
++    Input section:
      --------------
 
      Header of the integral files:
      
       Integrals generated by Gateway/Seward, Thu Apr 25 14:03:28 2024
 
 
      Cartesian coordinates in Angstrom:
      -----------------------------------------------------
      No.  Label        X            Y            Z        
      -----------------------------------------------------
       1   LI1        0.00000000   0.00000000   0.00000000
       2   N2         0.00000000   0.00000000   2.40000000
      -----------------------------------------------------
      Nuclear repulsion energy =    4.63030060
--
 
++    Orbital specifications:
      -----------------------
 
      Symmetry species               1
                                     a
      Frozen orbitals                0
      Occupied orbitals alpha        5
      Occupied orbitals beta         5
      Secondary orbitals alpha       5
      Secondary orbitals beta        5
      Deleted orbitals               0
      Total number of orbitals      10
      Number of basis functions     10
--
 
      Molecular charge                           0.000
 
++    Optimization specifications:
      ----------------------------
 
      SCF Algorithm: Conventional USCF
      D(i)-D(i-1) density differences are used
      Number of density matrices in core                 5
      Maximum number of NDDO SCF iterations            400
      Maximum number of HF SCF iterations              400
      Threshold for SCF energy change             1.00E-09
      Threshold for density matrix                1.00E-04
      Threshold for Fock matrix                   1.50E-04
      Threshold for linear dependence             1.00E-09
      Threshold at which DIIS is turned on        1.50E-01
      Maximum depth in the DIIS procedure                5
      Maximum depth in the BFGS Hessian update          30
      Threshold at which QNR/C2DIIS is turned on  7.50E-02
      Threshold for Norm(delta) (QNR/C2DIIS)      1.00E-03
      All orbitals punched on: UHFORB
--
 
      Input vectors read from INPORB
      Orbital file label: *Guess orbitals
 
 
++ Convergence information
                               UHF SCF        iterations: Energy and convergence statistics
 
Iter     Tot. SCF        One-elec.       Two-elec.     Energy      Max Dij or  Max Fij      DNorm      TNorm      AccCon     Time
         Energy          Energy          Energy        Change      Delta Norm                                                in Sec.
   1   -61.545124728   -96.318771186    30.143345863   0.00E+00    8.14E-01*   6.56E-02*    4.44E+00   1.64E+01   None         0.
   2   -61.469684096   -91.179753372    25.079768681   7.54E-02*   2.35E-01*   6.50E-02*    2.70E+00   1.48E+01   EDIIS        0.
   3   -61.662997002   -94.617289014    28.323991416  -1.93E-01*   1.34E-01*   2.81E-02*    8.11E-01   1.58E+01   EDIIS        0.
   4   -61.667063893   -94.160169223    27.862804735  -4.07E-03*   5.63E-02*   1.08E-02*    3.32E-01   1.57E+01   c2DIIS       0.
   5   -61.668397471   -94.395037650    28.096339584  -1.33E-03*   6.26E-02*   8.91E-03*    1.65E-01   1.58E+01   QNRc2DIIS    0.
   6   -61.668859023   -94.278193385    27.979033767  -4.62E-04*   6.14E-02*   4.54E-03*    9.46E-02   1.57E+01   QNRc2DIIS    0.
   7   -61.669149425   -94.283591065    27.984141045  -2.90E-04*   5.36E-02*   2.77E-03*    9.22E-02   1.57E+01   QNRc2DIIS    0.
   8   -61.669257738   -94.293045966    27.993487633  -1.08E-04*   3.56E-02*   8.96E-04*    7.46E-02   1.57E+01   QNRc2DIIS    0.
   9   -61.669288722   -94.288814122    27.989224804  -3.10E-05*   4.55E-03*   1.42E-04     4.62E-02   1.57E+01   QNRc2DIIS    0.
  10   -61.669288976   -94.284824145    27.985234574  -2.54E-07*   2.06E-03*   6.24E-05     5.68E-03   1.57E+01   QNRc2DIIS    0.
  11   -61.669289028   -94.286445785    27.986856161  -5.19E-08*   5.25E-04    1.78E-05     2.56E-03   1.57E+01   QNRc2DIIS    0.
 DIIS_X: Reduction of the subspace dimension due to numerical imbalance of the v
 alues in the B-Matrix
 kOptim=                     5 -> kOptim=                     4
  12   -61.669289034   -94.286074727    27.986485098  -5.87E-09*   2.99E-06    3.34E-07     6.59E-04   1.57E+01   QNRc2DIIS    0.
  13   -61.669289034   -94.286077744    27.986488114  -6.82E-13    9.02E-07    7.18E-08     3.77E-06   1.57E+01   QNRc2DIIS    0.
 
       Convergence after  13 Macro Iterations
--
 
 *****************************************************************************************************************************
 *                                                                                                                           *
 *                                             SCF/KS-DFT Program, Final results                                             *
 *                                                                                                                           *
 *                                                                                                                           *
 *                                                                                                                           *
 *                                                       Final Results                                                       *
 *                                                                                                                           *
 *****************************************************************************************************************************
 
::    Total SCF energy                                -61.6692890340
      One-electron energy                             -94.2860777435
      Two-electron energy                              27.9864881141
      Nuclear repulsion energy                          4.6303005954
      Kinetic energy (interpolated)                    62.7168314139
      Virial theorem                                    0.9832972688
      Total spin, S(S+1)                               -0.0000000000
      Total spin, S                                    -0.0000000000
      Max non-diagonal density matrix element           0.0000004677
      Max non-diagonal Fock matrix element              0.0000000614
 
 
      All orbitals with orbital energies smaller than  E(LUMO)+0.5 are printed
 
++    Molecular orbitals:
      -------------------
 
      Title: UHF orbitals (alpha)

      Molecular orbitals for symmetry species 1: a  
 
          Orbital            1         2         3         4         5         6         7         8         9        10    
          Energy          -15.3559   -2.4974   -0.7976   -0.2687   -0.2369    0.0052    0.0510    0.0761    0.1977    0.2742
          Occ. No.          1.0000    1.0000    1.0000    1.0000    1.0000    0.0000    0.0000    0.0000    0.0000    0.0000
 
        1 LI1    1s        -0.0001    0.9999   -0.0131   -0.0000   -0.0261   -0.0029    0.0000    0.0000    0.0157    0.0000
        2 LI1    2s        -0.0010    0.0125    0.0457    0.0000    0.4405    0.7596    0.0000   -0.0000    0.5737    0.0000
        3 LI1    2px       -0.0000    0.0000    0.0000    0.1913    0.0000    0.0000   -0.0546    0.9891    0.0000    0.0155
        4 LI1    2py       -0.0000    0.0000   -0.0000    0.0108    0.0000   -0.0000    0.9692    0.0558   -0.0000   -0.2751
        5 LI1    2pz       -0.0013   -0.0021    0.0443    0.0000    0.1805   -0.5998   -0.0000   -0.0000    0.8968    0.0000
        6 N2     1s         1.0001    0.0001    0.0022   -0.0000   -0.0195    0.0068    0.0000    0.0000   -0.0521   -0.0000
        7 N2     2s        -0.0045    0.0016    0.9707   -0.0000   -0.2194    0.0348    0.0000    0.0000   -0.5121   -0.0000
        8 N2     2px        0.0000   -0.0000    0.0000    0.9547   -0.0000    0.0000   -0.0081   -0.3219    0.0000   -0.0562
        9 N2     2py       -0.0000    0.0000   -0.0000    0.0538    0.0000   -0.0000    0.1430   -0.0181   -0.0000    0.9973
       10 N2     2pz       -0.0011   -0.0009   -0.0143   -0.0000   -0.8160    0.2890    0.0000    0.0000    0.5433    0.0000
--
 
 
      Input file to MOLDEN was generated!
 
 
++    Static properties:
      ------------------
 
 
      LoProp Charges per center
 

                   LI1      N2    
      Nuclear      3.0000   7.0000
      Electronic  -2.5995  -7.4005
 
      Total        0.4005  -0.4005
--
 
 
      All orbitals with orbital energies smaller than  E(LUMO)+0.5 are printed
 
++    Molecular orbitals:
      -------------------
 
      Title: UHF orbitals (beta)

      Molecular orbitals for symmetry species 1: a  
 
          Orbital            1         2         3         4         5         6         7         8         9        10    
          Energy          -15.3559   -2.4974   -0.7976   -0.2687   -0.2369    0.0052    0.0510    0.0761    0.1977    0.2742
          Occ. No.          1.0000    1.0000    1.0000    1.0000    1.0000    0.0000    0.0000    0.0000    0.0000    0.0000
 
        1 LI1    1s        -0.0001    0.9999   -0.0131   -0.0000   -0.0261   -0.0029    0.0000    0.0000    0.0157    0.0000
        2 LI1    2s        -0.0010    0.0125    0.0457    0.0000    0.4405    0.7596    0.0000   -0.0000    0.5737    0.0000
        3 LI1    2px       -0.0000    0.0000    0.0000    0.1913    0.0000    0.0000   -0.0546    0.9891    0.0000    0.0155
        4 LI1    2py       -0.0000    0.0000   -0.0000    0.0108    0.0000   -0.0000    0.9692    0.0558   -0.0000   -0.2751
        5 LI1    2pz       -0.0013   -0.0021    0.0443    0.0000    0.1805   -0.5998   -0.0000   -0.0000    0.8968    0.0000
        6 N2     1s         1.0001    0.0001    0.0022   -0.0000   -0.0195    0.0068    0.0000    0.0000   -0.0521   -0.0000
        7 N2     2s        -0.0045    0.0016    0.9707   -0.0000   -0.2194    0.0348    0.0000    0.0000   -0.5121   -0.0000
        8 N2     2px        0.0000   -0.0000    0.0000    0.9547   -0.0000    0.0000   -0.0081   -0.3219    0.0000   -0.0562
        9 N2     2py       -0.0000    0.0000   -0.0000    0.0538    0.0000   -0.0000    0.1430   -0.0181   -0.0000    0.9973
       10 N2     2pz       -0.0011   -0.0009   -0.0143   -0.0000   -0.8160    0.2890    0.0000    0.0000    0.5433    0.0000
--
 
 
++    Molecular charges:
      ------------------
 
      Mulliken charges per centre and basis function type
      ---------------------------------------------------
 
                            LI1                     N2    
                     alpha        beta       alpha        beta
      1s           1.0000      1.0000      1.0001      1.0001
      2s           0.2336      0.2336      0.9788      0.9788
      2px          0.0610      0.0610      0.9358      0.9358
      2pz          0.0536      0.0536      0.7338      0.7338
      2py          0.0002      0.0002      0.0030      0.0030
      Total        1.3485      1.3485      3.6515      3.6515
      Total              2.6970                  7.3030
 
      Charge            0.3030                 -0.3030
 
      Total electronic charge=   10.000000
 
      Total            charge=   -0.000000
--
 
 
      Input file to MOLDEN was generated!
 
 
++    Static properties:
      ------------------
 
 
      LoProp Charges per center
 

                   LI1      N2    
      Nuclear      3.0000   7.0000
      Electronic  -2.5995  -7.4005
 
      Total        0.4005  -0.4005
--
 
 
++    Natural Bond Order analysis
      ---------------------------
      Based on LoProp computed density
      -------------------------------------------------------------------------------------
      Atom A       Atom B       Bond Order
      -------------------------------------------------------------------------------------
      NBO located      0.999 non-bonded electrons on atom LI1       
      The remaining    4.161 electrons are to be considered as diffuse
--
 
 
++    Molecular orbitals:
      -------------------
 
      Title: Natural orbitals

      Molecular orbitals for symmetry species 1: a  
 
          Orbital            1         2         3         4         5         6         7         8         9        10    
          Energy          -15.3559   -2.4974   -0.7976   -0.2687   -0.2369    0.0052    0.0510    0.0761    0.1977    0.2742
          Occ. No.          2.0000    2.0000    2.0000    2.0000    2.0000    0.0000    0.0000    0.0000    0.0000    0.0000
 
        1 LI1    1s        -0.0001    0.9999   -0.0131   -0.0000    0.0261   -0.0029    0.0000    0.0000   -0.0157    0.0000
        2 LI1    2s        -0.0010    0.0125    0.0457    0.0000   -0.4404    0.7597    0.0000   -0.0000   -0.5737    0.0000
        3 LI1    2px       -0.0000    0.0000    0.0000    0.1914   -0.0000    0.0000   -0.0546    0.9891   -0.0000    0.0155
        4 LI1    2py       -0.0000    0.0000   -0.0000    0.0108   -0.0000   -0.0000    0.9692    0.0558    0.0000   -0.2751
        5 LI1    2pz       -0.0013   -0.0021    0.0443    0.0000   -0.1806   -0.5998   -0.0000   -0.0000   -0.8968    0.0000
        6 N2     1s         1.0001    0.0001    0.0022   -0.0000    0.0195    0.0068    0.0000    0.0000    0.0521   -0.0000
        7 N2     2s        -0.0045    0.0016    0.9707   -0.0000    0.2194    0.0347    0.0000    0.0000    0.5121   -0.0000
        8 N2     2px        0.0000   -0.0000    0.0000    0.9546    0.0000    0.0000   -0.0081   -0.3220   -0.0000   -0.0562
        9 N2     2py       -0.0000    0.0000   -0.0000    0.0538   -0.0000   -0.0000    0.1430   -0.0182    0.0000    0.9973
       10 N2     2pz       -0.0011   -0.0009   -0.0143   -0.0000    0.8161    0.2889    0.0000    0.0000   -0.5433    0.0000
--
 
 
++    Molecular properties:
      ---------------------
 
      Charge (e):
                      =   -0.0000
      Dipole Moment (Debye):
      Origin of the operator (Ang)=    0.0000    0.0000    0.0000
                   X= -1.7410E-13               Y= -1.1142E-13               Z= -6.0838E+00           Total=  6.0838E+00
      Quadrupole Moment (Debye*Ang):
      Origin of the operator (Ang)=    0.0000    0.0000    1.5989
                  XX= -1.3051E+01              XY= -2.1535E-01              XZ=  1.9333E-13              YY= -9.2429E+00
                  YZ=  1.6389E-13              ZZ= -8.5091E-01
      In traceless form (Debye*Ang)
                  XX= -8.0044E+00              XY= -3.2302E-01              XZ=  2.8999E-13              YY= -2.2918E+00
                  YZ=  2.4584E-13              ZZ=  1.0296E+01
--
 
 
      Input file to MOLDEN was generated!
 
 ###############################################################################
 ###############################################################################
 ###                                                                         ###
 ###                                                                         ###
 ###    WARNING: RunFile label nBas                                          ###
 ###    was used       87 times                                              ###
 ###                                                                         ###
 ###                                                                         ###
 ###############################################################################
 ###############################################################################
--- Stop Module: scf at Thu Apr 25 14:03:29 2024 /rc=_RC_ALL_IS_WELL_ ---
*** files: 2.40.LprOrb 2.40.LoProp.molden 2.40.scf.molden 2.40.scf.h5 2.40.UhfOrb 2.40.UnaOrb xmldump
    saved to directory /home/grierjones/DDCASPT2/delta_ML/LiN/2.40

*** symbolic link created: INPORB -> 2.40.UnaOrb
--- Start Module: mbpt2 at Thu Apr 25 14:03:29 2024 ---
 
()()()()()()()()()()()()()()()()()()()()()()()()()()()()()()()()()()()()()()()()()()()()()()()()()()

                                               &MBPT2

                                   only a single process is used
                       available to each process: 2.0 GB of memory, 1 thread?
                                            pid: 114754
()()()()()()()()()()()()()()()()()()()()()()()()()()()()()()()()()()()()()()()()()()()()()()()()()()
 
 
 ###############################################################################
 ###############################################################################
 ###                                                                         ###
 ###                                                                         ###
 ###    WARNING: MP2 implementation intended for RHF references only         ###
 ###                                                                         ###
 ###                                                                         ###
 ###############################################################################
 ###############################################################################
MBPT2 WARNING: Reference function according to RunFile:UHF-SCF 
I'll assume you know what you're doing and continue
 
 
WARNING!
Default frozen orbitals as non valence orbitals is overwritten by user input.
Default values:   2
 
 
      Cartesian coordinates in Angstrom:
      -----------------------------------------------------
      No.  Label        X            Y            Z        
      -----------------------------------------------------
       1   LI1        0.00000000   0.00000000   0.00000000
       2   N2         0.00000000   0.00000000   2.40000000
      -----------------------------------------------------
      Nuclear repulsion energy =    4.63030060
 
      Contents of RUNFILE file:
      -------------------------
 
      Symmetry species                           1
                                                 a
      Number of basis functions                 10
      Frozen occupied orbitals                   0
      Active occupied orbitals                   5
      Active external orbitals                   5
      Deleted external orbitals                  0
 
 
      Energies of the active occupied orbitals
 
      symmetry species 1                   -15.355918     -2.497411     -0.797565     -0.268741     -0.236917
 
 
      Energies of the active external orbitals
 
      symmetry species 1                     0.005202      0.050962      0.076107      0.197665      0.274183
 
 
      ********************************************************************************************************
      *                                               Results                                                *
      ********************************************************************************************************
 
 Conventional algorithm used...

       SCF energy                           =      -61.6692890340 a.u.
       Second-order correlation energy      =       -0.0493208755 a.u.

       Total energy                         =      -61.7186099094 a.u.
       Reference weight ( Cref**2 )         =        0.94546
 
::    Total MBPT2 energy                              -61.7186099094
 
 
       Zeroth-order energy (E0)             =      -33.6828009198 a.u.
 
       Shanks-type energy S1(E)             =      -61.7186969816 a.u.
 
 


       Data processing and timing information:

       Section                                              time(sec)
                                                          CPU  Elapsed

      Input data processing                              0.02      0.03
      Transformation of integrals                        0.00      0.01
      MBPT2 calculations (BJAI)                          0.00      0.00
      Total MBPT2 calculations                           0.02      0.04
 
 
--- Stop Module: mbpt2 at Thu Apr 25 14:03:29 2024 /rc=_RC_ALL_IS_WELL_ ---
*** files: xmldump
    saved to directory /home/grierjones/DDCASPT2/delta_ML/LiN/2.40

*** symbolic link created: INPORB -> 2.40.UnaOrb
--- Start Module: rasscf at Thu Apr 25 14:03:29 2024 ---
 
()()()()()()()()()()()()()()()()()()()()()()()()()()()()()()()()()()()()()()()()()()()()()()()()()()

                                              &RASSCF

                                   only a single process is used
                       available to each process: 2.0 GB of memory, 1 thread?
                                            pid: 114757
()()()()()()()()()()()()()()()()()()()()()()()()()()()()()()()()()()()()()()()()()()()()()()()()()()
 
 
      Header of the ONEINT file:
      --------------------------
      
      Integrals generated by Gateway/Seward, Thu Apr 25 14:03:28 2024
 
 
      OrdInt status: non-squared
 
 
      Cartesian coordinates in Angstrom:
      -----------------------------------------------------
      No.  Label        X            Y            Z        
      -----------------------------------------------------
       1   LI1        0.00000000   0.00000000   0.00000000
       2   N2         0.00000000   0.00000000   2.40000000
      -----------------------------------------------------
      Nuclear repulsion energy =    4.63030060
 
++    Wave function specifications:
      -----------------------------
 
      Number of closed shell electrons           8
      Number of electrons in active shells       2
      Max number of holes in RAS1 space          0
      Max nr of electrons in RAS3 space          0
      Number of inactive orbitals                4
      Number of active orbitals                  2
      Number of secondary orbitals               4
      Spin quantum number                      0.0
      State symmetry                             1
--
 
++    Orbital specifications:
      -----------------------
 
      Symmetry species                           1
                                                 a
      Frozen orbitals                            0
      Inactive orbitals                          4
      Active orbitals                            2
      RAS1 orbitals                              0
      RAS2 orbitals                              2
      RAS3 orbitals                              0
      Secondary orbitals                         4
      Deleted orbitals                           0
      Number of basis functions                 10
--
 
++    CI expansion specifications:
      ----------------------------
 
      Number of CSFs                             3
      Number of determinants                     3
      Number of root(s) required                 1
      Root chosen for geometry opt.              1
      CI root used                               1
         
      highest root included in the CI            1
      max. size of the explicit Hamiltonian      3
--
 
++    Optimization specifications:
      ----------------------------
 
      RASSCF algorithm: Conventional
      Maximum number of macro iterations       200
      Maximum number of SX iterations          100
      Threshold for RASSCF energy            1.000E-08
      Threshold for max MO rotation          1.000E-01
      Threshold for max BLB element          1.000E-04
      Level shift parameter                  5.000E-01
      Make Quasi-Newton update
--
 
      The MO-coefficients are taken from the file:
      /home/grierjones/DDCASPT2/delta_ML/LiN/2.30/2.30.RasOrb                                                                                                                                                                                                         
      Title: RASSCF average (pseudo-natural) orbitals                                      
 
      Total molecular charge    0.00
 
      ************************************************************************************************************************
      *                                                                                                                      *
      *                                            Wave function control section                                             *
      *                                                                                                                      *
      ************************************************************************************************************************
 
 
                                         RASSCF iterations: Energy and convergence statistics
                                         ----------------------------------------------------
 
      Iter CI   SX   CI       RASSCF       Energy    max ROT     max BLB   max BLB  Level Ln srch  Step   QN   Walltime
          iter iter root      energy       change     param      element    value   shift minimum  type update hh:mm:ss
 Nr of preliminary CI iterations:   1
        1   1    4    1   -61.63576156    0.00E+00  -2.09E-03    4   9 1  2.44E-03*  0.29   0.00    SX    NO    0:00:00
        2   1    4    1   -61.63577475   -1.32E-05*  5.47E-04    5  10 1 -1.25E-03*  0.29   0.00    SX    NO    0:00:00
        3   1    4    1   -61.63577633   -1.58E-06*  2.71E-04    5  10 1 -6.30E-04*  0.29   0.00    SX    NO    0:00:00
        4   1    4    1   -61.63577672   -3.90E-07*  1.40E-04    5  10 1 -3.15E-04*  0.29   0.00    SX    NO    0:00:00
        5   1    4    1   -61.63577681   -9.74E-08*  1.29E-04    5  10 1 -1.57E-04*  0.29   1.92    LS   YES    0:00:00
        6   1    3    1   -61.63577685   -3.25E-08*  6.17E-05    5  10 1 -1.18E-05   0.29   1.08    QN   YES    0:00:00
        7   1    3    1   -61.63577685   -5.79E-10   5.01E-05    6  10 1 -1.91E-06   0.29   1.41    QN   YES    0:00:00
      Convergence after  7 iterations
        8   1    3    1   -61.63577685   -1.40E-10   5.01E-05    5  10 1  2.01E-06   0.29   1.41    QN   YES    0:00:00
 
      ************************************************************************************************************************
                                                      Wave function printout:
                       occupation of active orbitals, and spin coupling of open shells (u,d: Spin up or down)
      ************************************************************************************************************************
 
      Note: transformation to natural orbitals
      has been made, which may change the order of the CSFs.
 
      printout of CI-coefficients larger than  0.05 for root  1
      energy=     -61.635777
      conf/sym  11     Coeff  Weight
             1  20   0.99229 0.98463
             3  02  -0.12396 0.01537
 
      Natural orbitals and occupation numbers for root  1
      sym 1:   1.969269   0.030731
 
      ************************************************************************************************************************
      *                                                                                                                      *
      *                                                    Final results                                                     *
      *                                                                                                                      *
      ************************************************************************************************************************
 
 
++    Wave function specifications:
      -----------------------------
 
      Number of closed shell electrons           8
      Number of electrons in active shells       2
      Max number of holes in RAS1 space          0
      Max nr of electrons in RAS3 space          0
      Number of inactive orbitals                4
      Number of active orbitals                  2
      Number of secondary orbitals               4
      Spin quantum number                      0.0
      State symmetry                             1
--
 
++    Orbital specifications:
      -----------------------
 
      Symmetry species                           1
                                                 a
      Frozen orbitals                            0
      Inactive orbitals                          4
      Active orbitals                            2
      RAS1 orbitals                              0
      RAS2 orbitals                              2
      RAS3 orbitals                              0
      Secondary orbitals                         4
      Deleted orbitals                           0
      Number of basis functions                 10
--
 
++    CI expansion specifications:
      ----------------------------
 
      Number of CSFs                             3
      Number of determinants                     3
      Number of root(s) required                 1
      CI root used                               1
      highest root included in the CI            1
      Root passed to geometry opt.               1
--
 
++    Final optimization conditions:
      ------------------------------
 
      Average CI energy                             -61.63577685
      RASSCF energy for state  1                    -61.63577685
      Super-CI energy                                -0.00000000
      RASSCF energy change                           -0.00000000
      Max change in MO coefficients               5.113E-05
      Max non-diagonal density matrix element     5.013E-05
      Maximum BLB matrix element                  2.014E-06
      (orbital pair   5,  10 in symmetry   1)
      Norm of electronic gradient            2.447E-06
--
 
 
      Final state energy(ies):
      ------------------------
 
::    RASSCF root number  1 Total energy:    -61.63577685
 
++    Molecular orbitals:
      -------------------
 
      Pseudonatural active orbitals and approximate occupation numbers
 
 
 
 
      Molecular orbitals for symmetry species 1: a  
 
 
      Orbital                 1         2         3         4         5         6         7         8         9        10
      Energy           -15.3023   -2.5561   -0.2270   -0.2270   -0.7729   -0.0001   -0.0133    0.0705    0.0705    0.1571
      Occ. No.           2.0000    2.0000    2.0000    2.0000    1.9693    0.0307    0.0000    0.0000    0.0000    0.0000
 
     1 LI1    1s         0.0000   -0.9999    0.0000   -0.0000    0.0116    0.0276   -0.0097    0.0000    0.0000    0.0052
     2 LI1    2s        -0.0017   -0.0126   -0.0000    0.0000   -0.0454    0.0293    0.8844    0.0000    0.0000    0.5631
     3 LI1    2px       -0.0000   -0.0000    0.3075    0.0043   -0.0000   -0.0000    0.0000   -0.9604   -0.0364   -0.0000
     4 LI1    2py        0.0000    0.0000   -0.0043    0.3075    0.0000    0.0000   -0.0000    0.0364   -0.9604    0.0000
     5 LI1    2pz       -0.0020    0.0010   -0.0000    0.0000   -0.0496    0.0129   -0.4723   -0.0000   -0.0000    0.9864
     6 N2     1s         0.9999   -0.0000    0.0000   -0.0000   -0.0163   -0.0012   -0.0020    0.0000    0.0000   -0.0560
     7 N2     2s        -0.0183    0.0005   -0.0000    0.0000   -0.9681    0.0214   -0.0559    0.0000    0.0000   -0.5590
     8 N2     2px       -0.0000    0.0000    0.9112    0.0126   -0.0000   -0.0000    0.0000    0.4330    0.0164    0.0000
     9 N2     2py        0.0000   -0.0000   -0.0126    0.9112    0.0000    0.0000   -0.0000   -0.0164    0.4330   -0.0000
    10 N2     2pz        0.0001    0.0002    0.0000   -0.0000    0.0226    1.0050    0.0474    0.0000    0.0000    0.1790
--
 
      Von Neumann Entropy (Root   1) =  0.11456
 

      Mulliken population analysis for root number:  1
      -----------------------------------------------
 
 
++    Molecular charges:
      ------------------
 
      Mulliken charges per centre and basis function type
      ---------------------------------------------------
 
                LI1     N2    
      1s       1.9997  2.0001
      2s       0.0256  1.9023
      2px      0.2642  1.7358
      2pz      0.0399  0.0324
      2py      0.2642  1.7358
      Total    2.5936  7.4064
 
      N-E      0.4064 -0.4064
 
      Total electronic charge=   10.000000
 
      Total            charge=   -0.000000
--
 
 

      Expectation values of various properties for root number:  1
      -----------------------------------------------------------
 
 
++    Molecular properties:
      ---------------------
 
      Charge (e):
                      =   -0.0000
      Dipole Moment (Debye):
      Origin of the operator (Ang)=    0.0000    0.0000    0.0000
                   X=  7.5524E-06               Y= -2.4844E-07               Z= -6.0712E+00           Total=  6.0712E+00
      Quadrupole Moment (Debye*Ang):
      Origin of the operator (Ang)=    0.0000    0.0000    1.5989
                  XX= -1.3508E+01              XY= -7.3188E-13              XZ= -1.1532E-05              YY= -1.3508E+01
                  YZ=  3.7935E-07              ZZ= -1.2841E+00
      In traceless form (Debye*Ang)
                  XX= -6.1118E+00              XY= -1.0978E-12              XZ= -1.7298E-05              YY= -6.1118E+00
                  YZ=  5.6903E-07              ZZ=  1.2224E+01
--
 

      LoProp population analysis for root number:  1
      -----------------------------------------------
 
 
++    LoProp analysis:
      ----------------
 
 
 
      Input file to MOLDEN was generated!
 
 
++    Static properties:
      ------------------
 
 
      LoProp Charges per center
 

                   LI1      N2    
      Nuclear      3.0000   7.0000
      Electronic  -2.4277  -7.5723
 
      Total        0.5723  -0.5723
--
 
 
      Natural Bond Order analysis for root number:  1
 
++    Natural Bond Order analysis
      ---------------------------
      Based on LoProp computed density
      -------------------------------------------------------------------------------------
      Atom A       Atom B       Bond Order
      -------------------------------------------------------------------------------------
      NBO located      1.000 non-bonded electrons on atom LI1       
      The remaining    4.206 electrons are to be considered as diffuse
--
 
--
 
 
      Input file to MOLDEN was generated!
 
      Average orbitals are written to the RASORB file
      Natural orbitals for root   1 are written to the RASORB.1 file
      Spin density orbitals for root   1 are written to the SPDORB.1 file
 
--- Stop Module: rasscf at Thu Apr 25 14:03:29 2024 /rc=_RC_ALL_IS_WELL_ ---
*** files: 2.40.LprOrb 2.40.rasscf.molden 2.40.LoProp.molden 2.40.RasOrb 2.40.RasOrb.1 2.40.rasscf.h5 2.40.SpdOrb.1 xmldump
    saved to directory /home/grierjones/DDCASPT2/delta_ML/LiN/2.40

*** symbolic link created: INPORB -> 2.40.RasOrb
--- Start Module: caspt2 at Thu Apr 25 14:03:29 2024 ---
 
()()()()()()()()()()()()()()()()()()()()()()()()()()()()()()()()()()()()()()()()()()()()()()()()()()

                                              &CASPT2

                                   only a single process is used
                       available to each process: 2.0 GB of memory, 1 thread?
                                            pid: 114760
()()()()()()()()()()()()()()()()()()()()()()()()()()()()()()()()()()()()()()()()()()()()()()()()()()
 
 ###############################################################################
 ###############################################################################
 ###                                                                         ###
 ###                                                                         ###
 ###    WARNING: User changed nr of frozen orbitals.                         ###
 ###                                                                         ###
 ###                                                                         ###
 ###############################################################################
 ###############################################################################
 
++    Wave function specifications:
      -----------------------------
 
      Number of closed shell electrons           8
      Number of electrons in active shells       2
      Max number of holes in RAS1 space          0
      Max number of electrons in RAS3 space      0
      Number of inactive orbitals                4
      Number of active orbitals                  2
      Number of secondary orbitals               4
      Spin quantum number                      0.0
      State symmetry                             1
      Number of CSFs                             3
      Number of CASSCF root(s) available         1
      CASPT2 state passed to geometry opt.       1
      A file JOBMIX will be created
      This is a CASSCF or RASSCF reference function
--
 
++    Orbital specifications:
      -----------------------
 
      Symmetry species                           1
                                                 a
      Frozen orbitals                            0
      Inactive orbitals                          4
      Active orbitals                            2
      Secondary orbitals                         4
      Deleted orbitals                           0
      Number of basis functions                 10
--
 
++    CASPT2 specifications:
      ----------------------
 
      Type of calculation                        SS-CASPT2
      Fock operator                              state-specific
      IPEA shift                                 0.25
      Real shift                                 0.00
      Imaginary shift                            0.00
      The input orbitals will be transformed to quasi-canonical
--
 
--------------------------------------------------------------------------------
 Estimated memory requirements:
  POLY3 :                   250070
  RHS:                      250492
  SIGMA :                   250512
  PRPCTL:                        0
 Available workspace:    230392690
 
++ CASPT2 computation for group   1
 
********************************************************************************
 Multi-State initialization phase begins for group   1
--------------------------------------------------------------------------------
********************************************************************************
 Compute H0 matrices for state    1
--------------------------------------------------------------------------------
--------------------------------------------------------------------------------
 H0 matrices have been computed.
 
********************************************************************************
  CASPT2 EQUATION SOLUTION
--------------------------------------------------------------------------------
 
  Total nr of CASPT2 parameters:
   Before reduction:         656
   After  reduction:         492
 
 Variance of |WF0>:       0.0387064883
 
 The contributions to the second order correlation energy in atomic units.
-----------------------------------------------------------------------------------------------------------------------------
  IT.      VJTU        VJTI        ATVX        AIVX        VJAI        BVAT        BJAT        BJAI        TOTAL       RNORM  
-----------------------------------------------------------------------------------------------------------------------------
   1     0.000000   -0.000579    0.000000   -0.000368   -0.000007   -0.000750   -0.007908   -0.042889   -0.052502    0.001870
   2     0.000000   -0.000601    0.000000   -0.000371   -0.000007   -0.000754   -0.007962   -0.042914   -0.052609    0.000342
   3     0.000000   -0.000601    0.000000   -0.000370   -0.000007   -0.000754   -0.007963   -0.042915   -0.052609    0.000040
   4     0.000000   -0.000601    0.000000   -0.000370   -0.000007   -0.000754   -0.007961   -0.042915   -0.052608    0.000001
-----------------------------------------------------------------------------------------------------------------------------
 
  FINAL CASPT2 RESULT:
 
      Reference energy:         -61.6357768479
      E2 (Non-variational):      -0.0526077757
      E2 (Variational):          -0.0526077762
      Total energy:             -61.6883846241
      Residual norm:              0.0000000437
      Reference weight:           0.92583
 
      Contributions to the CASPT2 correlation energy
      Active & Virtual Only:         -0.0007538795
      One Inactive Excited:          -0.0083310125
      Two Inactive Excited:          -0.0435228836
 
 
++ Denominators, etc.
--------------------------------------------------------------------------------------------------------------
 Report on small energy denominators, large coefficients, and large energy contributions.
CASE  SYMM ACTIVE-MIX  NON-ACTIVE INDICES          DENOMINATOR     RHS VALUE       COEFFICIENT     CONTRIBUTION
BJATP    1  Mu1.0001  In1.003 Se1.010 Se1.008       1.19950418      0.04717196     -0.04003623     -0.00188859
BJATP    1  Mu1.0001  In1.004 Se1.010 Se1.009       1.19950418      0.04717196     -0.04003623     -0.00188859
BJATM    1  Mu1.0001  In1.003 Se1.010 Se1.008       1.19950418      0.04758271     -0.04050374     -0.00192728
BJATM    1  Mu1.0001  In1.004 Se1.010 Se1.009       1.19950418      0.04758271     -0.04050374     -0.00192728
BJAIP    1  Se1.008 In1.003 Se1.008 In1.003         0.59510149      0.07363621     -0.12373723     -0.00911154
BJAIP    1  Se1.008 In1.003 Se1.009 In1.004         0.59510149      0.06789403     -0.11408815     -0.00774590
BJAIP    1  Se1.009 In1.004 Se1.009 In1.004         0.59510149      0.07363621     -0.12373723     -0.00911154
BJAIM    1  Se1.008 In1.003 Se1.008 In1.004         0.59510149      0.09798854     -0.16465852     -0.01613465
--
 
   (Skipping property calculation,
    use PROP keyword to activate)
--
 
  Total CASPT2 energies:
::    CASPT2 Root  1     Total energy:    -61.68838462
 
  A NEW JOBIPH FILE NAMED 'JOBMIX' IS PREPARED.
********************************************************************************
--- Stop Module: caspt2 at Thu Apr 25 14:03:29 2024 /rc=_RC_ALL_IS_WELL_ ---
*** files: xmldump
    saved to directory /home/grierjones/DDCASPT2/delta_ML/LiN/2.40

.##################.
.# Happy landing! #.
.##################.

    Timing: Wall=2.31 User=1.54 System=0.24
************************************
*** WorkDir at /tmp/2.40 removed ***
************************************
