[Molden Format]
[N_Atoms]
                     2
[Atoms] (AU)
H1          1      1           0.00000000      0.00000000      0.00000000
H2          2      1           0.00000000      0.00000000      3.21253441
[Charge] (Mulliken)
  2.620126338115369E-014
 -2.686739719592879E-014
[GTO] (AU)
   1
   s   8
  1.886144500E+02  9.638500027E-04
  2.827659600E+01  7.491960021E-03
  6.424830000E+00  3.759541011E-02
  1.815041000E+00  1.433949804E-01
  5.910630000E-01  3.486363010E-01
  2.121490000E-01  4.382973612E-01
  7.989100000E-02  1.651066105E-01
  2.796200000E-02  2.102287006E-02
 
   2
   s   8
  1.886144500E+02  9.638500027E-04
  2.827659600E+01  7.491960021E-03
  6.424830000E+00  3.759541011E-02
  1.815041000E+00  1.433949804E-01
  5.910630000E-01  3.486363010E-01
  2.121490000E-01  4.382973612E-01
  7.989100000E-02  1.651066105E-01
  2.796200000E-02  2.102287006E-02
 
[MO]
Sym=     1a  
Ene=    -0.3822
Spin= Alpha
Occup=    1.00000
   1         0.62825377
   2         0.62825377
Sym=     1a  
Ene=    -0.3822
Spin= Beta
Occup=    1.00000
   1         0.62825377
   2         0.62825377
Sym=     2a  
Ene=     0.0907
Spin= Alpha
Occup=    0.00000
   1        -0.82578434
   2         0.82578434
Sym=     2a  
Ene=     0.0907
Spin= Beta
Occup=    0.00000
   1        -0.82578434
   2         0.82578434
