[Molden Format]
[N_Atoms]
                     2
[Atoms] (AU)
BE1         1      4           0.00000000      0.00000000      0.00000000
BE2         2      4           0.00000000      0.00000000      1.13383567
[Charge] (Mulliken)
 -5.329070518200751E-015
 -1.154631945610163E-014
[GTO] (AU)
   1
   s  14
  2.262859900E+04  8.443999941E-05
  3.372318100E+03  4.601499968E-04
  7.603504000E+02  2.285389984E-03
  2.117404800E+02  9.648129932E-03
  6.722346800E+01  3.494469975E-02
  2.337217700E+01  1.061099893E-01
  8.721373000E+00  2.458240383E-01
  3.468091000E+00  3.862428773E-01
  1.452144000E+00  3.105526078E-01
  6.086150000E-01  6.415933955E-02
  2.576860000E-01 -2.265049984E-03
  1.041760000E-01 -5.217499963E-04
  4.242700000E-02 -8.757499938E-04
  1.484900000E-02  1.242199991E-04
   s  14
  2.262859900E+04 -1.586999994E-05
  3.372318100E+03 -8.656999968E-05
  7.603504000E+02 -4.302199984E-04
  2.117404800E+02 -1.825079993E-03
  6.722346800E+01 -6.682749976E-03
  2.337217700E+01 -2.095119992E-02
  8.721373000E+00 -5.200308981E-02
  3.468091000E+00 -9.849176964E-02
  1.452144000E+00 -1.355800695E-01
  6.086150000E-01 -6.429875976E-02
  2.576860000E-01  3.125414989E-01
  1.041760000E-01  6.270468577E-01
  4.242700000E-02  2.110231492E-01
  1.484900000E-02 -4.104669985E-03
   p   9
  3.371018400E+01  1.069960000E-03
  8.057649500E+00  6.828550001E-03
  2.836471400E+00  2.119065000E-02
  1.099965700E+00  5.843696001E-02
  4.433964000E-01  2.020920800E-01
  1.822264000E-01  4.582953101E-01
  7.572410000E-02  3.691239601E-01
  3.168540000E-02  6.611471001E-02
  1.108990000E-02  1.405160000E-03
 
   2
   s  14
  2.262859900E+04  8.443999941E-05
  3.372318100E+03  4.601499968E-04
  7.603504000E+02  2.285389984E-03
  2.117404800E+02  9.648129932E-03
  6.722346800E+01  3.494469975E-02
  2.337217700E+01  1.061099893E-01
  8.721373000E+00  2.458240383E-01
  3.468091000E+00  3.862428773E-01
  1.452144000E+00  3.105526078E-01
  6.086150000E-01  6.415933955E-02
  2.576860000E-01 -2.265049984E-03
  1.041760000E-01 -5.217499963E-04
  4.242700000E-02 -8.757499938E-04
  1.484900000E-02  1.242199991E-04
   s  14
  2.262859900E+04 -1.586999994E-05
  3.372318100E+03 -8.656999968E-05
  7.603504000E+02 -4.302199984E-04
  2.117404800E+02 -1.825079993E-03
  6.722346800E+01 -6.682749976E-03
  2.337217700E+01 -2.095119992E-02
  8.721373000E+00 -5.200308981E-02
  3.468091000E+00 -9.849176964E-02
  1.452144000E+00 -1.355800695E-01
  6.086150000E-01 -6.429875976E-02
  2.576860000E-01  3.125414989E-01
  1.041760000E-01  6.270468577E-01
  4.242700000E-02  2.110231492E-01
  1.484900000E-02 -4.104669985E-03
   p   9
  3.371018400E+01  1.069960000E-03
  8.057649500E+00  6.828550001E-03
  2.836471400E+00  2.119065000E-02
  1.099965700E+00  5.843696001E-02
  4.433964000E-01  2.020920800E-01
  1.822264000E-01  4.582953101E-01
  7.572410000E-02  3.691239601E-01
  3.168540000E-02  6.611471001E-02
  1.108990000E-02  1.405160000E-03
 
[MO]
Sym=     1a  
Ene=    -6.0974
Spin= Alpha
Occup=    2.00000
   1         0.64937593
   2        -0.01066830
   3        -0.00000000
   4         0.00000000
   5         0.00949753
   6         0.64937593
   7        -0.01066830
   8        -0.00000000
   9        -0.00000000
  10        -0.00949753
Sym=     2a  
Ene=    -5.0362
Spin= Alpha
Occup=    2.00000
   1        -0.75885542
   2         0.07730332
   3        -0.00000000
   4         0.00000000
   5         0.01605930
   6         0.75885542
   7        -0.07730332
   8        -0.00000000
   9         0.00000000
  10         0.01605930
Sym=     3a  
Ene=    -0.5141
Spin= Alpha
Occup=    2.00000
   1        -0.08430698
   2         0.51152780
   3         0.00000000
   4        -0.00000000
   5         0.06030765
   6        -0.08430698
   7         0.51152780
   8        -0.00000000
   9         0.00000000
  10        -0.06030765
Sym=     4a  
Ene=    -0.0222
Spin= Alpha
Occup=    0.00846
   1         0.01906081
   2        -0.58293266
   3        -0.00000000
   4         0.00000000
   5         0.43806915
   6        -0.01906081
   7         0.58293266
   8        -0.00000000
   9         0.00000000
  10         0.43806915
Sym=     5a  
Ene=     0.0000
Spin= Alpha
Occup=    1.99154
   1        -0.00000000
   2        -0.00000000
   3         0.49295804
   4         0.14384743
   5        -0.00000000
   6         0.00000000
   7         0.00000000
   8         0.49295804
   9         0.14384743
  10        -0.00000000
Sym=     6a  
Ene=    -0.1475
Spin= Alpha
Occup=    0.00000
   1        -0.00000000
   2         0.00000000
   3        -0.14384743
   4         0.49295804
   5        -0.00000000
   6         0.00000000
   7        -0.00000000
   8        -0.14384743
   9         0.49295804
  10        -0.00000000
Sym=     7a  
Ene=     0.3545
Spin= Alpha
Occup=    0.00000
   1        -0.00000000
   2        -0.00000000
   3         0.61449224
   4        -2.10583453
   5         0.00000000
   6        -0.00000000
   7        -0.00000000
   8        -0.61449224
   9         2.10583453
  10        -0.00000000
Sym=     8a  
Ene=     0.3558
Spin= Alpha
Occup=    0.00000
   1        -0.00000000
   2        -0.00000000
   3        -2.10583453
   4        -0.61449224
   5         0.00000000
   6        -0.00000000
   7        -0.00000000
   8         2.10583453
   9         0.61449224
  10        -0.00000000
Sym=     9a  
Ene=     0.3614
Spin= Alpha
Occup=    0.00000
   1         0.35504768
   2         0.20484372
   3        -0.00000000
   4        -0.00000000
   5        -1.58438970
   6         0.35504768
   7         0.20484372
   8         0.00000000
   9         0.00000000
  10         1.58438970
Sym=    10a  
Ene=     3.7624
Spin= Alpha
Occup=    0.00000
   1        -3.78415966
   2       -12.46269226
   3        -0.00000000
   4         0.00000000
   5        -2.57572832
   6         3.78415966
   7        12.46269226
   8        -0.00000000
   9         0.00000000
  10        -2.57572832
