[Molden Format]
[N_Atoms]
                     2
[Atoms] (AU)
BE1         1      4           0.00000000      0.00000000      0.00000000
BE2         2      4           0.00000000      0.00000000      1.13383567
[Charge] (Mulliken)
  5.240252676230739E-014
 -5.506706202140776E-014
[GTO] (AU)
   1
   s  14
  2.262859900E+04  8.443999941E-05
  3.372318100E+03  4.601499968E-04
  7.603504000E+02  2.285389984E-03
  2.117404800E+02  9.648129932E-03
  6.722346800E+01  3.494469975E-02
  2.337217700E+01  1.061099893E-01
  8.721373000E+00  2.458240383E-01
  3.468091000E+00  3.862428773E-01
  1.452144000E+00  3.105526078E-01
  6.086150000E-01  6.415933955E-02
  2.576860000E-01 -2.265049984E-03
  1.041760000E-01 -5.217499963E-04
  4.242700000E-02 -8.757499938E-04
  1.484900000E-02  1.242199991E-04
   s  14
  2.262859900E+04 -1.586999994E-05
  3.372318100E+03 -8.656999968E-05
  7.603504000E+02 -4.302199984E-04
  2.117404800E+02 -1.825079993E-03
  6.722346800E+01 -6.682749976E-03
  2.337217700E+01 -2.095119992E-02
  8.721373000E+00 -5.200308981E-02
  3.468091000E+00 -9.849176964E-02
  1.452144000E+00 -1.355800695E-01
  6.086150000E-01 -6.429875976E-02
  2.576860000E-01  3.125414989E-01
  1.041760000E-01  6.270468577E-01
  4.242700000E-02  2.110231492E-01
  1.484900000E-02 -4.104669985E-03
   p   9
  3.371018400E+01  1.069960000E-03
  8.057649500E+00  6.828550001E-03
  2.836471400E+00  2.119065000E-02
  1.099965700E+00  5.843696001E-02
  4.433964000E-01  2.020920800E-01
  1.822264000E-01  4.582953101E-01
  7.572410000E-02  3.691239601E-01
  3.168540000E-02  6.611471001E-02
  1.108990000E-02  1.405160000E-03
 
   2
   s  14
  2.262859900E+04  8.443999941E-05
  3.372318100E+03  4.601499968E-04
  7.603504000E+02  2.285389984E-03
  2.117404800E+02  9.648129932E-03
  6.722346800E+01  3.494469975E-02
  2.337217700E+01  1.061099893E-01
  8.721373000E+00  2.458240383E-01
  3.468091000E+00  3.862428773E-01
  1.452144000E+00  3.105526078E-01
  6.086150000E-01  6.415933955E-02
  2.576860000E-01 -2.265049984E-03
  1.041760000E-01 -5.217499963E-04
  4.242700000E-02 -8.757499938E-04
  1.484900000E-02  1.242199991E-04
   s  14
  2.262859900E+04 -1.586999994E-05
  3.372318100E+03 -8.656999968E-05
  7.603504000E+02 -4.302199984E-04
  2.117404800E+02 -1.825079993E-03
  6.722346800E+01 -6.682749976E-03
  2.337217700E+01 -2.095119992E-02
  8.721373000E+00 -5.200308981E-02
  3.468091000E+00 -9.849176964E-02
  1.452144000E+00 -1.355800695E-01
  6.086150000E-01 -6.429875976E-02
  2.576860000E-01  3.125414989E-01
  1.041760000E-01  6.270468577E-01
  4.242700000E-02  2.110231492E-01
  1.484900000E-02 -4.104669985E-03
   p   9
  3.371018400E+01  1.069960000E-03
  8.057649500E+00  6.828550001E-03
  2.836471400E+00  2.119065000E-02
  1.099965700E+00  5.843696001E-02
  4.433964000E-01  2.020920800E-01
  1.822264000E-01  4.582953101E-01
  7.572410000E-02  3.691239601E-01
  3.168540000E-02  6.611471001E-02
  1.108990000E-02  1.405160000E-03
 
[MO]
Sym=     1a  
Ene=    -6.1620
Spin= Alpha
Occup=    1.00000
   1         0.64897295
   2        -0.01164386
   3        -0.00000000
   4         0.00000000
   5         0.01170969
   6         0.64897295
   7        -0.01164386
   8        -0.00000000
   9        -0.00000000
  10        -0.01170969
Sym=     1a  
Ene=    -6.1620
Spin= Beta
Occup=    1.00000
   1         0.64897295
   2        -0.01164386
   3        -0.00000000
   4         0.00000000
   5         0.01170969
   6         0.64897295
   7        -0.01164386
   8        -0.00000000
   9        -0.00000000
  10        -0.01170969
Sym=     2a  
Ene=    -5.0949
Spin= Alpha
Occup=    1.00000
   1        -0.76837234
   2         0.04737459
   3         0.00000000
   4        -0.00000000
   5         0.00863807
   6         0.76837234
   7        -0.04737459
   8         0.00000000
   9        -0.00000000
  10         0.00863807
Sym=     2a  
Ene=    -5.0949
Spin= Beta
Occup=    1.00000
   1        -0.76837234
   2         0.04737459
   3         0.00000000
   4        -0.00000000
   5         0.00863807
   6         0.76837234
   7        -0.04737459
   8         0.00000000
   9        -0.00000000
  10         0.00863807
Sym=     3a  
Ene=    -0.5452
Spin= Alpha
Occup=    1.00000
   1        -0.08433244
   2         0.51100063
   3         0.00000000
   4        -0.00000000
   5         0.06427241
   6        -0.08433244
   7         0.51100063
   8        -0.00000000
   9         0.00000000
  10        -0.06427241
Sym=     3a  
Ene=    -0.5452
Spin= Beta
Occup=    1.00000
   1        -0.08433244
   2         0.51100063
   3         0.00000000
   4        -0.00000000
   5         0.06427241
   6        -0.08433244
   7         0.51100063
   8        -0.00000000
   9         0.00000000
  10        -0.06427241
Sym=     4a  
Ene=    -0.2748
Spin= Alpha
Occup=    1.00000
   1         0.03943625
   2        -0.51007818
   3        -0.00000000
   4         0.00000000
   5         0.45311566
   6        -0.03943625
   7         0.51007818
   8        -0.00000000
   9         0.00000000
  10         0.45311566
Sym=     4a  
Ene=    -0.2748
Spin= Beta
Occup=    1.00000
   1         0.03943625
   2        -0.51007818
   3        -0.00000000
   4         0.00000000
   5         0.45311566
   6        -0.03943625
   7         0.51007818
   8        -0.00000000
   9         0.00000000
  10         0.45311566
Sym=     5a  
Ene=    -0.1765
Spin= Alpha
Occup=    0.00000
   1        -0.00000000
   2         0.00000000
   3         0.49295804
   4         0.14384743
   5        -0.00000000
   6         0.00000000
   7        -0.00000000
   8         0.49295804
   9         0.14384743
  10        -0.00000000
Sym=     5a  
Ene=    -0.1765
Spin= Beta
Occup=    0.00000
   1        -0.00000000
   2         0.00000000
   3         0.49295804
   4         0.14384743
   5        -0.00000000
   6         0.00000000
   7        -0.00000000
   8         0.49295804
   9         0.14384743
  10        -0.00000000
Sym=     6a  
Ene=    -0.1765
Spin= Alpha
Occup=    0.00000
   1        -0.00000000
   2         0.00000000
   3        -0.14384743
   4         0.49295804
   5        -0.00000000
   6         0.00000000
   7        -0.00000000
   8        -0.14384743
   9         0.49295804
  10        -0.00000000
Sym=     6a  
Ene=    -0.1765
Spin= Beta
Occup=    0.00000
   1        -0.00000000
   2         0.00000000
   3        -0.14384743
   4         0.49295804
   5        -0.00000000
   6         0.00000000
   7        -0.00000000
   8        -0.14384743
   9         0.49295804
  10        -0.00000000
Sym=     7a  
Ene=     0.3277
Spin= Alpha
Occup=    0.00000
   1         0.35577771
   2         0.20610247
   3         0.00000000
   4         0.00000000
   5        -1.58421901
   6         0.35577771
   7         0.20610247
   8        -0.00000000
   9        -0.00000000
  10         1.58421901
Sym=     7a  
Ene=     0.3277
Spin= Beta
Occup=    0.00000
   1         0.35577771
   2         0.20610247
   3         0.00000000
   4         0.00000000
   5        -1.58421901
   6         0.35577771
   7         0.20610247
   8        -0.00000000
   9        -0.00000000
  10         1.58421901
Sym=     8a  
Ene=     0.3356
Spin= Alpha
Occup=    0.00000
   1         0.00000000
   2         0.00000000
   3        -2.18757295
   4         0.16329226
   5        -0.00000000
   6        -0.00000000
   7         0.00000000
   8         2.18757295
   9        -0.16329226
  10         0.00000000
Sym=     8a  
Ene=     0.3356
Spin= Beta
Occup=    0.00000
   1         0.00000000
   2         0.00000000
   3        -2.18757295
   4         0.16329226
   5        -0.00000000
   6        -0.00000000
   7         0.00000000
   8         2.18757295
   9        -0.16329226
  10         0.00000000
Sym=     9a  
Ene=     0.3356
Spin= Alpha
Occup=    0.00000
   1         0.00000000
   2         0.00000000
   3        -0.16329226
   4        -2.18757295
   5        -0.00000000
   6         0.00000000
   7         0.00000000
   8         0.16329226
   9         2.18757295
  10         0.00000000
Sym=     9a  
Ene=     0.3356
Spin= Beta
Occup=    0.00000
   1         0.00000000
   2         0.00000000
   3        -0.16329226
   4        -2.18757295
   5        -0.00000000
   6         0.00000000
   7         0.00000000
   8         0.16329226
   9         2.18757295
  10         0.00000000
Sym=    10a  
Ene=     3.7236
Spin= Alpha
Occup=    0.00000
   1        -3.78208117
   2       -12.46603628
   3        -0.00000000
   4         0.00000000
   5        -2.57315962
   6         3.78208117
   7        12.46603628
   8        -0.00000000
   9         0.00000000
  10        -2.57315962
Sym=    10a  
Ene=     3.7236
Spin= Beta
Occup=    0.00000
   1        -3.78208117
   2       -12.46603628
   3        -0.00000000
   4         0.00000000
   5        -2.57315962
   6         3.78208117
   7        12.46603628
   8        -0.00000000
   9         0.00000000
  10        -2.57315962
