[Molden Format]
[N_Atoms]
                     2
[Atoms] (AU)
BE1         1      4           0.00000000      0.00000000      0.00000000
BE2         2      4           0.00000000      0.00000000      1.13383567
[Charge] (Mulliken)
  0.999999999999962     
   1.00000000000003     
[GTO] (AU)
   1
   s  14
  2.262859900E+04  8.443999941E-05
  3.372318100E+03  4.601499968E-04
  7.603504000E+02  2.285389984E-03
  2.117404800E+02  9.648129932E-03
  6.722346800E+01  3.494469975E-02
  2.337217700E+01  1.061099893E-01
  8.721373000E+00  2.458240383E-01
  3.468091000E+00  3.862428773E-01
  1.452144000E+00  3.105526078E-01
  6.086150000E-01  6.415933955E-02
  2.576860000E-01 -2.265049984E-03
  1.041760000E-01 -5.217499963E-04
  4.242700000E-02 -8.757499938E-04
  1.484900000E-02  1.242199991E-04
   s  14
  2.262859900E+04 -1.586999994E-05
  3.372318100E+03 -8.656999968E-05
  7.603504000E+02 -4.302199984E-04
  2.117404800E+02 -1.825079993E-03
  6.722346800E+01 -6.682749976E-03
  2.337217700E+01 -2.095119992E-02
  8.721373000E+00 -5.200308981E-02
  3.468091000E+00 -9.849176964E-02
  1.452144000E+00 -1.355800695E-01
  6.086150000E-01 -6.429875976E-02
  2.576860000E-01  3.125414989E-01
  1.041760000E-01  6.270468577E-01
  4.242700000E-02  2.110231492E-01
  1.484900000E-02 -4.104669985E-03
   p   9
  3.371018400E+01  1.069960000E-03
  8.057649500E+00  6.828550001E-03
  2.836471400E+00  2.119065000E-02
  1.099965700E+00  5.843696001E-02
  4.433964000E-01  2.020920800E-01
  1.822264000E-01  4.582953101E-01
  7.572410000E-02  3.691239601E-01
  3.168540000E-02  6.611471001E-02
  1.108990000E-02  1.405160000E-03
 
   2
   s  14
  2.262859900E+04  8.443999941E-05
  3.372318100E+03  4.601499968E-04
  7.603504000E+02  2.285389984E-03
  2.117404800E+02  9.648129932E-03
  6.722346800E+01  3.494469975E-02
  2.337217700E+01  1.061099893E-01
  8.721373000E+00  2.458240383E-01
  3.468091000E+00  3.862428773E-01
  1.452144000E+00  3.105526078E-01
  6.086150000E-01  6.415933955E-02
  2.576860000E-01 -2.265049984E-03
  1.041760000E-01 -5.217499963E-04
  4.242700000E-02 -8.757499938E-04
  1.484900000E-02  1.242199991E-04
   s  14
  2.262859900E+04 -1.586999994E-05
  3.372318100E+03 -8.656999968E-05
  7.603504000E+02 -4.302199984E-04
  2.117404800E+02 -1.825079993E-03
  6.722346800E+01 -6.682749976E-03
  2.337217700E+01 -2.095119992E-02
  8.721373000E+00 -5.200308981E-02
  3.468091000E+00 -9.849176964E-02
  1.452144000E+00 -1.355800695E-01
  6.086150000E-01 -6.429875976E-02
  2.576860000E-01  3.125414989E-01
  1.041760000E-01  6.270468577E-01
  4.242700000E-02  2.110231492E-01
  1.484900000E-02 -4.104669985E-03
   p   9
  3.371018400E+01  1.069960000E-03
  8.057649500E+00  6.828550001E-03
  2.836471400E+00  2.119065000E-02
  1.099965700E+00  5.843696001E-02
  4.433964000E-01  2.020920800E-01
  1.822264000E-01  4.582953101E-01
  7.572410000E-02  3.691239601E-01
  3.168540000E-02  6.611471001E-02
  1.108990000E-02  1.405160000E-03
 
[MO]
Sym=     1a  
Ene=    -6.9302
Spin= Alpha
Occup=    2.00000
   1         0.64983218
   2        -0.01185673
   3        -0.00000000
   4         0.00000000
   5         0.00827052
   6         0.64983218
   7        -0.01185673
   8        -0.00000000
   9        -0.00000000
  10        -0.00827052
Sym=     2a  
Ene=    -5.8690
Spin= Alpha
Occup=    2.00000
   1        -0.76488233
   2         0.05872099
   3         0.00000000
   4        -0.00000000
   5         0.01111603
   6         0.76488233
   7        -0.05872099
   8         0.00000000
   9        -0.00000000
  10         0.01111603
Sym=     3a  
Ene=    -1.1151
Spin= Alpha
Occup=    1.98019
   1        -0.11508901
   2         0.49034234
   3         0.00000000
   4        -0.00000000
   5         0.20671961
   6        -0.11508901
   7         0.49034234
   8        -0.00000000
   9         0.00000000
  10        -0.20671961
Sym=     4a  
Ene=     0.0004
Spin= Alpha
Occup=    0.01981
   1         0.18740261
   2        -0.02260085
   3        -0.00000000
   4         0.00000000
   5         0.55331147
   6        -0.18740261
   7         0.02260085
   8        -0.00000000
   9         0.00000000
  10         0.55331147
Sym=     5a  
Ene=    -0.7509
Spin= Alpha
Occup=    0.00000
   1        -0.00000000
   2         0.00000000
   3         0.48541140
   4         0.16755741
   5        -0.00000000
   6         0.00000000
   7        -0.00000000
   8         0.48541140
   9         0.16755741
  10        -0.00000000
Sym=     6a  
Ene=    -0.7509
Spin= Alpha
Occup=    0.00000
   1        -0.00000000
   2         0.00000000
   3        -0.16755741
   4         0.48541140
   5        -0.00000000
   6         0.00000000
   7        -0.00000000
   8        -0.16755741
   9         0.48541140
  10        -0.00000000
Sym=     7a  
Ene=    -0.2783
Spin= Alpha
Occup=    0.00000
   1         0.34543925
   2         0.25131506
   3        -0.00000000
   4         0.00000000
   5        -1.57201034
   6         0.34543925
   7         0.25131506
   8         0.00000000
   9        -0.00000000
  10         1.57201034
Sym=     8a  
Ene=    -0.2558
Spin= Alpha
Occup=    0.00000
   1        -0.00000000
   2        -0.00000000
   3        -2.18848891
   4         0.15051927
   5         0.00000000
   6        -0.00000000
   7        -0.00000000
   8         2.18848891
   9        -0.15051927
  10        -0.00000000
Sym=     9a  
Ene=    -0.2558
Spin= Alpha
Occup=    0.00000
   1         0.00000000
   2         0.00000000
   3        -0.15051927
   4        -2.18848891
   5        -0.00000000
   6         0.00000000
   7         0.00000000
   8         0.15051927
   9         2.18848891
  10         0.00000000
Sym=    10a  
Ene=     2.9956
Spin= Alpha
Occup=    0.00000
   1        -3.77834944
   2       -12.47639875
   3        -0.00000000
   4         0.00000000
   5        -2.55348031
   6         3.77834944
   7        12.47639875
   8        -0.00000000
   9         0.00000000
  10        -2.55348031
