****************************************************************************************************
*** WorkDir at /lustre/isaac/scratch/gjones39/scpfiles/ANO-RCC-VTZP/ozone_112.75/3252686 cleaned ***
****************************************************************************************************
   This run of MOLCAS is using the pymolcas driver

                             OPE
                             OPE          NMOL  CASOP  ENMOLC A   SO
                 OPE        NMOLC        AS  OP EN  MO LC     AS  OP
                OPENM       OL CA        SO  PE NM  OL CA     SOP EN
                OP EN      MO   LC       AS  OP ENMOL  CASO   PENMOL
                OP  EN     MO   LC       AS  OP EN     MO     LC ASO
               OP   E  NMOL  C  AS       OP  EN MO     LC     AS  OP
               OP  E   NMO   LC AS        OPEN  MO     LCASOP EN   M
               O  PEN   MO  LCA  SO
            OPE   NMO   L   CAS    OP
        OPENMOL  CASOP     ENMOL   CASOPE
     OPENMOLCA   SOPENMOLCASOPEN   MOLCASOPE
    OPENMOLCAS   OP           EN   MOL    CAS
    OPENMOLCAS       OP  ENM        O     LCA
    OPENMOLCAS    OPEN  MOLCASO     P  E  NMO
    OPENMOLCAS     OP               E  N  MOL
    OPENMOLCA   SO           PENM   O  L  CAS    OPEN    MO    LCAS
    OPENMOLCA   SOP           ENM   O  L  CAS   OP  EN  MOLC  AS   O
    OPENMOLCA   SOPE           NM      O  LCA   S      OP  EN MO
    OPENMOLC                AS         O  PEN   M      OL  CA  SOPE
    OPENMO        LCASOPE  NMOL        C  ASO   P      ENMOLC     AS
    OPE     NMO      LCA  SO     P     E   NM   OL  CA SO  PE N   MO
          OPENMOLCA            SOPE   NMO        LCAS  O    P  ENMO
     OPENMOLCASOPENMOLCASOPENMOLCASOPENMOLCA
        OPENMOLCASOPENMOLCASOPENMOLCASOPE
            OPENMOLCASOPENMOLCASOPENM
               OPENMOLCASOPENMOLCA        version: f37762c57-dirty
                   OPENMOLCASO
                       OPE                tag:

 OpenMolcas is free software; you can redistribute it and/or modify it
 under the terms of the GNU Lesser General Public License version 2.1.
 OpenMolcas is distributed in the hope that it will be useful, but it
 is provided "as is" and without any express or implied warranties.
 For more details see the full text of the license in the file
 LICENSE or in <http://www.gnu.org/licenses/>.

                 Copyright (C) The OpenMolcas Authors
           For the author list and the recommended citation,
                   consult the file CONTRIBUTORS.md

           *************************************************
           * pymolcas version py2.05                       *
           *   build c53fbf9a0f911de0c7c16766b0715e61      *
           *   (after the EMIL interpreter by V. Veryazov) *
           *************************************************

configuration info
------------------
C Compiler ID: GNU
C flags: -std=gnu99
Fortran Compiler ID: Intel
Fortran flags: -fpp -i8 -r8 -heap-arrays
Definitions: _MOLCAS_;_I8_;_LINUX_
Parallel: OFF (GA=OFF)


   ------------------------------------------------------------------------------------------------
  |
  |              Project: ozone_112.75
  |       Submitted from: /lustre/isaac/scratch/gjones39/scpfiles/ANO-RCC-VTZP/ozone_112.75
  |         Scratch area: /lustre/isaac/scratch/gjones39/scpfiles/ANO-RCC-VTZP/ozone_112.75/3252686
  |      Save outputs to: /lustre/isaac/scratch/gjones39/scpfiles/ANO-RCC-VTZP/ozone_112.75
  |               Molcas: /lustre/isaac/proj/UTK0022/Grier2025/Test/build
  |
  | Scratch area is empty
  |
  |       MOLCAS_DRIVER = /nfs/home/gjones39/bin/pymolcas
  | MOLCAS_KEEP_WORKDIR = NO
  |      MOLCAS_MAXITER = 100
  |  MOLCAS_NEW_WORKDIR = YES
  |       MOLCAS_NPROCS = 1
  |       MOLCAS_SOURCE = /lustre/isaac/proj/UTK0022/Grier2025/Test
  |    MOLCAS_STRUCTURE = 0
  |
   ------------------------------------------------------------------------------------------------

++ ---------   Input file   ---------

&GATEWAY
coord=ozone_112.75.xyz
Basis = ANO-RCC-VTZP
Group = nosymm
End of Input

&SEWARD
End of Input

&SCF
FileOrb
/lustre/isaac/scratch/gjones39/scpfiles/ANO-RCC-VTZP/ozone_112.50/ozone_112.50.ScfOrb

>>> COPY $WorkDir/ozone_112.75.scf.h5 $CurrDir/

&RASSCF
Title= RASSCF
ITERation
200 100
CIMX
200
SDAV
500
FileOrb
/lustre/isaac/scratch/gjones39/scpfiles/ANO-RCC-VTZP/ozone_112.50/ozone_112.50.RasOrb
CIROOT
3 3 1
NACTEL
12 0 0
Inactive
6
RAS2
9
Symmetry
1
Spin
1
orblisting
all

>>> COPY $WorkDir/ozone_112.75.rasscf.h5 $CurrDir/

>>> COPY $WorkDir/GMJ_Fock_MO.csv $CurrDir/ozone_112.75.GMJ_Fock_MO.csv

&MOTRA
Frozen=0
LUMORB

>>> COPY $WorkDir/GMJ_one_int_indx.csv $CurrDir/ozone_112.75.GMJ_one_int_indx.csv

>>> COPY $WorkDir/GMJ_one_int.csv $CurrDir/ozone_112.75.GMJ_one_int.csv

>>> COPY $WorkDir/GMJ_two_int_indx.csv $CurrDir/ozone_112.75.GMJ_two_int_indx.csv

>>> COPY $WorkDir/GMJ_two_int.csv $CurrDir/ozone_112.75.GMJ_two_int.csv

&CASPT2

Multistate
ALL

Frozen
0

MAXITER
50

>>> FOREACH k IN (1,2,3)

  >>> FOREACH i IN (B,E,F,G,H)

    >>> FOREACH j IN (P,M)

      >>> IF (-FILE GMJ_e2_${i}_${j}_${k}_.csv)

        >>> COPY $WorkDir/GMJ_RHS_${i}_${j}_${k}_.csv $CurrDir/GMJ_RHS_${i}_${j}_${k}_.csv

        >>> COPY $WorkDir/GMJ_IVECW_${i}_${j}_${k}_.csv $CurrDir/GMJ_IVECW_${i}_${j}_${k}_.csv

        >>> COPY $WorkDir/GMJ_IVECX_${i}_${j}_${k}_.csv $CurrDir/GMJ_IVECX_${i}_${j}_${k}_.csv

        >>> COPY $WorkDir/GMJ_IVECC2_${i}_${j}_${k}_.csv $CurrDir/GMJ_IVECC2_${i}_${j}_${k}_.csv

        >>> COPY $WorkDir/GMJ_e2_${i}_${j}_${k}_.csv $CurrDir/GMJ_e2_${i}_${j}_${k}_.csv

      >>> END IF

    >>> END FOREACH

  >>> END FOREACH

>>> END FOREACH

>>> FOREACH j IN (1,2,3)

  >>> FOREACH i IN (A,C,D)

    >>> IF (-FILE GMJ_e2_${i}_${j}_.csv)

      >>> COPY $WorkDir/GMJ_RHS_${i}_${j}_.csv $CurrDir/GMJ_RHS_${i}_${j}_.csv

      >>> COPY $WorkDir/GMJ_IVECW_${i}_${j}_.csv $CurrDir/GMJ_IVECW_${i}_${j}_.csv

      >>> COPY $WorkDir/GMJ_IVECX_${i}_${j}_.csv $CurrDir/GMJ_IVECX_${i}_${j}_.csv

      >>> COPY $WorkDir/GMJ_IVECC2_${i}_${j}_.csv $CurrDir/GMJ_IVECC2_${i}_${j}_.csv

      >>> COPY $WorkDir/GMJ_e2_${i}_${j}_.csv $CurrDir/GMJ_e2_${i}_${j}_.csv

    >>> END IF

  >>> END FOREACH

>>> END FOREACH

-- ----------------------------------

--- Start Module: gateway at Mon May 12 21:11:40 2025 ---
 
()()()()()()()()()()()()()()()()()()()()()()()()()()()()()()()()()()()()()()()()()()()()()()()()()()

                                              &GATEWAY

                                   only a single process is used
                       available to each process: 62 GB of memory, 1 thread?
()()()()()()()()()()()()()()()()()()()()()()()()()()()()()()()()()()()()()()()()()()()()()()()()()()
 
 
++    Symmetry information:
      ---------------------
 
                    Character Table for C1 
 
                             E  
                    a        1  x, y, xy, Rz, z, xz, Ry, yz, Rx, I
--
 
 
++    Basis set information:
      ----------------------
 
 
      Basis set label: O.ANO-RCC...4S3P2D1F.
 
      Electronic valence basis set:
      ------------------
      Associated Effective Charge   8.000000 au
      Associated Actual Charge      8.000000 au
      Nuclear Model: Point charge
 
      Shell  nPrim  nBasis  Cartesian Spherical Contaminant
         s      14       4        X                  
         p       9       3        X                  
         d       4       2                 X         
         f       3       1                 X         
--
 
 
++    Molecular structure info:
      -------------------------
 
                    ************************************************ 
                    **** Cartesian Coordinates / Bohr, Angstrom **** 
                    ************************************************ 
 
     Center  Label                x              y              z                     x              y              z
        1      O1               1.337357       2.010980       0.000000              0.707699       1.064165       0.000000
        2      O2               0.000000       0.000000       0.000000              0.000000       0.000000       0.000000
        3      O3               1.337357      -2.010980       0.000000              0.707699      -1.064165       0.000000
 
                    *************************************** 
                    *    InterNuclear Distances / Bohr    * 
                    *************************************** 
 
               1 O1            2 O2            3 O3    
    1 O1       0.000000
    2 O2       2.415071        0.000000
    3 O3       4.021961        2.415071        0.000000
 
                    ******************************************* 
                    *    InterNuclear Distances / Angstrom    * 
                    ******************************************* 
 
               1 O1            2 O2            3 O3    
    1 O1       0.000000
    2 O2       1.278000        0.000000
    3 O3       2.128330        1.278000        0.000000
 
                    ************************************** 
                    *    Valence Bond Angles / Degree    * 
                    ************************************** 
                          Atom centers                 Phi
                      1 O1       2 O2       3 O3       112.75
--
 
 
            Nuclear Potential Energy             68.91315425 au
 
--- Stop Module: gateway at Mon May 12 21:11:44 2025 /rc=_RC_ALL_IS_WELL_ ---
*** files: xmldump
    saved to directory /lustre/isaac/scratch/gjones39/scpfiles/ANO-RCC-VTZP/ozone_112.75
--- Module gateway spent 3 seconds ---

--- Start Module: seward at Mon May 12 21:11:44 2025 ---
 
()()()()()()()()()()()()()()()()()()()()()()()()()()()()()()()()()()()()()()()()()()()()()()()()()()

                                              &SEWARD

                                   only a single process is used
                       available to each process: 62 GB of memory, 1 thread?
()()()()()()()()()()()()()()()()()()()()()()()()()()()()()()()()()()()()()()()()()()()()()()()()()()
 
               SEWARD will generate:
                  Multipole Moment integrals up to order  2
                  Kinetic Energy integrals
                  Nuclear Attraction integrals (point charge)
                  One-Electron Hamiltonian integrals
                  Velocity integrals
                  Relativistic Douglas-Kroll-Hess integrals:
                    - Parametrization         : EXP
                    - DKH order of Hamiltonian: 2
                    - DKH order of Properties : 0
                         - multipole moment operators
                         - electric potential operators
                         - contact operators
                  Atomic mean-field integrals
                  Two-Electron Repulsion integrals
 
                   Integrals are discarded if absolute value <: 0.10E-13
                   Integral cutoff threshold is set to       <: 0.10E-15
 
            Nuclear Potential Energy             68.91315425 au
 
 
      Basis set specifications :
      Symmetry species         a  
      Basis functions           90
 
 
  Input file to MOLDEN was generated!
 
--- Stop Module: seward at Mon May 12 21:11:53 2025 /rc=_RC_ALL_IS_WELL_ ---
*** files: ozone_112.75.GssOrb ozone_112.75.guessorb.h5 ozone_112.75.guessorb.molden xmldump
    saved to directory /lustre/isaac/scratch/gjones39/scpfiles/ANO-RCC-VTZP/ozone_112.75
--- Module seward spent 9 seconds ---

*** symbolic link created: INPORB -> ozone_112.75.GssOrb
--- Start Module: scf at Mon May 12 21:11:53 2025 ---
 
()()()()()()()()()()()()()()()()()()()()()()()()()()()()()()()()()()()()()()()()()()()()()()()()()()

                                                &SCF

                                   only a single process is used
                       available to each process: 62 GB of memory, 1 thread?
()()()()()()()()()()()()()()()()()()()()()()()()()()()()()()()()()()()()()()()()()()()()()()()()()()
 
++    Input section:
      --------------
 
      Header of the integral files:
      
       Integrals generated by seward 4.2.0  , Mon May 12 21:11:44 2025
 
 
      Cartesian coordinates in Angstrom:
      -----------------------------------------------------
      No.  Label        X            Y            Z        
      -----------------------------------------------------
       1   O1         0.70769900   1.06416500   0.00000000
       2   O2         0.00000000   0.00000000   0.00000000
       3   O3         0.70769900  -1.06416500   0.00000000
      -----------------------------------------------------
      Nuclear repulsion energy =   68.91315425
--
 
++    Orbital specifications:
      -----------------------
 
      Symmetry species               1
                                     a
      Frozen orbitals                0
      Occupied orbitals             12
      Secondary orbitals            78
      Deleted orbitals               0
      Total number of orbitals      90
      Number of basis functions     90
--
 
      Molecular charge                           0.000
 
++    Optimization specifications:
      ----------------------------
 
      SCF Algorithm: Conventional
      Minimized density differences are used
      Number of density matrices in core                5
      Maximum number of NDDO SCF iterations           400
      Maximum number of HF SCF iterations             400
      Threshold for SCF energy change            0.10E-08
      Threshold for density matrix               0.10E-03
      Threshold for Fock matrix                  0.15E-03
      Threshold for linear dependence            0.10E-08
      Threshold at which DIIS is turned on       0.15E+00
      Threshold at which QNR/C2DIIS is turned on 0.75E-01
      Threshold for Norm(delta) (QNR/C2DIIS)     0.20E-04
      DIIS extrapolation of the SCF procedure
      All orbitals punched on: SCFORB
--
 
      Input vectors read from INPORB
      Orbital file label: * SCF orbitals
 
 
++ Convergence information
                                   SCF        iterations: Energy and convergence statistics
 
Iter     Tot. SCF        One-elec.       Two-elec.     Energy      Max Dij or  Max Fij      DNorm      TNorm      AccCon     Time
         Energy          Energy          Energy        Change      Delta Norm                                                in Sec.
   1  -224.511946385  -445.497869270   152.072768637   0.00E+00    0.85E-03*   0.45E-03*    0.75E+01   0.11E+03   None         0.
   2  -224.511951805  -445.497749626   152.072643573  -0.54E-05*   0.54E-03*   0.27E-03*    0.72E-02   0.11E+03   EDIIS        0.
   3  -224.511952906  -445.498394862   152.073287708  -0.11E-05*   0.54E-03*   0.25E-03*    0.14E-02   0.11E+03   c2DIIS       0.
   4  -224.511953183  -445.497345583   152.072238153  -0.28E-06*   0.41E-03*   0.19E-03*    0.14E-02   0.11E+03   QNRc2DIIS    0.
   5  -224.511953193  -445.498903700   152.073796260  -0.10E-07*   0.21E-03*   0.21E-03*    0.45E-03   0.11E+03   QNRc2DIIS    0.
   6  -224.511953405  -445.498121711   152.073014058  -0.21E-06*   0.91E-04*   0.21E-04     0.43E-04   0.11E+03   QNRc2DIIS    0.
   7  -224.511953412  -445.498111772   152.073004112  -0.74E-08*   0.13E-05    0.89E-06     0.87E-04   0.11E+03   QNRc2DIIS    0.
   8  -224.511953412  -445.498111082   152.073003422  -0.80E-11    0.27E-05    0.69E-06     0.18E-03   0.11E+03   QNRc2DIIS    0.
 
       Convergence after  8 Macro Iterations
--
 
 *****************************************************************************************************************************
 *                                                                                                                           *
 *                                             SCF/KS-DFT Program, Final results                                             *
 *                                                                                                                           *
 *                                                                                                                           *
 *                                                                                                                           *
 *                                                       Final Results                                                       *
 *                                                                                                                           *
 *****************************************************************************************************************************
 
::    Total SCF energy                               -224.5119534122
      One-electron energy                            -445.4981110819
      Two-electron energy                             152.0730034217
      Nuclear repulsion energy                         68.9131542480
      Kinetic energy (interpolated)                   225.0705318436
      Virial theorem                                    0.9975182072
      Total spin, S(S+1)                                0.0000000000
      Total spin, S                                     0.0000000000
      Max non-diagonal density matrix element           0.0000039683
      Max non-diagonal Fock matrix element              0.0000007582
 
 
      All orbitals with orbital energies smaller than  E(LUMO)+0.5 are printed
 
++    Molecular orbitals:
      -------------------
 
      Title: SCF orbitals

      Molecular orbitals for symmetry species 1: a  
 
          Orbital            1         2         3         4         5         6         7         8         9        10    
          Energy          -20.9368  -20.7231  -20.7230   -1.7521   -1.4245   -1.1022   -0.8311   -0.7976   -0.7810   -0.5611
          Occ. No.          2.0000    2.0000    2.0000    2.0000    2.0000    2.0000    2.0000    2.0000    2.0000    2.0000
 
        1 O1     1s         0.0022   -0.7100    0.7027   -0.0137    0.0115    0.0090   -0.0135   -0.0231    0.0000    0.0052
        2 O1     2s         0.0038    0.0049   -0.0052    0.3335   -0.5767    0.5788   -0.2853   -0.4274    0.0000    0.0355
        3 O1     3s         0.0022    0.0036   -0.0036   -0.0108    0.0187    0.0153   -0.0282   -0.0520    0.0000    0.0163
        4 O1     4s         0.0004    0.0007   -0.0007   -0.0008    0.0041    0.0024   -0.0054   -0.0111   -0.0000    0.0043
        5 O1     2px       -0.0011   -0.0014    0.0013   -0.0582    0.0667    0.1080    0.1134   -0.3390    0.0000    0.6317
        6 O1     3px       -0.0007   -0.0015    0.0013    0.0123   -0.0093   -0.0178   -0.0032    0.0313    0.0000    0.0018
        7 O1     4px        0.0001    0.0008   -0.0009    0.0025   -0.0002    0.0009   -0.0000    0.0023   -0.0000   -0.0058
        8 O1     2py       -0.0021   -0.0020    0.0022   -0.1068    0.0613    0.0708   -0.3642   -0.2366    0.0000   -0.1605
        9 O1     3py       -0.0012   -0.0021    0.0021    0.0160   -0.0132   -0.0119    0.0373    0.0345   -0.0000   -0.0138
       10 O1     4py        0.0005    0.0012   -0.0013    0.0006   -0.0035    0.0011    0.0032    0.0028   -0.0000    0.0002
       11 O1     2pz       -0.0000    0.0000    0.0000    0.0000   -0.0000    0.0000    0.0000    0.0000    0.3695   -0.0000
       12 O1     3pz       -0.0000   -0.0000   -0.0000   -0.0000    0.0000    0.0000    0.0000    0.0000   -0.0193   -0.0000
       13 O1     4pz        0.0000    0.0000    0.0000   -0.0000   -0.0000    0.0000    0.0000   -0.0000   -0.0068   -0.0000
       14 O1     3d2-       0.0004    0.0011   -0.0011    0.0182   -0.0153   -0.0118    0.0100    0.0288   -0.0000   -0.0145
       15 O1     4d2-       0.0002    0.0005   -0.0006    0.0022   -0.0019   -0.0009    0.0013    0.0026   -0.0000   -0.0015
       16 O1     3d1-       0.0000    0.0000    0.0000   -0.0000   -0.0000   -0.0000    0.0000   -0.0000   -0.0259    0.0000
       17 O1     4d1-       0.0000    0.0000    0.0000   -0.0000   -0.0000    0.0000    0.0000   -0.0000   -0.0036    0.0000
       18 O1     3d0       -0.0003   -0.0005    0.0005   -0.0104    0.0088    0.0032   -0.0096   -0.0147    0.0000    0.0054
       19 O1     4d0       -0.0002   -0.0004    0.0004   -0.0002    0.0010   -0.0002   -0.0004   -0.0010    0.0000    0.0003
       20 O1     3d1+       0.0000    0.0000   -0.0000    0.0000   -0.0000   -0.0000   -0.0000   -0.0000   -0.0184    0.0000
       21 O1     4d1+       0.0000    0.0000    0.0000    0.0000    0.0000   -0.0000   -0.0000   -0.0000   -0.0036   -0.0000
       22 O1     3d2+      -0.0004   -0.0005    0.0005   -0.0098    0.0030   -0.0004   -0.0238   -0.0022    0.0000   -0.0023
       23 O1     4d2+      -0.0002   -0.0002    0.0002   -0.0008    0.0006    0.0004   -0.0017    0.0003    0.0000   -0.0013
       24 O1     4f3-       0.0001   -0.0000    0.0000   -0.0002    0.0020    0.0022    0.0051   -0.0040    0.0000    0.0031
       25 O1     4f2-      -0.0000   -0.0000   -0.0000   -0.0000   -0.0000    0.0000   -0.0000    0.0000    0.0066    0.0000
       26 O1     4f1-       0.0000    0.0002   -0.0001    0.0029   -0.0024   -0.0005    0.0023    0.0029   -0.0000   -0.0015
       27 O1     4f0        0.0000    0.0000    0.0000    0.0000    0.0000   -0.0000   -0.0000   -0.0000   -0.0038   -0.0000
       28 O1     4f1+       0.0000    0.0001   -0.0001    0.0018   -0.0019   -0.0008    0.0009    0.0021   -0.0000   -0.0001
       29 O1     4f2+      -0.0000   -0.0000    0.0000   -0.0000   -0.0000    0.0000    0.0000   -0.0000   -0.0028    0.0000
       30 O1     4f3+       0.0001    0.0002   -0.0002    0.0060   -0.0047   -0.0017    0.0051    0.0058   -0.0000   -0.0025
       31 O2     1s         0.9989    0.0000   -0.0008   -0.0270   -0.0000   -0.0171   -0.0080   -0.0000    0.0000    0.0191
       32 O2     2s        -0.0074   -0.0001    0.0107    0.6159    0.0000   -0.6772   -0.0858   -0.0000    0.0000    0.2341
       33 O2     3s        -0.0052   -0.0000    0.0061   -0.0660   -0.0000   -0.0135   -0.0127   -0.0000    0.0000    0.0453
       34 O2     4s        -0.0012   -0.0000    0.0010   -0.0115   -0.0000   -0.0036   -0.0037   -0.0000    0.0000    0.0112
       35 O2     2px       -0.0019   -0.0000    0.0038    0.1116    0.0000    0.2576    0.6481   -0.0000    0.0000   -0.4694
       36 O2     3px       -0.0025   -0.0000    0.0024   -0.0394   -0.0000   -0.0356   -0.0661    0.0000    0.0000    0.0011
       37 O2     4px        0.0018    0.0000   -0.0008   -0.0023   -0.0000    0.0009   -0.0090    0.0000    0.0000   -0.0006
       38 O2     2py       -0.0000   -0.0054   -0.0000    0.0000   -0.3288   -0.0000    0.0000    0.5686   -0.0000    0.0000
       39 O2     3py       -0.0000   -0.0032   -0.0000   -0.0000    0.0615    0.0000   -0.0000   -0.0564    0.0000    0.0000
       40 O2     4py        0.0000    0.0012    0.0000   -0.0000   -0.0014    0.0000   -0.0000   -0.0093   -0.0000    0.0000
       41 O2     2pz        0.0000    0.0000    0.0000    0.0000    0.0000   -0.0000   -0.0000    0.0000    0.6924    0.0000
       42 O2     3pz        0.0000   -0.0000   -0.0000    0.0000    0.0000   -0.0000   -0.0000   -0.0000   -0.0457    0.0000
       43 O2     4pz       -0.0000   -0.0000   -0.0000    0.0000    0.0000   -0.0000   -0.0000   -0.0000   -0.0158    0.0000
       44 O2     3d2-      -0.0000   -0.0015   -0.0000    0.0000   -0.0427   -0.0000    0.0000    0.0311   -0.0000    0.0000
       45 O2     4d2-      -0.0000   -0.0007   -0.0000    0.0000   -0.0048   -0.0000    0.0000    0.0030   -0.0000    0.0000
       46 O2     3d1-       0.0000    0.0000    0.0000    0.0000    0.0000   -0.0000    0.0000   -0.0000    0.0000   -0.0000
       47 O2     4d1-       0.0000    0.0000   -0.0000    0.0000    0.0000   -0.0000    0.0000   -0.0000    0.0000   -0.0000
       48 O2     3d0        0.0006    0.0000   -0.0010   -0.0156   -0.0000   -0.0073   -0.0152    0.0000    0.0000    0.0175
       49 O2     4d0        0.0006    0.0000   -0.0005    0.0006   -0.0000   -0.0005   -0.0011   -0.0000   -0.0000    0.0020
       50 O2     3d1+       0.0000    0.0000    0.0000    0.0000    0.0000   -0.0000    0.0000    0.0000    0.0342    0.0000
       51 O2     4d1+       0.0000    0.0000   -0.0000    0.0000    0.0000    0.0000    0.0000    0.0000    0.0053    0.0000
       52 O2     3d2+       0.0002    0.0000   -0.0007   -0.0079    0.0000    0.0019    0.0228   -0.0000   -0.0000    0.0399
       53 O2     4d2+       0.0000    0.0000   -0.0003   -0.0007    0.0000   -0.0003    0.0028   -0.0000   -0.0000    0.0087
       54 O2     4f3-      -0.0000   -0.0000   -0.0000    0.0000   -0.0007    0.0000    0.0000   -0.0030    0.0000    0.0000
       55 O2     4f2-       0.0000    0.0000   -0.0000   -0.0000   -0.0000    0.0000    0.0000   -0.0000    0.0000   -0.0000
       56 O2     4f1-       0.0000    0.0001    0.0000   -0.0000    0.0049    0.0000   -0.0000   -0.0041    0.0000   -0.0000
       57 O2     4f0       -0.0000   -0.0000   -0.0000    0.0000   -0.0000   -0.0000   -0.0000   -0.0000   -0.0064   -0.0000
       58 O2     4f1+       0.0002    0.0000   -0.0001   -0.0035   -0.0000   -0.0007   -0.0026    0.0000    0.0000   -0.0002
       59 O2     4f2+      -0.0000   -0.0000    0.0000    0.0000    0.0000   -0.0000    0.0000   -0.0000   -0.0042   -0.0000
       60 O2     4f3+       0.0001    0.0000   -0.0002   -0.0091   -0.0000   -0.0006   -0.0027   -0.0000   -0.0000    0.0068
       61 O3     1s         0.0022    0.7028    0.7099   -0.0137   -0.0115    0.0090   -0.0135    0.0231   -0.0000    0.0052
       62 O3     2s         0.0038   -0.0049   -0.0053    0.3335    0.5767    0.5788   -0.2853    0.4274   -0.0000    0.0355
       63 O3     3s         0.0022   -0.0036   -0.0037   -0.0108   -0.0187    0.0153   -0.0282    0.0520   -0.0000    0.0163
       64 O3     4s         0.0004   -0.0007   -0.0007   -0.0008   -0.0041    0.0024   -0.0054    0.0111   -0.0000    0.0043
       65 O3     2px       -0.0011    0.0014    0.0014   -0.0582   -0.0667    0.1080    0.1134    0.3390   -0.0000    0.6316
       66 O3     3px       -0.0007    0.0015    0.0013    0.0123    0.0093   -0.0178   -0.0032   -0.0313    0.0000    0.0018
       67 O3     4px        0.0001   -0.0008   -0.0009    0.0025    0.0002    0.0009   -0.0000   -0.0023    0.0000   -0.0058
       68 O3     2py        0.0021   -0.0020   -0.0022    0.1068    0.0613   -0.0708    0.3642   -0.2366    0.0000    0.1604
       69 O3     3py        0.0012   -0.0021   -0.0022   -0.0160   -0.0132    0.0119   -0.0373    0.0345   -0.0000    0.0138
       70 O3     4py       -0.0005    0.0012    0.0013   -0.0006   -0.0035   -0.0011   -0.0032    0.0028    0.0000   -0.0002
       71 O3     2pz       -0.0000    0.0000    0.0000    0.0000   -0.0000   -0.0000    0.0000    0.0000    0.3695    0.0000
       72 O3     3pz       -0.0000    0.0000    0.0000   -0.0000   -0.0000    0.0000    0.0000   -0.0000   -0.0193   -0.0000
       73 O3     4pz       -0.0000    0.0000    0.0000   -0.0000   -0.0000   -0.0000   -0.0000   -0.0000   -0.0068   -0.0000
       74 O3     3d2-      -0.0004    0.0011    0.0011   -0.0182   -0.0153    0.0118   -0.0100    0.0288   -0.0000    0.0145
       75 O3     4d2-      -0.0002    0.0005    0.0006   -0.0022   -0.0019    0.0009   -0.0013    0.0026   -0.0000    0.0015
       76 O3     3d1-      -0.0000   -0.0000   -0.0000    0.0000   -0.0000   -0.0000    0.0000    0.0000    0.0259   -0.0000
       77 O3     4d1-      -0.0000    0.0000    0.0000    0.0000   -0.0000   -0.0000    0.0000    0.0000    0.0036   -0.0000
       78 O3     3d0       -0.0003    0.0005    0.0005   -0.0104   -0.0088    0.0032   -0.0096    0.0147   -0.0000    0.0054
       79 O3     4d0       -0.0002    0.0004    0.0004   -0.0002   -0.0010   -0.0002   -0.0004    0.0010   -0.0000    0.0003
       80 O3     3d1+       0.0000    0.0000   -0.0000    0.0000    0.0000   -0.0000   -0.0000   -0.0000   -0.0184   -0.0000
       81 O3     4d1+       0.0000    0.0000    0.0000    0.0000    0.0000    0.0000   -0.0000   -0.0000   -0.0036    0.0000
       82 O3     3d2+      -0.0004    0.0005    0.0005   -0.0098   -0.0030   -0.0004   -0.0238    0.0022   -0.0000   -0.0023
       83 O3     4d2+      -0.0002    0.0002    0.0002   -0.0008   -0.0006    0.0004   -0.0017   -0.0003   -0.0000   -0.0013
       84 O3     4f3-      -0.0001   -0.0000   -0.0000    0.0002    0.0020   -0.0022   -0.0051   -0.0040    0.0000   -0.0031
       85 O3     4f2-      -0.0000    0.0000    0.0000    0.0000    0.0000   -0.0000    0.0000   -0.0000   -0.0066   -0.0000
       86 O3     4f1-      -0.0000    0.0001    0.0001   -0.0029   -0.0024    0.0005   -0.0023    0.0029   -0.0000    0.0015
       87 O3     4f0        0.0000    0.0000    0.0000   -0.0000    0.0000    0.0000   -0.0000   -0.0000   -0.0038    0.0000
       88 O3     4f1+       0.0000   -0.0001   -0.0001    0.0018    0.0019   -0.0008    0.0009   -0.0021    0.0000   -0.0001
       89 O3     4f2+       0.0000    0.0000   -0.0000   -0.0000    0.0000    0.0000    0.0000   -0.0000   -0.0028   -0.0000
       90 O3     4f3+       0.0001   -0.0002   -0.0002    0.0060    0.0047   -0.0017    0.0051   -0.0058    0.0000   -0.0025
 
          Orbital           11        12        13        14        15        16        17        18        19        20    
          Energy           -0.5584   -0.4852   -0.0507    0.1750    0.1753    0.2368    0.2919    0.3426    0.3831    0.3878
          Occ. No.          2.0000    2.0000    0.0000    0.0000    0.0000    0.0000    0.0000    0.0000    0.0000    0.0000
 
        1 O1     1s         0.0055   -0.0000    0.0000   -0.1454   -0.1866   -0.0000   -0.0024   -0.0183    0.0734    0.0000
        2 O1     2s         0.0368   -0.0000    0.0000   -1.0504   -1.3908   -0.0000    0.0839   -0.0214    0.4035    0.0000
        3 O1     3s         0.0164   -0.0000    0.0000   -0.6135   -0.8053   -0.0000   -0.0896   -0.0407    0.5222   -0.0000
        4 O1     4s         0.0040   -0.0000    0.0000   -0.1303   -0.1824   -0.0000   -0.0335   -0.0045    0.1555   -0.0000
        5 O1     2px       -0.5096   -0.0000    0.0000    0.2861    0.5104    0.0000   -0.2764   -0.2859    0.2361   -0.0000
        6 O1     3px       -0.0162   -0.0000    0.0000    0.3723    0.4391    0.0000    0.1189   -0.7351    0.7335   -0.0000
        7 O1     4px        0.0027    0.0000    0.0000    0.0760    0.0375    0.0000    0.1024   -0.2893    0.2702   -0.0000
        8 O1     2py        0.5326    0.0000   -0.0000    0.7393    0.5056    0.0000   -0.4510   -0.3083   -0.0846   -0.0000
        9 O1     3py       -0.0009   -0.0000   -0.0000    0.6176    0.6729   -0.0000   -0.4844   -0.1862   -0.2073    0.0000
       10 O1     4py       -0.0036    0.0000   -0.0000    0.0487    0.1164   -0.0000   -0.1798   -0.0365   -0.0068    0.0000
       11 O1     2pz        0.0000   -0.7107    0.6623   -0.0000    0.0000   -0.1700    0.0000    0.0000   -0.0000   -0.1889
       12 O1     3pz        0.0000   -0.0380    0.1614   -0.0000   -0.0000    0.2893    0.0000    0.0000   -0.0000   -0.9592
       13 O1     4pz        0.0000    0.0063    0.0247   -0.0000   -0.0000    0.1815   -0.0000    0.0000   -0.0000   -0.3822
       14 O1     3d2-      -0.0039    0.0000    0.0000   -0.0574   -0.0800   -0.0000   -0.0010   -0.0034   -0.0205   -0.0000
       15 O1     4d2-       0.0003    0.0000    0.0000   -0.0388   -0.0499   -0.0000    0.0070    0.0143   -0.0212   -0.0000
       16 O1     3d1-      -0.0000    0.0209    0.0066    0.0000   -0.0000    0.0197    0.0000   -0.0000    0.0000    0.0019
       17 O1     4d1-      -0.0000    0.0053   -0.0002    0.0000   -0.0000    0.0096    0.0000   -0.0000    0.0000    0.0103
       18 O1     3d0        0.0038   -0.0000   -0.0000    0.0445    0.0545    0.0000    0.0137   -0.0032   -0.0066    0.0000
       19 O1     4d0        0.0001   -0.0000   -0.0000    0.0279    0.0360    0.0000    0.0036   -0.0097    0.0044    0.0000
       20 O1     3d1+      -0.0000    0.0145    0.0054   -0.0000   -0.0000    0.0056   -0.0000    0.0000    0.0000    0.0163
       21 O1     4d1+      -0.0000    0.0035   -0.0003    0.0000   -0.0000    0.0005   -0.0000   -0.0000    0.0000    0.0144
       22 O1     3d2+       0.0174   -0.0000   -0.0000    0.0480    0.0333    0.0000    0.0365   -0.0024   -0.0660    0.0000
       23 O1     4d2+       0.0031   -0.0000   -0.0000    0.0319    0.0200    0.0000    0.0118   -0.0011   -0.0398    0.0000
       24 O1     4f3-      -0.0047   -0.0000    0.0000   -0.0005    0.0009    0.0000    0.0005   -0.0051    0.0130   -0.0000
       25 O1     4f2-       0.0000   -0.0049    0.0003   -0.0000    0.0000    0.0022   -0.0000    0.0000   -0.0000   -0.0051
       26 O1     4f1-      -0.0005    0.0000   -0.0000   -0.0035   -0.0063   -0.0000    0.0009    0.0047   -0.0007   -0.0000
       27 O1     4f0       -0.0000    0.0014    0.0014    0.0000   -0.0000   -0.0011   -0.0000   -0.0000   -0.0000    0.0063
       28 O1     4f1+      -0.0013   -0.0000    0.0000   -0.0031   -0.0025   -0.0000    0.0002    0.0053   -0.0025   -0.0000
       29 O1     4f2+      -0.0000    0.0019   -0.0005    0.0000   -0.0000    0.0002    0.0000   -0.0000    0.0000    0.0018
       30 O1     4f3+      -0.0034    0.0000    0.0000   -0.0048   -0.0086   -0.0000    0.0048    0.0083   -0.0001   -0.0000
       31 O2     1s         0.0000   -0.0000   -0.0000    0.3134   -0.0000   -0.0000   -0.0851    0.0000   -0.0467    0.0000
       32 O2     2s         0.0000   -0.0000   -0.0000    2.2698   -0.0001   -0.0000   -0.6955    0.0000   -0.3348    0.0000
       33 O2     3s         0.0000   -0.0000   -0.0000    1.2716   -0.0001    0.0000   -0.1989    0.0000   -0.1280    0.0000
       34 O2     4s         0.0000   -0.0000   -0.0000    0.2720   -0.0000    0.0000   -0.0403    0.0000    0.0081    0.0000
       35 O2     2px       -0.0000    0.0000   -0.0000    0.8467   -0.0000   -0.0000   -0.3599    0.0000   -0.6499   -0.0000
       36 O2     3px        0.0000   -0.0000   -0.0000    0.9455   -0.0000    0.0000    0.2405    0.0000   -1.5368    0.0000
       37 O2     4px       -0.0000   -0.0000    0.0000    0.1486   -0.0000    0.0000    0.1432    0.0000   -0.3895    0.0000
       38 O2     2py       -0.1477    0.0000   -0.0000    0.0001    1.2961    0.0000    0.0000   -0.1797    0.0000   -0.0000
       39 O2     3py       -0.0096    0.0000   -0.0000    0.0001    1.2305    0.0000    0.0000    0.5053    0.0000   -0.0000
       40 O2     4py       -0.0013    0.0000    0.0000    0.0000    0.1288    0.0000    0.0000    0.2378    0.0000   -0.0000
       41 O2     2pz       -0.0000    0.0000   -0.8516    0.0000    0.0000    0.0442    0.0000   -0.0000    0.0000    0.0000
       42 O2     3pz       -0.0000    0.0000   -0.1825    0.0000    0.0000    0.4300   -0.0000   -0.0000    0.0000    0.0000
       43 O2     4pz       -0.0000   -0.0000   -0.0217    0.0000    0.0000    0.2173   -0.0000   -0.0000    0.0000    0.0000
       44 O2     3d2-      -0.0397    0.0000   -0.0000    0.0000    0.1415    0.0000    0.0000    0.0883    0.0000    0.0000
       45 O2     4d2-      -0.0071    0.0000   -0.0000    0.0000    0.0889    0.0000    0.0000    0.0652    0.0000   -0.0000
       46 O2     3d1-       0.0000   -0.0566   -0.0000    0.0000   -0.0000   -0.0000   -0.0000   -0.0000    0.0000    0.0906
       47 O2     4d1-      -0.0000   -0.0135   -0.0000    0.0000   -0.0000   -0.0000   -0.0000   -0.0000    0.0000    0.0544
       48 O2     3d0        0.0000    0.0000    0.0000   -0.0882    0.0000   -0.0000   -0.0542   -0.0000    0.1019   -0.0000
       49 O2     4d0        0.0000    0.0000    0.0000   -0.0577    0.0000   -0.0000   -0.0294   -0.0000    0.0675   -0.0000
       50 O2     3d1+       0.0000    0.0000    0.0086    0.0000    0.0000   -0.0274    0.0000   -0.0000    0.0000    0.0000
       51 O2     4d1+       0.0000    0.0000    0.0018    0.0000   -0.0000   -0.0094    0.0000   -0.0000    0.0000    0.0000
       52 O2     3d2+       0.0000    0.0000    0.0000   -0.0355    0.0000   -0.0000   -0.0635    0.0000   -0.0530   -0.0000
       53 O2     4d2+       0.0000    0.0000    0.0000   -0.0165    0.0000   -0.0000   -0.0251    0.0000   -0.0449   -0.0000
       54 O2     4f3-      -0.0096   -0.0000   -0.0000   -0.0000   -0.0030   -0.0000   -0.0000    0.0069    0.0000    0.0000
       55 O2     4f2-       0.0000   -0.0089   -0.0000    0.0000    0.0000   -0.0000   -0.0000    0.0000    0.0000    0.0085
       56 O2     4f1-       0.0010   -0.0000    0.0000   -0.0000   -0.0074   -0.0000   -0.0000   -0.0129   -0.0000    0.0000
       57 O2     4f0        0.0000    0.0000   -0.0019   -0.0000   -0.0000   -0.0035    0.0000    0.0000   -0.0000   -0.0000
       58 O2     4f1+      -0.0000    0.0000   -0.0000   -0.0083    0.0000   -0.0000   -0.0070   -0.0000    0.0156   -0.0000
       59 O2     4f2+      -0.0000    0.0000    0.0009   -0.0000   -0.0000   -0.0013    0.0000    0.0000   -0.0000   -0.0000
       60 O2     4f3+       0.0000   -0.0000    0.0000   -0.0122    0.0000   -0.0000   -0.0077   -0.0000    0.0148   -0.0000
       61 O3     1s        -0.0055    0.0000   -0.0000   -0.1454    0.1866    0.0000   -0.0024    0.0183    0.0734   -0.0000
       62 O3     2s        -0.0368    0.0000   -0.0000   -1.0503    1.3909    0.0000    0.0839    0.0214    0.4035   -0.0000
       63 O3     3s        -0.0164    0.0000    0.0000   -0.6134    0.8053   -0.0000   -0.0896    0.0407    0.5222   -0.0000
       64 O3     4s        -0.0040    0.0000   -0.0000   -0.1303    0.1824   -0.0000   -0.0335    0.0045    0.1555   -0.0000
       65 O3     2px        0.5097   -0.0000    0.0000    0.2860   -0.5105   -0.0000   -0.2764    0.2859    0.2361    0.0000
       66 O3     3px        0.0162   -0.0000    0.0000    0.3722   -0.4391   -0.0000    0.1189    0.7351    0.7335    0.0000
       67 O3     4px       -0.0027   -0.0000    0.0000    0.0760   -0.0375    0.0000    0.1024    0.2893    0.2702    0.0000
       68 O3     2py        0.5326    0.0000    0.0000   -0.7392    0.5057    0.0000    0.4510   -0.3083    0.0846    0.0000
       69 O3     3py       -0.0009    0.0000    0.0000   -0.6175    0.6730    0.0000    0.4844   -0.1862    0.2073   -0.0000
       70 O3     4py       -0.0036   -0.0000    0.0000   -0.0487    0.1164    0.0000    0.1798   -0.0365    0.0068   -0.0000
       71 O3     2pz       -0.0000    0.7107    0.6623   -0.0000    0.0000   -0.1700    0.0000    0.0000   -0.0000    0.1889
       72 O3     3pz        0.0000    0.0380    0.1614   -0.0000   -0.0000    0.2893   -0.0000    0.0000    0.0000    0.9592
       73 O3     4pz        0.0000   -0.0063    0.0247   -0.0000   -0.0000    0.1815   -0.0000    0.0000    0.0000    0.3822
       74 O3     3d2-      -0.0039   -0.0000    0.0000    0.0574   -0.0800   -0.0000    0.0010   -0.0034    0.0205    0.0000
       75 O3     4d2-       0.0003   -0.0000    0.0000    0.0388   -0.0499   -0.0000   -0.0070    0.0143    0.0212    0.0000
       76 O3     3d1-       0.0000    0.0209   -0.0066   -0.0000   -0.0000   -0.0197    0.0000    0.0000   -0.0000    0.0019
       77 O3     4d1-       0.0000    0.0053    0.0002   -0.0000   -0.0000   -0.0096    0.0000    0.0000   -0.0000    0.0103
       78 O3     3d0       -0.0038   -0.0000    0.0000    0.0445   -0.0545    0.0000    0.0137    0.0032   -0.0066    0.0000
       79 O3     4d0       -0.0001   -0.0000    0.0000    0.0279   -0.0360    0.0000    0.0036    0.0097    0.0044    0.0000
       80 O3     3d1+       0.0000   -0.0145    0.0054    0.0000   -0.0000    0.0056   -0.0000   -0.0000   -0.0000   -0.0163
       81 O3     4d1+       0.0000   -0.0035   -0.0003    0.0000    0.0000    0.0005    0.0000   -0.0000   -0.0000   -0.0144
       82 O3     3d2+      -0.0174   -0.0000    0.0000    0.0480   -0.0333    0.0000    0.0365    0.0024   -0.0660    0.0000
       83 O3     4d2+      -0.0031   -0.0000    0.0000    0.0319   -0.0200    0.0000    0.0118    0.0011   -0.0398    0.0000
       84 O3     4f3-      -0.0047   -0.0000    0.0000    0.0005    0.0009    0.0000   -0.0005   -0.0051   -0.0130    0.0000
       85 O3     4f2-       0.0000   -0.0049   -0.0003   -0.0000    0.0000   -0.0022    0.0000   -0.0000   -0.0000   -0.0051
       86 O3     4f1-      -0.0005   -0.0000   -0.0000    0.0035   -0.0063    0.0000   -0.0009    0.0047    0.0007    0.0000
       87 O3     4f0        0.0000   -0.0014    0.0014    0.0000   -0.0000   -0.0011    0.0000   -0.0000    0.0000   -0.0063
       88 O3     4f1+       0.0013    0.0000    0.0000   -0.0031    0.0025   -0.0000    0.0002   -0.0053   -0.0025   -0.0000
       89 O3     4f2+      -0.0000   -0.0019   -0.0005    0.0000   -0.0000    0.0002    0.0000   -0.0000    0.0000   -0.0018
       90 O3     4f3+       0.0034    0.0000    0.0000   -0.0048    0.0086    0.0000    0.0048   -0.0083   -0.0001   -0.0000
 
          Orbital           21        22    
          Energy            0.4248    0.4268
          Occ. No.          0.0000    0.0000
 
        1 O1     1s        -0.0395    0.0038
        2 O1     2s        -0.1898    0.0903
        3 O1     3s        -0.1948   -0.1653
        4 O1     4s        -0.0254   -0.0534
        5 O1     2px        0.1299   -0.3492
        6 O1     3px        0.3787    0.1797
        7 O1     4px        0.0634    0.0878
        8 O1     2py       -0.0706   -0.1064
        9 O1     3py        0.7799    0.5278
       10 O1     4py        0.2453    0.1792
       11 O1     2pz       -0.0000   -0.0000
       12 O1     3pz        0.0000   -0.0000
       13 O1     4pz        0.0000   -0.0000
       14 O1     3d2-      -0.1436   -0.0888
       15 O1     4d2-      -0.0909   -0.0492
       16 O1     3d1-       0.0000    0.0000
       17 O1     4d1-       0.0000    0.0000
       18 O1     3d0        0.0457    0.0723
       19 O1     4d0        0.0272    0.0444
       20 O1     3d1+      -0.0000   -0.0000
       21 O1     4d1+      -0.0000    0.0000
       22 O1     3d2+       0.0630    0.0100
       23 O1     4d2+       0.0340    0.0145
       24 O1     4f3-       0.0005    0.0029
       25 O1     4f2-      -0.0000   -0.0000
       26 O1     4f1-      -0.0084   -0.0095
       27 O1     4f0       -0.0000    0.0000
       28 O1     4f1+      -0.0060   -0.0061
       29 O1     4f2+       0.0000    0.0000
       30 O1     4f3+      -0.0176   -0.0078
       31 O2     1s         0.1864   -0.0000
       32 O2     2s         0.9829   -0.0000
       33 O2     3s         0.9593   -0.0000
       34 O2     4s         0.2120   -0.0000
       35 O2     2px       -0.2766    0.0000
       36 O2     3px       -0.0961    0.0000
       37 O2     4px       -0.1424    0.0000
       38 O2     2py       -0.0000   -0.8024
       39 O2     3py       -0.0000   -0.2642
       40 O2     4py       -0.0000   -0.1220
       41 O2     2pz        0.0000    0.0000
       42 O2     3pz        0.0000    0.0000
       43 O2     4pz        0.0000    0.0000
       44 O2     3d2-       0.0000    0.1639
       45 O2     4d2-       0.0000    0.0587
       46 O2     3d1-      -0.0000   -0.0000
       47 O2     4d1-      -0.0000   -0.0000
       48 O2     3d0       -0.1526    0.0000
       49 O2     4d0       -0.0651    0.0000
       50 O2     3d1+       0.0000    0.0000
       51 O2     4d1+       0.0000    0.0000
       52 O2     3d2+      -0.0702    0.0000
       53 O2     4d2+      -0.0237    0.0000
       54 O2     4f3-       0.0000    0.0029
       55 O2     4f2-      -0.0000   -0.0000
       56 O2     4f1-       0.0000    0.0018
       57 O2     4f0       -0.0000   -0.0000
       58 O2     4f1+      -0.0034    0.0000
       59 O2     4f2+      -0.0000   -0.0000
       60 O2     4f3+      -0.0086    0.0000
       61 O3     1s        -0.0395   -0.0037
       62 O3     2s        -0.1898   -0.0903
       63 O3     3s        -0.1948    0.1653
       64 O3     4s        -0.0254    0.0534
       65 O3     2px        0.1299    0.3491
       66 O3     3px        0.3787   -0.1798
       67 O3     4px        0.0634   -0.0878
       68 O3     2py        0.0706   -0.1064
       69 O3     3py       -0.7799    0.5278
       70 O3     4py       -0.2452    0.1792
       71 O3     2pz       -0.0000   -0.0000
       72 O3     3pz       -0.0000   -0.0000
       73 O3     4pz       -0.0000   -0.0000
       74 O3     3d2-       0.1436   -0.0888
       75 O3     4d2-       0.0909   -0.0492
       76 O3     3d1-      -0.0000   -0.0000
       77 O3     4d1-      -0.0000   -0.0000
       78 O3     3d0        0.0457   -0.0723
       79 O3     4d0        0.0272   -0.0444
       80 O3     3d1+       0.0000    0.0000
       81 O3     4d1+       0.0000    0.0000
       82 O3     3d2+       0.0630   -0.0100
       83 O3     4d2+       0.0340   -0.0145
       84 O3     4f3-      -0.0005    0.0029
       85 O3     4f2-       0.0000    0.0000
       86 O3     4f1-       0.0084   -0.0095
       87 O3     4f0        0.0000    0.0000
       88 O3     4f1+      -0.0060    0.0061
       89 O3     4f2+       0.0000    0.0000
       90 O3     4f3+      -0.0176    0.0078
--
 
 
++    Molecular charges:
      ------------------
 
      Mulliken charges per centre and basis function type
      ---------------------------------------------------
 
                O1      O2      O3    
      1s       1.9980  1.9979  1.9980
      2s       1.9428  1.7253  1.9428
      2px      1.6439  1.4969  1.6439
      2pz      1.3646  1.1920  1.3645
      2py      1.1905  1.0632  1.1905
      3s      -0.0009 -0.0210 -0.0009
      3px     -0.0108 -0.0111 -0.0108
      3pz     -0.0126 -0.0130 -0.0126
      3py      0.0037  0.0001  0.0037
      4s       0.0045  0.0022  0.0045
      3d2+     0.0091  0.0385  0.0091
      3d1+     0.0051  0.0103  0.0051
      3d0      0.0055  0.0075  0.0055
      3d1-     0.0099  0.0434  0.0099
      3d2-     0.0187  0.0416  0.0187
      4px      0.0009  0.0020  0.0009
      4pz      0.0012  0.0016  0.0012
      4py      0.0022  0.0030  0.0022
      4d2+    -0.0001  0.0080 -0.0001
      4d1+     0.0010  0.0015  0.0010
      4d0     -0.0001 -0.0001 -0.0001
      4d1-     0.0008  0.0112  0.0008
      4d2-     0.0007  0.0038  0.0007
      4f3+     0.0030  0.0035  0.0030
      4f2+     0.0003  0.0006  0.0003
      4f1+     0.0004  0.0006  0.0004
      4f0      0.0009  0.0016  0.0009
      4f1-     0.0008  0.0011  0.0008
      4f2-     0.0019  0.0047  0.0019
      4f3-     0.0020  0.0072  0.0020
      Total    8.1879  7.6242  8.1879
 
      N-E     -0.1879  0.3758 -0.1879
 
      Total electronic charge=   24.000000
 
      Total            charge=   -0.000000
--
 
 
  Input file to MOLDEN was generated!
 
 
++    Static properties:
      ------------------
 
 
      LoProp Charges per center
 

                   O1       O2       O3    
      Nuclear      8.0000   8.0000   8.0000
      Electronic  -8.2092  -7.5816  -8.2092
 
      Total       -0.2092   0.4184  -0.2092
--
 
 
++    Natural Bond Order analysis
      ---------------------------
      Based on LoProp computed density
      -------------------------------------------------------------------------------------
      Atom A       Atom B       Bond Order | Atom A       Atom B       Bond Order
        O1           O2             1.998  |   O2           O3             1.998
      -------------------------------------------------------------------------------------
      NBO located      9.999 core electrons.
      NBO located      5.940 lone pair electrons.
      NBO located      7.991 electrons involved in    2 bonds.
      The remaining    0.070 electrons are to be considered as diffuse
--
 
 
++    Molecular properties:
      ---------------------
 
      Charge (e):
                      =   -0.0000
      Dipole Moment (Debye):
      Origin of the operator (Ang)=    0.0000    0.0000    0.0000
                   X= -8.7416E-01               Y= -1.3357E-05               Z=  5.2506E-14           Total=  8.7416E-01
      Quadrupole Moment (Debye*Ang):
      Origin of the operator (Ang)=    0.4718    0.0000    0.0000
                  XX= -1.5626E+01              XY= -3.5605E-06              XZ=  9.0115E-14              YY= -1.7404E+01
                  YZ=  1.3321E-13              ZZ= -1.4894E+01
      In traceless form (Debye*Ang)
                  XX=  5.2322E-01              XY= -5.3407E-06              XZ=  1.3517E-13              YY= -2.1442E+00
                  YZ=  1.9982E-13              ZZ=  1.6210E+00
--
 
 
  Input file to MOLDEN was generated!
 
 ###############################################################################
 ###############################################################################
 ###                                                                         ###
 ###                                                                         ###
 ###    RunFile label nBas                                                   ###
 ###    was used       78 times                                              ###
 ###                                                                         ###
 ###                                                                         ###
 ###############################################################################
 ###############################################################################
--- Stop Module: scf at Mon May 12 21:11:55 2025 /rc=_RC_ALL_IS_WELL_ ---
*** files: ozone_112.75.LprOrb ozone_112.75.LoProp.molden ozone_112.75.scf.molden ozone_112.75.ScfOrb ozone_112.75.scf.h5 xmldump
    saved to directory /lustre/isaac/scratch/gjones39/scpfiles/ANO-RCC-VTZP/ozone_112.75
--- Module scf spent 2 seconds ---

>>> COPY /lustre/isaac/scratch/gjones39/scpfiles/ANO-RCC-VTZP/ozone_112.75/3252686/ozone_112.75.scf.h5 /lustre/isaac/scratch/gjones39/scpfiles/ANO-RCC-VTZP/ozone_112.75/

*** symbolic link created: INPORB -> ozone_112.75.ScfOrb
--- Start Module: rasscf at Mon May 12 21:11:55 2025 ---
 
()()()()()()()()()()()()()()()()()()()()()()()()()()()()()()()()()()()()()()()()()()()()()()()()()()

                                              &RASSCF

                                   only a single process is used
                       available to each process: 62 GB of memory, 1 thread?
()()()()()()()()()()()()()()()()()()()()()()()()()()()()()()()()()()()()()()()()()()()()()()()()()()
 
 
      Header of the ONEINT file:
      --------------------------
      
      Integrals generated by seward 4.2.0  , Mon May 12 21:11:44 2025
 
 
      OrdInt status: non-squared
 
 
      Cartesian coordinates in Angstrom:
      -----------------------------------------------------
      No.  Label        X            Y            Z        
      -----------------------------------------------------
       1   O1         0.70769900   1.06416500   0.00000000
       2   O2         0.00000000   0.00000000   0.00000000
       3   O3         0.70769900  -1.06416500   0.00000000
      -----------------------------------------------------
      Nuclear repulsion energy =   68.91315425
 
++    Wave function specifications:
      -----------------------------
 
      Number of closed shell electrons          12
      Number of electrons in active shells      12
      Max number of holes in RAS1 space          0
      Max nr of electrons in RAS3 space          0
      Number of inactive orbitals                6
      Number of active orbitals                  9
      Number of secondary orbitals              75
      Spin quantum number                      0.0
      State symmetry                             1
--
 
++    Orbital specifications:
      -----------------------
 
      Symmetry species                           1
                                                 a
      Frozen orbitals                            0
      Inactive orbitals                          6
      Active orbitals                            9
      RAS1 orbitals                              0
      RAS2 orbitals                              9
      RAS3 orbitals                              0
      Secondary orbitals                        75
      Deleted orbitals                           0
      Number of basis functions                 90
--
 
++    CI expansion specifications:
      ----------------------------
 
      Number of CSFs                          2520
      Number of determinants                  3570
      Number of root(s) required                 3
      Root chosen for geometry opt.              3
      CI roots used                              1     2     3
      weights                                0.333 0.333 0.333
      highest root included in the CI            3
      max. size of the explicit Hamiltonian    500
--
 
++    Optimization specifications:
      ----------------------------
 
      RASSCF algorithm: Conventional
      Maximum number of macro iterations       200
      Maximum number of SX iterations          100
      Threshold for RASSCF energy            0.100E-07
      Threshold for max MO rotation          0.100E+00
      Threshold for max BLB element          0.100E-03
      Level shift parameter                  0.500E+00
      Make Quasi-Newton update
--
 
      The MO-coefficients are taken from the file:
      /lustre/isaac/scratch/gjones39/scpfiles/ANO-RCC-VTZP/ozone_112.50/ozone_112.50.RasOrb                                           
      Title: RASSCF average (pseudo-natural) orbitals                                      
 
      Total molecular charge    0.00
 
      ************************************************************************************************************************
      *                                                                                                                      *
      *                                            Wave function control section                                             *
      *                                                                                                                      *
      ************************************************************************************************************************
 
 
                                         RASSCF iterations: Energy and convergence statistics
                                         ----------------------------------------------------
 
      Iter CI   SX   CI       RASSCF       Energy    max ROT     max BLB   max BLB  Level Ln srch  Step   QN   Walltime
          iter iter root      energy       change     param      element    value   shift minimum  type update hh:mm:ss
 Nr of preliminary CI iterations:   5
        1   1    7    0  -224.68182875    0.00E+00  -0.49E-03    7  75 1 -0.10E-02*  0.00   0.00    SX    NO    0:00:01
        2   1    6    0  -224.68183104   -0.23E-05*  0.18E-03    4  14 1  0.17E-03*  0.00   0.00    SX    NO    0:00:00
        3   2    5    0  -224.68183732   -0.63E-05* -0.55E-04   10  38 1  0.63E-04   0.00   0.00    SX    NO    0:00:00
        4   6    5    0  -224.68183943   -0.21E-05* -0.11E-03   12  29 1 -0.14E-03*  0.00   0.00    SX    NO    0:00:00
        5   3    5    0  -224.68183955   -0.11E-06* -0.81E-04    6  26 1  0.67E-04   0.00   1.23    QN   YES    0:00:00
        6   4    5    0  -224.68183957   -0.25E-07*  0.14E-04   12  29 1  0.18E-04   0.00   0.90    QN   YES    0:00:00
        7   1    5    0  -224.68183957   -0.19E-08   0.25E-04    6  22 1  0.27E-04   0.00   0.98    QN   YES    0:00:00
      Convergence after  7 iterations
 
  Dmat in MO in SXCTL bf call to SXHAM                                                                                    
  mat. size =     9x    9
 
        1.9621704123630659
        0.0000000000001094      1.9518604432400335
        0.0000000000000005      0.0000000211326729      1.9749127203817505
        0.0006216915507272     -0.0000000000002366     -0.0000000000000304      1.6730197272865930
       -0.0000000000002021     -0.0005352642873082     -0.0000003708889127      0.0000000000000656      1.6440067698889775
       -0.0000000212405891     -0.0000000000000021     -0.0000000000003335     -0.0000000876381490     -0.0000000000000171
        1.7783006752557726
        0.0000000000000081     -0.0000000178018869      0.0002939726155780      0.0000000000000318      0.0000001283138917
       -0.0000000000009600      0.9117326344137564
        0.0010467487386828     -0.0000000000019226     -0.0000000000000046      0.0028036018217565     -0.0000000000005161
        0.0000000382166705     -0.0000000000000151      0.0558813697538677
       -0.0000000000014518     -0.0000857334100555      0.0000000042510510     -0.0000000000007728     -0.0019524974436236
        0.0000000000000330      0.0000000015109954     -0.0000000000001849      0.0481152474161854
        8   1    5    0  -224.68183958   -0.14E-08   0.25E-04    6  50 1  0.89E-05   0.00   0.98    QN   YES    0:00:00
 
      ************************************************************************************************************************
                                                      Wave function printout:
                       occupation of active orbitals, and spin coupling of open shells (u,d: Spin up or down)
      ************************************************************************************************************************
 
      Note: transformation to natural orbitals
      has been made, which may change the order of the CSFs.
 
      printout of CI-coefficients larger than  0.05 for root  1
      energy=    -224.736680
      conf/sym  111111111     Coeff  Weight
             1  222222000   0.89523 0.80143
             4  222220200  -0.33232 0.11044
            10  2222udud0  -0.05039 0.00254
            72  222u2du0d   0.05471 0.00299
            74  222u2ud0d   0.05323 0.00283
           126  22u222d00   0.06758 0.00457
           205  2u222dud0  -0.06395 0.00409
           207  2u222udd0  -0.05539 0.00307
           551  220222200  -0.06925 0.00480
           611  2ud222u0d  -0.06503 0.00423
           652  u2d222ud0   0.05997 0.00360
           731  202222002  -0.06507 0.00423
           764  ud22220ud   0.07406 0.00549
           805  022222020  -0.06418 0.00412
           992  2uu222d0d  -0.06716 0.00451
          1031  u2u222dd0   0.05514 0.00304
 
      printout of CI-coefficients larger than  0.05 for root  2
      energy=    -224.663281
      conf/sym  111111111     Coeff  Weight
             3  2222u2d00   0.87502 0.76565
            52  222u2d200  -0.40019 0.16015
           128  22u2d2200  -0.05777 0.00334
           277  u2222d200   0.05591 0.00313
           361  222022u0d   0.05659 0.00320
           613  2ud2u220d  -0.05037 0.00254
           654  u2d2u22d0   0.05375 0.00289
           733  2022u2d02  -0.06709 0.00450
           766  ud22u2dud   0.07789 0.00607
           807  0222u2d20  -0.06889 0.00475
           994  2uu2d220d  -0.06029 0.00363
          1033  u2u2d22d0   0.05270 0.00278
 
      printout of CI-coefficients larger than  0.05 for root  3
      energy=    -224.645558
      conf/sym  111111111     Coeff  Weight
             5  2222ud200  -0.45515 0.20717
            51  222u22d00   0.85121 0.72455
           202  2u222d200   0.06282 0.00395
          1285  2udu2220d  -0.05069 0.00257
          1381  202u22d02  -0.06501 0.00423
          1406  ud2u22dud   0.07678 0.00590
          1442  022u22d20  -0.06656 0.00443
          1485  2uud2220d  -0.05880 0.00346
          1521  u2ud222d0   0.05130 0.00263
 
      Natural orbitals and occupation numbers for root  1
      sym 1:   1.955956   1.948191   1.963588   1.992519   1.992253   1.739216   0.296992   0.059542   0.051743
 
      Natural orbitals and occupation numbers for root  2
      sym 1:   1.959965   1.955164   1.983785   1.803270   1.182984   1.823038   1.190785   0.054057   0.046952
 
      Natural orbitals and occupation numbers for root  3
      sym 1:   1.964887   1.953023   1.984765   1.229901   1.756980   1.772648   1.240021   0.053119   0.044657
 
      ************************************************************************************************************************
      *                                                                                                                      *
      *                                                    Final results                                                     *
      *                                                                                                                      *
      ************************************************************************************************************************
 
 
++    Wave function specifications:
      -----------------------------
 
      Number of closed shell electrons          12
      Number of electrons in active shells      12
      Max number of holes in RAS1 space          0
      Max nr of electrons in RAS3 space          0
      Number of inactive orbitals                6
      Number of active orbitals                  9
      Number of secondary orbitals              75
      Spin quantum number                      0.0
      State symmetry                             1
--
 
++    Orbital specifications:
      -----------------------
 
      Symmetry species                           1
                                                 a
      Frozen orbitals                            0
      Inactive orbitals                          6
      Active orbitals                            9
      RAS1 orbitals                              0
      RAS2 orbitals                              9
      RAS3 orbitals                              0
      Secondary orbitals                        75
      Deleted orbitals                           0
      Number of basis functions                 90
--
 
++    CI expansion specifications:
      ----------------------------
 
      Number of CSFs                          2520
      Number of determinants                  3570
      Number of root(s) required                 3
      CI roots used                              1     2     3
      weights                                0.333 0.333 0.333
      highest root included in the CI            3
      Root passed to geometry opt.               3
--
 
++    Final optimization conditions:
      ------------------------------
 
      Average CI energy                            -224.68183958
      RASSCF energy for state  3                   -224.64555785
      Super-CI energy                                -0.00000000
      RASSCF energy change                            0.00000000
      Max change in MO coefficients              -0.184E-04
      Max non-diagonal density matrix element     0.246E-04
      Maximum BLB matrix element                  0.887E-05
      (orbital pair   6,  50 in symmetry   1)
      Norm of electronic gradient            0.654E-01
--
 
 
      Final state energy(ies):
      ------------------------
 
::    RASSCF root number  1 Total energy:   -224.73667987
::    RASSCF root number  2 Total energy:   -224.66328101
::    RASSCF root number  3 Total energy:   -224.64555785
 
++    Molecular orbitals:
      -------------------
 
      Pseudonatural active orbitals and approximate occupation numbers
 
 
 
 
      Molecular orbitals for symmetry species 1: a  
 
 
      Orbital                1         2         3         4         5         6         7         8         9        10
      Energy          -20.7997  -20.6965  -20.6964   -1.5129   -1.2894   -1.0644    0.0000    0.0000    0.0000    0.0000
      Occ. No.          2.0000    2.0000    2.0000    2.0000    2.0000    2.0000    1.9622    1.9519    1.9749    1.6730
 
    1 O1     1s         0.0036   -0.7065    0.7064   -0.0058   -0.0004    0.0102   -0.0179   -0.0242    0.0000    0.0005
    2 O1     2s         0.0043    0.0043   -0.0047    0.4762   -0.7088    0.5408   -0.1048   -0.1053   -0.0000   -0.0392
    3 O1     3s         0.0024    0.0033   -0.0034    0.0036   -0.0079    0.0177   -0.0331   -0.0549    0.0000    0.0100
    4 O1     4s         0.0004    0.0006   -0.0005    0.0016   -0.0009    0.0019   -0.0056   -0.0113    0.0000    0.0033
    5 O1     2px       -0.0012   -0.0012    0.0012   -0.0166   -0.0589    0.0831   -0.0519   -0.2931   -0.0000    0.6647
    6 O1     3px       -0.0008   -0.0013    0.0012    0.0120    0.0050   -0.0202    0.0053    0.0341   -0.0000   -0.0005
    7 O1     4px        0.0002    0.0007   -0.0008    0.0015    0.0009    0.0007    0.0007    0.0015    0.0000   -0.0072
    8 O1     2py       -0.0025   -0.0016    0.0018    0.0619   -0.0805    0.0489   -0.3734   -0.3236    0.0000   -0.1877
    9 O1     3py       -0.0014   -0.0019    0.0020   -0.0023    0.0030   -0.0112    0.0440    0.0405   -0.0000   -0.0081
   10 O1     4py        0.0006    0.0011   -0.0012   -0.0017   -0.0016    0.0024    0.0030    0.0035   -0.0000    0.0017
   11 O1     2pz       -0.0000   -0.0000   -0.0000   -0.0000   -0.0000   -0.0000   -0.0000    0.0000    0.3344    0.0000
   12 O1     3pz        0.0000    0.0000    0.0000   -0.0000    0.0000   -0.0000   -0.0000   -0.0000   -0.0269   -0.0000
   13 O1     4pz       -0.0000    0.0000   -0.0000    0.0000    0.0000    0.0000    0.0000   -0.0000   -0.0048   -0.0000
   14 O1     3d2-       0.0005    0.0009   -0.0009    0.0094   -0.0015   -0.0111    0.0168    0.0304   -0.0000   -0.0125
   15 O1     4d2-       0.0002    0.0005   -0.0005    0.0011   -0.0006   -0.0008    0.0014    0.0025    0.0000   -0.0013
   16 O1     3d1-       0.0000    0.0000   -0.0000    0.0000    0.0000    0.0000    0.0000   -0.0000   -0.0227   -0.0000
   17 O1     4d1-      -0.0000    0.0000    0.0000    0.0000   -0.0000    0.0000    0.0000   -0.0000   -0.0026   -0.0000
   18 O1     3d0       -0.0004   -0.0005    0.0005   -0.0043    0.0014    0.0038   -0.0140   -0.0168    0.0000    0.0025
   19 O1     4d0       -0.0002   -0.0004    0.0003   -0.0001    0.0007   -0.0001   -0.0004   -0.0012    0.0000   -0.0005
   20 O1     3d1+      -0.0000    0.0000   -0.0000   -0.0000    0.0000    0.0000    0.0000   -0.0000   -0.0144   -0.0000
   21 O1     4d1+      -0.0000   -0.0000    0.0000   -0.0000    0.0000    0.0000    0.0000   -0.0000   -0.0019   -0.0000
   22 O1     3d2+      -0.0005   -0.0004    0.0004    0.0016    0.0011   -0.0024   -0.0247   -0.0049    0.0000   -0.0080
   23 O1     4d2+      -0.0003   -0.0002    0.0002    0.0001    0.0006   -0.0001   -0.0018   -0.0002    0.0000   -0.0019
   24 O1     4f3-       0.0001   -0.0000    0.0000   -0.0017    0.0004    0.0023    0.0036   -0.0034   -0.0000    0.0030
   25 O1     4f2-       0.0000   -0.0000    0.0000    0.0000   -0.0000   -0.0000   -0.0000    0.0000    0.0053    0.0000
   26 O1     4f1-       0.0001    0.0001   -0.0001    0.0016   -0.0011   -0.0004    0.0041    0.0040   -0.0000   -0.0006
   27 O1     4f0       -0.0000    0.0000   -0.0000    0.0000    0.0000    0.0000    0.0000   -0.0000   -0.0044   -0.0000
   28 O1     4f1+       0.0000    0.0001   -0.0001    0.0014   -0.0008   -0.0010    0.0014    0.0032   -0.0000   -0.0012
   29 O1     4f2+       0.0000   -0.0000    0.0000    0.0000   -0.0000    0.0000    0.0000   -0.0000   -0.0026   -0.0000
   30 O1     4f3+       0.0001    0.0002   -0.0002    0.0026   -0.0016   -0.0015    0.0065    0.0065   -0.0000   -0.0014
   31 O2     1s         0.9988    0.0000   -0.0028   -0.0184    0.0000   -0.0189   -0.0250    0.0000   -0.0000    0.0217
   32 O2     2s        -0.0080   -0.0000    0.0097    0.5547    0.0000   -0.7595    0.1545    0.0000   -0.0000    0.2277
   33 O2     3s        -0.0059   -0.0000    0.0055   -0.0348    0.0000   -0.0324   -0.0577    0.0000   -0.0000    0.0584
   34 O2     4s        -0.0010   -0.0000    0.0009   -0.0063    0.0000   -0.0059   -0.0114   -0.0000   -0.0000    0.0129
   35 O2     2px       -0.0023   -0.0000    0.0038   -0.2025   -0.0000    0.3004    0.6511   -0.0000   -0.0000   -0.2862
   36 O2     3px       -0.0028   -0.0000    0.0021   -0.0136    0.0000   -0.0288   -0.0641   -0.0000   -0.0000   -0.0177
   37 O2     4px        0.0020    0.0000   -0.0007    0.0023   -0.0000   -0.0003   -0.0086   -0.0000    0.0000   -0.0025
   38 O2     2py        0.0000   -0.0050   -0.0000   -0.0000   -0.0319    0.0000    0.0000    0.6200   -0.0000   -0.0000
   39 O2     3py        0.0000   -0.0028   -0.0000   -0.0000    0.0311    0.0000   -0.0000   -0.0757    0.0000   -0.0000
   40 O2     4py       -0.0000    0.0011    0.0000   -0.0000   -0.0052   -0.0000   -0.0000   -0.0046   -0.0000    0.0000
   41 O2     2pz        0.0000   -0.0000    0.0000   -0.0000   -0.0000   -0.0000   -0.0000    0.0000    0.7422    0.0000
   42 O2     3pz        0.0000    0.0000    0.0000    0.0000   -0.0000    0.0000   -0.0000   -0.0000   -0.0488    0.0000
   43 O2     4pz       -0.0000   -0.0000   -0.0000    0.0000    0.0000   -0.0000    0.0000   -0.0000   -0.0125   -0.0000
   44 O2     3d2-       0.0000   -0.0014   -0.0000   -0.0000   -0.0202    0.0000    0.0000    0.0487   -0.0000   -0.0000
   45 O2     4d2-       0.0000   -0.0006   -0.0000   -0.0000   -0.0018    0.0000    0.0000    0.0044   -0.0000   -0.0000
   46 O2     3d1-      -0.0000    0.0000   -0.0000    0.0000    0.0000   -0.0000   -0.0000   -0.0000    0.0000    0.0000
   47 O2     4d1-       0.0000    0.0000   -0.0000    0.0000    0.0000    0.0000   -0.0000   -0.0000    0.0000    0.0000
   48 O2     3d0        0.0010    0.0000   -0.0010   -0.0054   -0.0000   -0.0104   -0.0244    0.0000    0.0000    0.0153
   49 O2     4d0        0.0006    0.0000   -0.0005    0.0009   -0.0000   -0.0010   -0.0013    0.0000   -0.0000    0.0017
   50 O2     3d1+       0.0000    0.0000    0.0000   -0.0000    0.0000    0.0000    0.0000    0.0000    0.0300    0.0000
   51 O2     4d1+      -0.0000    0.0000    0.0000   -0.0000    0.0000   -0.0000    0.0000    0.0000    0.0035    0.0000
   52 O2     3d2+       0.0003    0.0000   -0.0006   -0.0133   -0.0000    0.0052    0.0146   -0.0000   -0.0000    0.0390
   53 O2     4d2+       0.0001    0.0000   -0.0003   -0.0012   -0.0000    0.0008    0.0021   -0.0000    0.0000    0.0070
   54 O2     4f3-       0.0000   -0.0000   -0.0000   -0.0000   -0.0014    0.0000    0.0000   -0.0010   -0.0000   -0.0000
   55 O2     4f2-      -0.0000    0.0000   -0.0000   -0.0000   -0.0000   -0.0000   -0.0000   -0.0000    0.0000    0.0000
   56 O2     4f1-      -0.0000    0.0001    0.0000    0.0000    0.0031    0.0000   -0.0000   -0.0078    0.0000    0.0000
   57 O2     4f0       -0.0000    0.0000   -0.0000    0.0000    0.0000    0.0000   -0.0000   -0.0000   -0.0080   -0.0000
   58 O2     4f1+       0.0002    0.0000   -0.0001   -0.0018   -0.0000   -0.0016   -0.0061    0.0000   -0.0000    0.0004
   59 O2     4f2+      -0.0000    0.0000    0.0000    0.0000    0.0000    0.0000   -0.0000   -0.0000   -0.0034    0.0000
   60 O2     4f3+       0.0002    0.0000   -0.0002   -0.0056   -0.0000   -0.0006   -0.0070   -0.0000    0.0000    0.0066
   61 O3     1s         0.0036    0.7065    0.7064   -0.0058    0.0004    0.0102   -0.0179    0.0242   -0.0000    0.0005
   62 O3     2s         0.0043   -0.0043   -0.0047    0.4762    0.7088    0.5408   -0.1048    0.1053    0.0000   -0.0392
   63 O3     3s         0.0024   -0.0033   -0.0034    0.0036    0.0079    0.0177   -0.0331    0.0549   -0.0000    0.0100
   64 O3     4s         0.0004   -0.0006   -0.0005    0.0016    0.0009    0.0019   -0.0056    0.0113   -0.0000    0.0033
   65 O3     2px       -0.0012    0.0012    0.0012   -0.0166    0.0589    0.0831   -0.0519    0.2931    0.0000    0.6647
   66 O3     3px       -0.0008    0.0013    0.0012    0.0120   -0.0050   -0.0202    0.0053   -0.0341    0.0000   -0.0005
   67 O3     4px        0.0002   -0.0007   -0.0008    0.0015   -0.0009    0.0007    0.0007   -0.0015   -0.0000   -0.0072
   68 O3     2py        0.0025   -0.0016   -0.0018   -0.0619   -0.0805   -0.0489    0.3734   -0.3236    0.0000    0.1877
   69 O3     3py        0.0014   -0.0019   -0.0020    0.0023    0.0030    0.0112   -0.0440    0.0405   -0.0000    0.0081
   70 O3     4py       -0.0006    0.0011    0.0012    0.0017   -0.0016   -0.0024   -0.0030    0.0035   -0.0000   -0.0017
   71 O3     2pz        0.0000   -0.0000    0.0000    0.0000   -0.0000    0.0000    0.0000    0.0000    0.3344   -0.0000
   72 O3     3pz       -0.0000    0.0000   -0.0000    0.0000    0.0000    0.0000    0.0000   -0.0000   -0.0269    0.0000
   73 O3     4pz        0.0000    0.0000    0.0000   -0.0000    0.0000   -0.0000   -0.0000   -0.0000   -0.0048    0.0000
   74 O3     3d2-      -0.0005    0.0009    0.0009   -0.0094   -0.0015    0.0111   -0.0168    0.0304   -0.0000    0.0125
   75 O3     4d2-      -0.0002    0.0005    0.0005   -0.0011   -0.0006    0.0008   -0.0014    0.0025    0.0000    0.0013
   76 O3     3d1-       0.0000   -0.0000   -0.0000    0.0000   -0.0000    0.0000    0.0000    0.0000    0.0227   -0.0000
   77 O3     4d1-      -0.0000   -0.0000    0.0000    0.0000    0.0000    0.0000    0.0000    0.0000    0.0026   -0.0000
   78 O3     3d0       -0.0004    0.0005    0.0005   -0.0043   -0.0014    0.0038   -0.0140    0.0168   -0.0000    0.0025
   79 O3     4d0       -0.0002    0.0004    0.0003   -0.0001   -0.0007   -0.0001   -0.0004    0.0012   -0.0000   -0.0005
   80 O3     3d1+       0.0000    0.0000    0.0000    0.0000    0.0000   -0.0000   -0.0000   -0.0000   -0.0144    0.0000
   81 O3     4d1+       0.0000   -0.0000   -0.0000    0.0000    0.0000   -0.0000   -0.0000   -0.0000   -0.0019    0.0000
   82 O3     3d2+      -0.0005    0.0004    0.0004    0.0016   -0.0011   -0.0024   -0.0247    0.0049   -0.0000   -0.0080
   83 O3     4d2+      -0.0003    0.0002    0.0002    0.0001   -0.0006   -0.0001   -0.0018    0.0002   -0.0000   -0.0019
   84 O3     4f3-      -0.0001   -0.0000   -0.0000    0.0017    0.0004   -0.0023   -0.0036   -0.0034   -0.0000   -0.0030
   85 O3     4f2-       0.0000    0.0000    0.0000    0.0000    0.0000   -0.0000   -0.0000   -0.0000   -0.0053    0.0000
   86 O3     4f1-      -0.0001    0.0001    0.0001   -0.0016   -0.0011    0.0004   -0.0041    0.0040   -0.0000    0.0006
   87 O3     4f0        0.0000    0.0000    0.0000   -0.0000    0.0000   -0.0000   -0.0000   -0.0000   -0.0044    0.0000
   88 O3     4f1+       0.0000   -0.0001   -0.0001    0.0014    0.0008   -0.0010    0.0014   -0.0032    0.0000   -0.0012
   89 O3     4f2+      -0.0000   -0.0000   -0.0000   -0.0000   -0.0000   -0.0000   -0.0000   -0.0000   -0.0026    0.0000
   90 O3     4f3+       0.0001   -0.0002   -0.0002    0.0026    0.0016   -0.0015    0.0065   -0.0065    0.0000   -0.0014
 
 
      Orbital               11        12        13        14        15        16        17        18        19        20
      Energy            0.0000    0.0000    0.0000    0.0000    0.0000    0.1911    0.1989    0.2382    0.3361    0.3537
      Occ. No.          1.6440    1.7783    0.9117    0.0559    0.0481    0.0000    0.0000    0.0000    0.0000    0.0000
 
    1 O1     1s         0.0007    0.0000    0.0000   -0.0323   -0.0403   -0.1857   -0.1472   -0.0000    0.0658   -0.0069
    2 O1     2s        -0.0367   -0.0000   -0.0000   -0.3682   -0.4177   -1.3507   -1.0150   -0.0000    0.4557    0.0273
    3 O1     3s         0.0051    0.0000    0.0000   -0.0549   -0.0810   -0.8321   -0.6503   -0.0000    0.2890    0.0497
    4 O1     4s         0.0016    0.0000    0.0000   -0.0058   -0.0122   -0.1901   -0.1396   -0.0000    0.0546    0.0184
    5 O1     2px       -0.5338    0.0000   -0.0000    0.2712    0.4504    0.4013    0.2027   -0.0000   -0.2146   -0.2093
    6 O1     3px       -0.0097    0.0000    0.0000    0.0045   -0.0743    0.4375    0.4274    0.0000    0.1244   -0.8206
    7 O1     4px        0.0048   -0.0000    0.0000   -0.0073    0.0017    0.0383    0.1044    0.0000    0.1399   -0.3187
    8 O1     2py        0.5135   -0.0000    0.0000    0.6353    0.4909    0.4170    0.5542    0.0000   -0.4317   -0.2445
    9 O1     3py        0.0023   -0.0000   -0.0000   -0.0803   -0.0065    0.7224    0.5825    0.0000   -0.9338   -0.2949
   10 O1     4py       -0.0049    0.0000   -0.0000   -0.0051   -0.0122    0.1372    0.0331    0.0000   -0.2723   -0.0673
   11 O1     2pz       -0.0000   -0.7132    0.6507    0.0000   -0.0000    0.0000    0.0000   -0.0747    0.0000    0.0000
   12 O1     3pz        0.0000   -0.0030    0.0094   -0.0000    0.0000   -0.0000    0.0000    0.3593   -0.0000    0.0000
   13 O1     4pz        0.0000    0.0086   -0.0046   -0.0000   -0.0000   -0.0000    0.0000    0.1985   -0.0000   -0.0000
   14 O1     3d2-       0.0015   -0.0000    0.0000   -0.0228   -0.0125   -0.0983   -0.0746   -0.0000    0.0679    0.0265
   15 O1     4d2-       0.0009   -0.0000    0.0000   -0.0079   -0.0068   -0.0583   -0.0472   -0.0000    0.0459    0.0299
   16 O1     3d1-       0.0000    0.0147    0.0034    0.0000   -0.0000    0.0000   -0.0000    0.0141   -0.0000   -0.0000
   17 O1     4d1-       0.0000    0.0027    0.0005   -0.0000   -0.0000    0.0000   -0.0000    0.0057   -0.0000   -0.0000
   18 O1     3d0        0.0022    0.0000    0.0000    0.0098    0.0131    0.0667    0.0557    0.0000   -0.0251   -0.0258
   19 O1     4d0        0.0000   -0.0000    0.0000    0.0019    0.0063    0.0422    0.0331    0.0000   -0.0159   -0.0226
   20 O1     3d1+       0.0000    0.0098    0.0032    0.0000    0.0000   -0.0000   -0.0000    0.0043   -0.0000    0.0000
   21 O1     4d1+       0.0000    0.0014    0.0004    0.0000    0.0000   -0.0000   -0.0000   -0.0006   -0.0000    0.0000
   22 O1     3d2+       0.0172   -0.0000    0.0000    0.0097    0.0205    0.0354    0.0660    0.0000   -0.0315   -0.0053
   23 O1     4d2+       0.0031   -0.0000    0.0000    0.0045    0.0071    0.0225    0.0390    0.0000   -0.0252   -0.0044
   24 O1     4f3-      -0.0039    0.0000   -0.0000    0.0007   -0.0026    0.0014   -0.0005    0.0000    0.0055   -0.0067
   25 O1     4f2-      -0.0000   -0.0032   -0.0006   -0.0000   -0.0000   -0.0000    0.0000    0.0031    0.0000   -0.0000
   26 O1     4f1-      -0.0013   -0.0000   -0.0000   -0.0024   -0.0041   -0.0074   -0.0046   -0.0000    0.0052    0.0071
   27 O1     4f0        0.0000    0.0023    0.0016    0.0000    0.0000    0.0000   -0.0000   -0.0014    0.0000   -0.0000
   28 O1     4f1+       0.0000   -0.0000    0.0000   -0.0021   -0.0015   -0.0033   -0.0037   -0.0000    0.0029    0.0068
   29 O1     4f2+       0.0000    0.0013   -0.0001    0.0000    0.0000    0.0000   -0.0000   -0.0003    0.0000    0.0000
   30 O1     4f3+      -0.0020   -0.0000   -0.0000   -0.0036   -0.0047   -0.0095   -0.0059   -0.0000    0.0129    0.0102
   31 O2     1s        -0.0000    0.0000    0.0000    0.0839    0.0000   -0.0000    0.3030   -0.0000   -0.2158   -0.0000
   32 O2     2s        -0.0000    0.0000    0.0000    0.8405    0.0000   -0.0000    2.1181    0.0000   -1.4410   -0.0000
   33 O2     3s        -0.0000    0.0000    0.0000    0.0921    0.0000   -0.0000    1.3215    0.0000   -0.8764   -0.0000
   34 O2     4s        -0.0000    0.0000   -0.0000    0.0297    0.0000   -0.0000    0.2848    0.0000   -0.1800   -0.0000
   35 O2     2px       -0.0000   -0.0000    0.0000    0.7235    0.0000   -0.0000    0.6616    0.0000   -0.4966   -0.0000
   36 O2     3px       -0.0000   -0.0000    0.0000   -0.1424   -0.0000   -0.0000    0.9946    0.0000   -0.4813   -0.0000
   37 O2     4px        0.0000   -0.0000   -0.0000    0.0254    0.0000   -0.0000    0.1708    0.0000    0.0153    0.0000
   38 O2     2py       -0.0363   -0.0000   -0.0000   -0.0000    1.0129    1.0870    0.0000    0.0000   -0.0000   -0.0309
   39 O2     3py       -0.0162   -0.0000   -0.0000    0.0000   -0.1219    1.2594    0.0000    0.0000    0.0000    0.4026
   40 O2     4py       -0.0033    0.0000   -0.0000   -0.0000    0.0057    0.1366    0.0000    0.0000    0.0000    0.2337
   41 O2     2pz       -0.0000    0.0000   -0.7275    0.0000   -0.0000    0.0000    0.0000   -0.0812   -0.0000   -0.0000
   42 O2     3pz        0.0000   -0.0000   -0.0269   -0.0000   -0.0000   -0.0000    0.0000    0.3076   -0.0000   -0.0000
[...]

>>> EXPORT i = B

>>> EXPORT j = P

>>> IF (-FILE GMJ_e2_${i}_${j}_${k}_.csv)

>>> COPY /lustre/isaac/scratch/gjones39/scpfiles/ANO-RCC-VTZP/ozone_112.75/3252686/GMJ_RHS_B_P_3_.csv /lustre/isaac/scratch/gjones39/scpfiles/ANO-RCC-VTZP/ozone_112.75/GMJ_RHS_B_P_3_.csv

>>> COPY /lustre/isaac/scratch/gjones39/scpfiles/ANO-RCC-VTZP/ozone_112.75/3252686/GMJ_IVECW_B_P_3_.csv /lustre/isaac/scratch/gjones39/scpfiles/ANO-RCC-VTZP/ozone_112.75/GMJ_IVECW_B_P_3_.csv

>>> COPY /lustre/isaac/scratch/gjones39/scpfiles/ANO-RCC-VTZP/ozone_112.75/3252686/GMJ_IVECX_B_P_3_.csv /lustre/isaac/scratch/gjones39/scpfiles/ANO-RCC-VTZP/ozone_112.75/GMJ_IVECX_B_P_3_.csv

>>> COPY /lustre/isaac/scratch/gjones39/scpfiles/ANO-RCC-VTZP/ozone_112.75/3252686/GMJ_IVECC2_B_P_3_.csv /lustre/isaac/scratch/gjones39/scpfiles/ANO-RCC-VTZP/ozone_112.75/GMJ_IVECC2_B_P_3_.csv

>>> COPY /lustre/isaac/scratch/gjones39/scpfiles/ANO-RCC-VTZP/ozone_112.75/3252686/GMJ_e2_B_P_3_.csv /lustre/isaac/scratch/gjones39/scpfiles/ANO-RCC-VTZP/ozone_112.75/GMJ_e2_B_P_3_.csv

>>> END FOREACH

>>> EXPORT j = M

>>> IF (-FILE GMJ_e2_${i}_${j}_${k}_.csv)

>>> COPY /lustre/isaac/scratch/gjones39/scpfiles/ANO-RCC-VTZP/ozone_112.75/3252686/GMJ_RHS_B_M_3_.csv /lustre/isaac/scratch/gjones39/scpfiles/ANO-RCC-VTZP/ozone_112.75/GMJ_RHS_B_M_3_.csv

>>> COPY /lustre/isaac/scratch/gjones39/scpfiles/ANO-RCC-VTZP/ozone_112.75/3252686/GMJ_IVECW_B_M_3_.csv /lustre/isaac/scratch/gjones39/scpfiles/ANO-RCC-VTZP/ozone_112.75/GMJ_IVECW_B_M_3_.csv

>>> COPY /lustre/isaac/scratch/gjones39/scpfiles/ANO-RCC-VTZP/ozone_112.75/3252686/GMJ_IVECX_B_M_3_.csv /lustre/isaac/scratch/gjones39/scpfiles/ANO-RCC-VTZP/ozone_112.75/GMJ_IVECX_B_M_3_.csv

>>> COPY /lustre/isaac/scratch/gjones39/scpfiles/ANO-RCC-VTZP/ozone_112.75/3252686/GMJ_IVECC2_B_M_3_.csv /lustre/isaac/scratch/gjones39/scpfiles/ANO-RCC-VTZP/ozone_112.75/GMJ_IVECC2_B_M_3_.csv

>>> COPY /lustre/isaac/scratch/gjones39/scpfiles/ANO-RCC-VTZP/ozone_112.75/3252686/GMJ_e2_B_M_3_.csv /lustre/isaac/scratch/gjones39/scpfiles/ANO-RCC-VTZP/ozone_112.75/GMJ_e2_B_M_3_.csv

>>> END FOREACH

>>> END FOREACH

>>> EXPORT i = E

>>> EXPORT j = P

>>> IF (-FILE GMJ_e2_${i}_${j}_${k}_.csv)

>>> COPY /lustre/isaac/scratch/gjones39/scpfiles/ANO-RCC-VTZP/ozone_112.75/3252686/GMJ_RHS_E_P_3_.csv /lustre/isaac/scratch/gjones39/scpfiles/ANO-RCC-VTZP/ozone_112.75/GMJ_RHS_E_P_3_.csv

>>> COPY /lustre/isaac/scratch/gjones39/scpfiles/ANO-RCC-VTZP/ozone_112.75/3252686/GMJ_IVECW_E_P_3_.csv /lustre/isaac/scratch/gjones39/scpfiles/ANO-RCC-VTZP/ozone_112.75/GMJ_IVECW_E_P_3_.csv

>>> COPY /lustre/isaac/scratch/gjones39/scpfiles/ANO-RCC-VTZP/ozone_112.75/3252686/GMJ_IVECX_E_P_3_.csv /lustre/isaac/scratch/gjones39/scpfiles/ANO-RCC-VTZP/ozone_112.75/GMJ_IVECX_E_P_3_.csv

>>> COPY /lustre/isaac/scratch/gjones39/scpfiles/ANO-RCC-VTZP/ozone_112.75/3252686/GMJ_IVECC2_E_P_3_.csv /lustre/isaac/scratch/gjones39/scpfiles/ANO-RCC-VTZP/ozone_112.75/GMJ_IVECC2_E_P_3_.csv

>>> COPY /lustre/isaac/scratch/gjones39/scpfiles/ANO-RCC-VTZP/ozone_112.75/3252686/GMJ_e2_E_P_3_.csv /lustre/isaac/scratch/gjones39/scpfiles/ANO-RCC-VTZP/ozone_112.75/GMJ_e2_E_P_3_.csv

>>> END FOREACH

>>> EXPORT j = M

>>> IF (-FILE GMJ_e2_${i}_${j}_${k}_.csv)

>>> COPY /lustre/isaac/scratch/gjones39/scpfiles/ANO-RCC-VTZP/ozone_112.75/3252686/GMJ_RHS_E_M_3_.csv /lustre/isaac/scratch/gjones39/scpfiles/ANO-RCC-VTZP/ozone_112.75/GMJ_RHS_E_M_3_.csv

>>> COPY /lustre/isaac/scratch/gjones39/scpfiles/ANO-RCC-VTZP/ozone_112.75/3252686/GMJ_IVECW_E_M_3_.csv /lustre/isaac/scratch/gjones39/scpfiles/ANO-RCC-VTZP/ozone_112.75/GMJ_IVECW_E_M_3_.csv

>>> COPY /lustre/isaac/scratch/gjones39/scpfiles/ANO-RCC-VTZP/ozone_112.75/3252686/GMJ_IVECX_E_M_3_.csv /lustre/isaac/scratch/gjones39/scpfiles/ANO-RCC-VTZP/ozone_112.75/GMJ_IVECX_E_M_3_.csv

>>> COPY /lustre/isaac/scratch/gjones39/scpfiles/ANO-RCC-VTZP/ozone_112.75/3252686/GMJ_IVECC2_E_M_3_.csv /lustre/isaac/scratch/gjones39/scpfiles/ANO-RCC-VTZP/ozone_112.75/GMJ_IVECC2_E_M_3_.csv

>>> COPY /lustre/isaac/scratch/gjones39/scpfiles/ANO-RCC-VTZP/ozone_112.75/3252686/GMJ_e2_E_M_3_.csv /lustre/isaac/scratch/gjones39/scpfiles/ANO-RCC-VTZP/ozone_112.75/GMJ_e2_E_M_3_.csv

>>> END FOREACH

>>> END FOREACH

>>> EXPORT i = F

>>> EXPORT j = P

>>> IF (-FILE GMJ_e2_${i}_${j}_${k}_.csv)

>>> COPY /lustre/isaac/scratch/gjones39/scpfiles/ANO-RCC-VTZP/ozone_112.75/3252686/GMJ_RHS_F_P_3_.csv /lustre/isaac/scratch/gjones39/scpfiles/ANO-RCC-VTZP/ozone_112.75/GMJ_RHS_F_P_3_.csv

>>> COPY /lustre/isaac/scratch/gjones39/scpfiles/ANO-RCC-VTZP/ozone_112.75/3252686/GMJ_IVECW_F_P_3_.csv /lustre/isaac/scratch/gjones39/scpfiles/ANO-RCC-VTZP/ozone_112.75/GMJ_IVECW_F_P_3_.csv

>>> COPY /lustre/isaac/scratch/gjones39/scpfiles/ANO-RCC-VTZP/ozone_112.75/3252686/GMJ_IVECX_F_P_3_.csv /lustre/isaac/scratch/gjones39/scpfiles/ANO-RCC-VTZP/ozone_112.75/GMJ_IVECX_F_P_3_.csv

>>> COPY /lustre/isaac/scratch/gjones39/scpfiles/ANO-RCC-VTZP/ozone_112.75/3252686/GMJ_IVECC2_F_P_3_.csv /lustre/isaac/scratch/gjones39/scpfiles/ANO-RCC-VTZP/ozone_112.75/GMJ_IVECC2_F_P_3_.csv

>>> COPY /lustre/isaac/scratch/gjones39/scpfiles/ANO-RCC-VTZP/ozone_112.75/3252686/GMJ_e2_F_P_3_.csv /lustre/isaac/scratch/gjones39/scpfiles/ANO-RCC-VTZP/ozone_112.75/GMJ_e2_F_P_3_.csv

>>> END FOREACH

>>> EXPORT j = M

>>> IF (-FILE GMJ_e2_${i}_${j}_${k}_.csv)

>>> COPY /lustre/isaac/scratch/gjones39/scpfiles/ANO-RCC-VTZP/ozone_112.75/3252686/GMJ_RHS_F_M_3_.csv /lustre/isaac/scratch/gjones39/scpfiles/ANO-RCC-VTZP/ozone_112.75/GMJ_RHS_F_M_3_.csv

>>> COPY /lustre/isaac/scratch/gjones39/scpfiles/ANO-RCC-VTZP/ozone_112.75/3252686/GMJ_IVECW_F_M_3_.csv /lustre/isaac/scratch/gjones39/scpfiles/ANO-RCC-VTZP/ozone_112.75/GMJ_IVECW_F_M_3_.csv

>>> COPY /lustre/isaac/scratch/gjones39/scpfiles/ANO-RCC-VTZP/ozone_112.75/3252686/GMJ_IVECX_F_M_3_.csv /lustre/isaac/scratch/gjones39/scpfiles/ANO-RCC-VTZP/ozone_112.75/GMJ_IVECX_F_M_3_.csv

>>> COPY /lustre/isaac/scratch/gjones39/scpfiles/ANO-RCC-VTZP/ozone_112.75/3252686/GMJ_IVECC2_F_M_3_.csv /lustre/isaac/scratch/gjones39/scpfiles/ANO-RCC-VTZP/ozone_112.75/GMJ_IVECC2_F_M_3_.csv

>>> COPY /lustre/isaac/scratch/gjones39/scpfiles/ANO-RCC-VTZP/ozone_112.75/3252686/GMJ_e2_F_M_3_.csv /lustre/isaac/scratch/gjones39/scpfiles/ANO-RCC-VTZP/ozone_112.75/GMJ_e2_F_M_3_.csv

>>> END FOREACH

>>> END FOREACH

>>> EXPORT i = G

>>> EXPORT j = P

>>> IF (-FILE GMJ_e2_${i}_${j}_${k}_.csv)

>>> COPY /lustre/isaac/scratch/gjones39/scpfiles/ANO-RCC-VTZP/ozone_112.75/3252686/GMJ_RHS_G_P_3_.csv /lustre/isaac/scratch/gjones39/scpfiles/ANO-RCC-VTZP/ozone_112.75/GMJ_RHS_G_P_3_.csv

>>> COPY /lustre/isaac/scratch/gjones39/scpfiles/ANO-RCC-VTZP/ozone_112.75/3252686/GMJ_IVECW_G_P_3_.csv /lustre/isaac/scratch/gjones39/scpfiles/ANO-RCC-VTZP/ozone_112.75/GMJ_IVECW_G_P_3_.csv

>>> COPY /lustre/isaac/scratch/gjones39/scpfiles/ANO-RCC-VTZP/ozone_112.75/3252686/GMJ_IVECX_G_P_3_.csv /lustre/isaac/scratch/gjones39/scpfiles/ANO-RCC-VTZP/ozone_112.75/GMJ_IVECX_G_P_3_.csv

>>> COPY /lustre/isaac/scratch/gjones39/scpfiles/ANO-RCC-VTZP/ozone_112.75/3252686/GMJ_IVECC2_G_P_3_.csv /lustre/isaac/scratch/gjones39/scpfiles/ANO-RCC-VTZP/ozone_112.75/GMJ_IVECC2_G_P_3_.csv

>>> COPY /lustre/isaac/scratch/gjones39/scpfiles/ANO-RCC-VTZP/ozone_112.75/3252686/GMJ_e2_G_P_3_.csv /lustre/isaac/scratch/gjones39/scpfiles/ANO-RCC-VTZP/ozone_112.75/GMJ_e2_G_P_3_.csv

>>> END FOREACH

>>> EXPORT j = M

>>> IF (-FILE GMJ_e2_${i}_${j}_${k}_.csv)

>>> COPY /lustre/isaac/scratch/gjones39/scpfiles/ANO-RCC-VTZP/ozone_112.75/3252686/GMJ_RHS_G_M_3_.csv /lustre/isaac/scratch/gjones39/scpfiles/ANO-RCC-VTZP/ozone_112.75/GMJ_RHS_G_M_3_.csv

>>> COPY /lustre/isaac/scratch/gjones39/scpfiles/ANO-RCC-VTZP/ozone_112.75/3252686/GMJ_IVECW_G_M_3_.csv /lustre/isaac/scratch/gjones39/scpfiles/ANO-RCC-VTZP/ozone_112.75/GMJ_IVECW_G_M_3_.csv

>>> COPY /lustre/isaac/scratch/gjones39/scpfiles/ANO-RCC-VTZP/ozone_112.75/3252686/GMJ_IVECX_G_M_3_.csv /lustre/isaac/scratch/gjones39/scpfiles/ANO-RCC-VTZP/ozone_112.75/GMJ_IVECX_G_M_3_.csv

>>> COPY /lustre/isaac/scratch/gjones39/scpfiles/ANO-RCC-VTZP/ozone_112.75/3252686/GMJ_IVECC2_G_M_3_.csv /lustre/isaac/scratch/gjones39/scpfiles/ANO-RCC-VTZP/ozone_112.75/GMJ_IVECC2_G_M_3_.csv

>>> COPY /lustre/isaac/scratch/gjones39/scpfiles/ANO-RCC-VTZP/ozone_112.75/3252686/GMJ_e2_G_M_3_.csv /lustre/isaac/scratch/gjones39/scpfiles/ANO-RCC-VTZP/ozone_112.75/GMJ_e2_G_M_3_.csv

>>> END FOREACH

>>> END FOREACH

>>> EXPORT i = H

>>> EXPORT j = P

>>> IF (-FILE GMJ_e2_${i}_${j}_${k}_.csv)

>>> COPY /lustre/isaac/scratch/gjones39/scpfiles/ANO-RCC-VTZP/ozone_112.75/3252686/GMJ_RHS_H_P_3_.csv /lustre/isaac/scratch/gjones39/scpfiles/ANO-RCC-VTZP/ozone_112.75/GMJ_RHS_H_P_3_.csv

>>> COPY /lustre/isaac/scratch/gjones39/scpfiles/ANO-RCC-VTZP/ozone_112.75/3252686/GMJ_IVECW_H_P_3_.csv /lustre/isaac/scratch/gjones39/scpfiles/ANO-RCC-VTZP/ozone_112.75/GMJ_IVECW_H_P_3_.csv

>>> COPY /lustre/isaac/scratch/gjones39/scpfiles/ANO-RCC-VTZP/ozone_112.75/3252686/GMJ_IVECX_H_P_3_.csv /lustre/isaac/scratch/gjones39/scpfiles/ANO-RCC-VTZP/ozone_112.75/GMJ_IVECX_H_P_3_.csv

>>> COPY /lustre/isaac/scratch/gjones39/scpfiles/ANO-RCC-VTZP/ozone_112.75/3252686/GMJ_IVECC2_H_P_3_.csv /lustre/isaac/scratch/gjones39/scpfiles/ANO-RCC-VTZP/ozone_112.75/GMJ_IVECC2_H_P_3_.csv

>>> COPY /lustre/isaac/scratch/gjones39/scpfiles/ANO-RCC-VTZP/ozone_112.75/3252686/GMJ_e2_H_P_3_.csv /lustre/isaac/scratch/gjones39/scpfiles/ANO-RCC-VTZP/ozone_112.75/GMJ_e2_H_P_3_.csv

>>> END FOREACH

>>> EXPORT j = M

>>> IF (-FILE GMJ_e2_${i}_${j}_${k}_.csv)

>>> COPY /lustre/isaac/scratch/gjones39/scpfiles/ANO-RCC-VTZP/ozone_112.75/3252686/GMJ_RHS_H_M_3_.csv /lustre/isaac/scratch/gjones39/scpfiles/ANO-RCC-VTZP/ozone_112.75/GMJ_RHS_H_M_3_.csv

>>> COPY /lustre/isaac/scratch/gjones39/scpfiles/ANO-RCC-VTZP/ozone_112.75/3252686/GMJ_IVECW_H_M_3_.csv /lustre/isaac/scratch/gjones39/scpfiles/ANO-RCC-VTZP/ozone_112.75/GMJ_IVECW_H_M_3_.csv

>>> COPY /lustre/isaac/scratch/gjones39/scpfiles/ANO-RCC-VTZP/ozone_112.75/3252686/GMJ_IVECX_H_M_3_.csv /lustre/isaac/scratch/gjones39/scpfiles/ANO-RCC-VTZP/ozone_112.75/GMJ_IVECX_H_M_3_.csv

>>> COPY /lustre/isaac/scratch/gjones39/scpfiles/ANO-RCC-VTZP/ozone_112.75/3252686/GMJ_IVECC2_H_M_3_.csv /lustre/isaac/scratch/gjones39/scpfiles/ANO-RCC-VTZP/ozone_112.75/GMJ_IVECC2_H_M_3_.csv

>>> COPY /lustre/isaac/scratch/gjones39/scpfiles/ANO-RCC-VTZP/ozone_112.75/3252686/GMJ_e2_H_M_3_.csv /lustre/isaac/scratch/gjones39/scpfiles/ANO-RCC-VTZP/ozone_112.75/GMJ_e2_H_M_3_.csv

>>> END FOREACH

>>> END FOREACH

>>> END FOREACH

>>> EXPORT j = 1

>>> EXPORT i = A

>>> IF (-FILE GMJ_e2_${i}_${j}_.csv)

>>> COPY /lustre/isaac/scratch/gjones39/scpfiles/ANO-RCC-VTZP/ozone_112.75/3252686/GMJ_RHS_A_1_.csv /lustre/isaac/scratch/gjones39/scpfiles/ANO-RCC-VTZP/ozone_112.75/GMJ_RHS_A_1_.csv

>>> COPY /lustre/isaac/scratch/gjones39/scpfiles/ANO-RCC-VTZP/ozone_112.75/3252686/GMJ_IVECW_A_1_.csv /lustre/isaac/scratch/gjones39/scpfiles/ANO-RCC-VTZP/ozone_112.75/GMJ_IVECW_A_1_.csv

>>> COPY /lustre/isaac/scratch/gjones39/scpfiles/ANO-RCC-VTZP/ozone_112.75/3252686/GMJ_IVECX_A_1_.csv /lustre/isaac/scratch/gjones39/scpfiles/ANO-RCC-VTZP/ozone_112.75/GMJ_IVECX_A_1_.csv

>>> COPY /lustre/isaac/scratch/gjones39/scpfiles/ANO-RCC-VTZP/ozone_112.75/3252686/GMJ_IVECC2_A_1_.csv /lustre/isaac/scratch/gjones39/scpfiles/ANO-RCC-VTZP/ozone_112.75/GMJ_IVECC2_A_1_.csv

>>> COPY /lustre/isaac/scratch/gjones39/scpfiles/ANO-RCC-VTZP/ozone_112.75/3252686/GMJ_e2_A_1_.csv /lustre/isaac/scratch/gjones39/scpfiles/ANO-RCC-VTZP/ozone_112.75/GMJ_e2_A_1_.csv

>>> END FOREACH

>>> EXPORT i = C

>>> IF (-FILE GMJ_e2_${i}_${j}_.csv)

>>> COPY /lustre/isaac/scratch/gjones39/scpfiles/ANO-RCC-VTZP/ozone_112.75/3252686/GMJ_RHS_C_1_.csv /lustre/isaac/scratch/gjones39/scpfiles/ANO-RCC-VTZP/ozone_112.75/GMJ_RHS_C_1_.csv

>>> COPY /lustre/isaac/scratch/gjones39/scpfiles/ANO-RCC-VTZP/ozone_112.75/3252686/GMJ_IVECW_C_1_.csv /lustre/isaac/scratch/gjones39/scpfiles/ANO-RCC-VTZP/ozone_112.75/GMJ_IVECW_C_1_.csv

>>> COPY /lustre/isaac/scratch/gjones39/scpfiles/ANO-RCC-VTZP/ozone_112.75/3252686/GMJ_IVECX_C_1_.csv /lustre/isaac/scratch/gjones39/scpfiles/ANO-RCC-VTZP/ozone_112.75/GMJ_IVECX_C_1_.csv

>>> COPY /lustre/isaac/scratch/gjones39/scpfiles/ANO-RCC-VTZP/ozone_112.75/3252686/GMJ_IVECC2_C_1_.csv /lustre/isaac/scratch/gjones39/scpfiles/ANO-RCC-VTZP/ozone_112.75/GMJ_IVECC2_C_1_.csv

>>> COPY /lustre/isaac/scratch/gjones39/scpfiles/ANO-RCC-VTZP/ozone_112.75/3252686/GMJ_e2_C_1_.csv /lustre/isaac/scratch/gjones39/scpfiles/ANO-RCC-VTZP/ozone_112.75/GMJ_e2_C_1_.csv

>>> END FOREACH

>>> EXPORT i = D

>>> IF (-FILE GMJ_e2_${i}_${j}_.csv)

>>> COPY /lustre/isaac/scratch/gjones39/scpfiles/ANO-RCC-VTZP/ozone_112.75/3252686/GMJ_RHS_D_1_.csv /lustre/isaac/scratch/gjones39/scpfiles/ANO-RCC-VTZP/ozone_112.75/GMJ_RHS_D_1_.csv

>>> COPY /lustre/isaac/scratch/gjones39/scpfiles/ANO-RCC-VTZP/ozone_112.75/3252686/GMJ_IVECW_D_1_.csv /lustre/isaac/scratch/gjones39/scpfiles/ANO-RCC-VTZP/ozone_112.75/GMJ_IVECW_D_1_.csv

>>> COPY /lustre/isaac/scratch/gjones39/scpfiles/ANO-RCC-VTZP/ozone_112.75/3252686/GMJ_IVECX_D_1_.csv /lustre/isaac/scratch/gjones39/scpfiles/ANO-RCC-VTZP/ozone_112.75/GMJ_IVECX_D_1_.csv

>>> COPY /lustre/isaac/scratch/gjones39/scpfiles/ANO-RCC-VTZP/ozone_112.75/3252686/GMJ_IVECC2_D_1_.csv /lustre/isaac/scratch/gjones39/scpfiles/ANO-RCC-VTZP/ozone_112.75/GMJ_IVECC2_D_1_.csv

>>> COPY /lustre/isaac/scratch/gjones39/scpfiles/ANO-RCC-VTZP/ozone_112.75/3252686/GMJ_e2_D_1_.csv /lustre/isaac/scratch/gjones39/scpfiles/ANO-RCC-VTZP/ozone_112.75/GMJ_e2_D_1_.csv

>>> END FOREACH

>>> END FOREACH

>>> EXPORT j = 2

>>> EXPORT i = A

>>> IF (-FILE GMJ_e2_${i}_${j}_.csv)

>>> COPY /lustre/isaac/scratch/gjones39/scpfiles/ANO-RCC-VTZP/ozone_112.75/3252686/GMJ_RHS_A_2_.csv /lustre/isaac/scratch/gjones39/scpfiles/ANO-RCC-VTZP/ozone_112.75/GMJ_RHS_A_2_.csv

>>> COPY /lustre/isaac/scratch/gjones39/scpfiles/ANO-RCC-VTZP/ozone_112.75/3252686/GMJ_IVECW_A_2_.csv /lustre/isaac/scratch/gjones39/scpfiles/ANO-RCC-VTZP/ozone_112.75/GMJ_IVECW_A_2_.csv

>>> COPY /lustre/isaac/scratch/gjones39/scpfiles/ANO-RCC-VTZP/ozone_112.75/3252686/GMJ_IVECX_A_2_.csv /lustre/isaac/scratch/gjones39/scpfiles/ANO-RCC-VTZP/ozone_112.75/GMJ_IVECX_A_2_.csv

>>> COPY /lustre/isaac/scratch/gjones39/scpfiles/ANO-RCC-VTZP/ozone_112.75/3252686/GMJ_IVECC2_A_2_.csv /lustre/isaac/scratch/gjones39/scpfiles/ANO-RCC-VTZP/ozone_112.75/GMJ_IVECC2_A_2_.csv

>>> COPY /lustre/isaac/scratch/gjones39/scpfiles/ANO-RCC-VTZP/ozone_112.75/3252686/GMJ_e2_A_2_.csv /lustre/isaac/scratch/gjones39/scpfiles/ANO-RCC-VTZP/ozone_112.75/GMJ_e2_A_2_.csv

>>> END FOREACH

>>> EXPORT i = C

>>> IF (-FILE GMJ_e2_${i}_${j}_.csv)

>>> COPY /lustre/isaac/scratch/gjones39/scpfiles/ANO-RCC-VTZP/ozone_112.75/3252686/GMJ_RHS_C_2_.csv /lustre/isaac/scratch/gjones39/scpfiles/ANO-RCC-VTZP/ozone_112.75/GMJ_RHS_C_2_.csv

>>> COPY /lustre/isaac/scratch/gjones39/scpfiles/ANO-RCC-VTZP/ozone_112.75/3252686/GMJ_IVECW_C_2_.csv /lustre/isaac/scratch/gjones39/scpfiles/ANO-RCC-VTZP/ozone_112.75/GMJ_IVECW_C_2_.csv

>>> COPY /lustre/isaac/scratch/gjones39/scpfiles/ANO-RCC-VTZP/ozone_112.75/3252686/GMJ_IVECX_C_2_.csv /lustre/isaac/scratch/gjones39/scpfiles/ANO-RCC-VTZP/ozone_112.75/GMJ_IVECX_C_2_.csv

>>> COPY /lustre/isaac/scratch/gjones39/scpfiles/ANO-RCC-VTZP/ozone_112.75/3252686/GMJ_IVECC2_C_2_.csv /lustre/isaac/scratch/gjones39/scpfiles/ANO-RCC-VTZP/ozone_112.75/GMJ_IVECC2_C_2_.csv

>>> COPY /lustre/isaac/scratch/gjones39/scpfiles/ANO-RCC-VTZP/ozone_112.75/3252686/GMJ_e2_C_2_.csv /lustre/isaac/scratch/gjones39/scpfiles/ANO-RCC-VTZP/ozone_112.75/GMJ_e2_C_2_.csv

>>> END FOREACH

>>> EXPORT i = D

>>> IF (-FILE GMJ_e2_${i}_${j}_.csv)

>>> COPY /lustre/isaac/scratch/gjones39/scpfiles/ANO-RCC-VTZP/ozone_112.75/3252686/GMJ_RHS_D_2_.csv /lustre/isaac/scratch/gjones39/scpfiles/ANO-RCC-VTZP/ozone_112.75/GMJ_RHS_D_2_.csv

>>> COPY /lustre/isaac/scratch/gjones39/scpfiles/ANO-RCC-VTZP/ozone_112.75/3252686/GMJ_IVECW_D_2_.csv /lustre/isaac/scratch/gjones39/scpfiles/ANO-RCC-VTZP/ozone_112.75/GMJ_IVECW_D_2_.csv

>>> COPY /lustre/isaac/scratch/gjones39/scpfiles/ANO-RCC-VTZP/ozone_112.75/3252686/GMJ_IVECX_D_2_.csv /lustre/isaac/scratch/gjones39/scpfiles/ANO-RCC-VTZP/ozone_112.75/GMJ_IVECX_D_2_.csv

>>> COPY /lustre/isaac/scratch/gjones39/scpfiles/ANO-RCC-VTZP/ozone_112.75/3252686/GMJ_IVECC2_D_2_.csv /lustre/isaac/scratch/gjones39/scpfiles/ANO-RCC-VTZP/ozone_112.75/GMJ_IVECC2_D_2_.csv

>>> COPY /lustre/isaac/scratch/gjones39/scpfiles/ANO-RCC-VTZP/ozone_112.75/3252686/GMJ_e2_D_2_.csv /lustre/isaac/scratch/gjones39/scpfiles/ANO-RCC-VTZP/ozone_112.75/GMJ_e2_D_2_.csv

>>> END FOREACH

>>> END FOREACH

>>> EXPORT j = 3

>>> EXPORT i = A

>>> IF (-FILE GMJ_e2_${i}_${j}_.csv)

>>> COPY /lustre/isaac/scratch/gjones39/scpfiles/ANO-RCC-VTZP/ozone_112.75/3252686/GMJ_RHS_A_3_.csv /lustre/isaac/scratch/gjones39/scpfiles/ANO-RCC-VTZP/ozone_112.75/GMJ_RHS_A_3_.csv

>>> COPY /lustre/isaac/scratch/gjones39/scpfiles/ANO-RCC-VTZP/ozone_112.75/3252686/GMJ_IVECW_A_3_.csv /lustre/isaac/scratch/gjones39/scpfiles/ANO-RCC-VTZP/ozone_112.75/GMJ_IVECW_A_3_.csv

>>> COPY /lustre/isaac/scratch/gjones39/scpfiles/ANO-RCC-VTZP/ozone_112.75/3252686/GMJ_IVECX_A_3_.csv /lustre/isaac/scratch/gjones39/scpfiles/ANO-RCC-VTZP/ozone_112.75/GMJ_IVECX_A_3_.csv

>>> COPY /lustre/isaac/scratch/gjones39/scpfiles/ANO-RCC-VTZP/ozone_112.75/3252686/GMJ_IVECC2_A_3_.csv /lustre/isaac/scratch/gjones39/scpfiles/ANO-RCC-VTZP/ozone_112.75/GMJ_IVECC2_A_3_.csv

>>> COPY /lustre/isaac/scratch/gjones39/scpfiles/ANO-RCC-VTZP/ozone_112.75/3252686/GMJ_e2_A_3_.csv /lustre/isaac/scratch/gjones39/scpfiles/ANO-RCC-VTZP/ozone_112.75/GMJ_e2_A_3_.csv

>>> END FOREACH

>>> EXPORT i = C

>>> IF (-FILE GMJ_e2_${i}_${j}_.csv)

>>> COPY /lustre/isaac/scratch/gjones39/scpfiles/ANO-RCC-VTZP/ozone_112.75/3252686/GMJ_RHS_C_3_.csv /lustre/isaac/scratch/gjones39/scpfiles/ANO-RCC-VTZP/ozone_112.75/GMJ_RHS_C_3_.csv

>>> COPY /lustre/isaac/scratch/gjones39/scpfiles/ANO-RCC-VTZP/ozone_112.75/3252686/GMJ_IVECW_C_3_.csv /lustre/isaac/scratch/gjones39/scpfiles/ANO-RCC-VTZP/ozone_112.75/GMJ_IVECW_C_3_.csv

>>> COPY /lustre/isaac/scratch/gjones39/scpfiles/ANO-RCC-VTZP/ozone_112.75/3252686/GMJ_IVECX_C_3_.csv /lustre/isaac/scratch/gjones39/scpfiles/ANO-RCC-VTZP/ozone_112.75/GMJ_IVECX_C_3_.csv

>>> COPY /lustre/isaac/scratch/gjones39/scpfiles/ANO-RCC-VTZP/ozone_112.75/3252686/GMJ_IVECC2_C_3_.csv /lustre/isaac/scratch/gjones39/scpfiles/ANO-RCC-VTZP/ozone_112.75/GMJ_IVECC2_C_3_.csv

>>> COPY /lustre/isaac/scratch/gjones39/scpfiles/ANO-RCC-VTZP/ozone_112.75/3252686/GMJ_e2_C_3_.csv /lustre/isaac/scratch/gjones39/scpfiles/ANO-RCC-VTZP/ozone_112.75/GMJ_e2_C_3_.csv

>>> END FOREACH

>>> EXPORT i = D

>>> IF (-FILE GMJ_e2_${i}_${j}_.csv)

>>> COPY /lustre/isaac/scratch/gjones39/scpfiles/ANO-RCC-VTZP/ozone_112.75/3252686/GMJ_RHS_D_3_.csv /lustre/isaac/scratch/gjones39/scpfiles/ANO-RCC-VTZP/ozone_112.75/GMJ_RHS_D_3_.csv

>>> COPY /lustre/isaac/scratch/gjones39/scpfiles/ANO-RCC-VTZP/ozone_112.75/3252686/GMJ_IVECW_D_3_.csv /lustre/isaac/scratch/gjones39/scpfiles/ANO-RCC-VTZP/ozone_112.75/GMJ_IVECW_D_3_.csv

>>> COPY /lustre/isaac/scratch/gjones39/scpfiles/ANO-RCC-VTZP/ozone_112.75/3252686/GMJ_IVECX_D_3_.csv /lustre/isaac/scratch/gjones39/scpfiles/ANO-RCC-VTZP/ozone_112.75/GMJ_IVECX_D_3_.csv

>>> COPY /lustre/isaac/scratch/gjones39/scpfiles/ANO-RCC-VTZP/ozone_112.75/3252686/GMJ_IVECC2_D_3_.csv /lustre/isaac/scratch/gjones39/scpfiles/ANO-RCC-VTZP/ozone_112.75/GMJ_IVECC2_D_3_.csv

>>> COPY /lustre/isaac/scratch/gjones39/scpfiles/ANO-RCC-VTZP/ozone_112.75/3252686/GMJ_e2_D_3_.csv /lustre/isaac/scratch/gjones39/scpfiles/ANO-RCC-VTZP/ozone_112.75/GMJ_e2_D_3_.csv

>>> END FOREACH

>>> END FOREACH

    Timing: Wall=65.84 User=42.04 System=20.66
****************************************************************************************************
*** WorkDir at /lustre/isaac/scratch/gjones39/scpfiles/ANO-RCC-VTZP/ozone_112.75/3252686 cleaned ***
****************************************************************************************************
