[Molden Format]
[N_Atoms]
                     2
[Atoms] (AU)
LI1         1      3           0.00000000      0.00000000      0.00000000
LI2         2      3           0.00000000      0.00000000      4.15739747
[Charge] (Mulliken)
  0.999994648006981     
   1.00000535199301     
[GTO] (AU)
   1
   s  14
  9.497934400E+03  9.668999974E-05
  1.416811200E+03  6.087099984E-04
  3.214599400E+02  3.101519992E-03
  9.112416300E+01  1.266904997E-02
  2.999989100E+01  4.248012989E-02
  1.101763100E+01  1.150183297E-01
  4.372801000E+00  2.398650094E-01
  1.831256000E+00  3.584300090E-01
  8.022610000E-01  3.048527792E-01
  3.626480000E-01  8.824261976E-02
  1.139950000E-01 -8.445899977E-04
  5.123700000E-02 -7.943959979E-03
  2.246800000E-02 -3.764419990E-03
  7.860000000E-03 -8.868999976E-05
   s  14
  9.497934400E+03 -1.244999993E-05
  1.416811200E+03 -7.838999954E-05
  3.214599400E+02 -4.007099976E-04
  9.112416300E+01 -1.645249990E-03
  2.999989100E+01 -5.634599967E-03
  1.101763100E+01 -1.590780991E-02
  4.372801000E+00 -3.612581979E-02
  1.831256000E+00 -6.459927962E-02
  8.022610000E-01 -1.008321794E-01
  3.626480000E-01 -9.757613942E-02
  1.139950000E-01  2.301215886E-01
  5.123700000E-02  6.102389764E-01
  2.246800000E-02  2.849406083E-01
  7.860000000E-03  4.026899976E-03
   p   9
  1.311950400E+01  1.524940000E-03
  3.077424200E+00  8.314830000E-03
  1.098800500E+00  1.933203000E-02
  4.357784000E-01  4.934293000E-02
  1.802432000E-01  1.623554000E-01
  7.613330000E-02  3.847505400E-01
  3.254650000E-02  4.336100400E-01
  1.401820000E-02  1.287005900E-01
  4.906400000E-03 -1.018520000E-03
 
   2
   s  14
  9.497934400E+03  9.668999974E-05
  1.416811200E+03  6.087099984E-04
  3.214599400E+02  3.101519992E-03
  9.112416300E+01  1.266904997E-02
  2.999989100E+01  4.248012989E-02
  1.101763100E+01  1.150183297E-01
  4.372801000E+00  2.398650094E-01
  1.831256000E+00  3.584300090E-01
  8.022610000E-01  3.048527792E-01
  3.626480000E-01  8.824261976E-02
  1.139950000E-01 -8.445899977E-04
  5.123700000E-02 -7.943959979E-03
  2.246800000E-02 -3.764419990E-03
  7.860000000E-03 -8.868999976E-05
   s  14
  9.497934400E+03 -1.244999993E-05
  1.416811200E+03 -7.838999954E-05
  3.214599400E+02 -4.007099976E-04
  9.112416300E+01 -1.645249990E-03
  2.999989100E+01 -5.634599967E-03
  1.101763100E+01 -1.590780991E-02
  4.372801000E+00 -3.612581979E-02
  1.831256000E+00 -6.459927962E-02
  8.022610000E-01 -1.008321794E-01
  3.626480000E-01 -9.757613942E-02
  1.139950000E-01  2.301215886E-01
  5.123700000E-02  6.102389764E-01
  2.246800000E-02  2.849406083E-01
  7.860000000E-03  4.026899976E-03
   p   9
  1.311950400E+01  1.524940000E-03
  3.077424200E+00  8.314830000E-03
  1.098800500E+00  1.933203000E-02
  4.357784000E-01  4.934293000E-02
  1.802432000E-01  1.623554000E-01
  7.613330000E-02  3.847505400E-01
  3.254650000E-02  4.336100400E-01
  1.401820000E-02  1.287005900E-01
  4.906400000E-03 -1.018520000E-03
 
[MO]
Sym=     1a  
Ene=    -3.0340
Spin= Alpha
Occup=    2.00000
   1        -0.00606888
   2        -0.00464476
   3        -0.00000000
   4         0.00000000
   5        -0.00111594
   6         1.00055408
   7         0.01572707
   8         0.00000000
   9         0.00000000
  10        -0.00513957
Sym=     2a  
Ene=    -3.0340
Spin= Alpha
Occup=    1.99999
   1        -1.00053766
   2        -0.01584856
   3        -0.00000000
   4        -0.00000000
   5        -0.00519414
   6        -0.00220226
   7         0.00457706
   8        -0.00000000
   9         0.00000000
  10        -0.00104311
Sym=     3a  
Ene=    -0.0010
Spin= Alpha
Occup=    0.00001
   1        -0.00092301
   2         1.12484610
   3        -0.00000000
   4         0.00000000
   5         0.41592612
   6        -0.18711398
   7        -0.45954363
   8        -0.00000000
   9        -0.00000000
  10        -0.20946578
Sym=     4a  
Ene=    -0.3425
Spin= Alpha
Occup=    0.00000
   1        -0.10341625
   2        -0.61911716
   3         0.00000000
   4        -0.00000000
   5         0.28962621
   6         0.00487176
   7         1.03347052
   8         0.00000000
   9        -0.00000000
  10         0.00678975
Sym=     5a  
Ene=    -0.3280
Spin= Alpha
Occup=    0.00000
   1        -0.00000000
   2        -0.00000000
   3        -0.08864348
   4         0.54685174
   5         0.00000000
   6         0.00000000
   7         0.00000000
   8        -0.08863347
   9         0.54679003
  10         0.00000000
Sym=     6a  
Ene=    -0.3280
Spin= Alpha
Occup=    0.00000
   1        -0.00000000
   2        -0.00000000
   3        -0.54685174
   4        -0.08864348
   5         0.00000000
   6         0.00000000
   7         0.00000000
   8        -0.54679003
   9        -0.08863347
  10         0.00000000
Sym=     7a  
Ene=    -0.2809
Spin= Alpha
Occup=    0.00000
   1        -0.07906778
   2        -0.49936662
   3        -0.00000000
   4         0.00000000
   5         0.78118368
   6        -0.07635573
   7        -0.43739865
   8         0.00000000
   9        -0.00000000
  10        -0.76204401
Sym=     8a  
Ene=    -0.2374
Spin= Alpha
Occup=    0.00000
   1         0.00000000
   2        -0.00000000
   3         0.03362813
   4         1.16096296
   5        -0.00000000
   6         0.00000000
   7         0.00000000
   8        -0.03362900
   9        -1.16099277
  10         0.00000000
Sym=     9a  
Ene=    -0.2374
Spin= Alpha
Occup=    0.00000
   1        -0.00000000
   2         0.00000000
   3        -1.16096296
   4         0.03362813
   5        -0.00000000
   6        -0.00000000
   7        -0.00000000
   8         1.16099277
   9        -0.03362900
  10        -0.00000000
Sym=    10a  
Ene=     0.0162
Spin= Alpha
Occup=    0.00000
   1        -0.76035790
   2        -3.91178273
   3         0.00000000
   4         0.00000000
   5        -2.20544285
   6         0.74446301
   7         3.96603595
   8        -0.00000000
   9        -0.00000000
  10        -2.25975034
