   This run of MOLCAS is using the pymolcas driver

                             OPE
                             OPE          NMOL  CASOP  ENMOLC A   SO
                 OPE        NMOLC        AS  OP EN  MO LC     AS  OP
                OPENM       OL CA        SO  PE NM  OL CA     SOP EN
                OP EN      MO   LC       AS  OP ENMOL  CASO   PENMOL
                OP  EN     MO   LC       AS  OP EN     MO     LC ASO
               OP   E  NMOL  C  AS       OP  EN MO     LC     AS  OP
               OP  E   NMO   LC AS        OPEN  MO     LCASOP EN   M
               O  PEN   MO  LCA  SO
            OPE   NMO   L   CAS    OP
        OPENMOL  CASOP     ENMOL   CASOPE
     OPENMOLCA   SOPENMOLCASOPEN   MOLCASOPE
    OPENMOLCAS   OP           EN   MOL    CAS
    OPENMOLCAS       OP  ENM        O     LCA
    OPENMOLCAS    OPEN  MOLCASO     P  E  NMO
    OPENMOLCAS     OP               E  N  MOL
    OPENMOLCA   SO           PENM   O  L  CAS    OPEN    MO    LCAS
    OPENMOLCA   SOP           ENM   O  L  CAS   OP  EN  MOLC  AS   O
    OPENMOLCA   SOPE           NM      O  LCA   S      OP  EN MO
    OPENMOLC                AS         O  PEN   M      OL  CA  SOPE
    OPENMO        LCASOPE  NMOL        C  ASO   P      ENMOLC     AS
    OPE     NMO      LCA  SO     P     E   NM   OL  CA SO  PE N   MO
          OPENMOLCA            SOPE   NMO        LCAS  O    P  ENMO
     OPENMOLCASOPENMOLCASOPENMOLCASOPENMOLCA
        OPENMOLCASOPENMOLCASOPENMOLCASOPE
            OPENMOLCASOPENMOLCASOPENM
               OPENMOLCASOPENMOLCA        version: ea724fe96-dirty
                   OPENMOLCASO
                       OPE                tag:

 OpenMolcas is free software; you can redistribute it and/or modify it
 under the terms of the GNU Lesser General Public License version 2.1.
 OpenMolcas is distributed in the hope that it will be useful, but it
 is provided "as is" and without any express or implied warranties.
 For more details see the full text of the license in the file
 LICENSE or in <http://www.gnu.org/licenses/>.

                 Copyright (C) The OpenMolcas Authors
           For the author list and the recommended citation,
                   consult the file CONTRIBUTORS.md

           *************************************************
           * pymolcas version py2.28                       *
           *   build c4a6d18ded8cb6cad61d2372a9abd97c      *
           *   (after the EMIL interpreter by V. Veryazov) *
           *************************************************

configuration info
------------------
C Compiler ID: Intel
C flags: -std=gnu99
Fortran Compiler ID: Intel
Fortran flags: -fpp -i8 -r8 -heap-arrays
Definitions: _MOLCAS_;_I8_;_LINUX_
Parallel: OFF (GA=OFF)


   -------------------------------------------------------------------------------
  |
  |              Project: 7.21
  |       Submitted from: /home/grierjones/DDCASPT2/iron_oxo_DDCASPT2/cluster/7.21
  |         Scratch area: /tmp/7.21
  |      Save outputs to: /home/grierjones/DDCASPT2/iron_oxo_DDCASPT2/cluster/7.21
  |               Molcas: /home/grierjones/Test/build
  |
  | Scratch area is empty
  |
  |       MOLCAS_DRIVER = /usr/local/pymolcas
  | MOLCAS_KEEP_WORKDIR = NO
  |  MOLCAS_NEW_WORKDIR = YES
  |       MOLCAS_NPROCS = 1
  |        MOLCAS_PRINT = NORMAL
  |       MOLCAS_SOURCE = /home/grierjones/Test/build
  |    MOLCAS_STRUCTURE = 0
  |
   -------------------------------------------------------------------------------

++ ---------   Input file   ---------

&GATEWAY
coord=7.21.xyz
Basis = ANO-RCC-VDZP
Group = nosymm
Expert
End of Input

&SEWARD
End of Input

&SCF
UHF
charge
2
spin
5
FileOrb
/home/grierjones/DDCASPT2/iron_oxo_DDCASPT2/cluster/7.19/7.19.UhfOrb

>>> COPY $WorkDir/7.21.scf.h5 $CurrDir/

&RASSCF
Title= RASSCF
FileOrb
/home/grierjones/DDCASPT2/iron_oxo_DDCASPT2/cluster/7.19/7.19.RasOrb
NACTEL
10 0 0
RAS2
14
Symmetry
1
Spin
5
charge
2
orblisting
all
ITERation
300 200

>>> COPY $WorkDir/7.21.rasscf.h5 $CurrDir/

>>> COPY $WorkDir/GMJ_Fock_MO.csv $CurrDir/7.21.GMJ_Fock_MO.csv

>>> COPY $WorkDir/GMJ_PT2_Fock_MO.csv $CurrDir/7.21.GMJ_PT2_Fock_MO.csv

&MOTRA
Frozen=0
LUMORB

>>> COPY $WorkDir/GMJ_one_int_indx.csv $CurrDir/7.21.GMJ_one_int_indx.csv

>>> COPY $WorkDir/GMJ_one_int.csv $CurrDir/7.21.GMJ_one_int.csv

>>> COPY $WorkDir/GMJ_two_int_indx.csv $CurrDir/7.21.GMJ_two_int_indx.csv

>>> COPY $WorkDir/GMJ_two_int.csv $CurrDir/7.21.GMJ_two_int.csv

&CASPT2
Frozen
0
MAXITER
50

>>> FOREACH i IN (B,E,F,G,H)

  >>> FOREACH j IN (P,M)

    >>> IF (-FILE GMJ_e2_${i}_${j}.csv)

      >>> COPY $WorkDir/GMJ_RHS_${i}_${j}.csv $CurrDir/GMJ_RHS_${i}_${j}.csv

      >>> COPY $WorkDir/GMJ_IVECW_${i}_${j}.csv $CurrDir/GMJ_IVECW_${i}_${j}.csv

      >>> COPY $WorkDir/GMJ_IVECX_${i}_${j}.csv $CurrDir/GMJ_IVECX_${i}_${j}.csv

      >>> COPY $WorkDir/GMJ_IVECC2_${i}_${j}.csv $CurrDir/GMJ_IVECC2_${i}_${j}.csv

      >>> COPY $WorkDir/GMJ_e2_${i}_${j}.csv $CurrDir/GMJ_e2_${i}_${j}.csv

    >>> END IF

  >>> END FOREACH

>>> END FOREACH

>>> FOREACH i IN (A,C,D)

  >>> IF (-FILE GMJ_e2_$i.csv)

    >>> COPY $WorkDir/GMJ_RHS_$i.csv $CurrDir/GMJ_RHS_$i.csv

    >>> COPY $WorkDir/GMJ_IVECW_$i.csv $CurrDir/GMJ_IVECW_$i.csv

    >>> COPY $WorkDir/GMJ_IVECX_$i.csv $CurrDir/GMJ_IVECX_$i.csv

    >>> COPY $WorkDir/GMJ_IVECC2_$i.csv $CurrDir/GMJ_IVECC2_$i.csv

    >>> COPY $WorkDir/GMJ_e2_$i.csv $CurrDir/GMJ_e2_$i.csv

  >>> END IF

>>> END FOREACH

-- ----------------------------------

--- Start Module: gateway at Wed Dec 25 22:52:20 2024 ---
 
()()()()()()()()()()()()()()()()()()()()()()()()()()()()()()()()()()()()()()()()()()()()()()()()()()

                                              &GATEWAY

                                   only a single process is used
                       available to each process: 2.0 GB of memory, 1 thread?
()()()()()()()()()()()()()()()()()()()()()()()()()()()()()()()()()()()()()()()()()()()()()()()()()()
 
 ###############################################################################
 ###############################################################################
 ###                                                                         ###
 ###                                                                         ###
 ###                                                                         ###
 ###    WARNING: EXPERT option is ON!                                        ###
 ###                                                                         ###
 ###                                                                         ###
 ###############################################################################
 ###############################################################################
 
++    Symmetry information:
      ---------------------
 
                    Character Table for C1 
 
                             E  
                    a        1  x, y, xy, Rz, z, xz, Ry, yz, Rx, I
--
 
 
++    Basis set information:
      ----------------------
 
 
      Basis set label: O.ANO-RCC...3S2P1D.
 
      Electronic valence basis set:
      ------------------
      Associated Effective Charge   8.000000 au
      Associated Actual Charge      8.000000 au
      Nuclear Model: Point charge
 
      Shell  nPrim  nBasis  Cartesian Spherical Contaminant
         s      14       3        X                  
         p       9       2        X                  
         d       4       1                 X         
 
 
      Basis set label: FE.ANO-RCC...5S4P2D1F.
 
      Electronic valence basis set:
      ------------------
      Associated Effective Charge  26.000000 au
      Associated Actual Charge     26.000000 au
      Nuclear Model: Point charge
 
      Shell  nPrim  nBasis  Cartesian Spherical Contaminant
         s      21       5        X                  
         p      15       4        X                  
         d      10       2                 X         
         f       6       1                 X         
--
 
 
++    Molecular structure info:
      -------------------------
 
                    ************************************************ 
                    **** Cartesian Coordinates / Bohr, Angstrom **** 
                    ************************************************ 
 
     Center  Label                x              y              z                     x              y              z
        1      O1               0.000000       0.000000       8.320861              0.000000       0.000000       4.403210
        2      FE2              0.000000       0.000000      -5.297299              0.000000       0.000000      -2.803210
--
 
 
            Nuclear Potential Energy             15.27372257 au
 
 ###############################################################################
 ###############################################################################
 ###                                                                         ###
 ###                                                                         ###
 ###    There were warnings during the execution                             ###
 ###    Please, check the output with care!                                  ###
 ###                                                                         ###
 ###                                                                         ###
 ###############################################################################
 ###############################################################################
--- Stop Module: gateway at Wed Dec 25 22:52:20 2024 /rc=_RC_ALL_IS_WELL_ ---
*** files: xmldump
    saved to directory /home/grierjones/DDCASPT2/iron_oxo_DDCASPT2/cluster/7.21

--- Start Module: seward at Wed Dec 25 22:52:20 2024 ---
 
()()()()()()()()()()()()()()()()()()()()()()()()()()()()()()()()()()()()()()()()()()()()()()()()()()

                                              &SEWARD

                                   only a single process is used
                       available to each process: 2.0 GB of memory, 1 thread?
()()()()()()()()()()()()()()()()()()()()()()()()()()()()()()()()()()()()()()()()()()()()()()()()()()
 
 ###############################################################################
 ###############################################################################
 ###                                                                         ###
 ###                                                                         ###
 ###                                                                         ###
 ###    WARNING: EXPERT option is ON!                                        ###
 ###                                                                         ###
 ###                                                                         ###
 ###############################################################################
 ###############################################################################
               SEWARD will generate:
                  Multipole Moment integrals up to order  2
                  Kinetic Energy integrals
                  Nuclear Attraction integrals (point charge)
                  One-Electron Hamiltonian integrals
                  Velocity integrals
                  Relativistic Douglas-Kroll-Hess integrals:
                    - Parametrization         : EXP
                    - DKH order of Hamiltonian: 2
                    - DKH order of Properties : 0
                         - multipole moment operators
                         - electric potential operators
                         - contact operators
                  Atomic mean-field integrals
                  Two-Electron Repulsion integrals
 
                   Integrals are discarded if absolute value <: 0.10E-13
                   Integral cutoff threshold is set to       <: 0.10E-15
 
            Nuclear Potential Energy             15.27372257 au
 
 
      Basis set specifications :
      Symmetry species         a  
      Basis functions           48
 
 
  Input file to MOLDEN was generated!
 
 ###############################################################################
 ###############################################################################
 ###                                                                         ###
 ###                                                                         ###
 ###    There were warnings during the execution                             ###
 ###    Please, check the output with care!                                  ###
 ###                                                                         ###
 ###                                                                         ###
 ###############################################################################
 ###############################################################################
--- Stop Module: seward at Wed Dec 25 22:52:21 2024 /rc=_RC_ALL_IS_WELL_ ---
*** files: 7.21.GssOrb 7.21.guessorb.h5 7.21.guessorb.molden xmldump
    saved to directory /home/grierjones/DDCASPT2/iron_oxo_DDCASPT2/cluster/7.21

*** symbolic link created: INPORB -> 7.21.GssOrb
--- Start Module: scf at Wed Dec 25 22:52:21 2024 ---
 
()()()()()()()()()()()()()()()()()()()()()()()()()()()()()()()()()()()()()()()()()()()()()()()()()()

                                                &SCF

                                   only a single process is used
                       available to each process: 2.0 GB of memory, 1 thread?
()()()()()()()()()()()()()()()()()()()()()()()()()()()()()()()()()()()()()()()()()()()()()()()()()()
 
 *** Possible bug in opening file
 *** isFreeUnit resets the unit number
++    Input section:
      --------------
 
      Header of the integral files:
      
       Integrals generated by seward 4.2.0  , Wed Dec 25 22:52:20 2024
 
 
      Cartesian coordinates in Angstrom:
      -----------------------------------------------------
      No.  Label        X            Y            Z        
      -----------------------------------------------------
       1   O1         0.00000000   0.00000000   4.40321000
       2   FE2        0.00000000   0.00000000  -2.80321000
      -----------------------------------------------------
      Nuclear repulsion energy =   15.27372257
--
 
++    Orbital specifications:
      -----------------------
 
      Symmetry species               1
                                     a
      Frozen orbitals                0
      Occupied orbitals alpha       18
      Occupied orbitals beta        14
      Secondary orbitals alpha      30
      Secondary orbitals beta       34
      Deleted orbitals               0
      Total number of orbitals      48
      Number of basis functions     48
--
 
      Molecular charge                           2.000
 
++    Optimization specifications:
      ----------------------------
 
      SCF Algorithm: Conventional USCF
      D(i)-D(i-1) density differences are used
      Number of density matrices in core                5
      Maximum number of NDDO SCF iterations           400
      Maximum number of HF SCF iterations             400
      Threshold for SCF energy change            0.10E-08
      Threshold for density matrix               0.10E-03
      Threshold for Fock matrix                  0.15E-03
      Threshold for linear dependence            0.10E-08
      Threshold at which DIIS is turned on       0.15E+00
      Threshold at which QNR/C2DIIS is turned on 0.75E-01
      Threshold for Norm(delta) (QNR/C2DIIS)     0.20E-04
      DIIS extrapolation of the SCF procedure
      All orbitals punched on: UHFORB
--
 
      Input vectors read from INPORB
      Orbital file label: * UHF orbitals
 
 
++ Convergence information
                               UHF SCF        iterations: Energy and convergence statistics
 
Iter     Tot. SCF        One-elec.       Two-elec.     Energy      Max Dij or  Max Fij      DNorm      TNorm      AccCon     Time
         Energy          Energy          Energy        Change      Delta Norm                                                in Sec.
 
 The total and one-electron energies are shifted by a value of      1000. a.u.
 
   1  -345.284945173  -879.672223161   519.113555416   0.00E+00    0.33E-04    0.16E-04     0.80E+01   0.18E+03   None         0.
   2  -345.284945175  -879.670775127   519.112107380  -0.17E-08*   0.20E-04    0.14E-04     0.13E-03   0.18E+03   EDIIS        0.
   3  -345.284945175  -879.672143037   519.113475290  -0.35E-09    0.13E-04    0.76E-05     0.87E-04   0.18E+03   c2DIIS       0.
 
       Convergence after  3 Macro Iterations
--
 
 *****************************************************************************************************************************
 *                                                                                                                           *
 *                                             SCF/KS-DFT Program, Final results                                             *
 *                                                                                                                           *
 *                                                                                                                           *
 *                                                                                                                           *
 *                                                       Final Results                                                       *
 *                                                                                                                           *
 *****************************************************************************************************************************
 
::    Total SCF energy                              -1345.2849451750
      One-electron energy                           -1879.6721430370
      Two-electron energy                             519.1134752898
      Nuclear repulsion energy                         15.2737225723
      Kinetic energy (interpolated)                  1399.3978587290
      Virial theorem                                    0.9613312874
      Total spin, S(S+1)                                7.0174828222
      Total spin, S                                     2.1958269273
      Max non-diagonal density matrix element           0.0000127218
      Max non-diagonal Fock matrix element              0.0000076415
 
 
      All orbitals with orbital energies smaller than  E(LUMO)+0.5 are printed
 
++    Molecular orbitals:
      -------------------
 
      Title: UHF orbitals (alpha)

      Molecular orbitals for symmetry species 1: a  
 
          Orbital            1         2         3         4         5         6         7         8         9        10    
          Energy         -263.8491  -32.6256  -27.7091  -27.7091  -27.6783  -21.4726   -4.5397   -3.1170   -3.1170   -3.0454
          Occ. No.          1.0000    1.0000    1.0000    1.0000    1.0000    1.0000    1.0000    1.0000    1.0000    1.0000
 
        1 O1     1s         0.0000   -0.0000    0.0000   -0.0000   -0.0000    1.0000    0.0000   -0.0000    0.0000    0.0000
        2 O1     2s         0.0000   -0.0000    0.0000   -0.0000   -0.0000    0.0003    0.0000   -0.0000    0.0000    0.0000
        3 O1     3s         0.0000   -0.0000    0.0000   -0.0000   -0.0000   -0.0010    0.0001   -0.0000    0.0000    0.0000
        4 O1     2px        0.0000    0.0000    0.0000   -0.0000    0.0000   -0.0000   -0.0000   -0.0000    0.0000   -0.0000
        5 O1     3px        0.0000    0.0000    0.0000   -0.0000    0.0000    0.0000    0.0000   -0.0000    0.0000   -0.0000
        6 O1     2py       -0.0000   -0.0000   -0.0000   -0.0000   -0.0000    0.0000    0.0000    0.0000    0.0000    0.0000
        7 O1     3py       -0.0000   -0.0000   -0.0000   -0.0000   -0.0000   -0.0000   -0.0000    0.0000    0.0000    0.0000
        8 O1     2pz       -0.0000    0.0000   -0.0000    0.0000    0.0000   -0.0000   -0.0000    0.0000   -0.0000   -0.0000
        9 O1     3pz        0.0000    0.0000   -0.0000    0.0000    0.0000    0.0000   -0.0001    0.0000   -0.0000   -0.0001
       10 O1     3d2-      -0.0000   -0.0000   -0.0000    0.0000   -0.0000    0.0000   -0.0000    0.0000   -0.0000   -0.0000
       11 O1     3d1-       0.0000    0.0000    0.0000    0.0000    0.0000    0.0000    0.0000   -0.0000   -0.0000   -0.0000
       12 O1     3d0       -0.0000   -0.0000    0.0000   -0.0000   -0.0000   -0.0015    0.0000   -0.0000    0.0000    0.0000
       13 O1     3d1+      -0.0000   -0.0000   -0.0000    0.0000   -0.0000   -0.0000   -0.0000    0.0000   -0.0000    0.0000
       14 O1     3d2+      -0.0000   -0.0000   -0.0000   -0.0000    0.0000    0.0000   -0.0000    0.0000    0.0000    0.0000
       15 FE2    1s         1.0000    0.0000    0.0000   -0.0000   -0.0000    0.0000   -0.0000   -0.0000    0.0000    0.0000
       16 FE2    2s        -0.0000    1.0000    0.0000   -0.0000   -0.0002   -0.0000   -0.0023    0.0000   -0.0000   -0.0000
       17 FE2    3s         0.0000    0.0023    0.0000   -0.0000   -0.0000   -0.0000    0.9999    0.0000   -0.0000   -0.0009
       18 FE2    4s        -0.0000   -0.0001   -0.0000    0.0000    0.0000    0.0000    0.0063   -0.0000    0.0000    0.0004
       19 FE2    5s         0.0000    0.0001    0.0000   -0.0000   -0.0000    0.0000   -0.0044    0.0000   -0.0000   -0.0003
       20 FE2    2px       -0.0000   -0.0000   -0.2553    0.9669   -0.0000   -0.0000    0.0000    0.0005   -0.0020    0.0000
       21 FE2    3px        0.0000   -0.0000   -0.0005    0.0020   -0.0000    0.0000   -0.0000   -0.2398    0.9708   -0.0000
       22 FE2    4px       -0.0000    0.0000    0.0001   -0.0002    0.0000   -0.0000    0.0000   -0.0008    0.0033   -0.0000
       23 FE2    5px        0.0000   -0.0000   -0.0002    0.0006   -0.0000   -0.0000   -0.0000    0.0010   -0.0042    0.0000
       24 FE2    2py        0.0000    0.0000    0.9669    0.2553    0.0001    0.0000   -0.0000   -0.0020   -0.0005   -0.0000
       25 FE2    3py       -0.0000    0.0000    0.0020    0.0005    0.0000   -0.0000    0.0000    0.9708    0.2398    0.0001
       26 FE2    4py        0.0000   -0.0000   -0.0002   -0.0001   -0.0000    0.0000   -0.0000    0.0033    0.0008    0.0000
       27 FE2    5py       -0.0000    0.0000    0.0006    0.0002    0.0000    0.0000    0.0000   -0.0042   -0.0010   -0.0000
       28 FE2    2pz        0.0000    0.0002   -0.0001    0.0000    1.0000   -0.0000   -0.0000    0.0000   -0.0000   -0.0016
       29 FE2    3pz       -0.0000    0.0000   -0.0000    0.0000    0.0016   -0.0000    0.0009   -0.0001    0.0000    1.0000
       30 FE2    4pz        0.0000   -0.0000    0.0000   -0.0000   -0.0001    0.0000    0.0001   -0.0000    0.0000    0.0056
       31 FE2    5pz       -0.0000    0.0000   -0.0000    0.0000    0.0003    0.0000   -0.0001    0.0000   -0.0000   -0.0056
       32 FE2    3d2-       0.0000    0.0000   -0.0000    0.0000    0.0000    0.0000    0.0000   -0.0000    0.0000    0.0000
       33 FE2    4d2-      -0.0000   -0.0000    0.0000   -0.0000   -0.0000   -0.0000   -0.0000    0.0000   -0.0000   -0.0000
       34 FE2    3d1-      -0.0000   -0.0000    0.0000    0.0000    0.0000    0.0000   -0.0000    0.0004    0.0001    0.0000
       35 FE2    4d1-       0.0000    0.0000   -0.0000   -0.0000   -0.0000    0.0000    0.0000    0.0000    0.0000    0.0000
       36 FE2    3d0       -0.0000   -0.0005   -0.0000    0.0000    0.0000    0.0000   -0.0124   -0.0000    0.0000    0.0005
       37 FE2    4d0        0.0000    0.0004    0.0000   -0.0000   -0.0000    0.0000    0.0041    0.0000   -0.0000    0.0001
       38 FE2    3d1+       0.0000    0.0000   -0.0000    0.0000   -0.0000   -0.0000    0.0000   -0.0001    0.0004   -0.0000
       39 FE2    4d1+      -0.0000   -0.0000    0.0000   -0.0000    0.0000   -0.0000   -0.0000   -0.0000    0.0000   -0.0000
       40 FE2    3d2+       0.0000    0.0000   -0.0000   -0.0000    0.0000   -0.0000    0.0000   -0.0000   -0.0000    0.0000
       41 FE2    4d2+      -0.0000   -0.0000    0.0000    0.0000   -0.0000   -0.0000   -0.0000    0.0000    0.0000   -0.0000
       42 FE2    4f3-       0.0000    0.0000    0.0000    0.0000   -0.0000    0.0000    0.0000    0.0000    0.0000   -0.0000
       43 FE2    4f2-       0.0000    0.0000    0.0000   -0.0000    0.0000   -0.0000    0.0000    0.0000   -0.0000    0.0000
       44 FE2    4f1-      -0.0000   -0.0000   -0.0003   -0.0001   -0.0000    0.0000   -0.0000   -0.0078   -0.0019   -0.0000
       45 FE2    4f0       -0.0000   -0.0000    0.0000   -0.0000   -0.0001    0.0000   -0.0000    0.0000   -0.0000   -0.0018
       46 FE2    4f1+       0.0000    0.0000    0.0001   -0.0003    0.0000   -0.0000    0.0000    0.0019   -0.0078    0.0000
       47 FE2    4f2+       0.0000    0.0000    0.0000    0.0000    0.0000    0.0000    0.0000    0.0000    0.0000    0.0000
       48 FE2    4f3+       0.0000    0.0000   -0.0000    0.0000   -0.0000    0.0000    0.0000   -0.0000    0.0000   -0.0000
 
          Orbital           11        12        13        14        15        16        17        18        19        20    
          Energy           -1.9842   -1.3697   -1.3697   -0.8511   -0.8511   -0.8119   -0.7771   -0.7771   -0.5285   -0.3028
          Occ. No.          1.0000    1.0000    1.0000    1.0000    1.0000    1.0000    1.0000    1.0000    0.0000    0.0000
 
        1 O1     1s        -0.0004   -0.0000   -0.0000    0.0000    0.0000   -0.0000    0.0000    0.0000    0.0000   -0.0001
        2 O1     2s         0.9962    0.0000    0.0000    0.0000    0.0000   -0.0000    0.0000    0.0000    0.0034   -0.0010
        3 O1     3s        -0.0712   -0.0000   -0.0000    0.0000    0.0000   -0.0000    0.0000    0.0000   -0.0032    0.0009
        4 O1     2px       -0.0000   -0.2862    0.9475   -0.0000    0.0000    0.0000    0.0000   -0.0000    0.0000    0.0000
        5 O1     3px        0.0000    0.0413   -0.1367   -0.0000    0.0000    0.0000    0.0000   -0.0000    0.0000    0.0000
        6 O1     2py        0.0000    0.9475    0.2862   -0.0000   -0.0000   -0.0000   -0.0000   -0.0000   -0.0001   -0.0000
        7 O1     3py       -0.0000   -0.1367   -0.0413   -0.0000   -0.0000   -0.0000   -0.0000   -0.0000   -0.0000   -0.0000
        8 O1     2pz       -0.0037    0.0001    0.0000   -0.0000   -0.0000    0.0002   -0.0000   -0.0000    0.9945    0.0042
        9 O1     3pz       -0.0001   -0.0000   -0.0000   -0.0000   -0.0000    0.0003   -0.0000   -0.0000    0.1049   -0.0019
       10 O1     3d2-       0.0000   -0.0000    0.0000   -0.0000    0.0000    0.0000    0.0000   -0.0000    0.0000   -0.0000
       11 O1     3d1-       0.0000   -0.0011   -0.0003   -0.0000   -0.0000   -0.0000   -0.0000   -0.0000    0.0000   -0.0000
       12 O1     3d0       -0.0510   -0.0000   -0.0000   -0.0000    0.0000   -0.0000   -0.0000   -0.0000   -0.0018    0.0002
       13 O1     3d1+      -0.0000    0.0003   -0.0011   -0.0000    0.0000    0.0000    0.0000   -0.0000   -0.0000    0.0000
       14 O1     3d2+       0.0000   -0.0000   -0.0000    0.0000    0.0000   -0.0000    0.0000    0.0000    0.0000   -0.0000
       15 FE2    1s        -0.0000   -0.0000   -0.0000    0.0000    0.0000    0.0000   -0.0000   -0.0000    0.0000    0.0000
       16 FE2    2s         0.0000   -0.0000   -0.0000    0.0000    0.0000    0.0004   -0.0000   -0.0000    0.0000    0.0001
       17 FE2    3s        -0.0000   -0.0000   -0.0000    0.0000    0.0000    0.0124   -0.0000   -0.0000    0.0000   -0.0058
       18 FE2    4s        -0.0000   -0.0000   -0.0000   -0.0000   -0.0000   -0.0168   -0.0000   -0.0000    0.0007    0.9954
       19 FE2    5s        -0.0001   -0.0000   -0.0000    0.0000    0.0000    0.0080   -0.0000   -0.0000    0.0015    0.0706
       20 FE2    2px        0.0000   -0.0000    0.0000   -0.0000    0.0000    0.0000    0.0000   -0.0000   -0.0000    0.0000
       21 FE2    3px       -0.0000   -0.0000    0.0000   -0.0000    0.0000    0.0000    0.0001   -0.0004   -0.0000    0.0000
       22 FE2    4px       -0.0000   -0.0000    0.0001    0.0000   -0.0000   -0.0000   -0.0016    0.0058   -0.0000    0.0000
       23 FE2    5px       -0.0000   -0.0000    0.0001    0.0000   -0.0000   -0.0000   -0.0001    0.0003   -0.0000    0.0000
       24 FE2    2py       -0.0000    0.0000    0.0000   -0.0000   -0.0000   -0.0000   -0.0000   -0.0000    0.0000   -0.0000
       25 FE2    3py        0.0000    0.0000    0.0000   -0.0000   -0.0000   -0.0000   -0.0004   -0.0001    0.0000   -0.0000
       26 FE2    4py        0.0000    0.0001    0.0000    0.0000    0.0000    0.0000    0.0058    0.0016    0.0000   -0.0000
       27 FE2    5py        0.0000    0.0001    0.0000    0.0000    0.0000    0.0000    0.0003    0.0001    0.0000   -0.0000
       28 FE2    2pz        0.0000   -0.0000   -0.0000    0.0000    0.0000   -0.0000    0.0000    0.0000    0.0000    0.0000
       29 FE2    3pz       -0.0000   -0.0000   -0.0000    0.0000    0.0000   -0.0005    0.0000    0.0000    0.0000   -0.0007
       30 FE2    4pz       -0.0000   -0.0000   -0.0000   -0.0000   -0.0000    0.0064   -0.0000   -0.0000    0.0007    0.0609
       31 FE2    5pz       -0.0000   -0.0000   -0.0000   -0.0000   -0.0000    0.0002   -0.0000   -0.0000    0.0002    0.0088
       32 FE2    3d2-       0.0000   -0.0000    0.0000   -0.2790    0.9603   -0.0000   -0.0000    0.0001    0.0000   -0.0000
       33 FE2    4d2-       0.0000    0.0000   -0.0000   -0.0010    0.0033   -0.0000   -0.0000    0.0000   -0.0000    0.0000
       34 FE2    3d1-      -0.0000    0.0000    0.0000    0.0001    0.0000    0.0001    0.9617    0.2726   -0.0000    0.0000
       35 FE2    4d1-       0.0000    0.0000    0.0000    0.0000    0.0000    0.0000    0.0259    0.0074    0.0000   -0.0000
       36 FE2    3d0       -0.0000   -0.0000   -0.0000   -0.0000   -0.0000    0.9996   -0.0002   -0.0000    0.0002    0.0160
       37 FE2    4d0        0.0000   -0.0000   -0.0000   -0.0000   -0.0000    0.0152   -0.0000   -0.0000    0.0001   -0.0090
       38 FE2    3d1+       0.0000   -0.0000    0.0000    0.0000   -0.0001   -0.0000   -0.2726    0.9617    0.0000   -0.0000
       39 FE2    4d1+      -0.0000   -0.0000    0.0000    0.0000   -0.0000   -0.0000   -0.0074    0.0259   -0.0000    0.0000
       40 FE2    3d2+       0.0000   -0.0000   -0.0000    0.9603    0.2790   -0.0000   -0.0001   -0.0000    0.0000   -0.0000
       41 FE2    4d2+       0.0000    0.0000    0.0000    0.0033    0.0010   -0.0000   -0.0000   -0.0000   -0.0000    0.0000
       42 FE2    4f3-      -0.0000   -0.0000   -0.0000    0.0000    0.0000   -0.0000   -0.0000   -0.0000    0.0000   -0.0000
       43 FE2    4f2-       0.0000   -0.0000    0.0000   -0.0001    0.0004   -0.0000   -0.0000    0.0000    0.0000   -0.0000
       44 FE2    4f1-       0.0000    0.0000    0.0000    0.0000    0.0000    0.0000    0.0005    0.0001   -0.0000   -0.0000
       45 FE2    4f0        0.0000   -0.0000   -0.0000   -0.0000   -0.0000    0.0005   -0.0000   -0.0000   -0.0000    0.0000
       46 FE2    4f1+      -0.0000   -0.0000    0.0000    0.0000   -0.0000   -0.0000   -0.0001    0.0005    0.0000    0.0000
       47 FE2    4f2+       0.0000   -0.0000   -0.0000    0.0004    0.0001   -0.0000   -0.0000   -0.0000    0.0000   -0.0000
       48 FE2    4f3+      -0.0000    0.0000   -0.0000    0.0000   -0.0000   -0.0000    0.0000   -0.0000    0.0000   -0.0000
 
          Orbital           21        22        23        24    
          Energy           -0.1569   -0.1569   -0.1470   -0.0679
          Occ. No.          0.0000    0.0000    0.0000    0.0000
 
        1 O1     1s         0.0000    0.0000   -0.0002   -0.0003
        2 O1     2s         0.0000    0.0000   -0.0015   -0.0029
        3 O1     3s        -0.0000   -0.0000    0.0032    0.0104
        4 O1     2px       -0.0001    0.0003    0.0000    0.0000
        5 O1     3px       -0.0008    0.0027    0.0000    0.0000
        6 O1     2py        0.0003    0.0001   -0.0000   -0.0000
        7 O1     3py        0.0027    0.0008   -0.0000   -0.0000
        8 O1     2pz       -0.0000   -0.0000    0.0072    0.0146
        9 O1     3pz        0.0000    0.0000   -0.0134   -0.0366
       10 O1     3d2-       0.0000   -0.0000   -0.0000   -0.0000
       11 O1     3d1-      -0.0001   -0.0000   -0.0000   -0.0000
       12 O1     3d0       -0.0000   -0.0000    0.0003    0.0010
       13 O1     3d1+       0.0000   -0.0001    0.0000    0.0000
       14 O1     3d2+       0.0000    0.0000   -0.0000   -0.0000
       15 FE2    1s         0.0000    0.0000   -0.0000   -0.0000
       16 FE2    2s         0.0000    0.0000   -0.0000   -0.0002
       17 FE2    3s        -0.0000   -0.0000    0.0004    0.0046
       18 FE2    4s         0.0000    0.0000   -0.0654   -0.0674
       19 FE2    5s        -0.0000   -0.0000    0.0525    0.9934
       20 FE2    2px       -0.0000    0.0001   -0.0000   -0.0000
       21 FE2    3px        0.0008   -0.0027    0.0000   -0.0000
       22 FE2    4px       -0.2694    0.9561   -0.0000    0.0000
       23 FE2    5px       -0.0311    0.1102   -0.0000    0.0000
       24 FE2    2py        0.0001    0.0000    0.0000    0.0000
       25 FE2    3py       -0.0027   -0.0008   -0.0000    0.0000
       26 FE2    4py        0.9561    0.2694    0.0001   -0.0000
       27 FE2    5py        0.1102    0.0311    0.0000   -0.0000
       28 FE2    2pz       -0.0000   -0.0000    0.0001   -0.0000
       29 FE2    3pz        0.0000    0.0000   -0.0048    0.0006
       30 FE2    4pz       -0.0001   -0.0000    0.9887   -0.0590
       31 FE2    5pz       -0.0000   -0.0000    0.1202   -0.0036
       32 FE2    3d2-       0.0000   -0.0000    0.0000    0.0000
       33 FE2    4d2-       0.0000   -0.0000   -0.0000   -0.0000
       34 FE2    3d1-      -0.0060   -0.0017   -0.0000   -0.0000
       35 FE2    4d1-       0.0055    0.0015    0.0000    0.0000
       36 FE2    3d0        0.0000    0.0000   -0.0080   -0.0090
       37 FE2    4d0       -0.0000   -0.0000    0.0094    0.0142
       38 FE2    3d1+       0.0017   -0.0060    0.0000    0.0000
       39 FE2    4d1+      -0.0015    0.0055   -0.0000   -0.0000
       40 FE2    3d2+       0.0000    0.0000    0.0000    0.0000
       41 FE2    4d2+       0.0000    0.0000   -0.0000   -0.0000
       42 FE2    4f3-       0.0000    0.0000    0.0000    0.0000
       43 FE2    4f2-       0.0000   -0.0000    0.0000    0.0000
       44 FE2    4f1-      -0.0001   -0.0000   -0.0000    0.0000
       45 FE2    4f0        0.0000    0.0000   -0.0005    0.0000
       46 FE2    4f1+       0.0000   -0.0001    0.0000   -0.0000
       47 FE2    4f2+       0.0000    0.0000    0.0000    0.0000
       48 FE2    4f3+      -0.0000    0.0000    0.0000    0.0000
--
 
 
  Input file to MOLDEN was generated!
 
 
++    Static properties:
      ------------------
 
 
      LoProp Charges per center
 

                   O1       FE2   
      Nuclear      8.0000  26.0000
      Electronic  -7.0000 -25.0000
 
      Total        1.0000   1.0000
--
 
 
      All orbitals with orbital energies smaller than  E(LUMO)+0.5 are printed
 
++    Molecular orbitals:
      -------------------
 
      Title: UHF orbitals (beta)

      Molecular orbitals for symmetry species 1: a  
 
          Orbital            1         2         3         4         5         6         7         8         9        10    
          Energy         -263.8478  -32.5408  -27.6148  -27.6148  -27.6141  -21.4256   -4.2882   -2.8214   -2.7723   -2.7723
          Occ. No.          1.0000    1.0000    1.0000    1.0000    1.0000    1.0000    1.0000    1.0000    1.0000    1.0000
 
        1 O1     1s         0.0000   -0.0000   -0.0000    0.0000    0.0000    1.0000    0.0000    0.0000   -0.0000   -0.0000
        2 O1     2s         0.0000   -0.0000   -0.0000    0.0000    0.0000   -0.0019    0.0000    0.0000   -0.0000   -0.0000
        3 O1     3s         0.0000    0.0000   -0.0000    0.0000    0.0000    0.0002    0.0001    0.0000   -0.0000   -0.0000
        4 O1     2px       -0.0000    0.0000   -0.0000    0.0000   -0.0000    0.0000    0.0000   -0.0000   -0.0000    0.0000
        5 O1     3px        0.0000    0.0000   -0.0000    0.0000   -0.0000   -0.0000   -0.0000   -0.0000   -0.0000    0.0000
        6 O1     2py        0.0000   -0.0000    0.0000    0.0000    0.0000   -0.0000   -0.0000    0.0000    0.0000    0.0000
        7 O1     3py       -0.0000   -0.0000    0.0000    0.0000    0.0000    0.0000    0.0000    0.0000    0.0000    0.0000
        8 O1     2pz       -0.0000   -0.0000    0.0000   -0.0000   -0.0000   -0.0000   -0.0000   -0.0000    0.0000    0.0000
        9 O1     3pz        0.0000   -0.0000    0.0000   -0.0000   -0.0000   -0.0000   -0.0001   -0.0001    0.0000    0.0000
       10 O1     3d2-      -0.0000   -0.0000   -0.0000    0.0000   -0.0000   -0.0000   -0.0000   -0.0000   -0.0000    0.0000
       11 O1     3d1-       0.0000    0.0000   -0.0000   -0.0000   -0.0000   -0.0000    0.0000   -0.0000   -0.0000   -0.0000
       12 O1     3d0       -0.0000    0.0000   -0.0000    0.0000    0.0000    0.0015    0.0000    0.0000   -0.0000   -0.0000
       13 O1     3d1+      -0.0000   -0.0000    0.0000   -0.0000    0.0000    0.0000   -0.0000    0.0000    0.0000   -0.0000
       14 O1     3d2+      -0.0000   -0.0000   -0.0000   -0.0000    0.0000   -0.0000   -0.0000    0.0000   -0.0000   -0.0000
       15 FE2    1s         1.0000    0.0000    0.0000   -0.0000   -0.0000   -0.0000   -0.0000    0.0000   -0.0000   -0.0000
       16 FE2    2s        -0.0000    1.0000    0.0000   -0.0000   -0.0002   -0.0000    0.0002   -0.0000    0.0000    0.0000
       17 FE2    3s         0.0000   -0.0002   -0.0000    0.0000    0.0000    0.0000    1.0000   -0.0010    0.0000    0.0000
       18 FE2    4s        -0.0000    0.0001   -0.0000    0.0000    0.0000   -0.0000    0.0076    0.0005   -0.0000   -0.0000
       19 FE2    5s         0.0000   -0.0002    0.0000   -0.0000   -0.0000   -0.0000   -0.0057   -0.0003    0.0000    0.0000
       20 FE2    2px       -0.0000   -0.0000   -0.2662    0.9639   -0.0000   -0.0000   -0.0000   -0.0000   -0.0006    0.0018
       21 FE2    3px        0.0000    0.0000    0.0005   -0.0018    0.0000   -0.0000    0.0000   -0.0000   -0.3107    0.9504
       22 FE2    4px       -0.0000   -0.0000   -0.0001    0.0003   -0.0000    0.0000   -0.0000   -0.0000   -0.0025    0.0077
       23 FE2    5px        0.0000   -0.0000    0.0002   -0.0007    0.0000    0.0000   -0.0000    0.0000    0.0028   -0.0085
       24 FE2    2py        0.0000    0.0000    0.9639    0.2662    0.0001    0.0000    0.0000    0.0000    0.0018    0.0006
       25 FE2    3py       -0.0000   -0.0000   -0.0018   -0.0005   -0.0000    0.0000   -0.0000    0.0001    0.9504    0.3107
       26 FE2    4py        0.0000    0.0000    0.0003    0.0001    0.0000   -0.0000    0.0000    0.0000    0.0077    0.0025
       27 FE2    5py       -0.0000    0.0000   -0.0007   -0.0002   -0.0000   -0.0000    0.0000   -0.0000   -0.0085   -0.0028
       28 FE2    2pz        0.0000    0.0002   -0.0001    0.0000    1.0000   -0.0000   -0.0000    0.0010   -0.0000   -0.0000
       29 FE2    3pz       -0.0000    0.0000    0.0000   -0.0000   -0.0010    0.0000    0.0010    0.9997   -0.0001   -0.0000
       30 FE2    4pz        0.0000   -0.0000   -0.0000    0.0000    0.0003   -0.0000    0.0001    0.0107   -0.0000   -0.0000
       31 FE2    5pz       -0.0000    0.0000    0.0000   -0.0000   -0.0007   -0.0000   -0.0001   -0.0099    0.0000    0.0000
       32 FE2    3d2-      -0.0000   -0.0000   -0.0000    0.0000   -0.0000    0.0000   -0.0000   -0.0000    0.0000   -0.0000
       33 FE2    4d2-      -0.0000   -0.0000    0.0000   -0.0000    0.0000   -0.0000    0.0000    0.0000   -0.0000    0.0000
       34 FE2    3d1-       0.0000    0.0000    0.0000    0.0000    0.0000   -0.0000    0.0000    0.0000    0.0003    0.0001
       35 FE2    4d1-       0.0000    0.0000   -0.0000   -0.0000   -0.0000   -0.0000    0.0000   -0.0000    0.0002    0.0001
       36 FE2    3d0        0.0000    0.0000   -0.0000    0.0000    0.0000   -0.0000    0.0010    0.0008   -0.0000   -0.0000
       37 FE2    4d0        0.0000    0.0000    0.0000   -0.0000   -0.0000   -0.0000    0.0005   -0.0001   -0.0000   -0.0000
       38 FE2    3d1+      -0.0000   -0.0000   -0.0000    0.0000   -0.0000    0.0000   -0.0000   -0.0000   -0.0001    0.0003
       39 FE2    4d1+      -0.0000   -0.0000    0.0000   -0.0000    0.0000    0.0000   -0.0000    0.0000   -0.0001    0.0002
       40 FE2    3d2+      -0.0000   -0.0000   -0.0000   -0.0000   -0.0000    0.0000   -0.0000   -0.0000    0.0000    0.0000
       41 FE2    4d2+      -0.0000   -0.0000    0.0000    0.0000    0.0000    0.0000    0.0000    0.0000   -0.0000   -0.0000
       42 FE2    4f3-       0.0000   -0.0000   -0.0000   -0.0000    0.0000    0.0000   -0.0000    0.0000   -0.0000   -0.0000
       43 FE2    4f2-       0.0000   -0.0000   -0.0000    0.0000    0.0000    0.0000   -0.0000    0.0000   -0.0000    0.0000
       44 FE2    4f1-      -0.0000    0.0000    0.0007    0.0002   -0.0000   -0.0000    0.0000   -0.0000    0.0122    0.0040
       45 FE2    4f0       -0.0000    0.0000   -0.0000    0.0000   -0.0011   -0.0000    0.0000   -0.0211   -0.0000   -0.0000
       46 FE2    4f1+       0.0000   -0.0000   -0.0002    0.0007    0.0000    0.0000   -0.0000    0.0000   -0.0040    0.0122
       47 FE2    4f2+       0.0000   -0.0000   -0.0000   -0.0000    0.0000    0.0000   -0.0000    0.0000   -0.0000   -0.0000
       48 FE2    4f3+       0.0000   -0.0000    0.0000   -0.0000    0.0000    0.0000   -0.0000    0.0000    0.0000   -0.0000
 
          Orbital           11        12        13        14        15        16        17        18        19        20    
          Energy           -1.8043   -1.3246   -0.6751   -0.6751   -0.4951   -0.4951   -0.2856   -0.1359   -0.1359   -0.1355
          Occ. No.          1.0000    1.0000    1.0000    1.0000    0.0000    0.0000    0.0000    0.0000    0.0000    0.0000
 
        1 O1     1s         0.0018    0.0000   -0.0000    0.0000    0.0000    0.0000   -0.0001    0.0000   -0.0000   -0.0002
        2 O1     2s         0.9974    0.0026   -0.0000    0.0000    0.0000    0.0000   -0.0015    0.0000   -0.0000   -0.0018
        3 O1     3s        -0.0469   -0.0020    0.0000   -0.0000   -0.0000   -0.0000    0.0011   -0.0000    0.0000    0.0030
        4 O1     2px        0.0000    0.0000   -0.0000    0.0000   -0.2967    0.9457   -0.0000    0.0003   -0.0010    0.0000
        5 O1     3px       -0.0000   -0.0000   -0.0000    0.0000   -0.0396    0.1264   -0.0000   -0.0005    0.0018   -0.0000
        6 O1     2py       -0.0000   -0.0001   -0.0000   -0.0000    0.9457    0.2967    0.0000   -0.0010   -0.0003   -0.0000
        7 O1     3py        0.0000    0.0000   -0.0000   -0.0000    0.1264    0.0396    0.0000    0.0018    0.0005    0.0000
        8 O1     2pz       -0.0028    0.9917    0.0000   -0.0000    0.0001    0.0000    0.0007    0.0000   -0.0000   -0.0017
        9 O1     3pz       -0.0010   -0.1281    0.0000   -0.0000    0.0000    0.0000   -0.0048    0.0000   -0.0000   -0.0239
       10 O1     3d2-      -0.0000   -0.0000    0.0000   -0.0000    0.0000   -0.0000    0.0000   -0.0000    0.0000    0.0000
       11 O1     3d1-      -0.0000    0.0000   -0.0000   -0.0000   -0.0009   -0.0003    0.0000   -0.0001   -0.0000   -0.0000
       12 O1     3d0        0.0553   -0.0007    0.0000   -0.0000   -0.0000   -0.0000    0.0001   -0.0000    0.0000    0.0002
       13 O1     3d1+       0.0000   -0.0000   -0.0000    0.0000    0.0003   -0.0009   -0.0000    0.0000   -0.0001    0.0000
       14 O1     3d2+      -0.0000   -0.0000   -0.0000   -0.0000    0.0000    0.0000    0.0000   -0.0000   -0.0000    0.0000
       15 FE2    1s        -0.0000   -0.0000   -0.0000    0.0000    0.0000    0.0000    0.0000    0.0000   -0.0000   -0.0000
       16 FE2    2s        -0.0000   -0.0000   -0.0000    0.0000    0.0000    0.0000   -0.0001   -0.0000    0.0000    0.0000
       17 FE2    3s        -0.0000   -0.0000    0.0000   -0.0000    0.0000    0.0000   -0.0067   -0.0000    0.0000    0.0006
       18 FE2    4s        -0.0001   -0.0004    0.0000   -0.0000    0.0000    0.0000    0.9869    0.0001   -0.0000   -0.0730
       19 FE2    5s        -0.0002   -0.0008   -0.0000    0.0000    0.0000    0.0000    0.1461   -0.0000    0.0000    0.0338
       20 FE2    2px       -0.0000    0.0000   -0.0000    0.0000    0.0000   -0.0000   -0.0000    0.0001   -0.0002    0.0000
       21 FE2    3px       -0.0000   -0.0000   -0.0004    0.0001    0.0000   -0.0000    0.0000    0.0019   -0.0066    0.0000
       22 FE2    4px        0.0000    0.0000    0.0096   -0.0026    0.0000   -0.0001    0.0000   -0.2680    0.9545   -0.0003
       23 FE2    5px        0.0000    0.0000    0.0006   -0.0002    0.0000   -0.0000    0.0000   -0.0351    0.1250   -0.0000
       24 FE2    2py        0.0000   -0.0000   -0.0000   -0.0000   -0.0000   -0.0000    0.0000   -0.0002   -0.0001   -0.0000
       25 FE2    3py        0.0000    0.0000   -0.0001   -0.0004   -0.0000   -0.0000   -0.0000   -0.0066   -0.0019   -0.0000
       26 FE2    4py       -0.0000   -0.0000    0.0026    0.0096   -0.0001   -0.0000   -0.0000    0.9545    0.2680    0.0010
       27 FE2    5py       -0.0000   -0.0000    0.0002    0.0006   -0.0000   -0.0000   -0.0000    0.1250    0.0351    0.0001
       28 FE2    2pz       -0.0000   -0.0000   -0.0000    0.0000    0.0000    0.0000   -0.0000    0.0000   -0.0000   -0.0002
       29 FE2    3pz       -0.0000   -0.0000   -0.0000    0.0000    0.0000    0.0000   -0.0011    0.0000   -0.0000   -0.0093
       30 FE2    4pz       -0.0001   -0.0005    0.0000   -0.0000    0.0000    0.0000    0.0659   -0.0010    0.0000    0.9871
       31 FE2    5pz       -0.0001   -0.0002    0.0000   -0.0000    0.0000    0.0000    0.0102   -0.0001    0.0000    0.1295
       32 FE2    3d2-       0.0000   -0.0000    0.0001   -0.0000    0.0000   -0.0000   -0.0000    0.0000   -0.0000    0.0000
       33 FE2    4d2-      -0.0000   -0.0000    0.0000   -0.0000    0.0000   -0.0000   -0.0000    0.0000   -0.0000    0.0000
       34 FE2    3d1-      -0.0000    0.0000    0.2627    0.9621   -0.0001   -0.0000    0.0000   -0.0099   -0.0028   -0.0000
       35 FE2    4d1-      -0.0000   -0.0000    0.0191    0.0701   -0.0000   -0.0000   -0.0000    0.0047    0.0013    0.0000
       36 FE2    3d0       -0.0000   -0.0001    0.0000   -0.0002    0.0000    0.0000    0.0011   -0.0000    0.0000    0.0188
       37 FE2    4d0       -0.0000   -0.0001    0.0000   -0.0000    0.0000    0.0000   -0.0021   -0.0000    0.0000    0.0126
       38 FE2    3d1+       0.0000   -0.0000    0.9621   -0.2627    0.0000   -0.0001   -0.0000    0.0028   -0.0099    0.0000
       39 FE2    4d1+       0.0000    0.0000    0.0701   -0.0191    0.0000   -0.0000    0.0000   -0.0013    0.0047   -0.0000
       40 FE2    3d2+       0.0000   -0.0000   -0.0000   -0.0001    0.0000    0.0000   -0.0000    0.0000    0.0000    0.0000
       41 FE2    4d2+      -0.0000   -0.0000   -0.0000   -0.0000    0.0000    0.0000   -0.0000    0.0000    0.0000    0.0000
       42 FE2    4f3-      -0.0000   -0.0000   -0.0000   -0.0000    0.0000    0.0000    0.0000   -0.0000   -0.0000    0.0000
       43 FE2    4f2-      -0.0000   -0.0000    0.0000   -0.0000    0.0000   -0.0000    0.0000   -0.0000    0.0000   -0.0000
       44 FE2    4f1-       0.0000    0.0000    0.0001    0.0005    0.0000    0.0000   -0.0000    0.0013    0.0004    0.0000
       45 FE2    4f0       -0.0000   -0.0000    0.0000   -0.0000   -0.0000   -0.0000   -0.0002    0.0000   -0.0000   -0.0016
       46 FE2    4f1+      -0.0000   -0.0000    0.0005   -0.0001   -0.0000    0.0000    0.0000   -0.0004    0.0013   -0.0000
       47 FE2    4f2+      -0.0000   -0.0000   -0.0000   -0.0000    0.0000    0.0000    0.0000   -0.0000   -0.0000   -0.0000
       48 FE2    4f3+      -0.0000   -0.0000   -0.0000    0.0000   -0.0000    0.0000    0.0000    0.0000   -0.0000    0.0000
 
          Orbital           21        22        23    
          Energy           -0.0478    0.0047    0.0047
          Occ. No.          0.0000    0.0000    0.0000
 
        1 O1     1s        -0.0003   -0.0000   -0.0000
        2 O1     2s        -0.0037   -0.0000   -0.0000
        3 O1     3s         0.0104   -0.0000   -0.0000
        4 O1     2px       -0.0000    0.0000   -0.0000
        5 O1     3px       -0.0000   -0.0000    0.0000
        6 O1     2py        0.0000   -0.0000   -0.0000
        7 O1     3py        0.0000    0.0000    0.0000
        8 O1     2pz       -0.0078    0.0000    0.0000
        9 O1     3pz       -0.0845    0.0000    0.0000
       10 O1     3d2-       0.0000    0.0000   -0.0000
       11 O1     3d1-       0.0000   -0.0000   -0.0000
       12 O1     3d0        0.0005   -0.0000   -0.0000
       13 O1     3d1+      -0.0000    0.0000   -0.0000
       14 O1     3d2+       0.0000    0.0000    0.0000
       15 FE2    1s        -0.0000    0.0000    0.0000
       16 FE2    2s         0.0002    0.0000    0.0000
       17 FE2    3s         0.0066    0.0000    0.0000
       18 FE2    4s        -0.1444    0.0000    0.0000
       19 FE2    5s         0.9808    0.0000    0.0000
       20 FE2    2px        0.0000    0.0000   -0.0000
       21 FE2    3px       -0.0000    0.0000   -0.0000
       22 FE2    4px        0.0000    0.0000   -0.0000
       23 FE2    5px        0.0000    0.0000   -0.0000
       24 FE2    2py       -0.0000   -0.0000   -0.0000
       25 FE2    3py        0.0000   -0.0000   -0.0000
       26 FE2    4py       -0.0000   -0.0000   -0.0000
       27 FE2    5py       -0.0000   -0.0000   -0.0000
       28 FE2    2pz        0.0000    0.0000    0.0000
       29 FE2    3pz        0.0008    0.0000    0.0000
       30 FE2    4pz       -0.0494    0.0000    0.0000
       31 FE2    5pz       -0.0029    0.0000    0.0000
       32 FE2    3d2-      -0.0000    0.7944   -0.5275
       33 FE2    4d2-      -0.0000    0.2509   -0.1666
       34 FE2    3d1-       0.0000    0.0001    0.0001
       35 FE2    4d1-       0.0000    0.0000    0.0000
       36 FE2    3d0        0.0114   -0.0000   -0.0000
       37 FE2    4d0        0.0095   -0.0000   -0.0000
       38 FE2    3d1+      -0.0000   -0.0001    0.0001
       39 FE2    4d1+      -0.0000   -0.0000    0.0000
       40 FE2    3d2+      -0.0000    0.5275    0.7944
       41 FE2    4d2+      -0.0000    0.1666    0.2509
       42 FE2    4f3-      -0.0000    0.0000    0.0000
       43 FE2    4f2-      -0.0000    0.0004   -0.0003
       44 FE2    4f1-       0.0000    0.0000    0.0000
       45 FE2    4f0        0.0002   -0.0000   -0.0000
       46 FE2    4f1+      -0.0000   -0.0000    0.0000
       47 FE2    4f2+      -0.0000    0.0003    0.0004
       48 FE2    4f3+      -0.0000   -0.0000    0.0000
--
 
 
++    Molecular charges:
      ------------------
 
      Mulliken charges per centre and basis function type
      ---------------------------------------------------
 
                            O1                      FE2   
                     alpha        beta       alpha        beta
      1s           1.0000      1.0000      1.0000      1.0000
      2s           0.9923      0.9947      1.0000      1.0000
      2px          0.9796      0.0000      1.0000      1.0000
      2pz          0.0000      0.9836      1.0000      1.0000
      2py          0.9796      0.0000      1.0000      1.0000
      3s           0.0051      0.0022      0.9999      0.9999
      3px          0.0204     -0.0000      0.9999      0.9997
      3pz         -0.0000      0.0164      0.9999      0.9993
      3py          0.0204     -0.0000      0.9999      0.9997
      4s           0.0000      0.0000      0.0003      0.0001
      3d2+         0.0000      0.0000      1.0000      0.0000
      3d1+         0.0000      0.0000      0.9992      0.9946
      3d0          0.0026      0.0031      0.9994      0.0000
      3d1-         0.0000      0.0000      0.9992      0.9946
      3d2-         0.0000      0.0000      1.0000      0.0000
      4px          0.0000      0.0000      0.0000      0.0002
      4pz          0.0000      0.0000      0.0001      0.0001
      4py          0.0000      0.0000      0.0000      0.0002
      5s           0.0000      0.0000      0.0001      0.0000
      4d2+         0.0000      0.0000      0.0000      0.0000
      4d1+         0.0000      0.0000      0.0007      0.0053
      4d0          0.0000      0.0000      0.0002      0.0000
      4d1-         0.0000      0.0000      0.0007      0.0053
      4d2-         0.0000      0.0000      0.0000      0.0000
      5px          0.0000      0.0000      0.0000      0.0001
      5pz          0.0000      0.0000      0.0000      0.0001
      5py          0.0000      0.0000      0.0000      0.0001
      4f3+         0.0000      0.0000      0.0000      0.0000
      4f2+         0.0000      0.0000      0.0000      0.0000
      4f1+         0.0000      0.0000      0.0001      0.0002
      4f0          0.0000      0.0000      0.0000      0.0004
      4f1-         0.0000      0.0000      0.0001      0.0002
      4f2-         0.0000      0.0000      0.0000      0.0000
      4f3-         0.0000      0.0000      0.0000      0.0000
      Total        4.0000      3.0000     14.0000     11.0000
      Total              7.0000                 25.0000
 
      Charge            1.0000                  1.0000
 
      Total electronic charge=   32.000000
 
      Total            charge=    2.000000
--
 
 
  Input file to MOLDEN was generated!
 
 
++    Static properties:
      ------------------
 
 
      LoProp Charges per center
 

                   O1       FE2   
      Nuclear      8.0000  26.0000
      Electronic  -7.0000 -25.0000
 
      Total        1.0000   1.0000
--
 
 
++    Natural Bond Order analysis
      ---------------------------
      Based on LoProp computed density
      -------------------------------------------------------------------------------------
      Atom A       Atom B       Bond Order
      -------------------------------------------------------------------------------------
      NBO located     19.999 core electrons.
      NBO located      5.992 lone pair electrons.
      NBO located      1.000 non-bonded electrons on atom O1        
      NBO located      1.000 non-bonded electrons on atom O1        
      NBO located      1.000 non-bonded electrons on atom O1        
      NBO located      1.000 non-bonded electrons on atom FE2       
      NBO located      1.000 non-bonded electrons on atom FE2       
      NBO located      1.000 non-bonded electrons on atom FE2       
      The remaining    0.009 electrons are to be considered as diffuse
--
 
 
++    Molecular orbitals:
      -------------------
 
      Title: Natural orbitals

      Molecular orbitals for symmetry species 1: a  
 
          Orbital            1         2         3         4         5         6         7         8         9        10    
          Energy         -263.8484  -32.2459  -21.4333  -27.5431  -27.5595  -27.5594   -4.7510   -3.0345   -3.0456   -3.0457
          Occ. No.          2.0000    2.0000    2.0000    2.0000    2.0000    2.0000    2.0000    1.9998    1.9998    1.9998
 
        1 O1     1s         0.0000   -0.0015    0.9995    0.0135   -0.0000    0.0000    0.0009    0.0000   -0.0000    0.0000
        2 O1     2s         0.0000    0.0000   -0.0301   -0.0004    0.0000   -0.0000    0.0000    0.0001   -0.0000    0.0000
        3 O1     3s         0.0000   -0.0000    0.0014    0.0000   -0.0000    0.0000    0.0001    0.0000   -0.0000    0.0000
        4 O1     2px       -0.0000   -0.0000   -0.0000   -0.0000    0.0000   -0.0000    0.0000   -0.0000   -0.0000    0.0000
        5 O1     3px        0.0000    0.0000    0.0000    0.0000    0.0000   -0.0000    0.0000   -0.0000   -0.0000    0.0000
        6 O1     2py        0.0000    0.0000    0.0000    0.0000   -0.0000   -0.0000   -0.0000    0.0000    0.0000    0.0000
        7 O1     3py       -0.0000   -0.0000   -0.0000   -0.0000   -0.0000   -0.0000   -0.0000    0.0000    0.0000    0.0000
        8 O1     2pz        0.0000    0.0000    0.0001    0.0000   -0.0000    0.0000   -0.0000   -0.0000    0.0000   -0.0000
        9 O1     3pz        0.0000    0.0000    0.0000    0.0000   -0.0000    0.0000   -0.0001   -0.0001    0.0000   -0.0000
       10 O1     3d2-      -0.0000   -0.0000    0.0000    0.0000   -0.0000    0.0000    0.0000   -0.0000   -0.0000    0.0000
       11 O1     3d1-       0.0000   -0.0000    0.0000    0.0000    0.0000    0.0000    0.0000   -0.0000   -0.0000   -0.0000
       12 O1     3d0       -0.0000   -0.0000   -0.0000   -0.0000    0.0000   -0.0000    0.0000    0.0000   -0.0000    0.0000
       13 O1     3d1+      -0.0000    0.0000   -0.0000   -0.0000   -0.0000    0.0000   -0.0000    0.0000    0.0000   -0.0000
       14 O1     3d2+      -0.0000   -0.0000    0.0000    0.0000   -0.0000   -0.0000    0.0000   -0.0000   -0.0000   -0.0000
       15 FE2    1s         1.0000   -0.0001   -0.0000   -0.0000    0.0000   -0.0000    0.0002    0.0000   -0.0000    0.0000
       16 FE2    2s         0.0001    0.9941    0.0014    0.0007   -0.0000    0.0000    0.1084    0.0000    0.0000   -0.0000
       17 FE2    3s        -0.0002   -0.1084   -0.0011    0.0027    0.0000   -0.0000    0.9941   -0.0013    0.0000   -0.0000
       18 FE2    4s        -0.0000   -0.0008   -0.0000   -0.0000    0.0000   -0.0000    0.0068    0.0005   -0.0000    0.0000
       19 FE2    5s         0.0000    0.0005    0.0000    0.0000   -0.0000    0.0000   -0.0049   -0.0003    0.0000   -0.0000
       20 FE2    2px       -0.0000    0.0000    0.0000   -0.0000   -0.2547    0.9649    0.0000   -0.0000   -0.0155    0.0624
       21 FE2    3px        0.0000    0.0000   -0.0000    0.0000    0.0164   -0.0622    0.0000   -0.0000   -0.2412    0.9682
       22 FE2    4px        0.0000   -0.0000   -0.0000    0.0000    0.0001   -0.0003   -0.0000   -0.0000   -0.0013    0.0054
       23 FE2    5px        0.0000   -0.0000    0.0000   -0.0000   -0.0001    0.0003   -0.0000    0.0000    0.0016   -0.0064
       24 FE2    2py        0.0000   -0.0000   -0.0000    0.0001    0.9649    0.2547   -0.0000    0.0000    0.0624    0.0155
       25 FE2    3py       -0.0000   -0.0000    0.0000   -0.0000   -0.0621   -0.0164   -0.0000    0.0001    0.9682    0.2412
       26 FE2    4py       -0.0000    0.0000    0.0000   -0.0000   -0.0003   -0.0001    0.0000    0.0000    0.0054    0.0013
       27 FE2    5py       -0.0000    0.0000   -0.0000    0.0000    0.0003    0.0001    0.0000   -0.0000   -0.0064   -0.0016
       28 FE2    2pz        0.0000   -0.0004   -0.0135    0.9979   -0.0001    0.0000   -0.0027    0.0639   -0.0000    0.0000
       29 FE2    3pz       -0.0000   -0.0002    0.0008   -0.0639    0.0000   -0.0000    0.0015    0.9978   -0.0001    0.0000
       30 FE2    4pz       -0.0000   -0.0000    0.0000   -0.0004    0.0000   -0.0000    0.0001    0.0081   -0.0000    0.0000
       31 FE2    5pz       -0.0000    0.0000   -0.0000    0.0003   -0.0000    0.0000   -0.0001   -0.0078    0.0000   -0.0000
       32 FE2    3d2-       0.0000   -0.0000    0.0000    0.0000    0.0000   -0.0000   -0.0000   -0.0000    0.0000   -0.0000
       33 FE2    4d2-       0.0000   -0.0000    0.0000   -0.0000    0.0000   -0.0000   -0.0000   -0.0000    0.0000   -0.0000
       34 FE2    3d1-      -0.0000    0.0000   -0.0000   -0.0000   -0.0001   -0.0000    0.0000    0.0000   -0.0149   -0.0037
       35 FE2    4d1-      -0.0000    0.0000   -0.0000    0.0000   -0.0000   -0.0000    0.0000    0.0000   -0.0006   -0.0002
       36 FE2    3d0       -0.0000   -0.0001   -0.0000   -0.0000    0.0000   -0.0000    0.0010    0.0008    0.0000   -0.0000
       37 FE2    4d0        0.0000   -0.0000   -0.0000   -0.0000    0.0000   -0.0000    0.0024   -0.0000    0.0000   -0.0000
       38 FE2    3d1+       0.0000   -0.0000    0.0000    0.0000    0.0000   -0.0001   -0.0000   -0.0000    0.0037   -0.0149
       39 FE2    4d1+       0.0000   -0.0000    0.0000   -0.0000    0.0000   -0.0000   -0.0000   -0.0000    0.0002   -0.0006
       40 FE2    3d2+       0.0000   -0.0000    0.0000    0.0000    0.0000    0.0000   -0.0000   -0.0000    0.0000    0.0000
       41 FE2    4d2+       0.0000   -0.0000    0.0000   -0.0000    0.0000    0.0000   -0.0000   -0.0000    0.0000    0.0000
       42 FE2    4f3-       0.0000   -0.0000   -0.0000   -0.0000   -0.0000   -0.0000   -0.0000    0.0000   -0.0000   -0.0000
       43 FE2    4f2-       0.0000   -0.0000    0.0000   -0.0000   -0.0000    0.0000   -0.0000    0.0000   -0.0000    0.0000
       44 FE2    4f1-      -0.0000    0.0000   -0.0000    0.0000    0.0001    0.0000    0.0000   -0.0000    0.0023    0.0006
       45 FE2    4f0        0.0000    0.0000   -0.0000    0.0002   -0.0000    0.0000    0.0000   -0.0115   -0.0000    0.0000
       46 FE2    4f1+       0.0000   -0.0000    0.0000   -0.0000   -0.0000    0.0001   -0.0000    0.0000   -0.0006    0.0023
       47 FE2    4f2+       0.0000   -0.0000    0.0000   -0.0000   -0.0000   -0.0000   -0.0000    0.0000   -0.0000   -0.0000
       48 FE2    4f3+       0.0000   -0.0000   -0.0000   -0.0000    0.0000   -0.0000   -0.0000    0.0000    0.0000   -0.0000
 
          Orbital           11        12        13        14        15        16        17        18        19        20    
          Energy           -0.7259   -0.7259   -1.9011   -0.6226   -0.9064   -0.9064   -0.3829   -0.3829   -0.6225    1.4528
          Occ. No.          1.9989    1.9989    1.9940    1.0001    1.0000    1.0000    1.0000    1.0000    0.9999    0.0060
 
        1 O1     1s         0.0000   -0.0000    0.0301    0.0000   -0.0000   -0.0000    0.0000    0.0000   -0.0000    0.0000
        2 O1     2s         0.0000   -0.0000    0.9978    0.0025   -0.0000   -0.0000    0.0000    0.0000   -0.0025    0.0111
        3 O1     3s        -0.0000    0.0000   -0.0591   -0.0015    0.0000    0.0000   -0.0000   -0.0000    0.0014    0.2231
        4 O1     2px        0.0000   -0.0000    0.0000   -0.0007    0.2862   -0.9475    0.0000   -0.0000   -0.0007   -0.0000
        5 O1     3px        0.0000   -0.0000   -0.0000    0.0001   -0.0413    0.1367    0.0000   -0.0000    0.0001   -0.0000
        6 O1     2py       -0.0000   -0.0000   -0.0000    0.0023   -0.9475   -0.2862    0.0000   -0.0000    0.0025    0.0000
        7 O1     3py       -0.0000   -0.0000    0.0000   -0.0003    0.1367    0.0413    0.0000    0.0000   -0.0004    0.0000
        8 O1     2pz       -0.0000    0.0000   -0.0037    0.7014   -0.0001   -0.0000    0.0000    0.0000   -0.7012    0.0002
        9 O1     3pz       -0.0000    0.0000   -0.0005   -0.0904    0.0000    0.0000    0.0000    0.0000    0.0909   -0.0066
       10 O1     3d2-      -0.0000    0.0000   -0.0000   -0.0000    0.0000   -0.0000    0.0000   -0.0000   -0.0000   -0.0000
       11 O1     3d1-      -0.0000   -0.0000   -0.0000   -0.0000    0.0011    0.0003    0.0000    0.0000   -0.0000   -0.0002
       12 O1     3d0       -0.0000    0.0000    0.0021   -0.0005    0.0000    0.0000    0.0000    0.0000    0.0005    0.9747
       13 O1     3d1+       0.0000   -0.0000    0.0000    0.0000   -0.0003    0.0011   -0.0000   -0.0000    0.0000    0.0000
       14 O1     3d2+      -0.0000   -0.0000   -0.0000   -0.0000    0.0000    0.0000   -0.0000   -0.0000   -0.0000   -0.0000
       15 FE2    1s         0.0000   -0.0000   -0.0000   -0.0000   -0.0000   -0.0000    0.0000    0.0000   -0.0000   -0.0000
       16 FE2    2s        -0.0000    0.0000    0.0000   -0.0000   -0.0000   -0.0000    0.0000    0.0000   -0.0000   -0.0000
       17 FE2    3s        -0.0000    0.0000   -0.0000   -0.0006   -0.0000   -0.0000    0.0000    0.0000   -0.0006   -0.0000
       18 FE2    4s        -0.0000    0.0000   -0.0000   -0.0122   -0.0001   -0.0000    0.0000    0.0000   -0.0116   -0.0005
       19 FE2    5s         0.0000   -0.0000   -0.0001    0.0051    0.0000    0.0000   -0.0000   -0.0000    0.0062   -0.0014
       20 FE2    2px       -0.0003    0.0011    0.0000    0.0000    0.0000   -0.0000    0.0000   -0.0000    0.0000    0.0000
       21 FE2    3px       -0.0041    0.0148    0.0000    0.0000   -0.0000    0.0000    0.0000   -0.0000    0.0000   -0.0000
       22 FE2    4px       -0.0022    0.0078    0.0000   -0.0000    0.0000   -0.0001   -0.0000    0.0000   -0.0000    0.0000
       23 FE2    5px       -0.0001    0.0003   -0.0000   -0.0000    0.0000   -0.0001   -0.0000    0.0000   -0.0000    0.0000
       24 FE2    2py        0.0011    0.0003   -0.0000   -0.0000   -0.0000   -0.0000    0.0000    0.0000   -0.0000   -0.0000
       25 FE2    3py        0.0148    0.0041   -0.0000   -0.0000    0.0000    0.0000    0.0000    0.0000   -0.0000    0.0000
       26 FE2    4py        0.0078    0.0022   -0.0000    0.0000   -0.0001   -0.0000   -0.0000   -0.0000    0.0000   -0.0000
       27 FE2    5py        0.0003    0.0001    0.0000    0.0000   -0.0001   -0.0000   -0.0000   -0.0000    0.0000   -0.0000
       28 FE2    2pz       -0.0000    0.0000    0.0000   -0.0000   -0.0000   -0.0000   -0.0000   -0.0000   -0.0000   -0.0000
       29 FE2    3pz       -0.0000    0.0000   -0.0000   -0.0006   -0.0000   -0.0000   -0.0000   -0.0000   -0.0006    0.0000
       30 FE2    4pz       -0.0000    0.0000   -0.0001    0.0042    0.0000    0.0000    0.0000    0.0000    0.0049   -0.0006
       31 FE2    5pz       -0.0000    0.0000   -0.0000    0.0000    0.0000    0.0000    0.0000    0.0000    0.0003   -0.0004
       32 FE2    3d2-      -0.0000    0.0001    0.0000   -0.0000    0.0000    0.0000    0.2791   -0.9603   -0.0000   -0.0000
       33 FE2    4d2-      -0.0000    0.0000    0.0000   -0.0000   -0.0000    0.0000    0.0010   -0.0033   -0.0000    0.0000
       34 FE2    3d1-       0.9623    0.2669   -0.0000    0.0001   -0.0000   -0.0000   -0.0001   -0.0000    0.0001    0.0000
       35 FE2    4d1-       0.0480    0.0133   -0.0000    0.0000   -0.0000   -0.0000   -0.0000   -0.0000    0.0000   -0.0000
       36 FE2    3d0       -0.0002    0.0000   -0.0000    0.7068    0.0036    0.0001    0.0000    0.0000    0.7070   -0.0001
       37 FE2    4d0       -0.0000    0.0000   -0.0000    0.0106    0.0001    0.0000   -0.0000   -0.0000    0.0108   -0.0002
       38 FE2    3d1+      -0.2669    0.9623    0.0000   -0.0000    0.0000   -0.0000   -0.0000    0.0001   -0.0000   -0.0000
       39 FE2    4d1+      -0.0133    0.0480    0.0000   -0.0000    0.0000   -0.0000   -0.0000    0.0000   -0.0000    0.0000
       40 FE2    3d2+      -0.0001   -0.0000    0.0000   -0.0000    0.0000   -0.0000   -0.9603   -0.2791   -0.0000   -0.0000
       41 FE2    4d2+      -0.0000   -0.0000    0.0000   -0.0000   -0.0000   -0.0000   -0.0033   -0.0010   -0.0000    0.0000
       42 FE2    4f3-      -0.0000   -0.0000   -0.0000   -0.0000   -0.0000    0.0000   -0.0000   -0.0000   -0.0000   -0.0000
       43 FE2    4f2-      -0.0000    0.0000   -0.0000   -0.0000    0.0000   -0.0000    0.0001   -0.0004   -0.0000   -0.0000
       44 FE2    4f1-       0.0005    0.0002    0.0000    0.0000   -0.0000   -0.0000   -0.0000   -0.0000    0.0000    0.0000
       45 FE2    4f0       -0.0000    0.0000    0.0000    0.0004    0.0000    0.0000    0.0000    0.0000    0.0004    0.0000
       46 FE2    4f1+      -0.0002    0.0005   -0.0000   -0.0000    0.0000   -0.0000   -0.0000    0.0000   -0.0000   -0.0000
       47 FE2    4f2+      -0.0000   -0.0000   -0.0000   -0.0000    0.0000    0.0000   -0.0004   -0.0001   -0.0000   -0.0000
       48 FE2    4f3+       0.0000   -0.0000   -0.0000   -0.0000   -0.0000    0.0000   -0.0000    0.0000   -0.0000   -0.0000
 
          Orbital           21        22        23        24        25        26        27        28        29        30    
          Energy            0.7223    0.7223    3.5412    3.5412    3.4895    0.5529    2.0140    2.0140    2.0491    0.4522
          Occ. No.          0.0011    0.0011    0.0002    0.0002    0.0002    0.0000    0.0000    0.0000    0.0000    0.0000
 
        1 O1     1s         0.0000   -0.0000   -0.0000    0.0000   -0.0000    0.0001    0.0000   -0.0000   -0.0002    0.0004
        2 O1     2s         0.0000   -0.0000   -0.0000    0.0000   -0.0003    0.0014    0.0000   -0.0000   -0.0035    0.0582
        3 O1     3s        -0.0000    0.0000   -0.0000    0.0000   -0.0006    0.0033    0.0000   -0.0000   -0.0130    0.9717
        4 O1     2px       -0.0000    0.0001   -0.0000    0.0000    0.0000   -0.0000    0.0002   -0.0006    0.0000    0.0000
        5 O1     3px       -0.0001    0.0004   -0.0001    0.0002    0.0000   -0.0000    0.0009   -0.0035    0.0000    0.0000
        6 O1     2py        0.0001    0.0000    0.0000    0.0000   -0.0000    0.0000   -0.0006   -0.0002   -0.0000   -0.0000
        7 O1     3py        0.0004    0.0001    0.0002    0.0001   -0.0000    0.0000   -0.0035   -0.0009   -0.0000   -0.0000
        8 O1     2pz        0.0000   -0.0000    0.0000   -0.0000    0.0003   -0.0028   -0.0000    0.0000    0.0050    0.0071
        9 O1     3pz        0.0000   -0.0000    0.0000   -0.0000    0.0013   -0.0140   -0.0000    0.0000    0.0247    0.0434
       10 O1     3d2-      -0.0000    0.0000   -0.0000    0.0000    0.0000    0.0000   -0.0000    0.0000   -0.0000    0.0000
       11 O1     3d1-      -0.0000   -0.0000   -0.0000   -0.0000    0.0000   -0.0000    0.0003    0.0001   -0.0000    0.0000
       12 O1     3d0        0.0000   -0.0000   -0.0000    0.0000   -0.0002    0.0007    0.0000   -0.0000    0.0003   -0.2226
       13 O1     3d1+       0.0000   -0.0000    0.0000   -0.0000   -0.0000    0.0000   -0.0001    0.0003    0.0000   -0.0000
       14 O1     3d2+      -0.0000   -0.0000   -0.0000   -0.0000    0.0000    0.0000   -0.0000   -0.0000   -0.0000    0.0000
       15 FE2    1s        -0.0000    0.0000    0.0000   -0.0000    0.0000    0.0000   -0.0000    0.0000    0.0000    0.0000
       16 FE2    2s        -0.0000    0.0000   -0.0000    0.0000   -0.0000    0.0002    0.0000   -0.0000   -0.0000   -0.0000
       17 FE2    3s         0.0000   -0.0000   -0.0000    0.0000    0.0000   -0.0020   -0.0000    0.0000    0.0001   -0.0002
       18 FE2    4s        -0.0001    0.0000    0.0000   -0.0000   -0.0027    0.3471   -0.0000    0.0000   -0.0016   -0.0038
       19 FE2    5s         0.0000   -0.0000   -0.0000    0.0000    0.0009   -0.3347    0.0000   -0.0000    0.0062   -0.0374
       20 FE2    2px       -0.0000    0.0000    0.0001   -0.0003   -0.0000    0.0000   -0.0000    0.0000   -0.0000    0.0000
       21 FE2    3px        0.0002   -0.0006    0.0012   -0.0047   -0.0000   -0.0000   -0.0018    0.0066   -0.0000   -0.0000
       22 FE2    4px       -0.0232    0.0828   -0.0513    0.2053    0.0000   -0.0000    0.0548   -0.2061    0.0000    0.0000
       23 FE2    5px       -0.0016    0.0057    0.0513   -0.2052   -0.0000   -0.0000   -0.2422    0.9110   -0.0000   -0.0000
       24 FE2    2py        0.0000    0.0000   -0.0003   -0.0001    0.0000   -0.0000    0.0000    0.0000    0.0000   -0.0000
       25 FE2    3py       -0.0006   -0.0002   -0.0047   -0.0012    0.0000    0.0000    0.0066    0.0018    0.0000    0.0000
       26 FE2    4py        0.0828    0.0232    0.2053    0.0513   -0.0000    0.0000   -0.2061   -0.0548   -0.0000   -0.0000
       27 FE2    5py        0.0057    0.0016   -0.2052   -0.0513    0.0000    0.0000    0.9110    0.2422    0.0001    0.0000
       28 FE2    2pz        0.0000   -0.0000    0.0000   -0.0000    0.0006   -0.0000   -0.0000    0.0000    0.0000   -0.0000
       29 FE2    3pz        0.0000   -0.0000    0.0000   -0.0000    0.0145   -0.0000   -0.0000    0.0000    0.0055    0.0001
       30 FE2    4pz       -0.0000    0.0000   -0.0000    0.0000   -0.2483   -0.0177    0.0000   -0.0000   -0.0983   -0.0123
       31 FE2    5pz       -0.0000    0.0000    0.0000   -0.0000    0.2120   -0.0005   -0.0001    0.0000    0.9655    0.0036
       32 FE2    3d2-       0.0000   -0.0000   -0.0000    0.0000   -0.0000   -0.0000    0.0000   -0.0000   -0.0000    0.0000
       33 FE2    4d2-      -0.0000    0.0001    0.0000   -0.0000    0.0000    0.0000   -0.0000    0.0000    0.0000   -0.0000
       34 FE2    3d1-      -0.0485   -0.0136   -0.0008   -0.0002    0.0000    0.0000    0.0006    0.0002    0.0000   -0.0000
       35 FE2    4d1-       0.9582    0.2681   -0.0242   -0.0060   -0.0000   -0.0001    0.0104    0.0028   -0.0000    0.0000
       36 FE2    3d0        0.0000   -0.0000    0.0000   -0.0000    0.0008    0.0219   -0.0000    0.0000    0.0006    0.0000
       37 FE2    4d0       -0.0002    0.0000    0.0000   -0.0000    0.0121   -0.8758   -0.0000    0.0000   -0.0032    0.0119
       38 FE2    3d1+       0.0136   -0.0485    0.0002   -0.0008   -0.0000   -0.0000   -0.0002    0.0006   -0.0000    0.0000
       39 FE2    4d1+      -0.2681    0.9582    0.0060   -0.0242    0.0000    0.0000   -0.0028    0.0104    0.0000   -0.0000
       40 FE2    3d2+       0.0000    0.0000   -0.0000   -0.0000   -0.0000   -0.0000    0.0000    0.0000   -0.0000    0.0000
       41 FE2    4d2+      -0.0001   -0.0000    0.0000    0.0000    0.0000    0.0000   -0.0000   -0.0000    0.0000   -0.0000
       42 FE2    4f3-      -0.0000   -0.0000   -0.0000   -0.0000   -0.0000   -0.0000   -0.0000   -0.0000    0.0000    0.0000
       43 FE2    4f2-      -0.0000    0.0000   -0.0001    0.0001   -0.0000    0.0000   -0.0000    0.0000    0.0000    0.0000
       44 FE2    4f1-       0.0078    0.0022    0.9254    0.2312    0.0002   -0.0000    0.2481    0.0659   -0.0001   -0.0000
       45 FE2    4f0       -0.0000    0.0000   -0.0002    0.0000    0.9450    0.0079   -0.0001    0.0000   -0.2424   -0.0044
       46 FE2    4f1+      -0.0022    0.0078   -0.2312    0.9254   -0.0000    0.0000   -0.0659    0.2481    0.0000    0.0000
       47 FE2    4f2+      -0.0000   -0.0000   -0.0001   -0.0001   -0.0000    0.0000   -0.0000   -0.0000    0.0000    0.0000
       48 FE2    4f3+       0.0000   -0.0000    0.0000   -0.0000   -0.0000   -0.0000    0.0000   -0.0000    0.0000    0.0000
 
          Orbital           31        32        33        34        35        36        37        38        39        40    
          Energy            0.0916   -0.2190   -0.0031   -0.0031    0.0596    0.1081    0.1128    0.1128    0.7514    0.7524
          Occ. No.          0.0000    0.0000    0.0000    0.0000    0.0000    0.0000    0.0000    0.0000    0.0000    0.0000
 
        1 O1     1s        -0.0002    0.0003   -0.0000   -0.0000    0.0001    0.0001    0.0000   -0.0000   -0.0000   -0.0000
        2 O1     2s        -0.0010    0.0023   -0.0000    0.0000    0.0001    0.0020    0.0000   -0.0000    0.0000    0.0000
        3 O1     3s         0.0217   -0.0163   -0.0000    0.0000   -0.0267    0.0341    0.0000   -0.0000    0.0000    0.0000
        4 O1     2px       -0.0000   -0.0000    0.0000   -0.0002   -0.0000    0.0000   -0.0716    0.1236    0.0001    0.0000
        5 O1     3px        0.0000   -0.0000    0.0006   -0.0024   -0.0000    0.0001   -0.4959    0.8565    0.0010    0.0002
        6 O1     2py        0.0000    0.0000   -0.0002   -0.0001    0.0000   -0.0000    0.1236    0.0716    0.0001    0.0000
        7 O1     3py       -0.0000    0.0000   -0.0023   -0.0007    0.0000   -0.0001    0.8565    0.4959    0.0004    0.0002
        8 O1     2pz        0.0055   -0.0047    0.0000   -0.0000    0.0603   -0.1130   -0.0000    0.0000   -0.0000   -0.0000
        9 O1     3pz        0.0279   -0.0145    0.0000   -0.0000    0.4751   -0.8703   -0.0002    0.0001   -0.0000   -0.0001
       10 O1     3d2-       0.0000    0.0000    0.0000    0.0000    0.0001   -0.0000    0.0001   -0.0004    0.0150   -0.0033
       11 O1     3d1-       0.0000   -0.0000   -0.0000    0.0000    0.0000   -0.0002   -0.0007   -0.0025    0.0110    0.0241
       12 O1     3d0       -0.0070    0.0071    0.0000   -0.0000    0.0105   -0.0128   -0.0000    0.0000    0.0000    0.0000
       13 O1     3d1+      -0.0000    0.0000    0.0000    0.0000   -0.0000    0.0001    0.0004   -0.0003   -0.0059   -0.0084
       14 O1     3d2+       0.0000    0.0000    0.0000    0.0000    0.0001   -0.0000    0.0001   -0.0002   -0.0044    0.0075
       15 FE2    1s        -0.0000    0.0000    0.0000   -0.0000    0.0000   -0.0000   -0.0000    0.0000   -0.0000   -0.0000
       16 FE2    2s         0.0001    0.0000    0.0000   -0.0000    0.0000   -0.0000   -0.0000    0.0000   -0.0000   -0.0000
       17 FE2    3s         0.0082    0.0023    0.0000    0.0000   -0.0002   -0.0001   -0.0000    0.0000    0.0000    0.0000
       18 FE2    4s        -0.5275   -0.7725   -0.0000   -0.0000    0.0652    0.0094    0.0000    0.0000   -0.0000   -0.0000
       19 FE2    5s         0.7022   -0.6280   -0.0000   -0.0000    0.0331    0.0044    0.0000    0.0000   -0.0000   -0.0000
       20 FE2    2px        0.0000    0.0000    0.0000   -0.0000    0.0000    0.0000    0.0000   -0.0000   -0.0000   -0.0000
       21 FE2    3px       -0.0000   -0.0000   -0.0009    0.0032   -0.0000   -0.0000   -0.0000    0.0000    0.0000   -0.0000
       22 FE2    4px        0.0000    0.0000    0.2576   -0.9143    0.0000    0.0000    0.0029   -0.0051   -0.0000    0.0000
       23 FE2    5px        0.0000   -0.0000    0.0700   -0.2486    0.0000    0.0000    0.0008   -0.0014   -0.0000    0.0000
       24 FE2    2py       -0.0000   -0.0000   -0.0000   -0.0000   -0.0000   -0.0000   -0.0000   -0.0000    0.0000   -0.0000
       25 FE2    3py        0.0000    0.0000    0.0032    0.0009    0.0000    0.0000    0.0000    0.0000   -0.0000    0.0000
       26 FE2    4py       -0.0000   -0.0000   -0.9143   -0.2576   -0.0001   -0.0001   -0.0050   -0.0029    0.0000   -0.0000
       27 FE2    5py       -0.0000    0.0000   -0.2486   -0.0700   -0.0000   -0.0000   -0.0013   -0.0008    0.0000   -0.0000
       28 FE2    2pz       -0.0000   -0.0000    0.0000    0.0000   -0.0001   -0.0000   -0.0000    0.0000    0.0000    0.0000
       29 FE2    3pz        0.0006    0.0005   -0.0000   -0.0000    0.0036    0.0019    0.0000   -0.0000   -0.0000   -0.0000
       30 FE2    4pz       -0.0242   -0.0669    0.0001    0.0000   -0.8327   -0.4796   -0.0001    0.0000    0.0000    0.0001
       31 FE2    5pz       -0.0089   -0.0097    0.0000    0.0000   -0.1330   -0.0763   -0.0000    0.0000    0.0000    0.0000
       32 FE2    3d2-      -0.0000   -0.0000    0.0000   -0.0000   -0.0000    0.0000   -0.0000    0.0000   -0.0030   -0.0017
       33 FE2    4d2-       0.0000    0.0000   -0.0000    0.0000    0.0001   -0.0000    0.0002   -0.0010    0.8688    0.4945
       34 FE2    3d1-       0.0000   -0.0000    0.0034    0.0010    0.0000    0.0000   -0.0001   -0.0001   -0.0000    0.0000
       35 FE2    4d1-      -0.0001   -0.0001    0.0794    0.0224   -0.0000    0.0000   -0.0019   -0.0011    0.0001   -0.0001
       36 FE2    3d0       -0.0071   -0.0066   -0.0000   -0.0000    0.0065    0.0020    0.0000    0.0000   -0.0000   -0.0000
       37 FE2    4d0       -0.4767   -0.0659   -0.0000   -0.0000    0.0310    0.0056    0.0000    0.0000   -0.0000   -0.0000
       38 FE2    3d1+      -0.0000    0.0000   -0.0010    0.0034   -0.0000   -0.0000    0.0001   -0.0001   -0.0000    0.0000
       39 FE2    4d1+       0.0000    0.0000   -0.0224    0.0794    0.0000   -0.0000    0.0011   -0.0019   -0.0001   -0.0001
       40 FE2    3d2+      -0.0000    0.0000    0.0000    0.0000    0.0000   -0.0000   -0.0000    0.0000   -0.0017    0.0030
       41 FE2    4d2+       0.0000   -0.0000    0.0000   -0.0000   -0.0001    0.0001    0.0001   -0.0003    0.4947   -0.8686
       42 FE2    4f3-       0.0000   -0.0000   -0.0000   -0.0000   -0.0000   -0.0000    0.0000   -0.0000   -0.0000    0.0000
       43 FE2    4f2-      -0.0000   -0.0000   -0.0000    0.0000   -0.0002   -0.0000   -0.0001    0.0004   -0.0033    0.0112
       44 FE2    4f1-       0.0000   -0.0000    0.1498    0.0422   -0.0000   -0.0000    0.0009    0.0005   -0.0000    0.0000
[...]
ATVX     1  Mu1.0022  Se1.027                       0.26113385      0.00000006     -0.00000019     -0.00000000
ATVX     1  Mu1.0023  Se1.027                       0.26174638      0.00000000     -0.00000000     -0.00000000
ATVX     1  Mu1.0024  Se1.027                       0.26174655      0.00000000     -0.00000000     -0.00000000
ATVX     1  Mu1.0025  Se1.027                       0.26751224     -0.00000000      0.00000000     -0.00000000
ATVX     1  Mu1.0026  Se1.027                       0.26751817     -0.00000000      0.00000000     -0.00000000
ATVX     1  Mu1.0027  Se1.027                       0.28227022      0.00000000      0.00000000      0.00000000
ATVX     1  Mu1.0028  Se1.027                       0.28227319      0.00000000      0.00000000      0.00000000
ATVX     1  Mu1.0029  Se1.027                       0.29529922     -0.00000000      0.00000000     -0.00000000
ATVX     1  Mu1.0030  Se1.027                       0.29530432      0.00000000     -0.00000000     -0.00000000
ATVX     1  Mu1.0031  Se1.027                       0.29905364      0.00000000      0.00000000      0.00000000
ATVX     1  Mu1.0032  Se1.027                       0.29905631      0.00000000      0.00000000      0.00000000
ATVX     1  Mu1.0001  Se1.028                      -0.23722274     -0.00000000     -0.00000000      0.00000000
ATVX     1  Mu1.0002  Se1.028                      -0.22905277      0.00000000      0.00000000      0.00000000
ATVX     1  Mu1.0003  Se1.028                      -0.22904997     -0.00000002     -0.00000010      0.00000000
ATVX     1  Mu1.0004  Se1.028                      -0.18652775      0.00000000      0.00000000      0.00000000
ATVX     1  Mu1.0005  Se1.028                      -0.02801179     -0.00000001      0.00000027     -0.00000000
ATVX     1  Mu1.0006  Se1.028                      -0.02801168     -0.00000064      0.00002342     -0.00000000
ATVX     1  Mu1.0007  Se1.028                       0.15317147     -0.00000001      0.00000027     -0.00000000
ATVX     1  Mu1.0008  Se1.028                       0.15317148      0.00000000      0.00000000      0.00000000
ATVX     1  Mu1.0009  Se1.028                       0.15857931      0.00000000      0.00000000      0.00000000
ATVX     1  Mu1.0010  Se1.028                       0.15858205      0.00000000      0.00000000      0.00000000
ATVX     1  Mu1.0011  Se1.028                       0.16013129      0.00000000      0.00000000      0.00000000
ATVX     1  Mu1.0012  Se1.028                       0.16013403     -0.00000000      0.00000000     -0.00000000
ATVX     1  Mu1.0013  Se1.028                       0.20415292     -0.00000000      0.00000000     -0.00000000
ATVX     1  Mu1.0014  Se1.028                       0.20415293     -0.00000000      0.00000004     -0.00000000
ATVX     1  Mu1.0015  Se1.028                       0.25626473      0.00000017     -0.00000063     -0.00000000
ATVX     1  Mu1.0016  Se1.028                       0.25626473     -0.00000000      0.00000000     -0.00000000
ATVX     1  Mu1.0017  Se1.028                       0.25906536      0.00000000     -0.00000000     -0.00000000
ATVX     1  Mu1.0018  Se1.028                       0.25906812      0.00000000     -0.00000000     -0.00000000
ATVX     1  Mu1.0019  Se1.028                       0.26808361      0.00000000     -0.00000000     -0.00000000
ATVX     1  Mu1.0020  Se1.028                       0.26808631      0.00000000     -0.00000000     -0.00000000
ATVX     1  Mu1.0021  Se1.028                       0.26926758     -0.00000000      0.00000000     -0.00000000
ATVX     1  Mu1.0022  Se1.028                       0.26927158     -0.00000000      0.00000000     -0.00000000
ATVX     1  Mu1.0023  Se1.028                       0.26988410      0.00000053     -0.00000225     -0.00000000
ATVX     1  Mu1.0024  Se1.028                       0.26988428     -0.00000000      0.00000001     -0.00000000
ATVX     1  Mu1.0025  Se1.028                       0.27564997     -0.00000019      0.00000058     -0.00000000
ATVX     1  Mu1.0026  Se1.028                       0.27565590      0.00000000     -0.00000000     -0.00000000
ATVX     1  Mu1.0027  Se1.028                       0.29040794     -0.00000000      0.00000000     -0.00000000
ATVX     1  Mu1.0028  Se1.028                       0.29041091     -0.00000000      0.00000000     -0.00000000
ATVX     1  Mu1.0001  Se1.029                      -0.23722216      0.00000000      0.00000000      0.00000000
ATVX     1  Mu1.0002  Se1.029                      -0.22905220     -0.00000002     -0.00000010      0.00000000
ATVX     1  Mu1.0003  Se1.029                      -0.22904939     -0.00000000     -0.00000000      0.00000000
ATVX     1  Mu1.0004  Se1.029                      -0.18652717     -0.00000000     -0.00000000      0.00000000
ATVX     1  Mu1.0005  Se1.029                      -0.02801121      0.00000064     -0.00002342     -0.00000000
ATVX     1  Mu1.0006  Se1.029                      -0.02801110     -0.00000001      0.00000027     -0.00000000
ATVX     1  Mu1.0007  Se1.029                       0.15317205      0.00000000      0.00000000      0.00000000
ATVX     1  Mu1.0008  Se1.029                       0.15317205      0.00000001     -0.00000027     -0.00000000
ATVX     1  Mu1.0009  Se1.029                       0.15857989     -0.00000000     -0.00000000      0.00000000
ATVX     1  Mu1.0010  Se1.029                       0.15858263     -0.00000000      0.00000000     -0.00000000
ATVX     1  Mu1.0011  Se1.029                       0.16013186      0.00000000     -0.00000000     -0.00000000
ATVX     1  Mu1.0012  Se1.029                       0.16013461      0.00000000     -0.00000000     -0.00000000
ATVX     1  Mu1.0013  Se1.029                       0.20415350     -0.00000000      0.00000004     -0.00000000
ATVX     1  Mu1.0014  Se1.029                       0.20415351      0.00000000     -0.00000000     -0.00000000
ATVX     1  Mu1.0015  Se1.029                       0.25626531      0.00000000     -0.00000000     -0.00000000
ATVX     1  Mu1.0016  Se1.029                       0.25626531      0.00000017     -0.00000063     -0.00000000
ATVX     1  Mu1.0017  Se1.029                       0.25906594      0.00000000     -0.00000000     -0.00000000
ATVX     1  Mu1.0018  Se1.029                       0.25906869     -0.00000000     -0.00000000      0.00000000
ATVX     1  Mu1.0019  Se1.029                       0.26808419     -0.00000000      0.00000000     -0.00000000
ATVX     1  Mu1.0020  Se1.029                       0.26808689      0.00000000     -0.00000000     -0.00000000
ATVX     1  Mu1.0021  Se1.029                       0.26926816     -0.00000000      0.00000000     -0.00000000
ATVX     1  Mu1.0022  Se1.029                       0.26927216      0.00000000     -0.00000000     -0.00000000
ATVX     1  Mu1.0023  Se1.029                       0.26988468      0.00000000     -0.00000001     -0.00000000
ATVX     1  Mu1.0024  Se1.029                       0.26988486      0.00000053     -0.00000225     -0.00000000
ATVX     1  Mu1.0025  Se1.029                       0.27565054      0.00000000     -0.00000000     -0.00000000
ATVX     1  Mu1.0026  Se1.029                       0.27565648      0.00000019     -0.00000058     -0.00000000
ATVX     1  Mu1.0027  Se1.029                       0.29040852     -0.00000000      0.00000000     -0.00000000
ATVX     1  Mu1.0028  Se1.029                       0.29041149      0.00000000     -0.00000000     -0.00000000
ATVX     1  Mu1.0001  Se1.030                      -0.07756420      0.00000000      0.00000000      0.00000000
ATVX     1  Mu1.0002  Se1.030                      -0.06939423     -0.00000000     -0.00000000      0.00000000
ATVX     1  Mu1.0003  Se1.030                      -0.06939143     -0.00000000     -0.00000000      0.00000000
ATVX     1  Mu1.0004  Se1.030                      -0.02686921     -0.00000000     -0.00000002      0.00000000
ATVX     1  Mu1.0005  Se1.030                       0.13164676      0.00000000     -0.00000000     -0.00000000
ATVX     1  Mu1.0006  Se1.030                       0.13164687     -0.00000000      0.00000000     -0.00000000
ATVX     1  Mu1.0270  Se1.031                       2.28198250     -0.08993753      0.04099435     -0.00368693
ATVX     1  Mu1.0321  Se1.031                       2.38393488      0.06260043     -0.02653703     -0.00166123
ATVX     1  Mu1.0269  Se1.032                       2.28198076      0.08993847     -0.04099480     -0.00368701
ATVX     1  Mu1.0322  Se1.032                       2.38394712     -0.06258587      0.02653070     -0.00166045
AIVX     1  Mu1.0139  In1.011 Se1.033               3.33076038      0.11684456     -0.03806441     -0.00444762
AIVX     1  Mu1.0131  In1.008 Se1.034               6.28662511     -0.16951329      0.02696822     -0.00457147
AIVX     1  Mu1.0131  In1.009 Se1.035               6.29962535      0.16910925     -0.02684181     -0.00453920
AIVX     1  Mu1.0168  In1.009 Se1.035               6.56023517      0.17700883     -0.02698207     -0.00477606
AIVX     1  Mu1.0131  In1.010 Se1.036               6.29962633      0.16910927     -0.02684181     -0.00453920
AIVX     1  Mu1.0168  In1.010 Se1.036               6.56023615      0.17701018     -0.02698227     -0.00477614
AIVX     1  Mu1.0039  In1.011 Se1.037               3.47039841     -0.14674498      0.04049128     -0.00594189
AIVX     1  Mu1.0049  In1.011 Se1.038               3.72039754      0.14675053     -0.03786056     -0.00555606
AIVX     1  Mu1.0041  In1.011 Se1.041               3.53033048     -0.10235278      0.02771139     -0.00283634
BVATP    1  Mu1.0001  Se1.026 Se1.026               0.27872494      0.00000000      0.00000000      0.00000000
BVATP    1  Mu1.0002  Se1.026 Se1.026               0.27872494      0.00000000      0.00000000      0.00000000
BVATM    1  Mu1.0001  Se1.027 Se1.026               0.15182838     -0.00000000     -0.00000000      0.00000000
BVATM    1  Mu1.0001  Se1.028 Se1.026               0.15996610      0.00000000     -0.00000000     -0.00000000
BVATM    1  Mu1.0001  Se1.029 Se1.026               0.15996668      0.00000000      0.00000000      0.00000000
BVATM    1  Mu1.0001  Se1.032 Se1.031               1.95446014     -0.07213948      0.03723887     -0.00268639
BVATM    1  Mu1.0001  Se1.038 Se1.037               5.00931948     -0.12958794      0.02586937     -0.00335236
BJATP    1  Mu1.0002  In1.011 Se1.033 Se1.031       2.93771350     -0.08268738      0.02801907     -0.00231682
BJATP    1  Mu1.0001  In1.011 Se1.033 Se1.032       2.93771350     -0.08268738      0.02801907     -0.00231682
BJATM    1  Mu1.0002  In1.011 Se1.033 Se1.031       2.93771350      0.07877514     -0.02874137     -0.00226411
BJATM    1  Mu1.0001  In1.011 Se1.033 Se1.032       2.93771350      0.07877514     -0.02874137     -0.00226411
BJAIP    1  Se1.033 In1.011 Se1.033 In1.011         3.92096645      0.12263431     -0.03343714     -0.00410054
--
 
   (Skipping property calculation,
    use PROP keyword to activate)
--
 
  Total CASPT2 energies:
::    CASPT2 Root  1     Total energy:  -1345.82413909
 
  A NEW JOBIPH FILE NAMED 'JOBMIX' IS PREPARED.
********************************************************************************
--- Stop Module: caspt2 at Wed Dec 25 22:58:58 2024 /rc=_RC_ALL_IS_WELL_ ---
*** files: xmldump
    saved to directory /home/grierjones/DDCASPT2/iron_oxo_DDCASPT2/cluster/7.21
--- Module caspt2 spent 5 minutes 31 seconds ---

>>> EXPORT i = B

>>> EXPORT j = P

>>> IF (-FILE GMJ_e2_${i}_${j}.csv)

>>> COPY /tmp/7.21/GMJ_RHS_B_P.csv /home/grierjones/DDCASPT2/iron_oxo_DDCASPT2/cluster/7.21/GMJ_RHS_B_P.csv

>>> COPY /tmp/7.21/GMJ_IVECW_B_P.csv /home/grierjones/DDCASPT2/iron_oxo_DDCASPT2/cluster/7.21/GMJ_IVECW_B_P.csv

>>> COPY /tmp/7.21/GMJ_IVECX_B_P.csv /home/grierjones/DDCASPT2/iron_oxo_DDCASPT2/cluster/7.21/GMJ_IVECX_B_P.csv

>>> COPY /tmp/7.21/GMJ_IVECC2_B_P.csv /home/grierjones/DDCASPT2/iron_oxo_DDCASPT2/cluster/7.21/GMJ_IVECC2_B_P.csv

>>> COPY /tmp/7.21/GMJ_e2_B_P.csv /home/grierjones/DDCASPT2/iron_oxo_DDCASPT2/cluster/7.21/GMJ_e2_B_P.csv

>>> END FOREACH

>>> EXPORT j = M

>>> IF (-FILE GMJ_e2_${i}_${j}.csv)

>>> COPY /tmp/7.21/GMJ_RHS_B_M.csv /home/grierjones/DDCASPT2/iron_oxo_DDCASPT2/cluster/7.21/GMJ_RHS_B_M.csv

>>> COPY /tmp/7.21/GMJ_IVECW_B_M.csv /home/grierjones/DDCASPT2/iron_oxo_DDCASPT2/cluster/7.21/GMJ_IVECW_B_M.csv

>>> COPY /tmp/7.21/GMJ_IVECX_B_M.csv /home/grierjones/DDCASPT2/iron_oxo_DDCASPT2/cluster/7.21/GMJ_IVECX_B_M.csv

>>> COPY /tmp/7.21/GMJ_IVECC2_B_M.csv /home/grierjones/DDCASPT2/iron_oxo_DDCASPT2/cluster/7.21/GMJ_IVECC2_B_M.csv

>>> COPY /tmp/7.21/GMJ_e2_B_M.csv /home/grierjones/DDCASPT2/iron_oxo_DDCASPT2/cluster/7.21/GMJ_e2_B_M.csv

>>> END FOREACH

>>> END FOREACH

>>> EXPORT i = E

>>> EXPORT j = P

>>> IF (-FILE GMJ_e2_${i}_${j}.csv)

>>> COPY /tmp/7.21/GMJ_RHS_E_P.csv /home/grierjones/DDCASPT2/iron_oxo_DDCASPT2/cluster/7.21/GMJ_RHS_E_P.csv

>>> COPY /tmp/7.21/GMJ_IVECW_E_P.csv /home/grierjones/DDCASPT2/iron_oxo_DDCASPT2/cluster/7.21/GMJ_IVECW_E_P.csv

>>> COPY /tmp/7.21/GMJ_IVECX_E_P.csv /home/grierjones/DDCASPT2/iron_oxo_DDCASPT2/cluster/7.21/GMJ_IVECX_E_P.csv

>>> COPY /tmp/7.21/GMJ_IVECC2_E_P.csv /home/grierjones/DDCASPT2/iron_oxo_DDCASPT2/cluster/7.21/GMJ_IVECC2_E_P.csv

>>> COPY /tmp/7.21/GMJ_e2_E_P.csv /home/grierjones/DDCASPT2/iron_oxo_DDCASPT2/cluster/7.21/GMJ_e2_E_P.csv

>>> END FOREACH

>>> EXPORT j = M

>>> IF (-FILE GMJ_e2_${i}_${j}.csv)

>>> COPY /tmp/7.21/GMJ_RHS_E_M.csv /home/grierjones/DDCASPT2/iron_oxo_DDCASPT2/cluster/7.21/GMJ_RHS_E_M.csv

>>> COPY /tmp/7.21/GMJ_IVECW_E_M.csv /home/grierjones/DDCASPT2/iron_oxo_DDCASPT2/cluster/7.21/GMJ_IVECW_E_M.csv

>>> COPY /tmp/7.21/GMJ_IVECX_E_M.csv /home/grierjones/DDCASPT2/iron_oxo_DDCASPT2/cluster/7.21/GMJ_IVECX_E_M.csv

>>> COPY /tmp/7.21/GMJ_IVECC2_E_M.csv /home/grierjones/DDCASPT2/iron_oxo_DDCASPT2/cluster/7.21/GMJ_IVECC2_E_M.csv

>>> COPY /tmp/7.21/GMJ_e2_E_M.csv /home/grierjones/DDCASPT2/iron_oxo_DDCASPT2/cluster/7.21/GMJ_e2_E_M.csv

>>> END FOREACH

>>> END FOREACH

>>> EXPORT i = F

>>> EXPORT j = P

>>> IF (-FILE GMJ_e2_${i}_${j}.csv)

>>> COPY /tmp/7.21/GMJ_RHS_F_P.csv /home/grierjones/DDCASPT2/iron_oxo_DDCASPT2/cluster/7.21/GMJ_RHS_F_P.csv

>>> COPY /tmp/7.21/GMJ_IVECW_F_P.csv /home/grierjones/DDCASPT2/iron_oxo_DDCASPT2/cluster/7.21/GMJ_IVECW_F_P.csv

>>> COPY /tmp/7.21/GMJ_IVECX_F_P.csv /home/grierjones/DDCASPT2/iron_oxo_DDCASPT2/cluster/7.21/GMJ_IVECX_F_P.csv

>>> COPY /tmp/7.21/GMJ_IVECC2_F_P.csv /home/grierjones/DDCASPT2/iron_oxo_DDCASPT2/cluster/7.21/GMJ_IVECC2_F_P.csv

>>> COPY /tmp/7.21/GMJ_e2_F_P.csv /home/grierjones/DDCASPT2/iron_oxo_DDCASPT2/cluster/7.21/GMJ_e2_F_P.csv

>>> END FOREACH

>>> EXPORT j = M

>>> IF (-FILE GMJ_e2_${i}_${j}.csv)

>>> COPY /tmp/7.21/GMJ_RHS_F_M.csv /home/grierjones/DDCASPT2/iron_oxo_DDCASPT2/cluster/7.21/GMJ_RHS_F_M.csv

>>> COPY /tmp/7.21/GMJ_IVECW_F_M.csv /home/grierjones/DDCASPT2/iron_oxo_DDCASPT2/cluster/7.21/GMJ_IVECW_F_M.csv

>>> COPY /tmp/7.21/GMJ_IVECX_F_M.csv /home/grierjones/DDCASPT2/iron_oxo_DDCASPT2/cluster/7.21/GMJ_IVECX_F_M.csv

>>> COPY /tmp/7.21/GMJ_IVECC2_F_M.csv /home/grierjones/DDCASPT2/iron_oxo_DDCASPT2/cluster/7.21/GMJ_IVECC2_F_M.csv

>>> COPY /tmp/7.21/GMJ_e2_F_M.csv /home/grierjones/DDCASPT2/iron_oxo_DDCASPT2/cluster/7.21/GMJ_e2_F_M.csv

>>> END FOREACH

>>> END FOREACH

>>> EXPORT i = G

>>> EXPORT j = P

>>> IF (-FILE GMJ_e2_${i}_${j}.csv)

>>> COPY /tmp/7.21/GMJ_RHS_G_P.csv /home/grierjones/DDCASPT2/iron_oxo_DDCASPT2/cluster/7.21/GMJ_RHS_G_P.csv

>>> COPY /tmp/7.21/GMJ_IVECW_G_P.csv /home/grierjones/DDCASPT2/iron_oxo_DDCASPT2/cluster/7.21/GMJ_IVECW_G_P.csv

>>> COPY /tmp/7.21/GMJ_IVECX_G_P.csv /home/grierjones/DDCASPT2/iron_oxo_DDCASPT2/cluster/7.21/GMJ_IVECX_G_P.csv

>>> COPY /tmp/7.21/GMJ_IVECC2_G_P.csv /home/grierjones/DDCASPT2/iron_oxo_DDCASPT2/cluster/7.21/GMJ_IVECC2_G_P.csv

>>> COPY /tmp/7.21/GMJ_e2_G_P.csv /home/grierjones/DDCASPT2/iron_oxo_DDCASPT2/cluster/7.21/GMJ_e2_G_P.csv

>>> END FOREACH

>>> EXPORT j = M

>>> IF (-FILE GMJ_e2_${i}_${j}.csv)

>>> COPY /tmp/7.21/GMJ_RHS_G_M.csv /home/grierjones/DDCASPT2/iron_oxo_DDCASPT2/cluster/7.21/GMJ_RHS_G_M.csv

>>> COPY /tmp/7.21/GMJ_IVECW_G_M.csv /home/grierjones/DDCASPT2/iron_oxo_DDCASPT2/cluster/7.21/GMJ_IVECW_G_M.csv

>>> COPY /tmp/7.21/GMJ_IVECX_G_M.csv /home/grierjones/DDCASPT2/iron_oxo_DDCASPT2/cluster/7.21/GMJ_IVECX_G_M.csv

>>> COPY /tmp/7.21/GMJ_IVECC2_G_M.csv /home/grierjones/DDCASPT2/iron_oxo_DDCASPT2/cluster/7.21/GMJ_IVECC2_G_M.csv

>>> COPY /tmp/7.21/GMJ_e2_G_M.csv /home/grierjones/DDCASPT2/iron_oxo_DDCASPT2/cluster/7.21/GMJ_e2_G_M.csv

>>> END FOREACH

>>> END FOREACH

>>> EXPORT i = H

>>> EXPORT j = P

>>> IF (-FILE GMJ_e2_${i}_${j}.csv)

>>> COPY /tmp/7.21/GMJ_RHS_H_P.csv /home/grierjones/DDCASPT2/iron_oxo_DDCASPT2/cluster/7.21/GMJ_RHS_H_P.csv

>>> COPY /tmp/7.21/GMJ_IVECW_H_P.csv /home/grierjones/DDCASPT2/iron_oxo_DDCASPT2/cluster/7.21/GMJ_IVECW_H_P.csv

>>> COPY /tmp/7.21/GMJ_IVECX_H_P.csv /home/grierjones/DDCASPT2/iron_oxo_DDCASPT2/cluster/7.21/GMJ_IVECX_H_P.csv

>>> COPY /tmp/7.21/GMJ_IVECC2_H_P.csv /home/grierjones/DDCASPT2/iron_oxo_DDCASPT2/cluster/7.21/GMJ_IVECC2_H_P.csv

>>> COPY /tmp/7.21/GMJ_e2_H_P.csv /home/grierjones/DDCASPT2/iron_oxo_DDCASPT2/cluster/7.21/GMJ_e2_H_P.csv

>>> END FOREACH

>>> EXPORT j = M

>>> IF (-FILE GMJ_e2_${i}_${j}.csv)

>>> COPY /tmp/7.21/GMJ_RHS_H_M.csv /home/grierjones/DDCASPT2/iron_oxo_DDCASPT2/cluster/7.21/GMJ_RHS_H_M.csv

>>> COPY /tmp/7.21/GMJ_IVECW_H_M.csv /home/grierjones/DDCASPT2/iron_oxo_DDCASPT2/cluster/7.21/GMJ_IVECW_H_M.csv

>>> COPY /tmp/7.21/GMJ_IVECX_H_M.csv /home/grierjones/DDCASPT2/iron_oxo_DDCASPT2/cluster/7.21/GMJ_IVECX_H_M.csv

>>> COPY /tmp/7.21/GMJ_IVECC2_H_M.csv /home/grierjones/DDCASPT2/iron_oxo_DDCASPT2/cluster/7.21/GMJ_IVECC2_H_M.csv

>>> COPY /tmp/7.21/GMJ_e2_H_M.csv /home/grierjones/DDCASPT2/iron_oxo_DDCASPT2/cluster/7.21/GMJ_e2_H_M.csv

>>> END FOREACH

>>> END FOREACH

>>> EXPORT i = A

>>> IF (-FILE GMJ_e2_$i.csv)

>>> COPY /tmp/7.21/GMJ_RHS_A.csv /home/grierjones/DDCASPT2/iron_oxo_DDCASPT2/cluster/7.21/GMJ_RHS_A.csv

>>> COPY /tmp/7.21/GMJ_IVECW_A.csv /home/grierjones/DDCASPT2/iron_oxo_DDCASPT2/cluster/7.21/GMJ_IVECW_A.csv

>>> COPY /tmp/7.21/GMJ_IVECX_A.csv /home/grierjones/DDCASPT2/iron_oxo_DDCASPT2/cluster/7.21/GMJ_IVECX_A.csv

>>> COPY /tmp/7.21/GMJ_IVECC2_A.csv /home/grierjones/DDCASPT2/iron_oxo_DDCASPT2/cluster/7.21/GMJ_IVECC2_A.csv

>>> COPY /tmp/7.21/GMJ_e2_A.csv /home/grierjones/DDCASPT2/iron_oxo_DDCASPT2/cluster/7.21/GMJ_e2_A.csv

>>> END FOREACH

>>> EXPORT i = C

>>> IF (-FILE GMJ_e2_$i.csv)

>>> COPY /tmp/7.21/GMJ_RHS_C.csv /home/grierjones/DDCASPT2/iron_oxo_DDCASPT2/cluster/7.21/GMJ_RHS_C.csv

>>> COPY /tmp/7.21/GMJ_IVECW_C.csv /home/grierjones/DDCASPT2/iron_oxo_DDCASPT2/cluster/7.21/GMJ_IVECW_C.csv

>>> COPY /tmp/7.21/GMJ_IVECX_C.csv /home/grierjones/DDCASPT2/iron_oxo_DDCASPT2/cluster/7.21/GMJ_IVECX_C.csv

>>> COPY /tmp/7.21/GMJ_IVECC2_C.csv /home/grierjones/DDCASPT2/iron_oxo_DDCASPT2/cluster/7.21/GMJ_IVECC2_C.csv

>>> COPY /tmp/7.21/GMJ_e2_C.csv /home/grierjones/DDCASPT2/iron_oxo_DDCASPT2/cluster/7.21/GMJ_e2_C.csv

>>> END FOREACH

>>> EXPORT i = D

>>> IF (-FILE GMJ_e2_$i.csv)

>>> COPY /tmp/7.21/GMJ_RHS_D.csv /home/grierjones/DDCASPT2/iron_oxo_DDCASPT2/cluster/7.21/GMJ_RHS_D.csv

>>> COPY /tmp/7.21/GMJ_IVECW_D.csv /home/grierjones/DDCASPT2/iron_oxo_DDCASPT2/cluster/7.21/GMJ_IVECW_D.csv

>>> COPY /tmp/7.21/GMJ_IVECX_D.csv /home/grierjones/DDCASPT2/iron_oxo_DDCASPT2/cluster/7.21/GMJ_IVECX_D.csv

>>> COPY /tmp/7.21/GMJ_IVECC2_D.csv /home/grierjones/DDCASPT2/iron_oxo_DDCASPT2/cluster/7.21/GMJ_IVECC2_D.csv

>>> COPY /tmp/7.21/GMJ_e2_D.csv /home/grierjones/DDCASPT2/iron_oxo_DDCASPT2/cluster/7.21/GMJ_e2_D.csv

>>> END FOREACH

.########################.
.# Non-zero return code #.
.########################.

    Timing: Wall=398.40 User=394.68 System=3.59
************************************
*** WorkDir at /tmp/7.21 cleaned ***
************************************
