   This run of MOLCAS is using the pymolcas driver

                             OPE
                             OPE          NMOL  CASOP  ENMOLC A   SO
                 OPE        NMOLC        AS  OP EN  MO LC     AS  OP
                OPENM       OL CA        SO  PE NM  OL CA     SOP EN
                OP EN      MO   LC       AS  OP ENMOL  CASO   PENMOL
                OP  EN     MO   LC       AS  OP EN     MO     LC ASO
               OP   E  NMOL  C  AS       OP  EN MO     LC     AS  OP
               OP  E   NMO   LC AS        OPEN  MO     LCASOP EN   M
               O  PEN   MO  LCA  SO
            OPE   NMO   L   CAS    OP
        OPENMOL  CASOP     ENMOL   CASOPE
     OPENMOLCA   SOPENMOLCASOPEN   MOLCASOPE
    OPENMOLCAS   OP           EN   MOL    CAS
    OPENMOLCAS       OP  ENM        O     LCA
    OPENMOLCAS    OPEN  MOLCASO     P  E  NMO
    OPENMOLCAS     OP               E  N  MOL
    OPENMOLCA   SO           PENM   O  L  CAS    OPEN    MO    LCAS
    OPENMOLCA   SOP           ENM   O  L  CAS   OP  EN  MOLC  AS   O
    OPENMOLCA   SOPE           NM      O  LCA   S      OP  EN MO
    OPENMOLC                AS         O  PEN   M      OL  CA  SOPE
    OPENMO        LCASOPE  NMOL        C  ASO   P      ENMOLC     AS
    OPE     NMO      LCA  SO     P     E   NM   OL  CA SO  PE N   MO
          OPENMOLCA            SOPE   NMO        LCAS  O    P  ENMO
     OPENMOLCASOPENMOLCASOPENMOLCASOPENMOLCA
        OPENMOLCASOPENMOLCASOPENMOLCASOPE
            OPENMOLCASOPENMOLCASOPENM
               OPENMOLCASOPENMOLCA        version: ea724fe96-dirty
                   OPENMOLCASO
                       OPE                tag:

 OpenMolcas is free software; you can redistribute it and/or modify it
 under the terms of the GNU Lesser General Public License version 2.1.
 OpenMolcas is distributed in the hope that it will be useful, but it
 is provided "as is" and without any express or implied warranties.
 For more details see the full text of the license in the file
 LICENSE or in <http://www.gnu.org/licenses/>.

                 Copyright (C) The OpenMolcas Authors
           For the author list and the recommended citation,
                   consult the file CONTRIBUTORS.md

           *************************************************
           * pymolcas version py2.28                       *
           *   build c4a6d18ded8cb6cad61d2372a9abd97c      *
           *   (after the EMIL interpreter by V. Veryazov) *
           *************************************************

configuration info
------------------
C Compiler ID: Intel
C flags: -std=gnu99
Fortran Compiler ID: Intel
Fortran flags: -fpp -i8 -r8 -heap-arrays
Definitions: _MOLCAS_;_I8_;_LINUX_
Parallel: OFF (GA=OFF)


   -------------------------------------------------------------------------------
  |
  |              Project: 4.14
  |       Submitted from: /home/grierjones/DDCASPT2/iron_oxo_DDCASPT2/cluster/4.14
  |         Scratch area: /tmp/4.14
  |      Save outputs to: /home/grierjones/DDCASPT2/iron_oxo_DDCASPT2/cluster/4.14
  |               Molcas: /home/grierjones/Test/build
  |
  | Scratch area is empty
  |
  |       MOLCAS_DRIVER = /usr/local/pymolcas
  | MOLCAS_KEEP_WORKDIR = NO
  |  MOLCAS_NEW_WORKDIR = YES
  |       MOLCAS_NPROCS = 1
  |        MOLCAS_PRINT = NORMAL
  |       MOLCAS_SOURCE = /home/grierjones/Test/build
  |    MOLCAS_STRUCTURE = 0
  |
   -------------------------------------------------------------------------------

++ ---------   Input file   ---------

&GATEWAY
coord=4.14.xyz
Basis = ANO-RCC-VDZP
Group = nosymm
Expert
End of Input

&SEWARD
End of Input

&SCF
UHF
charge
2
spin
5
FileOrb
/home/grierjones/DDCASPT2/iron_oxo_DDCASPT2/cluster/4.12/4.12.UhfOrb

>>> COPY $WorkDir/4.14.scf.h5 $CurrDir/

&RASSCF
Title= RASSCF
FileOrb
/home/grierjones/DDCASPT2/iron_oxo_DDCASPT2/cluster/4.12/4.12.RasOrb
NACTEL
10 0 0
RAS2
14
Symmetry
1
Spin
5
charge
2
orblisting
all
ITERation
300 200

>>> COPY $WorkDir/4.14.rasscf.h5 $CurrDir/

>>> COPY $WorkDir/GMJ_Fock_MO.csv $CurrDir/4.14.GMJ_Fock_MO.csv

>>> COPY $WorkDir/GMJ_PT2_Fock_MO.csv $CurrDir/4.14.GMJ_PT2_Fock_MO.csv

&MOTRA
Frozen=0
LUMORB

>>> COPY $WorkDir/GMJ_one_int_indx.csv $CurrDir/4.14.GMJ_one_int_indx.csv

>>> COPY $WorkDir/GMJ_one_int.csv $CurrDir/4.14.GMJ_one_int.csv

>>> COPY $WorkDir/GMJ_two_int_indx.csv $CurrDir/4.14.GMJ_two_int_indx.csv

>>> COPY $WorkDir/GMJ_two_int.csv $CurrDir/4.14.GMJ_two_int.csv

&CASPT2
Frozen
0
MAXITER
50

>>> FOREACH i IN (B,E,F,G,H)

  >>> FOREACH j IN (P,M)

    >>> IF (-FILE GMJ_e2_${i}_${j}.csv)

      >>> COPY $WorkDir/GMJ_RHS_${i}_${j}.csv $CurrDir/GMJ_RHS_${i}_${j}.csv

      >>> COPY $WorkDir/GMJ_IVECW_${i}_${j}.csv $CurrDir/GMJ_IVECW_${i}_${j}.csv

      >>> COPY $WorkDir/GMJ_IVECX_${i}_${j}.csv $CurrDir/GMJ_IVECX_${i}_${j}.csv

      >>> COPY $WorkDir/GMJ_IVECC2_${i}_${j}.csv $CurrDir/GMJ_IVECC2_${i}_${j}.csv

      >>> COPY $WorkDir/GMJ_e2_${i}_${j}.csv $CurrDir/GMJ_e2_${i}_${j}.csv

    >>> END IF

  >>> END FOREACH

>>> END FOREACH

>>> FOREACH i IN (A,C,D)

  >>> IF (-FILE GMJ_e2_$i.csv)

    >>> COPY $WorkDir/GMJ_RHS_$i.csv $CurrDir/GMJ_RHS_$i.csv

    >>> COPY $WorkDir/GMJ_IVECW_$i.csv $CurrDir/GMJ_IVECW_$i.csv

    >>> COPY $WorkDir/GMJ_IVECX_$i.csv $CurrDir/GMJ_IVECX_$i.csv

    >>> COPY $WorkDir/GMJ_IVECC2_$i.csv $CurrDir/GMJ_IVECC2_$i.csv

    >>> COPY $WorkDir/GMJ_e2_$i.csv $CurrDir/GMJ_e2_$i.csv

  >>> END IF

>>> END FOREACH

-- ----------------------------------

--- Start Module: gateway at Tue Dec 24 20:44:03 2024 ---
 
()()()()()()()()()()()()()()()()()()()()()()()()()()()()()()()()()()()()()()()()()()()()()()()()()()

                                              &GATEWAY

                                   only a single process is used
                       available to each process: 2.0 GB of memory, 1 thread?
()()()()()()()()()()()()()()()()()()()()()()()()()()()()()()()()()()()()()()()()()()()()()()()()()()
 
 ###############################################################################
 ###############################################################################
 ###                                                                         ###
 ###                                                                         ###
 ###                                                                         ###
 ###    WARNING: EXPERT option is ON!                                        ###
 ###                                                                         ###
 ###                                                                         ###
 ###############################################################################
 ###############################################################################
 
++    Symmetry information:
      ---------------------
 
                    Character Table for C1 
 
                             E  
                    a        1  x, y, xy, Rz, z, xz, Ry, yz, Rx, I
--
 
 
++    Basis set information:
      ----------------------
 
 
      Basis set label: O.ANO-RCC...3S2P1D.
 
      Electronic valence basis set:
      ------------------
      Associated Effective Charge   8.000000 au
      Associated Actual Charge      8.000000 au
      Nuclear Model: Point charge
 
      Shell  nPrim  nBasis  Cartesian Spherical Contaminant
         s      14       3        X                  
         p       9       2        X                  
         d       4       1                 X         
 
 
      Basis set label: FE.ANO-RCC...5S4P2D1F.
 
      Electronic valence basis set:
      ------------------
      Associated Effective Charge  26.000000 au
      Associated Actual Charge     26.000000 au
      Nuclear Model: Point charge
 
      Shell  nPrim  nBasis  Cartesian Spherical Contaminant
         s      21       5        X                  
         p      15       4        X                  
         d      10       2                 X         
         f       6       1                 X         
--
 
 
++    Molecular structure info:
      -------------------------
 
                    ************************************************ 
                    **** Cartesian Coordinates / Bohr, Angstrom **** 
                    ************************************************ 
 
     Center  Label                x              y              z                     x              y              z
        1      O1               0.000000       0.000000       5.421511              0.000000       0.000000       2.868940
        2      FE2              0.000000       0.000000      -2.397949              0.000000       0.000000      -1.268940
--
 
 
            Nuclear Potential Energy             26.60030253 au
 
 ###############################################################################
 ###############################################################################
 ###                                                                         ###
 ###                                                                         ###
 ###    There were warnings during the execution                             ###
 ###    Please, check the output with care!                                  ###
 ###                                                                         ###
 ###                                                                         ###
 ###############################################################################
 ###############################################################################
--- Stop Module: gateway at Tue Dec 24 20:44:03 2024 /rc=_RC_ALL_IS_WELL_ ---
*** files: xmldump
    saved to directory /home/grierjones/DDCASPT2/iron_oxo_DDCASPT2/cluster/4.14

--- Start Module: seward at Tue Dec 24 20:44:03 2024 ---
 
()()()()()()()()()()()()()()()()()()()()()()()()()()()()()()()()()()()()()()()()()()()()()()()()()()

                                              &SEWARD

                                   only a single process is used
                       available to each process: 2.0 GB of memory, 1 thread?
()()()()()()()()()()()()()()()()()()()()()()()()()()()()()()()()()()()()()()()()()()()()()()()()()()
 
 ###############################################################################
 ###############################################################################
 ###                                                                         ###
 ###                                                                         ###
 ###                                                                         ###
 ###    WARNING: EXPERT option is ON!                                        ###
 ###                                                                         ###
 ###                                                                         ###
 ###############################################################################
 ###############################################################################
               SEWARD will generate:
                  Multipole Moment integrals up to order  2
                  Kinetic Energy integrals
                  Nuclear Attraction integrals (point charge)
                  One-Electron Hamiltonian integrals
                  Velocity integrals
                  Relativistic Douglas-Kroll-Hess integrals:
                    - Parametrization         : EXP
                    - DKH order of Hamiltonian: 2
                    - DKH order of Properties : 0
                         - multipole moment operators
                         - electric potential operators
                         - contact operators
                  Atomic mean-field integrals
                  Two-Electron Repulsion integrals
 
                   Integrals are discarded if absolute value <: 0.10E-13
                   Integral cutoff threshold is set to       <: 0.10E-15
 
            Nuclear Potential Energy             26.60030253 au
 
 
      Basis set specifications :
      Symmetry species         a  
      Basis functions           48
 
 
  Input file to MOLDEN was generated!
 
 ###############################################################################
 ###############################################################################
 ###                                                                         ###
 ###                                                                         ###
 ###    There were warnings during the execution                             ###
 ###    Please, check the output with care!                                  ###
 ###                                                                         ###
 ###                                                                         ###
 ###############################################################################
 ###############################################################################
--- Stop Module: seward at Tue Dec 24 20:44:04 2024 /rc=_RC_ALL_IS_WELL_ ---
*** files: 4.14.GssOrb 4.14.guessorb.h5 4.14.guessorb.molden xmldump
    saved to directory /home/grierjones/DDCASPT2/iron_oxo_DDCASPT2/cluster/4.14

*** symbolic link created: INPORB -> 4.14.GssOrb
--- Start Module: scf at Tue Dec 24 20:44:04 2024 ---
 
()()()()()()()()()()()()()()()()()()()()()()()()()()()()()()()()()()()()()()()()()()()()()()()()()()

                                                &SCF

                                   only a single process is used
                       available to each process: 2.0 GB of memory, 1 thread?
()()()()()()()()()()()()()()()()()()()()()()()()()()()()()()()()()()()()()()()()()()()()()()()()()()
 
 *** Possible bug in opening file
 *** isFreeUnit resets the unit number
++    Input section:
      --------------
 
      Header of the integral files:
      
       Integrals generated by seward 4.2.0  , Tue Dec 24 20:44:03 2024
 
 
      Cartesian coordinates in Angstrom:
      -----------------------------------------------------
      No.  Label        X            Y            Z        
      -----------------------------------------------------
       1   O1         0.00000000   0.00000000   2.86894000
       2   FE2        0.00000000   0.00000000  -1.26894000
      -----------------------------------------------------
      Nuclear repulsion energy =   26.60030253
--
 
++    Orbital specifications:
      -----------------------
 
      Symmetry species               1
                                     a
      Frozen orbitals                0
      Occupied orbitals alpha       18
      Occupied orbitals beta        14
      Secondary orbitals alpha      30
      Secondary orbitals beta       34
      Deleted orbitals               0
      Total number of orbitals      48
      Number of basis functions     48
--
 
      Molecular charge                           2.000
 
++    Optimization specifications:
      ----------------------------
 
      SCF Algorithm: Conventional USCF
      D(i)-D(i-1) density differences are used
      Number of density matrices in core                5
      Maximum number of NDDO SCF iterations           400
      Maximum number of HF SCF iterations             400
      Threshold for SCF energy change            0.10E-08
      Threshold for density matrix               0.10E-03
      Threshold for Fock matrix                  0.15E-03
      Threshold for linear dependence            0.10E-08
      Threshold at which DIIS is turned on       0.15E+00
      Threshold at which QNR/C2DIIS is turned on 0.75E-01
      Threshold for Norm(delta) (QNR/C2DIIS)     0.20E-04
      DIIS extrapolation of the SCF procedure
      All orbitals punched on: UHFORB
--
 
      Input vectors read from INPORB
      Orbital file label: * UHF orbitals
 
 
++ Convergence information
                               UHF SCF        iterations: Energy and convergence statistics
 
Iter     Tot. SCF        One-elec.       Two-elec.     Energy      Max Dij or  Max Fij      DNorm      TNorm      AccCon     Time
         Energy          Energy          Energy        Change      Delta Norm                                                in Sec.
 
 The total and one-electron energies are shifted by a value of      1000. a.u.
 
   1  -345.232551156  -900.475386879   528.642533196   0.00E+00    0.32E-03*   0.66E-04     0.80E+01   0.18E+03   None         0.
   2  -345.232551228  -900.476031628   528.643177874  -0.71E-07*   0.18E-03*   0.25E-04     0.90E-03   0.18E+03   EDIIS        0.
   3  -345.232551244  -900.475513484   528.642659714  -0.16E-07*   0.53E-04    0.51E-04     0.49E-03   0.18E+03   c2DIIS       0.
   4  -345.232551252  -900.477118200   528.644264422  -0.79E-08*   0.11E-03*   0.25E-04     0.20E-03   0.18E+03   QNRc2DIIS    0.
   5  -345.232551252  -900.474732318   528.641878539  -0.77E-09    0.47E-04*   0.23E-04     0.15E-03   0.18E+03   QNRc2DIIS    0.
   6  -345.232551254  -900.475849323   528.642995542  -0.18E-08*   0.61E-04*   0.35E-05     0.67E-04   0.18E+03   QNRc2DIIS    0.
   7  -345.232551254  -900.475904919   528.643051138  -0.21E-09    0.12E-04    0.15E-05     0.87E-04   0.18E+03   QNRc2DIIS    0.
 
       Convergence after  7 Macro Iterations
--
 
 *****************************************************************************************************************************
 *                                                                                                                           *
 *                                             SCF/KS-DFT Program, Final results                                             *
 *                                                                                                                           *
 *                                                                                                                           *
 *                                                                                                                           *
 *                                                       Final Results                                                       *
 *                                                                                                                           *
 *****************************************************************************************************************************
 
::    Total SCF energy                              -1345.2325512543
      One-electron energy                           -1900.4759049190
      Two-electron energy                             528.6430511380
      Nuclear repulsion energy                         26.6003025267
      Kinetic energy (interpolated)                  1399.3921538088
      Virial theorem                                    0.9612977660
      Total spin, S(S+1)                                7.0176159177
      Total spin, S                                     2.1958516127
      Max non-diagonal density matrix element           0.0000072418
      Max non-diagonal Fock matrix element              0.0000003314
 
 
      All orbitals with orbital energies smaller than  E(LUMO)+0.5 are printed
 
++    Molecular orbitals:
      -------------------
 
      Title: UHF orbitals (alpha)

      Molecular orbitals for symmetry species 1: a  
 
          Orbital            1         2         3         4         5         6         7         8         9        10    
          Energy         -263.9046  -32.6812  -27.7646  -27.7646  -27.7341  -21.5241   -4.5951   -3.1724   -3.1724   -3.1007
          Occ. No.          1.0000    1.0000    1.0000    1.0000    1.0000    1.0000    1.0000    1.0000    1.0000    1.0000
 
        1 O1     1s        -0.0000   -0.0000    0.0000    0.0000   -0.0000    1.0000    0.0000   -0.0000   -0.0000    0.0000
        2 O1     2s        -0.0000   -0.0000    0.0000    0.0000   -0.0000    0.0003    0.0001   -0.0000   -0.0000    0.0001
        3 O1     3s        -0.0000   -0.0000    0.0000    0.0000   -0.0000   -0.0010    0.0001   -0.0000   -0.0000    0.0001
        4 O1     2px        0.0000    0.0000    0.0000   -0.0000    0.0000   -0.0000    0.0000   -0.0000    0.0000   -0.0000
        5 O1     3px        0.0000    0.0000    0.0000   -0.0000    0.0000    0.0000    0.0000   -0.0001    0.0001   -0.0000
        6 O1     2py       -0.0000   -0.0000   -0.0000   -0.0000   -0.0000    0.0000   -0.0000    0.0000    0.0000    0.0000
        7 O1     3py       -0.0000   -0.0000   -0.0000   -0.0000   -0.0000   -0.0000   -0.0000    0.0001    0.0001    0.0000
        8 O1     2pz        0.0000    0.0000   -0.0000   -0.0000    0.0000   -0.0000    0.0000    0.0000    0.0000    0.0001
        9 O1     3pz        0.0000    0.0001   -0.0000   -0.0000    0.0000    0.0000    0.0001    0.0000    0.0000    0.0002
       10 O1     3d2-       0.0000    0.0000   -0.0000    0.0000   -0.0000    0.0000    0.0000    0.0000    0.0000    0.0000
       11 O1     3d1-       0.0000    0.0000    0.0000    0.0000    0.0000    0.0000    0.0000   -0.0000   -0.0000    0.0000
       12 O1     3d0        0.0000   -0.0000    0.0000    0.0000   -0.0000   -0.0015   -0.0000   -0.0000   -0.0000   -0.0000
       13 O1     3d1+      -0.0000   -0.0000   -0.0000    0.0000   -0.0000   -0.0000   -0.0000    0.0000   -0.0000   -0.0000
       14 O1     3d2+      -0.0000    0.0000   -0.0000   -0.0000    0.0000    0.0000    0.0000   -0.0000   -0.0000    0.0000
       15 FE2    1s         1.0000    0.0000    0.0000    0.0000   -0.0000    0.0000   -0.0000   -0.0000   -0.0000    0.0000
       16 FE2    2s        -0.0000    1.0000    0.0000    0.0000   -0.0006    0.0000   -0.0023    0.0000    0.0000   -0.0000
       17 FE2    3s         0.0000    0.0023   -0.0000   -0.0000   -0.0000    0.0000    0.9999    0.0000    0.0000   -0.0025
       18 FE2    4s        -0.0000   -0.0001   -0.0000   -0.0000    0.0000    0.0000    0.0063   -0.0000   -0.0000    0.0014
       19 FE2    5s         0.0000    0.0002   -0.0000   -0.0000    0.0000    0.0000   -0.0043    0.0000    0.0000   -0.0008
       20 FE2    2px       -0.0000   -0.0000   -0.6145    0.7889   -0.0000   -0.0000   -0.0000    0.0013   -0.0016    0.0000
       21 FE2    3px       -0.0000    0.0000   -0.0013    0.0016   -0.0000   -0.0000    0.0000   -0.6375    0.7704   -0.0000
       22 FE2    4px       -0.0000   -0.0000    0.0001   -0.0002    0.0000   -0.0000   -0.0000   -0.0019    0.0024   -0.0000
       23 FE2    5px        0.0000   -0.0000   -0.0004    0.0005   -0.0000   -0.0000    0.0000    0.0026   -0.0032    0.0000
       24 FE2    2py        0.0000    0.0000    0.7889    0.6145    0.0001    0.0000    0.0000   -0.0016   -0.0013   -0.0000
       25 FE2    3py        0.0000   -0.0000    0.0016    0.0013    0.0000    0.0000   -0.0000    0.7704    0.6375    0.0001
       26 FE2    4py        0.0000    0.0000   -0.0002   -0.0001   -0.0000    0.0000    0.0000    0.0024    0.0019    0.0000
       27 FE2    5py       -0.0000    0.0000    0.0005    0.0004    0.0000    0.0000   -0.0000   -0.0032   -0.0026   -0.0000
       28 FE2    2pz        0.0000    0.0006   -0.0001   -0.0000    1.0000   -0.0000    0.0000    0.0000    0.0000   -0.0016
       29 FE2    3pz       -0.0000    0.0000   -0.0000   -0.0000    0.0016    0.0000    0.0025   -0.0001   -0.0000    1.0000
       30 FE2    4pz        0.0000    0.0000    0.0000    0.0000   -0.0001    0.0001    0.0003   -0.0000   -0.0000    0.0061
       31 FE2    5pz       -0.0000    0.0000   -0.0000   -0.0000    0.0003    0.0000   -0.0002    0.0000    0.0000   -0.0058
       32 FE2    3d2-       0.0000    0.0000   -0.0000    0.0000    0.0000   -0.0000    0.0000   -0.0000    0.0000   -0.0000
       33 FE2    4d2-      -0.0000   -0.0000    0.0000   -0.0000   -0.0000   -0.0000   -0.0000   -0.0000    0.0000   -0.0000
       34 FE2    3d1-      -0.0000   -0.0000    0.0000    0.0000    0.0000    0.0000   -0.0000    0.0010    0.0009    0.0000
       35 FE2    4d1-       0.0000    0.0000   -0.0000   -0.0000   -0.0000    0.0000    0.0000    0.0001    0.0001    0.0000
       36 FE2    3d0       -0.0000   -0.0005   -0.0000   -0.0000    0.0000    0.0000   -0.0125   -0.0000   -0.0000    0.0013
       37 FE2    4d0        0.0000    0.0004    0.0000    0.0000   -0.0000    0.0000    0.0043   -0.0000   -0.0000    0.0005
       38 FE2    3d1+       0.0000    0.0000   -0.0000    0.0000   -0.0000   -0.0000    0.0000   -0.0009    0.0010   -0.0000
       39 FE2    4d1+      -0.0000   -0.0000    0.0000   -0.0000    0.0000   -0.0000   -0.0000   -0.0001    0.0001   -0.0000
       40 FE2    3d2+       0.0000    0.0000   -0.0000   -0.0000    0.0000    0.0000    0.0000   -0.0000   -0.0000    0.0000
       41 FE2    4d2+      -0.0000   -0.0000    0.0000    0.0000   -0.0000   -0.0000   -0.0000    0.0000    0.0000   -0.0000
       42 FE2    4f3-      -0.0000   -0.0000    0.0000    0.0000    0.0000   -0.0000   -0.0000    0.0000    0.0000    0.0000
       43 FE2    4f2-       0.0000    0.0000    0.0000   -0.0000    0.0000   -0.0000    0.0000    0.0000   -0.0000    0.0000
       44 FE2    4f1-       0.0000   -0.0000   -0.0002   -0.0002   -0.0000    0.0000   -0.0000   -0.0062   -0.0051   -0.0000
       45 FE2    4f0        0.0000   -0.0000    0.0000    0.0000   -0.0001    0.0000   -0.0001    0.0000    0.0000   -0.0017
       46 FE2    4f1+      -0.0000    0.0000    0.0002   -0.0002    0.0000   -0.0000    0.0000    0.0051   -0.0062    0.0000
       47 FE2    4f2+      -0.0000    0.0000    0.0000    0.0000    0.0000   -0.0000    0.0000    0.0000    0.0000   -0.0000
       48 FE2    4f3+      -0.0000   -0.0000   -0.0000    0.0000    0.0000   -0.0000   -0.0000   -0.0000    0.0000    0.0000
 
          Orbital           11        12        13        14        15        16        17        18        19        20    
          Energy           -2.0357   -1.4209   -1.4209   -0.9061   -0.9061   -0.8673   -0.8325   -0.8325   -0.5819   -0.3589
          Occ. No.          1.0000    1.0000    1.0000    1.0000    1.0000    1.0000    1.0000    1.0000    0.0000    0.0000
 
        1 O1     1s        -0.0004    0.0000   -0.0000    0.0000    0.0000   -0.0005    0.0000    0.0000    0.0000   -0.0036
        2 O1     2s         0.9964    0.0000   -0.0000    0.0000    0.0000   -0.0057    0.0000    0.0000    0.0104   -0.0366
        3 O1     3s        -0.0709   -0.0000    0.0000    0.0000    0.0000   -0.0015    0.0000    0.0000   -0.0092    0.0121
        4 O1     2px       -0.0000   -0.2252    0.9637    0.0000   -0.0000   -0.0000    0.0009   -0.0017    0.0000    0.0000
        5 O1     3px        0.0000    0.0326   -0.1397    0.0000   -0.0000    0.0000    0.0007   -0.0013    0.0000    0.0000
        6 O1     2py        0.0000    0.9637    0.2252   -0.0000   -0.0000    0.0000   -0.0017   -0.0009   -0.0001   -0.0000
        7 O1     3py       -0.0000   -0.1397   -0.0326   -0.0000   -0.0000   -0.0000   -0.0013   -0.0007   -0.0000   -0.0000
        8 O1     2pz       -0.0111    0.0001   -0.0000   -0.0000    0.0000   -0.0081    0.0000    0.0000    0.9928    0.0934
        9 O1     3pz       -0.0009   -0.0000    0.0000   -0.0000   -0.0000    0.0022   -0.0000   -0.0000    0.1072   -0.0100
       10 O1     3d2-       0.0000   -0.0000    0.0000    0.0000   -0.0000   -0.0000    0.0000   -0.0000    0.0000   -0.0000
       11 O1     3d1-       0.0000   -0.0031   -0.0007   -0.0000   -0.0000   -0.0000   -0.0001   -0.0000    0.0000   -0.0000
       12 O1     3d0       -0.0506   -0.0000    0.0000   -0.0000   -0.0000    0.0004   -0.0000   -0.0000   -0.0053    0.0033
       13 O1     3d1+      -0.0000    0.0007   -0.0031    0.0000   -0.0000    0.0000    0.0000   -0.0001   -0.0000    0.0000
       14 O1     3d2+       0.0000   -0.0000   -0.0000    0.0000    0.0000   -0.0000    0.0000    0.0000    0.0000   -0.0000
       15 FE2    1s        -0.0000   -0.0000    0.0000   -0.0000   -0.0000    0.0000   -0.0000   -0.0000    0.0001   -0.0000
       16 FE2    2s        -0.0000   -0.0000    0.0000    0.0000   -0.0000    0.0004   -0.0000   -0.0000    0.0007    0.0001
       17 FE2    3s        -0.0000   -0.0000    0.0000    0.0000   -0.0000    0.0125   -0.0000   -0.0000    0.0041   -0.0061
       18 FE2    4s        -0.0008   -0.0000    0.0000   -0.0000   -0.0000    0.0027    0.0000    0.0000   -0.0095    0.9824
       19 FE2    5s        -0.0016   -0.0000    0.0000   -0.0000    0.0000    0.0048   -0.0000   -0.0000    0.0022    0.0573
       20 FE2    2px       -0.0000   -0.0000    0.0000    0.0000   -0.0000    0.0000    0.0000   -0.0000   -0.0000    0.0000
       21 FE2    3px       -0.0000   -0.0000    0.0001    0.0000   -0.0000    0.0000    0.0007   -0.0012   -0.0000    0.0000
       22 FE2    4px       -0.0000   -0.0004    0.0017   -0.0000    0.0000   -0.0000   -0.0080    0.0148   -0.0000    0.0000
       23 FE2    5px       -0.0000   -0.0001    0.0006   -0.0000    0.0000   -0.0000   -0.0003    0.0006   -0.0000   -0.0000
       24 FE2    2py        0.0000    0.0000    0.0000   -0.0000   -0.0000   -0.0000   -0.0000   -0.0000    0.0000   -0.0000
       25 FE2    3py        0.0000    0.0001    0.0000   -0.0000   -0.0000   -0.0000   -0.0012   -0.0007    0.0000   -0.0000
       26 FE2    4py        0.0000    0.0017    0.0004    0.0000    0.0000    0.0000    0.0148    0.0080    0.0000   -0.0000
       27 FE2    5py        0.0000    0.0006    0.0001    0.0000    0.0000    0.0000    0.0006    0.0003    0.0000    0.0000
       28 FE2    2pz       -0.0000   -0.0000    0.0000    0.0000    0.0000   -0.0000    0.0000    0.0000    0.0001    0.0000
       29 FE2    3pz       -0.0001   -0.0000    0.0000    0.0000    0.0000   -0.0014    0.0000    0.0000    0.0028   -0.0022
       30 FE2    4pz       -0.0010   -0.0000    0.0000   -0.0000   -0.0000    0.0238   -0.0000   -0.0000   -0.0083    0.1660
       31 FE2    5pz       -0.0006   -0.0000    0.0000   -0.0000   -0.0000    0.0011   -0.0000   -0.0000   -0.0009    0.0231
       32 FE2    3d2-       0.0000    0.0000   -0.0000    0.9631   -0.2691   -0.0000   -0.0000    0.0001    0.0000   -0.0000
       33 FE2    4d2-      -0.0000    0.0000   -0.0000    0.0016   -0.0004   -0.0000   -0.0000    0.0000    0.0000    0.0000
       34 FE2    3d1-       0.0000    0.0005    0.0001    0.0000    0.0001    0.0002    0.8794    0.4751   -0.0000   -0.0000
       35 FE2    4d1-       0.0000    0.0007    0.0002   -0.0000    0.0000    0.0000    0.0240    0.0130   -0.0000   -0.0000
       36 FE2    3d0        0.0001   -0.0000    0.0000   -0.0000   -0.0000    0.9995   -0.0002   -0.0000    0.0225   -0.0051
       37 FE2    4d0       -0.0004   -0.0000    0.0000    0.0000    0.0000    0.0170   -0.0000   -0.0000   -0.0015   -0.0015
       38 FE2    3d1+      -0.0000   -0.0001    0.0005   -0.0001    0.0001   -0.0000   -0.4751    0.8794    0.0000    0.0000
       39 FE2    4d1+      -0.0000   -0.0002    0.0007    0.0000    0.0000   -0.0000   -0.0130    0.0240    0.0000    0.0000
       40 FE2    3d2+       0.0000    0.0000    0.0000    0.2691    0.9631   -0.0000   -0.0001   -0.0001    0.0000    0.0000
       41 FE2    4d2+      -0.0000    0.0000    0.0000    0.0004    0.0016   -0.0000   -0.0000   -0.0000    0.0000    0.0000
       42 FE2    4f3-       0.0000   -0.0000   -0.0000   -0.0000    0.0000    0.0000   -0.0000   -0.0000    0.0000    0.0000
       43 FE2    4f2-       0.0000    0.0000    0.0000    0.0011   -0.0003   -0.0000   -0.0000    0.0000   -0.0000    0.0000
       44 FE2    4f1-       0.0000    0.0000    0.0000    0.0000    0.0000    0.0000    0.0014    0.0007   -0.0000    0.0000
       45 FE2    4f0       -0.0000   -0.0000    0.0000   -0.0000   -0.0000    0.0016   -0.0000   -0.0000   -0.0002    0.0003
       46 FE2    4f1+      -0.0000   -0.0000    0.0000   -0.0000    0.0000   -0.0000   -0.0007    0.0014    0.0000   -0.0000
       47 FE2    4f2+       0.0000   -0.0000   -0.0000    0.0003    0.0011   -0.0000   -0.0000   -0.0000   -0.0000   -0.0000
       48 FE2    4f3+       0.0000    0.0000   -0.0000   -0.0000   -0.0000    0.0000    0.0000   -0.0000    0.0000    0.0000
 
          Orbital           21        22        23        24    
          Energy           -0.2071   -0.2071   -0.2055   -0.1129
          Occ. No.          0.0000    0.0000    0.0000    0.0000
 
        1 O1     1s         0.0000   -0.0000   -0.0042   -0.0078
        2 O1     2s         0.0000   -0.0000   -0.0403   -0.0701
        3 O1     3s        -0.0000    0.0000    0.0443    0.0503
        4 O1     2px       -0.0002    0.0007    0.0000    0.0000
        5 O1     3px       -0.0130    0.0576   -0.0000    0.0000
        6 O1     2py        0.0007    0.0002   -0.0000   -0.0000
        7 O1     3py        0.0576    0.0130    0.0000   -0.0000
        8 O1     2pz       -0.0000    0.0000    0.0946    0.0558
        9 O1     3pz        0.0000   -0.0000   -0.0691   -0.0045
       10 O1     3d2-       0.0000   -0.0000   -0.0000   -0.0000
       11 O1     3d1-      -0.0026   -0.0006   -0.0000   -0.0000
       12 O1     3d0       -0.0000    0.0000    0.0066    0.0015
       13 O1     3d1+       0.0006   -0.0026    0.0000    0.0000
       14 O1     3d2+       0.0000    0.0000   -0.0000   -0.0000
       15 FE2    1s         0.0000   -0.0000   -0.0000   -0.0000
       16 FE2    2s         0.0000   -0.0000   -0.0003   -0.0002
       17 FE2    3s         0.0000   -0.0000   -0.0003    0.0044
       18 FE2    4s         0.0001   -0.0000   -0.1885   -0.0444
       19 FE2    5s        -0.0000    0.0000    0.0705    0.9901
       20 FE2    2px       -0.0000    0.0001   -0.0000   -0.0000
       21 FE2    3px        0.0006   -0.0026    0.0000   -0.0000
       22 FE2    4px       -0.2177    0.9626   -0.0001   -0.0000
       23 FE2    5px       -0.0249    0.1101   -0.0000   -0.0000
       24 FE2    2py        0.0001    0.0000    0.0000    0.0000
       25 FE2    3py       -0.0026   -0.0006   -0.0000    0.0000
       26 FE2    4py        0.9626    0.2177    0.0004    0.0000
       27 FE2    5py        0.1101    0.0249    0.0000    0.0000
       28 FE2    2pz       -0.0000    0.0000    0.0000   -0.0000
       29 FE2    3pz        0.0000   -0.0000   -0.0055    0.0014
       30 FE2    4pz       -0.0004    0.0000    0.9523   -0.0983
       31 FE2    5pz       -0.0000    0.0000    0.1158   -0.0041
       32 FE2    3d2-       0.0000   -0.0000    0.0000   -0.0000
       33 FE2    4d2-      -0.0000   -0.0000   -0.0000   -0.0000
       34 FE2    3d1-      -0.0174   -0.0039   -0.0000    0.0000
       35 FE2    4d1-       0.0158    0.0036    0.0000    0.0000
       36 FE2    3d0        0.0000   -0.0000   -0.0239   -0.0018
       37 FE2    4d0       -0.0000    0.0000    0.0252    0.0142
       38 FE2    3d1+       0.0039   -0.0174    0.0000   -0.0000
       39 FE2    4d1+      -0.0036    0.0158   -0.0000   -0.0000
       40 FE2    3d2+       0.0000    0.0000    0.0000   -0.0000
       41 FE2    4d2+       0.0000    0.0000   -0.0000   -0.0000
       42 FE2    4f3-      -0.0000   -0.0000   -0.0000   -0.0000
       43 FE2    4f2-      -0.0000    0.0000   -0.0000   -0.0000
       44 FE2    4f1-       0.0003    0.0001    0.0000   -0.0000
       45 FE2    4f0       -0.0000    0.0000    0.0001   -0.0001
       46 FE2    4f1+      -0.0001    0.0003   -0.0000    0.0000
       47 FE2    4f2+      -0.0000   -0.0000   -0.0000    0.0000
       48 FE2    4f3+       0.0000   -0.0000   -0.0000   -0.0000
--
 
 
  Input file to MOLDEN was generated!
 
 
++    Static properties:
      ------------------
 
 
      LoProp Charges per center
 

                   O1       FE2   
      Nuclear      8.0000  26.0000
      Electronic  -6.9999 -25.0001
 
      Total        1.0001   0.9999
--
 
 
      All orbitals with orbital energies smaller than  E(LUMO)+0.5 are printed
 
++    Molecular orbitals:
      -------------------
 
      Title: UHF orbitals (beta)

      Molecular orbitals for symmetry species 1: a  
 
          Orbital            1         2         3         4         5         6         7         8         9        10    
          Energy         -263.9032  -32.5963  -27.6700  -27.6700  -27.6700  -21.4770   -4.3433   -2.8774   -2.8269   -2.8269
          Occ. No.          1.0000    1.0000    1.0000    1.0000    1.0000    1.0000    1.0000    1.0000    1.0000    1.0000
 
        1 O1     1s        -0.0000    0.0000   -0.0000   -0.0000    0.0000    1.0000    0.0000    0.0000   -0.0000   -0.0000
        2 O1     2s        -0.0000    0.0000   -0.0000   -0.0000    0.0000   -0.0019    0.0003    0.0002   -0.0000   -0.0000
        3 O1     3s        -0.0000    0.0000   -0.0000   -0.0000    0.0001    0.0002    0.0004    0.0001    0.0000    0.0000
        4 O1     2px        0.0000    0.0000   -0.0000    0.0000   -0.0000    0.0000   -0.0000   -0.0000    0.0000   -0.0001
        5 O1     3px        0.0000    0.0000   -0.0000    0.0000   -0.0000   -0.0000   -0.0000   -0.0000    0.0001   -0.0001
        6 O1     2py       -0.0000   -0.0000    0.0000    0.0000    0.0000   -0.0000    0.0000    0.0000    0.0001    0.0000
        7 O1     3py       -0.0000   -0.0000    0.0000    0.0000    0.0000    0.0000    0.0000    0.0000    0.0001    0.0001
        8 O1     2pz       -0.0000   -0.0000    0.0000    0.0000   -0.0000   -0.0000   -0.0001    0.0001   -0.0000   -0.0000
        9 O1     3pz       -0.0000    0.0000    0.0000    0.0000   -0.0001   -0.0001   -0.0001    0.0003   -0.0000   -0.0000
       10 O1     3d2-       0.0000    0.0000   -0.0000   -0.0000   -0.0000   -0.0000   -0.0000   -0.0000    0.0000    0.0000
       11 O1     3d1-       0.0000    0.0000   -0.0000   -0.0000   -0.0000   -0.0000   -0.0000   -0.0000    0.0000    0.0000
       12 O1     3d0        0.0000   -0.0000   -0.0000   -0.0000    0.0000    0.0015   -0.0000   -0.0000    0.0000    0.0000
       13 O1     3d1+      -0.0000   -0.0000    0.0000   -0.0000    0.0000    0.0000    0.0000    0.0000    0.0000   -0.0000
       14 O1     3d2+      -0.0000    0.0000    0.0000    0.0000    0.0000   -0.0000   -0.0000   -0.0000   -0.0000   -0.0000
       15 FE2    1s         1.0000    0.0000    0.0000    0.0000   -0.0000   -0.0000   -0.0000    0.0000   -0.0000   -0.0000
       16 FE2    2s        -0.0000    1.0000    0.0000    0.0000   -0.0006   -0.0000    0.0002   -0.0000    0.0000    0.0000
       17 FE2    3s         0.0000   -0.0002   -0.0000   -0.0000    0.0000   -0.0000    0.9999   -0.0030    0.0000    0.0000
       18 FE2    4s        -0.0000    0.0001    0.0000    0.0000   -0.0000   -0.0001    0.0075    0.0014   -0.0000   -0.0000
       19 FE2    5s         0.0000   -0.0002    0.0000    0.0000   -0.0000   -0.0001   -0.0057   -0.0007    0.0000    0.0000
       20 FE2    2px        0.0000   -0.0000   -0.2878    0.9577   -0.0004    0.0000    0.0000   -0.0000    0.0013   -0.0014
       21 FE2    3px        0.0000   -0.0000    0.0006   -0.0018    0.0000   -0.0000   -0.0000   -0.0000    0.6665   -0.7453
       22 FE2    4px       -0.0000    0.0000   -0.0001    0.0003   -0.0000    0.0000    0.0000   -0.0000    0.0053   -0.0060
       23 FE2    5px        0.0000   -0.0000    0.0002   -0.0007    0.0000    0.0000    0.0000    0.0000   -0.0059    0.0066
       24 FE2    2py       -0.0000    0.0000    0.9577    0.2878    0.0016   -0.0000   -0.0000    0.0000    0.0014    0.0013
       25 FE2    3py       -0.0000    0.0000   -0.0018   -0.0006   -0.0000    0.0000    0.0000    0.0001    0.7453    0.6665
       26 FE2    4py        0.0000   -0.0000    0.0003    0.0001    0.0000   -0.0000   -0.0000    0.0000    0.0060    0.0053
       27 FE2    5py       -0.0000    0.0000   -0.0007   -0.0002   -0.0000   -0.0000   -0.0000   -0.0000   -0.0066   -0.0059
       28 FE2    2pz        0.0000    0.0006   -0.0016   -0.0000    1.0000   -0.0000   -0.0000    0.0010   -0.0000   -0.0000
       29 FE2    3pz       -0.0000    0.0000    0.0000    0.0000   -0.0010   -0.0000    0.0030    0.9997   -0.0000   -0.0001
       30 FE2    4pz        0.0000   -0.0000   -0.0000   -0.0000    0.0002   -0.0001    0.0002    0.0108   -0.0000   -0.0000
       31 FE2    5pz       -0.0000    0.0000    0.0000    0.0000   -0.0007   -0.0001   -0.0002   -0.0098    0.0000    0.0000
       32 FE2    3d2-      -0.0000   -0.0000   -0.0000    0.0000   -0.0000    0.0000   -0.0000   -0.0000   -0.0000    0.0000
       33 FE2    4d2-      -0.0000   -0.0000    0.0000   -0.0000    0.0000    0.0000    0.0000    0.0000    0.0000   -0.0000
       34 FE2    3d1-       0.0000    0.0000    0.0000    0.0000    0.0000   -0.0000    0.0000    0.0000    0.0007    0.0006
       35 FE2    4d1-       0.0000    0.0000   -0.0000   -0.0000   -0.0000   -0.0000   -0.0000   -0.0000    0.0004    0.0004
       36 FE2    3d0        0.0000    0.0000   -0.0000   -0.0000    0.0000   -0.0000    0.0013    0.0025   -0.0000   -0.0000
       37 FE2    4d0        0.0000    0.0000    0.0000    0.0000   -0.0001   -0.0001    0.0003   -0.0003   -0.0000   -0.0000
       38 FE2    3d1+      -0.0000   -0.0000   -0.0000    0.0000   -0.0000    0.0000   -0.0000   -0.0000    0.0006   -0.0007
       39 FE2    4d1+      -0.0000   -0.0000    0.0000   -0.0000    0.0000    0.0000    0.0000    0.0000    0.0004   -0.0004
       40 FE2    3d2+      -0.0000    0.0000   -0.0000   -0.0000   -0.0000    0.0000   -0.0000   -0.0000    0.0000    0.0000
       41 FE2    4d2+      -0.0000   -0.0000   -0.0000   -0.0000   -0.0000    0.0000    0.0000    0.0000   -0.0000   -0.0000
       42 FE2    4f3-      -0.0000    0.0000    0.0000   -0.0000   -0.0000   -0.0000    0.0000   -0.0000   -0.0000   -0.0000
       43 FE2    4f2-       0.0000   -0.0000    0.0000    0.0000    0.0000   -0.0000   -0.0000    0.0000    0.0000   -0.0000
       44 FE2    4f1-      -0.0000    0.0000    0.0007    0.0002    0.0000   -0.0000    0.0000   -0.0000    0.0097    0.0086
       45 FE2    4f0       -0.0000    0.0000    0.0000    0.0000   -0.0011   -0.0000    0.0001   -0.0209   -0.0000   -0.0000
       46 FE2    4f1+       0.0000   -0.0000   -0.0002    0.0007   -0.0000    0.0000   -0.0000    0.0000    0.0086   -0.0097
       47 FE2    4f2+       0.0000   -0.0000   -0.0000   -0.0000   -0.0000   -0.0000   -0.0000    0.0000   -0.0000   -0.0000
       48 FE2    4f3+      -0.0000    0.0000    0.0000    0.0000   -0.0000   -0.0000    0.0000   -0.0000    0.0000   -0.0000
 
          Orbital           11        12        13        14        15        16        17        18        19        20    
          Energy           -1.8559   -1.3769   -0.7300   -0.7300   -0.5458   -0.5458   -0.3432   -0.1975   -0.1859   -0.1859
          Occ. No.          1.0000    1.0000    1.0000    1.0000    0.0000    0.0000    0.0000    0.0000    0.0000    0.0000
 
        1 O1     1s         0.0019    0.0000    0.0000    0.0000    0.0000    0.0000   -0.0044   -0.0038    0.0000   -0.0000
        2 O1     2s         0.9978    0.0077    0.0000    0.0000    0.0000    0.0000   -0.0486   -0.0427    0.0000   -0.0000
        3 O1     3s        -0.0460   -0.0056    0.0000    0.0000   -0.0000   -0.0000    0.0120    0.0398   -0.0000    0.0000
        4 O1     2px        0.0000    0.0000    0.0121   -0.0039   -0.2718    0.9533   -0.0000   -0.0000   -0.0323    0.0044
        5 O1     3px       -0.0000   -0.0000    0.0008   -0.0003   -0.0359    0.1260   -0.0000   -0.0000    0.0343   -0.0047
        6 O1     2py       -0.0000   -0.0001    0.0039    0.0121    0.9533    0.2718    0.0000    0.0000   -0.0044   -0.0323
        7 O1     3py        0.0000    0.0000    0.0003    0.0008    0.1260    0.0359    0.0000    0.0000    0.0047    0.0343
        8 O1     2pz       -0.0083    0.9915   -0.0000   -0.0000    0.0001    0.0000    0.0294    0.0155    0.0000   -0.0000
        9 O1     3pz       -0.0041   -0.1279    0.0000    0.0000    0.0000    0.0000   -0.0425   -0.1418    0.0000   -0.0000
       10 O1     3d2-      -0.0000   -0.0000    0.0000   -0.0000    0.0000   -0.0000    0.0000    0.0000    0.0000   -0.0000
       11 O1     3d1-      -0.0000    0.0000   -0.0001   -0.0003   -0.0027   -0.0008    0.0000    0.0000   -0.0004   -0.0027
       12 O1     3d0        0.0558   -0.0022   -0.0000   -0.0000   -0.0000   -0.0000    0.0019    0.0040   -0.0000    0.0000
       13 O1     3d1+       0.0000   -0.0000   -0.0003    0.0001    0.0008   -0.0027   -0.0000   -0.0000   -0.0027    0.0004
       14 O1     3d2+      -0.0000   -0.0000   -0.0000   -0.0000    0.0000    0.0000    0.0000    0.0000   -0.0000   -0.0000
       15 FE2    1s        -0.0000   -0.0000    0.0000    0.0000    0.0000    0.0000   -0.0000   -0.0001    0.0000   -0.0000
       16 FE2    2s        -0.0000   -0.0001    0.0000    0.0000    0.0000    0.0000   -0.0003   -0.0005    0.0000   -0.0000
       17 FE2    3s        -0.0001   -0.0005   -0.0000   -0.0000    0.0000    0.0000   -0.0074   -0.0010    0.0000   -0.0000
       18 FE2    4s        -0.0020   -0.0033   -0.0000   -0.0000   -0.0000   -0.0000    0.9639   -0.2353    0.0000   -0.0000
       19 FE2    5s        -0.0023   -0.0009    0.0000    0.0000   -0.0000   -0.0000    0.1285    0.0299   -0.0000    0.0000
       20 FE2    2px        0.0000    0.0000   -0.0000    0.0000    0.0000   -0.0000   -0.0000   -0.0000   -0.0002    0.0000
       21 FE2    3px       -0.0000    0.0000   -0.0012    0.0004    0.0002   -0.0006   -0.0000   -0.0000   -0.0068    0.0009
       22 FE2    4px        0.0000    0.0000    0.0258   -0.0084   -0.0000    0.0001   -0.0000    0.0000    0.9787   -0.1343
       23 FE2    5px        0.0000    0.0000    0.0015   -0.0005    0.0001   -0.0002   -0.0000    0.0000    0.1271   -0.0174
       24 FE2    2py       -0.0000   -0.0000   -0.0000   -0.0000   -0.0000   -0.0000    0.0000    0.0000   -0.0000   -0.0002
       25 FE2    3py        0.0000   -0.0000   -0.0004   -0.0012   -0.0006   -0.0002    0.0000    0.0000   -0.0009   -0.0068
       26 FE2    4py       -0.0000   -0.0000    0.0084    0.0258    0.0001    0.0000    0.0000   -0.0000    0.1343    0.9787
       27 FE2    5py       -0.0000   -0.0000    0.0005    0.0015   -0.0002   -0.0001    0.0000   -0.0000    0.0174    0.1271
       28 FE2    2pz       -0.0000   -0.0000    0.0000    0.0000    0.0000    0.0000   -0.0001   -0.0002    0.0000   -0.0000
       29 FE2    3pz       -0.0002   -0.0000    0.0000    0.0000    0.0000    0.0000   -0.0035   -0.0102    0.0000   -0.0000
       30 FE2    4pz       -0.0024   -0.0023   -0.0000   -0.0000   -0.0000   -0.0000    0.1842    0.9213   -0.0000    0.0000
       31 FE2    5pz       -0.0011   -0.0005   -0.0000   -0.0000   -0.0000   -0.0000    0.0276    0.1213   -0.0000    0.0000
       32 FE2    3d2-       0.0000   -0.0000    0.0001   -0.0000    0.0000   -0.0000   -0.0000   -0.0000   -0.0000    0.0000
       33 FE2    4d2-      -0.0000    0.0000    0.0000   -0.0000    0.0000   -0.0000   -0.0000   -0.0000   -0.0000    0.0000
       34 FE2    3d1-      -0.0000    0.0000    0.3085    0.9479   -0.0189   -0.0054    0.0000    0.0000   -0.0039   -0.0283
       35 FE2    4d1-      -0.0000   -0.0000    0.0226    0.0695   -0.0011   -0.0003    0.0000    0.0000    0.0018    0.0134
       36 FE2    3d0       -0.0004   -0.0002   -0.0000   -0.0002    0.0000    0.0000    0.0145    0.0592   -0.0000    0.0000
       37 FE2    4d0       -0.0010   -0.0002   -0.0000   -0.0000   -0.0000   -0.0000    0.0092    0.0381   -0.0000    0.0000
       38 FE2    3d1+       0.0000   -0.0000    0.9479   -0.3085    0.0054   -0.0189   -0.0000   -0.0000   -0.0283    0.0039
       39 FE2    4d1+       0.0000    0.0000    0.0695   -0.0226    0.0003   -0.0011   -0.0000   -0.0000    0.0134   -0.0018
       40 FE2    3d2+       0.0000   -0.0000   -0.0001   -0.0001    0.0000    0.0000   -0.0000   -0.0000    0.0000    0.0000
       41 FE2    4d2+      -0.0000   -0.0000   -0.0000   -0.0000    0.0000    0.0000   -0.0000   -0.0000    0.0000    0.0000
       42 FE2    4f3-      -0.0000    0.0000   -0.0000    0.0000    0.0000    0.0000   -0.0000   -0.0000   -0.0000   -0.0000
       43 FE2    4f2-      -0.0000   -0.0000    0.0000   -0.0000    0.0000   -0.0000    0.0000    0.0000   -0.0000    0.0000
       44 FE2    4f1-      -0.0000    0.0000    0.0005    0.0016    0.0001    0.0000   -0.0000   -0.0000    0.0002    0.0015
       45 FE2    4f0       -0.0000    0.0000   -0.0000   -0.0000   -0.0000   -0.0000   -0.0003   -0.0010    0.0000   -0.0000
       46 FE2    4f1+       0.0000   -0.0000    0.0016   -0.0005   -0.0000    0.0001    0.0000    0.0000    0.0015   -0.0002
       47 FE2    4f2+      -0.0000   -0.0000   -0.0000   -0.0000    0.0000    0.0000    0.0000    0.0000   -0.0000   -0.0000
       48 FE2    4f3+      -0.0000    0.0000    0.0000    0.0000    0.0000    0.0000   -0.0000   -0.0000    0.0000   -0.0000
 
          Orbital           21        22        23    
          Energy           -0.0933   -0.0486   -0.0486
          Occ. No.          0.0000    0.0000    0.0000
 
        1 O1     1s        -0.0076    0.0000    0.0000
        2 O1     2s        -0.0716    0.0000    0.0000
        3 O1     3s         0.0441   -0.0000    0.0000
        4 O1     2px       -0.0000   -0.0000    0.0000
        5 O1     3px       -0.0000    0.0000   -0.0000
        6 O1     2py        0.0000   -0.0000   -0.0000
        7 O1     3py        0.0000    0.0000    0.0000
        8 O1     2pz        0.0249   -0.0000   -0.0000
        9 O1     3pz       -0.0451    0.0000   -0.0000
       10 O1     3d2-       0.0000   -0.0001    0.0003
       11 O1     3d1-       0.0000   -0.0000   -0.0000
       12 O1     3d0       -0.0035   -0.0000    0.0000
       13 O1     3d1+      -0.0000   -0.0000    0.0000
       14 O1     3d2+       0.0000    0.0003    0.0001
       15 FE2    1s        -0.0000    0.0000   -0.0000
       16 FE2    2s         0.0000    0.0000   -0.0000
       17 FE2    3s         0.0057    0.0000   -0.0000
       18 FE2    4s        -0.1290    0.0000   -0.0000
       19 FE2    5s         0.9787    0.0000   -0.0000
       20 FE2    2px        0.0000   -0.0000    0.0000
       21 FE2    3px        0.0000   -0.0000    0.0000
       22 FE2    4px        0.0000   -0.0000    0.0000
       23 FE2    5px        0.0000   -0.0000    0.0000
       24 FE2    2py       -0.0000   -0.0000   -0.0000
       25 FE2    3py       -0.0000   -0.0000   -0.0000
       26 FE2    4py       -0.0000   -0.0000   -0.0000
       27 FE2    5py       -0.0000   -0.0000   -0.0000
       28 FE2    2pz        0.0000    0.0000   -0.0000
       29 FE2    3pz        0.0014    0.0000   -0.0000
       30 FE2    4pz       -0.1004    0.0000   -0.0000
       31 FE2    5pz       -0.0055    0.0000   -0.0000
       32 FE2    3d2-      -0.0000   -0.2543    0.9196
       33 FE2    4d2-      -0.0000   -0.0798    0.2887
       34 FE2    3d1-      -0.0000    0.0001    0.0000
       35 FE2    4d1-       0.0000    0.0000    0.0000
       36 FE2    3d0        0.0134   -0.0000    0.0000
       37 FE2    4d0        0.0106   -0.0000    0.0000
       38 FE2    3d1+       0.0000    0.0001   -0.0000
       39 FE2    4d1+      -0.0000    0.0000   -0.0000
       40 FE2    3d2+       0.0000    0.9196    0.2543
       41 FE2    4d2+       0.0000    0.2887    0.0798
       42 FE2    4f3-       0.0000    0.0000   -0.0000
       43 FE2    4f2-      -0.0000   -0.0004    0.0013
       44 FE2    4f1-       0.0000    0.0000    0.0000
       45 FE2    4f0        0.0004   -0.0000    0.0000
       46 FE2    4f1+      -0.0000    0.0000   -0.0000
       47 FE2    4f2+      -0.0000    0.0013    0.0004
       48 FE2    4f3+       0.0000   -0.0000   -0.0000
--
 
 
++    Molecular charges:
      ------------------
 
      Mulliken charges per centre and basis function type
      ---------------------------------------------------
 
                            O1                      FE2   
                     alpha        beta       alpha        beta
      1s           1.0000      1.0000      1.0000      1.0000
      2s           0.9925      0.9952      1.0000      1.0000
      2px          0.9794      0.0002      1.0000      1.0000
      2pz          0.0003      0.9836      1.0000      1.0000
      2py          0.9794      0.0002      1.0000      1.0000
      3s           0.0050      0.0022      0.9999      0.9999
      3px          0.0205      0.0000      0.9999      0.9997
      3pz         -0.0001      0.0162      0.9999      0.9993
      3py          0.0205      0.0000      0.9999      0.9997
      4s           0.0000      0.0000      0.0000      0.0001
      3d2+         0.0000      0.0000      1.0000      0.0000
      3d1+         0.0000      0.0000      0.9990      0.9936
      3d0          0.0026      0.0031      0.9991      0.0000
      3d1-         0.0000      0.0000      0.9990      0.9936
      3d2-         0.0000      0.0000      1.0000      0.0000
      4px          0.0000      0.0000      0.0003      0.0008
      4pz          0.0000      0.0000      0.0006      0.0001
      4py          0.0000      0.0000      0.0003      0.0008
      5s           0.0000      0.0000     -0.0001     -0.0001
      4d2+         0.0000      0.0000      0.0000      0.0000
      4d1+         0.0000      0.0000      0.0007      0.0054
      4d0          0.0000      0.0000      0.0003     -0.0000
      4d1-         0.0000      0.0000      0.0007      0.0054
      4d2-         0.0000      0.0000      0.0000      0.0000
      5px          0.0000      0.0000      0.0000      0.0001
      5pz          0.0000      0.0000      0.0000      0.0001
      5py          0.0000      0.0000      0.0000      0.0001
      4f3+         0.0000      0.0000      0.0000      0.0000
      4f2+         0.0000      0.0000      0.0000      0.0000
      4f1+         0.0000      0.0000      0.0001      0.0002
      4f0          0.0000      0.0000      0.0000      0.0004
      4f1-         0.0000      0.0000      0.0001      0.0002
      4f2-         0.0000      0.0000      0.0000      0.0000
      4f3-         0.0000      0.0000      0.0000      0.0000
      Total        4.0002      3.0007     13.9998     10.9993
      Total              7.0009                 24.9991
 
      Charge            0.9991                  1.0009
 
      Total electronic charge=   32.000000
 
      Total            charge=    2.000000
--
 
 
  Input file to MOLDEN was generated!
 
 
++    Static properties:
      ------------------
 
 
      LoProp Charges per center
 

                   O1       FE2   
      Nuclear      8.0000  26.0000
      Electronic  -6.9999 -25.0001
 
      Total        1.0001   0.9999
--
 
 
++    Natural Bond Order analysis
      ---------------------------
      Based on LoProp computed density
      -------------------------------------------------------------------------------------
      Atom A       Atom B       Bond Order
      -------------------------------------------------------------------------------------
      NBO located     19.999 core electrons.
      NBO located      5.992 lone pair electrons.
      NBO located      1.000 non-bonded electrons on atom O1        
      NBO located      1.000 non-bonded electrons on atom O1        
      NBO located      1.000 non-bonded electrons on atom O1        
      NBO located      1.000 non-bonded electrons on atom FE2       
      NBO located      1.000 non-bonded electrons on atom FE2       
      NBO located      1.000 non-bonded electrons on atom FE2       
      The remaining    0.008 electrons are to be considered as diffuse
--
 
 
++    Molecular orbitals:
      -------------------
 
      Title: Natural orbitals

      Molecular orbitals for symmetry species 1: a  
 
          Orbital            1         2         3         4         5         6         7         8         9        10    
          Energy         -263.9039  -32.3442  -21.6224  -27.4567  -27.6136  -27.6135   -4.7696   -3.0886   -3.0987   -3.0988
          Occ. No.          2.0000    2.0000    2.0000    2.0000    2.0000    2.0000    2.0000    1.9998    1.9998    1.9998
 
        1 O1     1s        -0.0000   -0.0015   -0.9875    0.1538   -0.0000   -0.0000    0.0176    0.0003   -0.0000   -0.0000
        2 O1     2s        -0.0000   -0.0001    0.0298   -0.0047    0.0000    0.0000    0.0007    0.0008   -0.0000   -0.0000
        3 O1     3s        -0.0000   -0.0000   -0.0013    0.0002   -0.0000   -0.0000    0.0002    0.0001   -0.0000   -0.0000
        4 O1     2px        0.0000   -0.0000   -0.0000    0.0000    0.0000   -0.0000   -0.0000   -0.0000    0.0003   -0.0003
        5 O1     3px       -0.0000    0.0000    0.0000   -0.0000    0.0000   -0.0000    0.0000   -0.0000   -0.0001    0.0001
        6 O1     2py       -0.0000    0.0000    0.0000   -0.0000   -0.0000   -0.0000    0.0000    0.0000   -0.0003   -0.0003
        7 O1     3py        0.0000   -0.0000   -0.0000    0.0000   -0.0000   -0.0000   -0.0000    0.0000    0.0001    0.0001
        8 O1     2pz        0.0000    0.0000   -0.0003    0.0000   -0.0000   -0.0000   -0.0002    0.0000   -0.0000   -0.0000
        9 O1     3pz       -0.0000    0.0000   -0.0001   -0.0000   -0.0000    0.0000    0.0001    0.0002   -0.0000   -0.0000
       10 O1     3d2-       0.0000    0.0000   -0.0000    0.0000   -0.0000   -0.0000   -0.0000   -0.0000    0.0000   -0.0000
       11 O1     3d1-       0.0000   -0.0000   -0.0000    0.0000   -0.0000   -0.0000   -0.0000   -0.0000    0.0000    0.0000
       12 O1     3d0        0.0000   -0.0000    0.0000    0.0000    0.0000    0.0000   -0.0000   -0.0000    0.0000    0.0000
       13 O1     3d1+      -0.0000    0.0000    0.0000   -0.0000    0.0000   -0.0000    0.0000    0.0000   -0.0000    0.0000
       14 O1     3d2+       0.0000    0.0000   -0.0000    0.0000    0.0000    0.0000   -0.0000   -0.0000    0.0000    0.0000
       15 FE2    1s         1.0000   -0.0001   -0.0000   -0.0000    0.0000    0.0000    0.0002    0.0000   -0.0000   -0.0000
       16 FE2    2s         0.0001    0.9948    0.0016    0.0084    0.0000    0.0000    0.1011   -0.0000    0.0000    0.0000
       17 FE2    3s        -0.0002   -0.1011    0.0186    0.0053    0.0000    0.0000    0.9946   -0.0046    0.0000    0.0000
       18 FE2    4s        -0.0000   -0.0007    0.0001   -0.0001    0.0000    0.0000    0.0069    0.0014    0.0000    0.0000
       19 FE2    5s         0.0000    0.0005   -0.0001    0.0000   -0.0000   -0.0000   -0.0050   -0.0007    0.0000    0.0000
       20 FE2    2px        0.0000    0.0000    0.0000   -0.0000   -0.6133    0.7872    0.0000   -0.0000   -0.0410    0.0500
       21 FE2    3px       -0.0000    0.0000   -0.0000    0.0000    0.0398   -0.0511    0.0000   -0.0001   -0.6329    0.7705
       22 FE2    4px        0.0000   -0.0000   -0.0000    0.0000    0.0002   -0.0002   -0.0000   -0.0000   -0.0029    0.0036
       23 FE2    5px        0.0000   -0.0000   -0.0000   -0.0000   -0.0002    0.0003   -0.0000    0.0000    0.0042   -0.0051
       24 FE2    2py       -0.0000   -0.0000    0.0000    0.0000    0.7872    0.6133   -0.0000    0.0000    0.0499    0.0410
       25 FE2    3py        0.0000   -0.0000   -0.0000   -0.0000   -0.0510   -0.0398   -0.0000    0.0002    0.7705    0.6329
       26 FE2    4py       -0.0000    0.0000    0.0000   -0.0000   -0.0002   -0.0002    0.0000    0.0000    0.0036    0.0029
       27 FE2    5py       -0.0000    0.0000    0.0000    0.0000    0.0003    0.0002    0.0000   -0.0000   -0.0051   -0.0042
       28 FE2    2pz        0.0000   -0.0077    0.1534    0.9861   -0.0000   -0.0000   -0.0086    0.0634   -0.0000   -0.0000
       29 FE2    3pz       -0.0000    0.0000   -0.0094   -0.0626    0.0000    0.0000    0.0051    0.9978   -0.0002   -0.0001
       30 FE2    4pz       -0.0000   -0.0000   -0.0001   -0.0005    0.0000    0.0000    0.0004    0.0084   -0.0000   -0.0000
       31 FE2    5pz       -0.0000    0.0000    0.0000    0.0003   -0.0000   -0.0000   -0.0002   -0.0078    0.0000    0.0000
       32 FE2    3d2-       0.0000   -0.0000   -0.0000    0.0000    0.0000   -0.0000   -0.0000   -0.0000    0.0000   -0.0000
       33 FE2    4d2-       0.0000   -0.0000   -0.0000   -0.0000    0.0000   -0.0000   -0.0000   -0.0000    0.0000   -0.0000
       34 FE2    3d1-      -0.0000    0.0000    0.0000   -0.0000   -0.0001   -0.0001    0.0000    0.0000   -0.0307   -0.0252
       35 FE2    4d1-      -0.0000    0.0000    0.0000   -0.0000   -0.0001   -0.0000    0.0000    0.0000   -0.0013   -0.0011
       36 FE2    3d0       -0.0000   -0.0001    0.0000   -0.0001    0.0000    0.0000    0.0012    0.0025    0.0000    0.0000
       37 FE2    4d0        0.0000   -0.0000    0.0000   -0.0000    0.0000    0.0000    0.0025    0.0001    0.0000    0.0000
       38 FE2    3d1+       0.0000   -0.0000   -0.0000    0.0000    0.0001   -0.0001   -0.0000   -0.0000    0.0252   -0.0307
       39 FE2    4d1+       0.0000   -0.0000   -0.0000   -0.0000    0.0000   -0.0001   -0.0000   -0.0000    0.0011   -0.0013
       40 FE2    3d2+       0.0000   -0.0000   -0.0000    0.0000    0.0000    0.0000   -0.0000   -0.0000    0.0000    0.0000
       41 FE2    4d2+       0.0000   -0.0000   -0.0000    0.0000    0.0000    0.0000   -0.0000   -0.0000    0.0000    0.0000
       42 FE2    4f3-      -0.0000    0.0000   -0.0000   -0.0000   -0.0000   -0.0000    0.0000   -0.0000   -0.0000   -0.0000
       43 FE2    4f2-       0.0000   -0.0000   -0.0000   -0.0000   -0.0000    0.0000   -0.0000    0.0000    0.0000    0.0000
       44 FE2    4f1-      -0.0000    0.0000    0.0000    0.0000    0.0001    0.0001    0.0000   -0.0000    0.0019    0.0015
       45 FE2    4f0        0.0000    0.0000    0.0000    0.0001   -0.0000   -0.0000    0.0000   -0.0113    0.0000    0.0000
       46 FE2    4f1+       0.0000   -0.0000   -0.0000   -0.0000   -0.0001    0.0001   -0.0000    0.0000   -0.0015    0.0019
       47 FE2    4f2+       0.0000   -0.0000   -0.0000   -0.0000   -0.0000   -0.0000   -0.0000    0.0000   -0.0000   -0.0000
       48 FE2    4f3+      -0.0000    0.0000   -0.0000   -0.0000    0.0000   -0.0000    0.0000   -0.0000    0.0000    0.0000
 
          Orbital           11        12        13        14        15        16        17        18        19        20    
          Energy           -0.7845   -0.7845   -1.9527   -0.6835   -0.9574   -0.9574   -0.4370   -0.4370   -0.6705    1.4019
          Occ. No.          1.9989    1.9989    1.9940    1.0146    1.0000    1.0000    1.0000    1.0000    0.9854    0.0060
 
        1 O1     1s        -0.0000   -0.0000    0.0302   -0.0004   -0.0000    0.0000    0.0000    0.0000    0.0003    0.0002
        2 O1     2s        -0.0000   -0.0000    0.9981   -0.0119    0.0000   -0.0000    0.0000    0.0000   -0.0030    0.0128
        3 O1     3s         0.0000    0.0000   -0.0585    0.0030   -0.0000    0.0000    0.0000    0.0000    0.0051    0.2277
        4 O1     2px        0.0122    0.0034    0.0000    0.0000   -0.2252    0.9636   -0.0000    0.0000   -0.0000   -0.0000
        5 O1     3px       -0.0013   -0.0004   -0.0000   -0.0000    0.0326   -0.1396    0.0000   -0.0000    0.0000   -0.0000
        6 O1     2py        0.0034   -0.0122   -0.0000   -0.0000    0.9636    0.2252   -0.0000   -0.0000    0.0001    0.0000
        7 O1     3py       -0.0004    0.0013    0.0000    0.0000   -0.1396   -0.0326   -0.0000   -0.0000   -0.0000    0.0000
        8 O1     2pz       -0.0000   -0.0000   -0.0112   -0.7017    0.0001   -0.0000   -0.0000   -0.0000   -0.7005   -0.0010
        9 O1     3pz        0.0000    0.0000   -0.0023    0.0913   -0.0000    0.0000   -0.0000   -0.0000    0.0895   -0.0255
       10 O1     3d2-       0.0000    0.0000   -0.0000    0.0000   -0.0000    0.0000    0.0000   -0.0000    0.0000   -0.0000
       11 O1     3d1-      -0.0001    0.0002   -0.0000    0.0000   -0.0031   -0.0007    0.0000   -0.0000   -0.0000   -0.0002
       12 O1     3d0        0.0000    0.0000    0.0026    0.0018   -0.0000    0.0000   -0.0000   -0.0000    0.0012    0.9749
       13 O1     3d1+      -0.0002   -0.0001    0.0000   -0.0000    0.0007   -0.0031    0.0000   -0.0000    0.0000    0.0000
       14 O1     3d2+      -0.0000    0.0000   -0.0000    0.0000   -0.0000   -0.0000    0.0000    0.0000    0.0000   -0.0000
       15 FE2    1s        -0.0000   -0.0000   -0.0000    0.0000   -0.0000    0.0000   -0.0000   -0.0000    0.0000   -0.0000
       16 FE2    2s         0.0000    0.0000   -0.0000    0.0001   -0.0000    0.0000   -0.0000   -0.0000    0.0001   -0.0002
       17 FE2    3s         0.0000    0.0000   -0.0012   -0.0006   -0.0000    0.0000    0.0000   -0.0000    0.0011   -0.0010
       18 FE2    4s         0.0000    0.0000   -0.0014    0.0042   -0.0000    0.0000   -0.0000   -0.0000    0.0005   -0.0108
       19 FE2    5s        -0.0000   -0.0000   -0.0020    0.0040    0.0000   -0.0000    0.0000    0.0000   -0.0028   -0.0065
       20 FE2    2px        0.0026    0.0007    0.0000    0.0000   -0.0000    0.0000    0.0000   -0.0000   -0.0000    0.0000
       21 FE2    3px        0.0381    0.0106    0.0000    0.0000   -0.0000    0.0001    0.0000   -0.0000   -0.0000   -0.0000
       22 FE2    4px        0.0214    0.0060    0.0000   -0.0000   -0.0003    0.0014   -0.0000    0.0000    0.0000    0.0000
       23 FE2    5px        0.0008    0.0002    0.0000   -0.0000   -0.0001    0.0006   -0.0000    0.0000   -0.0000    0.0000
       24 FE2    2py        0.0007   -0.0026   -0.0000   -0.0000    0.0000    0.0000   -0.0000   -0.0000    0.0000   -0.0000
       25 FE2    3py        0.0106   -0.0381   -0.0000   -0.0000    0.0001    0.0000   -0.0000   -0.0000    0.0000    0.0000
       26 FE2    4py        0.0060   -0.0214   -0.0000    0.0000    0.0014    0.0003    0.0000    0.0000   -0.0000   -0.0000
       27 FE2    5py        0.0002   -0.0008   -0.0000    0.0000    0.0006    0.0001    0.0000    0.0000    0.0000   -0.0000
       28 FE2    2pz        0.0000    0.0000   -0.0000   -0.0000   -0.0000    0.0000    0.0000    0.0000    0.0000   -0.0000
       29 FE2    3pz        0.0000    0.0000   -0.0008   -0.0019   -0.0000    0.0000    0.0000    0.0000    0.0019   -0.0010
       30 FE2    4pz        0.0000    0.0000   -0.0017    0.0183    0.0000   -0.0000   -0.0000   -0.0000   -0.0153   -0.0131
       31 FE2    5pz        0.0000    0.0000   -0.0008    0.0011    0.0000   -0.0000   -0.0000   -0.0000   -0.0005   -0.0042
       32 FE2    3d2-       0.0001    0.0000    0.0000   -0.0000    0.0000   -0.0000    0.9631   -0.2691    0.0000   -0.0000
       33 FE2    4d2-       0.0000    0.0000    0.0000   -0.0000    0.0000   -0.0000    0.0016   -0.0004    0.0000    0.0000
       34 FE2    3d1-       0.2678   -0.9610   -0.0000    0.0001   -0.0138   -0.0032    0.0000    0.0001   -0.0001    0.0000
       35 FE2    4d1-       0.0135   -0.0484   -0.0000    0.0000    0.0003    0.0001   -0.0000    0.0000   -0.0000   -0.0000
       36 FE2    3d0        0.0000    0.0002    0.0002    0.7018    0.0001   -0.0000   -0.0000   -0.0000   -0.7119   -0.0095
       37 FE2    4d0        0.0000    0.0000   -0.0007    0.0121    0.0000   -0.0000    0.0000    0.0000   -0.0119   -0.0051
       38 FE2    3d1+       0.9610    0.2678    0.0000   -0.0000    0.0032   -0.0138   -0.0000    0.0001    0.0000   -0.0000
       39 FE2    4d1+       0.0484    0.0135    0.0000   -0.0000   -0.0001    0.0003    0.0000    0.0000    0.0000    0.0000
       40 FE2    3d2+      -0.0001    0.0001    0.0000   -0.0000    0.0000    0.0000    0.2691    0.9631    0.0000   -0.0000
       41 FE2    4d2+      -0.0000    0.0000    0.0000   -0.0000    0.0000    0.0000    0.0004    0.0016    0.0000    0.0000
       42 FE2    4f3-      -0.0000   -0.0000    0.0000    0.0000    0.0000    0.0000   -0.0000    0.0000   -0.0000    0.0000
       43 FE2    4f2-       0.0000    0.0000    0.0000   -0.0000    0.0000   -0.0000    0.0011   -0.0003    0.0000   -0.0000
       44 FE2    4f1-       0.0005   -0.0016   -0.0000    0.0000   -0.0000   -0.0000    0.0000    0.0000   -0.0000   -0.0000
       45 FE2    4f0        0.0000    0.0000   -0.0000    0.0012    0.0000   -0.0000   -0.0000   -0.0000   -0.0012   -0.0002
       46 FE2    4f1+       0.0016    0.0005    0.0000   -0.0000    0.0000   -0.0000   -0.0000    0.0000    0.0000    0.0000
       47 FE2    4f2+      -0.0000    0.0000    0.0000   -0.0000    0.0000    0.0000    0.0003    0.0011    0.0000    0.0000
       48 FE2    4f3+       0.0000   -0.0000    0.0000    0.0000    0.0000   -0.0000   -0.0000   -0.0000   -0.0000    0.0000
 
          Orbital           21        22        23        24        25        26        27        28        29        30    
          Energy            0.6064    0.6064    3.4771    3.4771    3.4716    0.5759    1.9801    1.9801    2.0489    0.4081
          Occ. No.          0.0011    0.0011    0.0002    0.0002    0.0002    0.0000    0.0000    0.0000    0.0000    0.0000
 
        1 O1     1s         0.0000    0.0000   -0.0000   -0.0000   -0.0004    0.0053    0.0000    0.0000   -0.0058   -0.0037
        2 O1     2s         0.0000    0.0000   -0.0000   -0.0000   -0.0046    0.0586    0.0000    0.0000   -0.0690   -0.0920
        3 O1     3s         0.0000    0.0000    0.0000    0.0000   -0.0036    0.0649    0.0000    0.0000   -0.1724   -0.9562
        4 O1     2px       -0.0007    0.0024    0.0005   -0.0008    0.0000   -0.0000    0.0078   -0.0110    0.0000   -0.0000
        5 O1     3px       -0.0263    0.0882    0.0052   -0.0080    0.0000   -0.0000    0.0270   -0.0379    0.0000   -0.0000
        6 O1     2py        0.0024    0.0007   -0.0008   -0.0005   -0.0000    0.0000   -0.0110   -0.0078   -0.0000    0.0000
        7 O1     3py        0.0882    0.0263   -0.0080   -0.0052   -0.0000    0.0000   -0.0379   -0.0270   -0.0000    0.0000
        8 O1     2pz       -0.0000   -0.0000   -0.0000   -0.0000    0.0015   -0.0440   -0.0000   -0.0000    0.0507    0.0245
        9 O1     3pz        0.0000    0.0000   -0.0000   -0.0000   -0.0039   -0.0473   -0.0000   -0.0000    0.1386    0.0391
       10 O1     3d2-      -0.0000    0.0000    0.0000   -0.0000    0.0000   -0.0000   -0.0000    0.0000   -0.0000   -0.0000
       11 O1     3d1-      -0.0042   -0.0012    0.0005    0.0003    0.0000   -0.0000    0.0045    0.0032   -0.0000   -0.0000
       12 O1     3d0        0.0000    0.0000   -0.0000   -0.0000   -0.0032    0.0273    0.0000    0.0000    0.0015    0.1940
       13 O1     3d1+       0.0012   -0.0042   -0.0003    0.0005   -0.0000    0.0000   -0.0032    0.0045    0.0000    0.0000
       14 O1     3d2+      -0.0000   -0.0000    0.0000    0.0000    0.0000   -0.0000   -0.0000   -0.0000   -0.0000   -0.0000
       15 FE2    1s         0.0000    0.0000   -0.0000   -0.0000   -0.0000   -0.0000   -0.0000   -0.0000    0.0001    0.0001
       16 FE2    2s         0.0000    0.0000   -0.0000   -0.0000   -0.0000   -0.0000   -0.0000   -0.0000    0.0005    0.0004
       17 FE2    3s         0.0000    0.0000   -0.0000   -0.0000   -0.0001   -0.0022   -0.0000   -0.0000    0.0032    0.0009
       18 FE2    4s        -0.0004   -0.0000    0.0000    0.0000   -0.0011    0.2615   -0.0000   -0.0000    0.0364    0.2638
       19 FE2    5s         0.0001    0.0000   -0.0000   -0.0000   -0.0010   -0.3298    0.0000    0.0000    0.0773    0.1607
       20 FE2    2px       -0.0000    0.0000    0.0002   -0.0002   -0.0000   -0.0000   -0.0000    0.0000   -0.0000   -0.0000
       21 FE2    3px        0.0005   -0.0016    0.0027   -0.0041   -0.0000    0.0000   -0.0039    0.0055   -0.0000    0.0000
       22 FE2    4px       -0.0626    0.2104   -0.1121    0.1735    0.0000   -0.0000    0.1144   -0.1609    0.0000   -0.0000
       23 FE2    5px       -0.0041    0.0138    0.1195   -0.1850   -0.0000   -0.0000   -0.5478    0.7703   -0.0000   -0.0000
       24 FE2    2py        0.0000    0.0000   -0.0002   -0.0002    0.0000    0.0000    0.0000    0.0000    0.0000    0.0000
       25 FE2    3py       -0.0016   -0.0005   -0.0041   -0.0027    0.0000   -0.0000    0.0055    0.0039    0.0000   -0.0000
       26 FE2    4py        0.2104    0.0626    0.1735    0.1121   -0.0000    0.0000   -0.1609   -0.1144   -0.0000    0.0000
       27 FE2    5py        0.0138    0.0041   -0.1850   -0.1195    0.0000    0.0000    0.7703    0.5478    0.0001    0.0000
       28 FE2    2pz        0.0000    0.0000    0.0000    0.0000    0.0006   -0.0001    0.0000    0.0000    0.0001    0.0001
       29 FE2    3pz        0.0000    0.0000    0.0000    0.0000    0.0142   -0.0004   -0.0000   -0.0000    0.0077   -0.0001
       30 FE2    4pz       -0.0001   -0.0000   -0.0001   -0.0000   -0.2288   -0.0899   -0.0000   -0.0000   -0.0600    0.3124
       31 FE2    5pz       -0.0000   -0.0000    0.0000    0.0000    0.2006   -0.0084   -0.0001   -0.0000    0.9871   -0.0082
       32 FE2    3d2-       0.0000   -0.0000   -0.0000   -0.0000   -0.0000    0.0000   -0.0000   -0.0000   -0.0000    0.0000
       33 FE2    4d2-      -0.0000    0.0000    0.0000   -0.0000   -0.0000    0.0000   -0.0000    0.0000    0.0000    0.0000
       34 FE2    3d1-      -0.0527   -0.0157   -0.0021   -0.0014    0.0000   -0.0000    0.0019    0.0013    0.0000   -0.0000
       35 FE2    4d1-       0.9213    0.2742   -0.0526   -0.0340   -0.0000   -0.0000    0.0240    0.0170   -0.0000    0.0001
       36 FE2    3d0        0.0000    0.0000    0.0000    0.0000    0.0030    0.0147    0.0000    0.0000    0.0085    0.0050
       37 FE2    4d0       -0.0002   -0.0000    0.0000    0.0000    0.0430   -0.9167   -0.0000   -0.0000    0.0172    0.0545
       38 FE2    3d1+       0.0157   -0.0527    0.0014   -0.0021   -0.0000    0.0000   -0.0013    0.0019   -0.0000    0.0000
       39 FE2    4d1+      -0.2742    0.9213    0.0340   -0.0526    0.0000    0.0000   -0.0170    0.0240    0.0000   -0.0000
       40 FE2    3d2+       0.0000    0.0000    0.0000    0.0000   -0.0000    0.0000    0.0000    0.0000   -0.0000    0.0000
       41 FE2    4d2+      -0.0001   -0.0001    0.0000    0.0000    0.0000   -0.0000   -0.0000   -0.0000    0.0000   -0.0000
       42 FE2    4f3-       0.0000   -0.0000   -0.0000   -0.0000    0.0000    0.0000   -0.0000   -0.0000   -0.0000    0.0000
       43 FE2    4f2-      -0.0000    0.0000   -0.0000    0.0001   -0.0000    0.0000   -0.0000    0.0000    0.0000   -0.0000
       44 FE2    4f1-       0.0196    0.0058    0.7989    0.5163    0.0001   -0.0000    0.2150    0.1529   -0.0001    0.0000
       45 FE2    4f0        0.0000    0.0000   -0.0001   -0.0000    0.9515    0.0211   -0.0001   -0.0000   -0.2229    0.0773
       46 FE2    4f1+      -0.0058    0.0196   -0.5163    0.7989   -0.0000    0.0000   -0.1529    0.2150    0.0000   -0.0000
       47 FE2    4f2+      -0.0000   -0.0000   -0.0001   -0.0002   -0.0000    0.0000   -0.0000   -0.0000    0.0000   -0.0000
       48 FE2    4f3+       0.0000    0.0000    0.0000    0.0000    0.0000    0.0000    0.0000    0.0000   -0.0000    0.0000
 
          Orbital           31        32        33        34        35        36        37        38        39        40    
          Energy           -0.0219   -0.2375   -0.0114   -0.0115   -0.0007    0.1263    0.0943    0.0942    0.6991    0.6991
          Occ. No.          0.0000    0.0000    0.0000    0.0000    0.0000    0.0000    0.0000    0.0000    0.0000    0.0000
 
        1 O1     1s        -0.0031    0.0076    0.0000   -0.0000    0.0004   -0.0038   -0.0000   -0.0000    0.0000   -0.0000
        2 O1     2s        -0.0317    0.0676    0.0000   -0.0000   -0.0002   -0.0354   -0.0000   -0.0000    0.0000   -0.0000
        3 O1     3s        -0.1075   -0.1652   -0.0001    0.0000   -0.1350    0.0838    0.0000    0.0000   -0.0000    0.0000
        4 O1     2px       -0.0000    0.0000    0.0003   -0.0020    0.0000   -0.0000    0.1404   -0.0401    0.0003   -0.0001
        5 O1     3px        0.0000    0.0000   -0.0075    0.0281    0.0000   -0.0000    0.9530   -0.2723    0.0015   -0.0010
        6 O1     2py        0.0000   -0.0000   -0.0013   -0.0005   -0.0000   -0.0000    0.0401    0.1404    0.0000   -0.0000
        7 O1     3py       -0.0000   -0.0000    0.0329    0.0061   -0.0001   -0.0001    0.2724    0.9528    0.0002   -0.0003
        8 O1     2pz        0.0097   -0.0478   -0.0000   -0.0000    0.0781    0.1387    0.0000    0.0000   -0.0000    0.0000
        9 O1     3pz        0.0894   -0.0160    0.0001   -0.0000    0.6733    0.8128    0.0000    0.0001   -0.0000    0.0000
       10 O1     3d2-      -0.0000    0.0000    0.0000    0.0000    0.0000   -0.0000    0.0004    0.0000    0.0013    0.0022
       11 O1     3d1-      -0.0000   -0.0000   -0.0012   -0.0003   -0.0000    0.0001   -0.0008   -0.0013    0.0027    0.0034
       12 O1     3d0        0.0322    0.0848    0.0000   -0.0000    0.0531   -0.0439   -0.0000   -0.0000   -0.0000    0.0000
       13 O1     3d1+       0.0000    0.0000    0.0002   -0.0012    0.0000   -0.0000   -0.0031    0.0039    0.0114    0.0101
       14 O1     3d2+      -0.0000    0.0000    0.0000    0.0000    0.0000   -0.0000    0.0007    0.0000   -0.0005   -0.0002
       15 FE2    1s         0.0000   -0.0000    0.0000   -0.0000    0.0003    0.0004    0.0000    0.0000   -0.0000    0.0000
       16 FE2    2s         0.0004   -0.0000    0.0000   -0.0000    0.0024    0.0029    0.0000    0.0000   -0.0000    0.0000
       17 FE2    3s         0.0102    0.0017    0.0000   -0.0000    0.0112    0.0144    0.0000    0.0000   -0.0000    0.0000
       18 FE2    4s        -0.5523   -0.7187   -0.0000   -0.0000    0.2932    0.0760    0.0000    0.0000    0.0000   -0.0000
       19 FE2    5s         0.7134   -0.6349   -0.0001   -0.0000    0.1064    0.0024    0.0000   -0.0000    0.0000   -0.0000
       20 FE2    2px        0.0000    0.0000   -0.0000    0.0000   -0.0000    0.0000   -0.0001    0.0000   -0.0000    0.0000
       21 FE2    3px       -0.0000   -0.0000    0.0007   -0.0030   -0.0000    0.0000   -0.0018    0.0005   -0.0000    0.0000
       22 FE2    4px        0.0000    0.0000   -0.2043    0.9040    0.0001   -0.0000   -0.1201    0.0356    0.0000    0.0001
       23 FE2    5px        0.0000    0.0000   -0.0546    0.2417    0.0000   -0.0000   -0.0321    0.0095    0.0000    0.0000
       24 FE2    2py       -0.0000   -0.0000    0.0000    0.0000    0.0000    0.0000   -0.0000   -0.0001   -0.0000    0.0000
       25 FE2    3py        0.0000    0.0000   -0.0030   -0.0007    0.0000   -0.0000   -0.0005   -0.0018   -0.0000    0.0000
       26 FE2    4py       -0.0001   -0.0002    0.9034    0.2045   -0.0003    0.0002   -0.0345   -0.1247    0.0000    0.0001
       27 FE2    5py       -0.0000   -0.0000    0.2415    0.0547   -0.0001    0.0001   -0.0092   -0.0333    0.0000    0.0000
       28 FE2    2pz        0.0000   -0.0000    0.0000   -0.0000    0.0003    0.0005    0.0000    0.0000   -0.0000    0.0000
       29 FE2    3pz        0.0028    0.0010    0.0000   -0.0000    0.0105    0.0060    0.0000    0.0000   -0.0000    0.0000
       30 FE2    4pz       -0.0425   -0.1205   -0.0004    0.0000   -0.5554    0.7665    0.0000    0.0000   -0.0000    0.0000
       31 FE2    5pz       -0.0376   -0.0204   -0.0001    0.0000   -0.1032    0.1334    0.0000    0.0000   -0.0000    0.0000
       32 FE2    3d2-      -0.0000   -0.0000   -0.0000    0.0000    0.0000   -0.0000    0.0000   -0.0000   -0.0016    0.0004
       33 FE2    4d2-       0.0000    0.0000    0.0000   -0.0001   -0.0000    0.0000   -0.0017    0.0002    0.9638   -0.2664
       34 FE2    3d1-       0.0000    0.0000   -0.0095   -0.0021    0.0000   -0.0000   -0.0022   -0.0077    0.0000    0.0000
       35 FE2    4d1-      -0.0004   -0.0002   -0.2192   -0.0494    0.0001   -0.0000   -0.0425   -0.1477    0.0000    0.0002
       36 FE2    3d0        0.0105    0.0075    0.0000   -0.0000    0.0350    0.0095    0.0000    0.0000   -0.0000    0.0000
       37 FE2    4d0       -0.3967    0.0071    0.0001   -0.0000    0.1595    0.0401    0.0000    0.0000   -0.0000   -0.0000
       38 FE2    3d1+      -0.0000   -0.0000    0.0022   -0.0095   -0.0000    0.0000   -0.0077    0.0022    0.0000    0.0000
       39 FE2    4d1+       0.0001    0.0001    0.0496   -0.2184   -0.0000    0.0000   -0.1488    0.0423   -0.0001    0.0004
       40 FE2    3d2+      -0.0000   -0.0000   -0.0000   -0.0000    0.0000    0.0000   -0.0000   -0.0000   -0.0004   -0.0016
[...]
   5    -0.001727   -0.029029   -0.018221   -0.172195   -0.017755   -0.076008   -0.021236   -0.046102   -0.382274    0.000179
   6    -0.001727   -0.029029   -0.018220   -0.172199   -0.017756   -0.076012   -0.021239   -0.046104   -0.382286    0.000063
   7    -0.001727   -0.029029   -0.018221   -0.172200   -0.017756   -0.076012   -0.021239   -0.046104   -0.382289    0.000022
   8    -0.001727   -0.029029   -0.018221   -0.172199   -0.017756   -0.076012   -0.021239   -0.046104   -0.382287    0.000006
   9    -0.001727   -0.029029   -0.018221   -0.172199   -0.017756   -0.076011   -0.021239   -0.046104   -0.382287    0.000002
  10    -0.001727   -0.029029   -0.018221   -0.172199   -0.017755   -0.076012   -0.021239   -0.046104   -0.382287    0.000001
-------------------------------------------------------------------------------------------------------------------
 
  FINAL CASPT2 RESULT:
 
  Correlation energy /Case, /Symm, and sums:
 VJTU     -0.00172748 -0.00172748
 VJTIP    -0.00958450 -0.00958450
 VJTIM    -0.01944479 -0.01944479
 ATVX     -0.01822119 -0.01822119
 AIVX     -0.17219918 -0.17219918
 VJAIP    -0.01454815 -0.01454815
 VJAIM    -0.00320735 -0.00320735
 BVATP    -0.02140143 -0.02140143
 BVATM    -0.05461012 -0.05461012
 BJATP    -0.01245617 -0.01245617
 BJATM    -0.00878269 -0.00878269
 BJAIP    -0.03146269 -0.03146269
 BJAIM    -0.01464124 -0.01464124
 Summed:  -0.38228699 -0.38228699
 
      Reference energy:       -1345.4503273473
      E2 (Non-variational):      -0.3822869868
      E2 (Variational):          -0.3822869627
      Total energy:           -1345.8326143100
      Residual norm:              0.0000004607
      Reference weight:           0.93788
 
      Contributions to the CASPT2 correlation energy
      Active & Virtual Only:         -0.0942327408
      One Inactive Excited:          -0.1951655329
      Two Inactive Excited:          -0.0928887131
 
 
++ Denominators, etc.
----------------------------------------------------------------------------------------------------
 Report on small energy denominators, large coefficients, and large energy contributions.
CASE  SYMM ACTIVE-MIX  NON-ACTIVE INDICES          DENOMINATOR     RHS VALUE       COEFFICIENT     CONTRIBUTION
ATVX     1  Mu1.0001  Se1.026                      -0.14328407      0.00000000      0.00000000      0.00000000
ATVX     1  Mu1.0002  Se1.026                      -0.12668675     -0.00000000      0.00000000     -0.00000000
ATVX     1  Mu1.0003  Se1.026                      -0.12641704      0.00000000     -0.00000000     -0.00000000
ATVX     1  Mu1.0004  Se1.026                      -0.08539833     -0.00000000     -0.00000000      0.00000000
ATVX     1  Mu1.0005  Se1.026                      -0.05242931      0.00000000      0.00000000      0.00000000
ATVX     1  Mu1.0006  Se1.026                      -0.05242924      0.00000000      0.00000000      0.00000000
ATVX     1  Mu1.0007  Se1.026                       0.21823505      0.00000000      0.00000000      0.00000000
ATVX     1  Mu1.0008  Se1.026                       0.21823513     -0.00000000      0.00000000     -0.00000000
ATVX     1  Mu1.0009  Se1.026                       0.22541474     -0.00000000      0.00000000     -0.00000000
ATVX     1  Mu1.0010  Se1.026                       0.22541485     -0.00000000      0.00000000     -0.00000000
ATVX     1  Mu1.0011  Se1.026                       0.23218284     -0.00000000      0.00000000     -0.00000000
ATVX     1  Mu1.0012  Se1.026                       0.23689619     -0.00000111     -0.00000731      0.00000000
ATVX     1  Mu1.0013  Se1.026                       0.23715512     -0.00000097     -0.00000953      0.00000000
ATVX     1  Mu1.0014  Se1.026                       0.23952018     -0.00000000      0.00000000     -0.00000000
ATVX     1  Mu1.0015  Se1.026                       0.23978875      0.00000000     -0.00000000     -0.00000000
ATVX     1  Mu1.0016  Se1.026                       0.24287305      0.00002694     -0.00029933     -0.00000001
ATVX     1  Mu1.0017  Se1.026                       0.24315763     -0.00002872      0.00031851     -0.00000001
ATVX     1  Mu1.0018  Se1.026                       0.24595422     -0.00000873      0.00005787     -0.00000000
ATVX     1  Mu1.0019  Se1.026                       0.24620605     -0.00000000      0.00000000     -0.00000000
ATVX     1  Mu1.0020  Se1.026                       0.24626263      0.00000559     -0.00003680     -0.00000000
ATVX     1  Mu1.0021  Se1.026                       0.24649014     -0.00000000      0.00000000     -0.00000000
ATVX     1  Mu1.0022  Se1.026                       0.25102996      0.00000000     -0.00000000     -0.00000000
ATVX     1  Mu1.0023  Se1.026                       0.25103767      0.00000000     -0.00000000     -0.00000000
ATVX     1  Mu1.0024  Se1.026                       0.25257934      0.00000000     -0.00000000     -0.00000000
ATVX     1  Mu1.0025  Se1.026                       0.25288475      0.00000000     -0.00000000     -0.00000000
ATVX     1  Mu1.0026  Se1.026                       0.26673453     -0.00000000      0.00000000     -0.00000000
ATVX     1  Mu1.0027  Se1.026                       0.26729131      0.00000000      0.00000000      0.00000000
ATVX     1  Mu1.0028  Se1.026                       0.26875822     -0.00000000      0.00000000     -0.00000000
ATVX     1  Mu1.0029  Se1.026                       0.26904701      0.00000000     -0.00000000     -0.00000000
ATVX     1  Mu1.0030  Se1.026                       0.28057191     -0.00102868      0.00359333     -0.00000370
ATVX     1  Mu1.0031  Se1.026                       0.28141673      0.00000000     -0.00000000     -0.00000000
ATVX     1  Mu1.0032  Se1.026                       0.28195067     -0.00000000      0.00000000     -0.00000000
ATVX     1  Mu1.0033  Se1.026                       0.28497695     -0.00000000      0.00000000     -0.00000000
ATVX     1  Mu1.0034  Se1.026                       0.28497772      0.00000000     -0.00000000     -0.00000000
ATVX     1  Mu1.0035  Se1.026                       0.28728282      0.00000000      0.00000000      0.00000000
ATVX     1  Mu1.0036  Se1.026                       0.28753839     -0.00000000      0.00000000     -0.00000000
ATVX     1  Mu1.0037  Se1.026                       0.29502116      0.00001373     -0.00003266     -0.00000000
ATVX     1  Mu1.0038  Se1.026                       0.29530105      0.00001404     -0.00003311     -0.00000000
ATVX     1  Mu1.0001  Se1.027                      -0.00013468      0.00000000      0.00000000      0.00000000
ATVX     1  Mu1.0002  Se1.027                       0.01646264     -0.00000000      0.00000000     -0.00000000
ATVX     1  Mu1.0003  Se1.027                       0.01673236      0.00000010      0.00028085      0.00000000
ATVX     1  Mu1.0004  Se1.027                       0.05775106      0.00000000      0.00000000      0.00000000
ATVX     1  Mu1.0005  Se1.027                       0.09072008      0.00000118      0.00001195      0.00000000
ATVX     1  Mu1.0006  Se1.027                       0.09072015      0.00006681      0.00067541      0.00000005
ATVX     1  Mu1.0001  Se1.028                      -0.00007399      0.00000000      0.00000000      0.00000000
ATVX     1  Mu1.0002  Se1.028                       0.01652333      0.00000009      0.00028476      0.00000000
ATVX     1  Mu1.0003  Se1.028                       0.01679304      0.00000000     -0.00000000     -0.00000000
ATVX     1  Mu1.0004  Se1.028                       0.05781175     -0.00000000      0.00000000     -0.00000000
ATVX     1  Mu1.0005  Se1.028                       0.09078077     -0.00006684     -0.00067483      0.00000005
ATVX     1  Mu1.0006  Se1.028                       0.09078084      0.00000118      0.00001194      0.00000000
ATVX     1  Mu1.0001  Se1.029                       0.04747702     -0.00000000      0.00000000     -0.00000000
ATVX     1  Mu1.0002  Se1.029                       0.06407434      0.00000000     -0.00000000     -0.00000000
ATVX     1  Mu1.0003  Se1.029                       0.06434405     -0.00000000      0.00000000     -0.00000000
ATVX     1  Mu1.0004  Se1.029                       0.10536276      0.00000000     -0.00000000     -0.00000000
ATVX     1  Mu1.0005  Se1.029                       0.13833178     -0.00000000      0.00000000     -0.00000000
ATVX     1  Mu1.0006  Se1.029                       0.13833185     -0.00000000      0.00000000     -0.00000000
ATVX     1  Mu1.0001  Se1.030                       0.18658115     -0.00000000      0.00000000     -0.00000000
ATVX     1  Mu1.0002  Se1.030                       0.20317847      0.00000000     -0.00000000     -0.00000000
ATVX     1  Mu1.0003  Se1.030                       0.20344818     -0.00000000      0.00000000     -0.00000000
ATVX     1  Mu1.0004  Se1.030                       0.24446689      0.00000000     -0.00000000     -0.00000000
ATVX     1  Mu1.0005  Se1.030                       0.27743591     -0.00000000     -0.00000000      0.00000000
ATVX     1  Mu1.0006  Se1.030                       0.27743598     -0.00000000      0.00000000     -0.00000000
ATVX     1  Mu1.0221  Se1.031                       2.16626759     -0.06974398      0.03350040     -0.00233645
ATVX     1  Mu1.0220  Se1.032                       2.16627005      0.06974336     -0.03350005     -0.00233641
AIVX     1  Mu1.0105  In1.011 Se1.033               3.23346600     -0.08667149      0.02697952     -0.00233835
AIVX     1  Mu1.0169  In1.009 Se1.034               6.56718913     -0.17882859      0.02723066     -0.00486962
AIVX     1  Mu1.0169  In1.010 Se1.035               6.56729129     -0.17889993      0.02724115     -0.00487344
AIVX     1  Mu1.0027  In1.011 Se1.037               3.48454496     -0.10812157      0.02986136     -0.00322866
AIVX     1  Mu1.0028  In1.011 Se1.037               3.48454518      0.10337386     -0.02855012     -0.00295134
AIVX     1  Mu1.0059  In1.011 Se1.038               3.73447148      0.14957057     -0.03862182     -0.00577669
AIVX     1  Mu1.0031  In1.011 Se1.041               3.53771740     -0.10158581      0.02758278     -0.00280202
BVATM    1  Mu1.0001  Se1.032 Se1.031               1.97951721      0.07107594     -0.03618361     -0.00257178
BVATM    1  Mu1.0001  Se1.038 Se1.037               5.01233575      0.12972740     -0.02588166     -0.00335756
BJATP    1  Mu1.0002  In1.011 Se1.033 Se1.031       2.99217366      0.08205326     -0.02726245     -0.00223697
BJATP    1  Mu1.0001  In1.011 Se1.033 Se1.032       2.99217612     -0.08205331      0.02726245     -0.00223697
BJATM    1  Mu1.0002  In1.011 Se1.033 Se1.031       2.99217366     -0.07709381      0.02758079     -0.00212631
BJATM    1  Mu1.0001  In1.011 Se1.033 Se1.032       2.99217612      0.07709385     -0.02758078     -0.00212631
BJAIP    1  Se1.033 In1.011 Se1.033 In1.011         4.00478515      0.11816717     -0.03152560     -0.00372529
--
 
   (Skipping property calculation,
    use PROP keyword to activate)
--
 
  Total CASPT2 energies:
::    CASPT2 Root  1     Total energy:  -1345.83261431
 
  A NEW JOBIPH FILE NAMED 'JOBMIX' IS PREPARED.
********************************************************************************
--- Stop Module: caspt2 at Tue Dec 24 20:51:21 2024 /rc=_RC_ALL_IS_WELL_ ---
*** files: xmldump
    saved to directory /home/grierjones/DDCASPT2/iron_oxo_DDCASPT2/cluster/4.14
--- Module caspt2 spent 5 minutes 30 seconds ---

>>> EXPORT i = B

>>> EXPORT j = P

>>> IF (-FILE GMJ_e2_${i}_${j}.csv)

>>> COPY /tmp/4.14/GMJ_RHS_B_P.csv /home/grierjones/DDCASPT2/iron_oxo_DDCASPT2/cluster/4.14/GMJ_RHS_B_P.csv

>>> COPY /tmp/4.14/GMJ_IVECW_B_P.csv /home/grierjones/DDCASPT2/iron_oxo_DDCASPT2/cluster/4.14/GMJ_IVECW_B_P.csv

>>> COPY /tmp/4.14/GMJ_IVECX_B_P.csv /home/grierjones/DDCASPT2/iron_oxo_DDCASPT2/cluster/4.14/GMJ_IVECX_B_P.csv

>>> COPY /tmp/4.14/GMJ_IVECC2_B_P.csv /home/grierjones/DDCASPT2/iron_oxo_DDCASPT2/cluster/4.14/GMJ_IVECC2_B_P.csv

>>> COPY /tmp/4.14/GMJ_e2_B_P.csv /home/grierjones/DDCASPT2/iron_oxo_DDCASPT2/cluster/4.14/GMJ_e2_B_P.csv

>>> END FOREACH

>>> EXPORT j = M

>>> IF (-FILE GMJ_e2_${i}_${j}.csv)

>>> COPY /tmp/4.14/GMJ_RHS_B_M.csv /home/grierjones/DDCASPT2/iron_oxo_DDCASPT2/cluster/4.14/GMJ_RHS_B_M.csv

>>> COPY /tmp/4.14/GMJ_IVECW_B_M.csv /home/grierjones/DDCASPT2/iron_oxo_DDCASPT2/cluster/4.14/GMJ_IVECW_B_M.csv

>>> COPY /tmp/4.14/GMJ_IVECX_B_M.csv /home/grierjones/DDCASPT2/iron_oxo_DDCASPT2/cluster/4.14/GMJ_IVECX_B_M.csv

>>> COPY /tmp/4.14/GMJ_IVECC2_B_M.csv /home/grierjones/DDCASPT2/iron_oxo_DDCASPT2/cluster/4.14/GMJ_IVECC2_B_M.csv

>>> COPY /tmp/4.14/GMJ_e2_B_M.csv /home/grierjones/DDCASPT2/iron_oxo_DDCASPT2/cluster/4.14/GMJ_e2_B_M.csv

>>> END FOREACH

>>> END FOREACH

>>> EXPORT i = E

>>> EXPORT j = P

>>> IF (-FILE GMJ_e2_${i}_${j}.csv)

>>> COPY /tmp/4.14/GMJ_RHS_E_P.csv /home/grierjones/DDCASPT2/iron_oxo_DDCASPT2/cluster/4.14/GMJ_RHS_E_P.csv

>>> COPY /tmp/4.14/GMJ_IVECW_E_P.csv /home/grierjones/DDCASPT2/iron_oxo_DDCASPT2/cluster/4.14/GMJ_IVECW_E_P.csv

>>> COPY /tmp/4.14/GMJ_IVECX_E_P.csv /home/grierjones/DDCASPT2/iron_oxo_DDCASPT2/cluster/4.14/GMJ_IVECX_E_P.csv

>>> COPY /tmp/4.14/GMJ_IVECC2_E_P.csv /home/grierjones/DDCASPT2/iron_oxo_DDCASPT2/cluster/4.14/GMJ_IVECC2_E_P.csv

>>> COPY /tmp/4.14/GMJ_e2_E_P.csv /home/grierjones/DDCASPT2/iron_oxo_DDCASPT2/cluster/4.14/GMJ_e2_E_P.csv

>>> END FOREACH

>>> EXPORT j = M

>>> IF (-FILE GMJ_e2_${i}_${j}.csv)

>>> COPY /tmp/4.14/GMJ_RHS_E_M.csv /home/grierjones/DDCASPT2/iron_oxo_DDCASPT2/cluster/4.14/GMJ_RHS_E_M.csv

>>> COPY /tmp/4.14/GMJ_IVECW_E_M.csv /home/grierjones/DDCASPT2/iron_oxo_DDCASPT2/cluster/4.14/GMJ_IVECW_E_M.csv

>>> COPY /tmp/4.14/GMJ_IVECX_E_M.csv /home/grierjones/DDCASPT2/iron_oxo_DDCASPT2/cluster/4.14/GMJ_IVECX_E_M.csv

>>> COPY /tmp/4.14/GMJ_IVECC2_E_M.csv /home/grierjones/DDCASPT2/iron_oxo_DDCASPT2/cluster/4.14/GMJ_IVECC2_E_M.csv

>>> COPY /tmp/4.14/GMJ_e2_E_M.csv /home/grierjones/DDCASPT2/iron_oxo_DDCASPT2/cluster/4.14/GMJ_e2_E_M.csv

>>> END FOREACH

>>> END FOREACH

>>> EXPORT i = F

>>> EXPORT j = P

>>> IF (-FILE GMJ_e2_${i}_${j}.csv)

>>> COPY /tmp/4.14/GMJ_RHS_F_P.csv /home/grierjones/DDCASPT2/iron_oxo_DDCASPT2/cluster/4.14/GMJ_RHS_F_P.csv

>>> COPY /tmp/4.14/GMJ_IVECW_F_P.csv /home/grierjones/DDCASPT2/iron_oxo_DDCASPT2/cluster/4.14/GMJ_IVECW_F_P.csv

>>> COPY /tmp/4.14/GMJ_IVECX_F_P.csv /home/grierjones/DDCASPT2/iron_oxo_DDCASPT2/cluster/4.14/GMJ_IVECX_F_P.csv

>>> COPY /tmp/4.14/GMJ_IVECC2_F_P.csv /home/grierjones/DDCASPT2/iron_oxo_DDCASPT2/cluster/4.14/GMJ_IVECC2_F_P.csv

>>> COPY /tmp/4.14/GMJ_e2_F_P.csv /home/grierjones/DDCASPT2/iron_oxo_DDCASPT2/cluster/4.14/GMJ_e2_F_P.csv

>>> END FOREACH

>>> EXPORT j = M

>>> IF (-FILE GMJ_e2_${i}_${j}.csv)

>>> COPY /tmp/4.14/GMJ_RHS_F_M.csv /home/grierjones/DDCASPT2/iron_oxo_DDCASPT2/cluster/4.14/GMJ_RHS_F_M.csv

>>> COPY /tmp/4.14/GMJ_IVECW_F_M.csv /home/grierjones/DDCASPT2/iron_oxo_DDCASPT2/cluster/4.14/GMJ_IVECW_F_M.csv

>>> COPY /tmp/4.14/GMJ_IVECX_F_M.csv /home/grierjones/DDCASPT2/iron_oxo_DDCASPT2/cluster/4.14/GMJ_IVECX_F_M.csv

>>> COPY /tmp/4.14/GMJ_IVECC2_F_M.csv /home/grierjones/DDCASPT2/iron_oxo_DDCASPT2/cluster/4.14/GMJ_IVECC2_F_M.csv

>>> COPY /tmp/4.14/GMJ_e2_F_M.csv /home/grierjones/DDCASPT2/iron_oxo_DDCASPT2/cluster/4.14/GMJ_e2_F_M.csv

>>> END FOREACH

>>> END FOREACH

>>> EXPORT i = G

>>> EXPORT j = P

>>> IF (-FILE GMJ_e2_${i}_${j}.csv)

>>> COPY /tmp/4.14/GMJ_RHS_G_P.csv /home/grierjones/DDCASPT2/iron_oxo_DDCASPT2/cluster/4.14/GMJ_RHS_G_P.csv

>>> COPY /tmp/4.14/GMJ_IVECW_G_P.csv /home/grierjones/DDCASPT2/iron_oxo_DDCASPT2/cluster/4.14/GMJ_IVECW_G_P.csv

>>> COPY /tmp/4.14/GMJ_IVECX_G_P.csv /home/grierjones/DDCASPT2/iron_oxo_DDCASPT2/cluster/4.14/GMJ_IVECX_G_P.csv

>>> COPY /tmp/4.14/GMJ_IVECC2_G_P.csv /home/grierjones/DDCASPT2/iron_oxo_DDCASPT2/cluster/4.14/GMJ_IVECC2_G_P.csv

>>> COPY /tmp/4.14/GMJ_e2_G_P.csv /home/grierjones/DDCASPT2/iron_oxo_DDCASPT2/cluster/4.14/GMJ_e2_G_P.csv

>>> END FOREACH

>>> EXPORT j = M

>>> IF (-FILE GMJ_e2_${i}_${j}.csv)

>>> COPY /tmp/4.14/GMJ_RHS_G_M.csv /home/grierjones/DDCASPT2/iron_oxo_DDCASPT2/cluster/4.14/GMJ_RHS_G_M.csv

>>> COPY /tmp/4.14/GMJ_IVECW_G_M.csv /home/grierjones/DDCASPT2/iron_oxo_DDCASPT2/cluster/4.14/GMJ_IVECW_G_M.csv

>>> COPY /tmp/4.14/GMJ_IVECX_G_M.csv /home/grierjones/DDCASPT2/iron_oxo_DDCASPT2/cluster/4.14/GMJ_IVECX_G_M.csv

>>> COPY /tmp/4.14/GMJ_IVECC2_G_M.csv /home/grierjones/DDCASPT2/iron_oxo_DDCASPT2/cluster/4.14/GMJ_IVECC2_G_M.csv

>>> COPY /tmp/4.14/GMJ_e2_G_M.csv /home/grierjones/DDCASPT2/iron_oxo_DDCASPT2/cluster/4.14/GMJ_e2_G_M.csv

>>> END FOREACH

>>> END FOREACH

>>> EXPORT i = H

>>> EXPORT j = P

>>> IF (-FILE GMJ_e2_${i}_${j}.csv)

>>> COPY /tmp/4.14/GMJ_RHS_H_P.csv /home/grierjones/DDCASPT2/iron_oxo_DDCASPT2/cluster/4.14/GMJ_RHS_H_P.csv

>>> COPY /tmp/4.14/GMJ_IVECW_H_P.csv /home/grierjones/DDCASPT2/iron_oxo_DDCASPT2/cluster/4.14/GMJ_IVECW_H_P.csv

>>> COPY /tmp/4.14/GMJ_IVECX_H_P.csv /home/grierjones/DDCASPT2/iron_oxo_DDCASPT2/cluster/4.14/GMJ_IVECX_H_P.csv

>>> COPY /tmp/4.14/GMJ_IVECC2_H_P.csv /home/grierjones/DDCASPT2/iron_oxo_DDCASPT2/cluster/4.14/GMJ_IVECC2_H_P.csv

>>> COPY /tmp/4.14/GMJ_e2_H_P.csv /home/grierjones/DDCASPT2/iron_oxo_DDCASPT2/cluster/4.14/GMJ_e2_H_P.csv

>>> END FOREACH

>>> EXPORT j = M

>>> IF (-FILE GMJ_e2_${i}_${j}.csv)

>>> COPY /tmp/4.14/GMJ_RHS_H_M.csv /home/grierjones/DDCASPT2/iron_oxo_DDCASPT2/cluster/4.14/GMJ_RHS_H_M.csv

>>> COPY /tmp/4.14/GMJ_IVECW_H_M.csv /home/grierjones/DDCASPT2/iron_oxo_DDCASPT2/cluster/4.14/GMJ_IVECW_H_M.csv

>>> COPY /tmp/4.14/GMJ_IVECX_H_M.csv /home/grierjones/DDCASPT2/iron_oxo_DDCASPT2/cluster/4.14/GMJ_IVECX_H_M.csv

>>> COPY /tmp/4.14/GMJ_IVECC2_H_M.csv /home/grierjones/DDCASPT2/iron_oxo_DDCASPT2/cluster/4.14/GMJ_IVECC2_H_M.csv

>>> COPY /tmp/4.14/GMJ_e2_H_M.csv /home/grierjones/DDCASPT2/iron_oxo_DDCASPT2/cluster/4.14/GMJ_e2_H_M.csv

>>> END FOREACH

>>> END FOREACH

>>> EXPORT i = A

>>> IF (-FILE GMJ_e2_$i.csv)

>>> COPY /tmp/4.14/GMJ_RHS_A.csv /home/grierjones/DDCASPT2/iron_oxo_DDCASPT2/cluster/4.14/GMJ_RHS_A.csv

>>> COPY /tmp/4.14/GMJ_IVECW_A.csv /home/grierjones/DDCASPT2/iron_oxo_DDCASPT2/cluster/4.14/GMJ_IVECW_A.csv

>>> COPY /tmp/4.14/GMJ_IVECX_A.csv /home/grierjones/DDCASPT2/iron_oxo_DDCASPT2/cluster/4.14/GMJ_IVECX_A.csv

>>> COPY /tmp/4.14/GMJ_IVECC2_A.csv /home/grierjones/DDCASPT2/iron_oxo_DDCASPT2/cluster/4.14/GMJ_IVECC2_A.csv

>>> COPY /tmp/4.14/GMJ_e2_A.csv /home/grierjones/DDCASPT2/iron_oxo_DDCASPT2/cluster/4.14/GMJ_e2_A.csv

>>> END FOREACH

>>> EXPORT i = C

>>> IF (-FILE GMJ_e2_$i.csv)

>>> COPY /tmp/4.14/GMJ_RHS_C.csv /home/grierjones/DDCASPT2/iron_oxo_DDCASPT2/cluster/4.14/GMJ_RHS_C.csv

>>> COPY /tmp/4.14/GMJ_IVECW_C.csv /home/grierjones/DDCASPT2/iron_oxo_DDCASPT2/cluster/4.14/GMJ_IVECW_C.csv

>>> COPY /tmp/4.14/GMJ_IVECX_C.csv /home/grierjones/DDCASPT2/iron_oxo_DDCASPT2/cluster/4.14/GMJ_IVECX_C.csv

>>> COPY /tmp/4.14/GMJ_IVECC2_C.csv /home/grierjones/DDCASPT2/iron_oxo_DDCASPT2/cluster/4.14/GMJ_IVECC2_C.csv

>>> COPY /tmp/4.14/GMJ_e2_C.csv /home/grierjones/DDCASPT2/iron_oxo_DDCASPT2/cluster/4.14/GMJ_e2_C.csv

>>> END FOREACH

>>> EXPORT i = D

>>> IF (-FILE GMJ_e2_$i.csv)

>>> COPY /tmp/4.14/GMJ_RHS_D.csv /home/grierjones/DDCASPT2/iron_oxo_DDCASPT2/cluster/4.14/GMJ_RHS_D.csv

>>> COPY /tmp/4.14/GMJ_IVECW_D.csv /home/grierjones/DDCASPT2/iron_oxo_DDCASPT2/cluster/4.14/GMJ_IVECW_D.csv

>>> COPY /tmp/4.14/GMJ_IVECX_D.csv /home/grierjones/DDCASPT2/iron_oxo_DDCASPT2/cluster/4.14/GMJ_IVECX_D.csv

>>> COPY /tmp/4.14/GMJ_IVECC2_D.csv /home/grierjones/DDCASPT2/iron_oxo_DDCASPT2/cluster/4.14/GMJ_IVECC2_D.csv

>>> COPY /tmp/4.14/GMJ_e2_D.csv /home/grierjones/DDCASPT2/iron_oxo_DDCASPT2/cluster/4.14/GMJ_e2_D.csv

>>> END FOREACH

.########################.
.# Non-zero return code #.
.########################.

    Timing: Wall=437.93 User=434.33 System=3.47
************************************
*** WorkDir at /tmp/4.14 cleaned ***
************************************
