   This run of MOLCAS is using the pymolcas driver

                             OPE
                             OPE          NMOL  CASOP  ENMOLC A   SO
                 OPE        NMOLC        AS  OP EN  MO LC     AS  OP
                OPENM       OL CA        SO  PE NM  OL CA     SOP EN
                OP EN      MO   LC       AS  OP ENMOL  CASO   PENMOL
                OP  EN     MO   LC       AS  OP EN     MO     LC ASO
               OP   E  NMOL  C  AS       OP  EN MO     LC     AS  OP
               OP  E   NMO   LC AS        OPEN  MO     LCASOP EN   M
               O  PEN   MO  LCA  SO
            OPE   NMO   L   CAS    OP
        OPENMOL  CASOP     ENMOL   CASOPE
     OPENMOLCA   SOPENMOLCASOPEN   MOLCASOPE
    OPENMOLCAS   OP           EN   MOL    CAS
    OPENMOLCAS       OP  ENM        O     LCA
    OPENMOLCAS    OPEN  MOLCASO     P  E  NMO
    OPENMOLCAS     OP               E  N  MOL
    OPENMOLCA   SO           PENM   O  L  CAS    OPEN    MO    LCAS
    OPENMOLCA   SOP           ENM   O  L  CAS   OP  EN  MOLC  AS   O
    OPENMOLCA   SOPE           NM      O  LCA   S      OP  EN MO
    OPENMOLC                AS         O  PEN   M      OL  CA  SOPE
    OPENMO        LCASOPE  NMOL        C  ASO   P      ENMOLC     AS
    OPE     NMO      LCA  SO     P     E   NM   OL  CA SO  PE N   MO
          OPENMOLCA            SOPE   NMO        LCAS  O    P  ENMO
     OPENMOLCASOPENMOLCASOPENMOLCASOPENMOLCA
        OPENMOLCASOPENMOLCASOPENMOLCASOPE
            OPENMOLCASOPENMOLCASOPENM
               OPENMOLCASOPENMOLCA        version: ea724fe96-dirty
                   OPENMOLCASO
                       OPE                tag:

 OpenMolcas is free software; you can redistribute it and/or modify it
 under the terms of the GNU Lesser General Public License version 2.1.
 OpenMolcas is distributed in the hope that it will be useful, but it
 is provided "as is" and without any express or implied warranties.
 For more details see the full text of the license in the file
 LICENSE or in <http://www.gnu.org/licenses/>.

                 Copyright (C) The OpenMolcas Authors
           For the author list and the recommended citation,
                   consult the file CONTRIBUTORS.md

           *************************************************
           * pymolcas version py2.28                       *
           *   build c4a6d18ded8cb6cad61d2372a9abd97c      *
           *   (after the EMIL interpreter by V. Veryazov) *
           *************************************************

configuration info
------------------
C Compiler ID: Intel
C flags: -std=gnu99
Fortran Compiler ID: Intel
Fortran flags: -fpp -i8 -r8 -heap-arrays
Definitions: _MOLCAS_;_I8_;_LINUX_
Parallel: OFF (GA=OFF)


   --------------------------------------------------------------------------------
  |
  |              Project: ozone_170.50
  |       Submitted from: /home/grierjones/DDCASPT2/ozone/ANO-RCC-VDZP/ozone_170.50
  |         Scratch area: /tmp/ozone_170.50
  |      Save outputs to: /home/grierjones/DDCASPT2/ozone/ANO-RCC-VDZP/ozone_170.50
  |               Molcas: /home/grierjones/Test/build
  |
  | Scratch area is empty
  |
  |       MOLCAS_DRIVER = /usr/local/pymolcas
  | MOLCAS_KEEP_WORKDIR = NO
  |  MOLCAS_NEW_WORKDIR = YES
  |       MOLCAS_NPROCS = 1
  |        MOLCAS_PRINT = NORMAL
  |       MOLCAS_SOURCE = /home/grierjones/Test/build
  |    MOLCAS_STRUCTURE = 0
  |
   --------------------------------------------------------------------------------

++ ---------   Input file   ---------

&GATEWAY
coord=ozone_170.50.xyz
Basis = ANO-RCC-VDZP
Group = nosymm
Expert
End of Input

&SEWARD
End of Input

&SCF

>>> COPY $WorkDir/ozone_170.50.scf.h5 $CurrDir/

&RASSCF
Title= RASSCF
FileOrb
/home/grierjones/DDCASPT2/ozone/ANO-RCC-VDZP/ozone_170.00/ozone_170.00.RasOrb
NACTEL
4 0 0
Inactive
10
RAS2
3
Symmetry
1
Spin
1
orblisting
all
ITERation
300 200

>>> COPY $WorkDir/ozone_170.50.rasscf.h5 $CurrDir/

>>> COPY $WorkDir/GMJ_Fock_MO.csv $CurrDir/ozone_170.50.GMJ_Fock_MO.csv

>>> COPY $WorkDir/GMJ_PT2_Fock_MO.csv $CurrDir/ozone_170.50.GMJ_PT2_Fock_MO.csv

&MOTRA
Frozen=0
LUMORB

>>> COPY $WorkDir/GMJ_one_int_indx.csv $CurrDir/ozone_170.50.GMJ_one_int_indx.csv

>>> COPY $WorkDir/GMJ_one_int.csv $CurrDir/ozone_170.50.GMJ_one_int.csv

>>> COPY $WorkDir/GMJ_two_int_indx.csv $CurrDir/ozone_170.50.GMJ_two_int_indx.csv

>>> COPY $WorkDir/GMJ_two_int.csv $CurrDir/ozone_170.50.GMJ_two_int.csv

&CASPT2
Frozen
0
MAXITER
50

>>> FOREACH i IN (B,E,F,G,H)

  >>> FOREACH j IN (P,M)

    >>> IF (-FILE GMJ_e2_${i}_${j}.csv)

      >>> COPY $WorkDir/GMJ_RHS_${i}_${j}.csv $CurrDir/GMJ_RHS_${i}_${j}.csv

      >>> COPY $WorkDir/GMJ_IVECW_${i}_${j}.csv $CurrDir/GMJ_IVECW_${i}_${j}.csv

      >>> COPY $WorkDir/GMJ_IVECX_${i}_${j}.csv $CurrDir/GMJ_IVECX_${i}_${j}.csv

      >>> COPY $WorkDir/GMJ_IVECC2_${i}_${j}.csv $CurrDir/GMJ_IVECC2_${i}_${j}.csv

      >>> COPY $WorkDir/GMJ_e2_${i}_${j}.csv $CurrDir/GMJ_e2_${i}_${j}.csv

    >>> END IF

  >>> END FOREACH

>>> END FOREACH

>>> FOREACH i IN (A,C,D)

  >>> IF (-FILE GMJ_e2_$i.csv)

    >>> COPY $WorkDir/GMJ_RHS_$i.csv $CurrDir/GMJ_RHS_$i.csv

    >>> COPY $WorkDir/GMJ_IVECW_$i.csv $CurrDir/GMJ_IVECW_$i.csv

    >>> COPY $WorkDir/GMJ_IVECX_$i.csv $CurrDir/GMJ_IVECX_$i.csv

    >>> COPY $WorkDir/GMJ_IVECC2_$i.csv $CurrDir/GMJ_IVECC2_$i.csv

    >>> COPY $WorkDir/GMJ_e2_$i.csv $CurrDir/GMJ_e2_$i.csv

  >>> END IF

>>> END FOREACH

-- ----------------------------------

--- Start Module: gateway at Mon Nov 18 16:18:33 2024 ---
 
()()()()()()()()()()()()()()()()()()()()()()()()()()()()()()()()()()()()()()()()()()()()()()()()()()

                                              &GATEWAY

                                   only a single process is used
                       available to each process: 2.0 GB of memory, 1 thread?
()()()()()()()()()()()()()()()()()()()()()()()()()()()()()()()()()()()()()()()()()()()()()()()()()()
 
 ###############################################################################
 ###############################################################################
 ###                                                                         ###
 ###                                                                         ###
 ###                                                                         ###
 ###    WARNING: EXPERT option is ON!                                        ###
 ###                                                                         ###
 ###                                                                         ###
 ###############################################################################
 ###############################################################################
 
++    Symmetry information:
      ---------------------
 
                    Character Table for C1 
 
                             E  
                    a        1  x, y, xy, Rz, z, xz, Ry, yz, Rx, I
--
 
 
++    Basis set information:
      ----------------------
 
 
      Basis set label: O.ANO-RCC...3S2P1D.
 
      Electronic valence basis set:
      ------------------
      Associated Effective Charge   8.000000 au
      Associated Actual Charge      8.000000 au
      Nuclear Model: Point charge
 
      Shell  nPrim  nBasis  Cartesian Spherical Contaminant
         s      14       3        X                  
         p       9       2        X                  
         d       4       1                 X         
--
 
 
++    Molecular structure info:
      -------------------------
 
                    ************************************************ 
                    **** Cartesian Coordinates / Bohr, Angstrom **** 
                    ************************************************ 
 
     Center  Label                x              y              z                     x              y              z
        1      O1               0.199988       2.406776       0.000000              0.105829       1.273611       0.000000
        2      O2               0.000000       0.000000       0.000000              0.000000       0.000000       0.000000
        3      O3               0.199988      -2.406776       0.000000              0.105829      -1.273611       0.000000
 
                    *************************************** 
                    *    InterNuclear Distances / Bohr    * 
                    *************************************** 
 
               1 O1            2 O2            3 O3    
    1 O1       0.000000
    2 O2       2.415071        0.000000
    3 O3       4.813552        2.415071        0.000000
 
                    ******************************************* 
                    *    InterNuclear Distances / Angstrom    * 
                    ******************************************* 
 
               1 O1            2 O2            3 O3    
    1 O1       0.000000
    2 O2       1.278000        0.000000
    3 O3       2.547222        1.278000        0.000000
 
                    ************************************** 
                    *    Valence Bond Angles / Degree    * 
                    ************************************** 
                          Atom centers                 Phi
                      1 O1       2 O2       3 O3       170.50
--
 
 
            Nuclear Potential Energy             66.29631711 au
 
 ###############################################################################
 ###############################################################################
 ###                                                                         ###
 ###                                                                         ###
 ###    There were warnings during the execution                             ###
 ###    Please, check the output with care!                                  ###
 ###                                                                         ###
 ###                                                                         ###
 ###############################################################################
 ###############################################################################
--- Stop Module: gateway at Mon Nov 18 16:18:33 2024 /rc=_RC_ALL_IS_WELL_ ---
*** files: xmldump
    saved to directory /home/grierjones/DDCASPT2/ozone/ANO-RCC-VDZP/ozone_170.50

--- Start Module: seward at Mon Nov 18 16:18:33 2024 ---
 
()()()()()()()()()()()()()()()()()()()()()()()()()()()()()()()()()()()()()()()()()()()()()()()()()()

                                              &SEWARD

                                   only a single process is used
                       available to each process: 2.0 GB of memory, 1 thread?
()()()()()()()()()()()()()()()()()()()()()()()()()()()()()()()()()()()()()()()()()()()()()()()()()()
 
 ###############################################################################
 ###############################################################################
 ###                                                                         ###
 ###                                                                         ###
 ###                                                                         ###
 ###    WARNING: EXPERT option is ON!                                        ###
 ###                                                                         ###
 ###                                                                         ###
 ###############################################################################
 ###############################################################################
               SEWARD will generate:
                  Multipole Moment integrals up to order  2
                  Kinetic Energy integrals
                  Nuclear Attraction integrals (point charge)
                  One-Electron Hamiltonian integrals
                  Velocity integrals
                  Relativistic Douglas-Kroll-Hess integrals:
                    - Parametrization         : EXP
                    - DKH order of Hamiltonian: 2
                    - DKH order of Properties : 0
                         - multipole moment operators
                         - electric potential operators
                         - contact operators
                  Atomic mean-field integrals
                  Two-Electron Repulsion integrals
 
                   Integrals are discarded if absolute value <: 0.10E-13
                   Integral cutoff threshold is set to       <: 0.10E-15
 
            Nuclear Potential Energy             66.29631711 au
 
 
      Basis set specifications :
      Symmetry species         a  
      Basis functions           42
 
 
  Input file to MOLDEN was generated!
 
 ###############################################################################
 ###############################################################################
 ###                                                                         ###
 ###                                                                         ###
 ###    There were warnings during the execution                             ###
 ###    Please, check the output with care!                                  ###
 ###                                                                         ###
 ###                                                                         ###
 ###############################################################################
 ###############################################################################
--- Stop Module: seward at Mon Nov 18 16:18:34 2024 /rc=_RC_ALL_IS_WELL_ ---
*** files: ozone_170.50.GssOrb ozone_170.50.guessorb.h5 ozone_170.50.guessorb.molden xmldump
    saved to directory /home/grierjones/DDCASPT2/ozone/ANO-RCC-VDZP/ozone_170.50

*** symbolic link created: INPORB -> ozone_170.50.GssOrb
--- Start Module: scf at Mon Nov 18 16:18:34 2024 ---
 
()()()()()()()()()()()()()()()()()()()()()()()()()()()()()()()()()()()()()()()()()()()()()()()()()()

                                                &SCF

                                   only a single process is used
                       available to each process: 2.0 GB of memory, 1 thread?
()()()()()()()()()()()()()()()()()()()()()()()()()()()()()()()()()()()()()()()()()()()()()()()()()()
 
++    Input section:
      --------------
 
      Header of the integral files:
      
       Integrals generated by seward 4.2.0  , Mon Nov 18 16:18:33 2024
 
 
      Cartesian coordinates in Angstrom:
      -----------------------------------------------------
      No.  Label        X            Y            Z        
      -----------------------------------------------------
       1   O1         0.10582900   1.27361100   0.00000000
       2   O2         0.00000000   0.00000000   0.00000000
       3   O3         0.10582900  -1.27361100   0.00000000
      -----------------------------------------------------
      Nuclear repulsion energy =   66.29631711
--
 
++    Orbital specifications:
      -----------------------
 
      Symmetry species               1
                                     a
      Frozen orbitals                0
      Aufbau                        12
      Start temperature = 0.500
      End temperature   = 0.010
      Temperature Factor= 0.460
      Deleted orbitals               0
      Total number of orbitals      42
      Number of basis functions     42
--
 
      Molecular charge                           0.000
 
++    Optimization specifications:
      ----------------------------
 
      SCF Algorithm: Conventional
      Minimized density differences are used
      Number of density matrices in core                5
      Maximum number of NDDO SCF iterations           400
      Maximum number of HF SCF iterations             400
      Threshold for SCF energy change            0.10E-08
      Threshold for density matrix               0.10E-03
      Threshold for Fock matrix                  0.15E-03
      Threshold for linear dependence            0.10E-08
      Threshold at which DIIS is turned on       0.15E+00
      Threshold at which QNR/C2DIIS is turned on 0.75E-01
      Threshold for Norm(delta) (QNR/C2DIIS)     0.20E-04
      DIIS extrapolation of the SCF procedure
      All orbitals punched on: SCFORB
--
 
      Input vectors read from INPORB
      Orbital file label: *Guess orbitals
 
 
++ Convergence information
                                   SCF        iterations: Energy and convergence statistics
 
Iter     Tot. SCF        One-elec.       Two-elec.     Energy      Max Dij or  Max Fij      DNorm      TNorm      AccCon     Time
         Energy          Energy          Energy        Change      Delta Norm                                                in Sec.
   1  -221.451935966  -440.233553177   152.485300103   0.00E+00    0.11E+00*   0.71E+00*    0.77E+01   0.76E+02   None         0.
   2  -222.512858196  -435.324093433   146.514918129  -0.11E+01*   0.11E+00*   0.80E-01*    0.34E+01   0.75E+02   EDIIS        0.
   3  -223.821466705  -441.701435925   151.583652113  -0.13E+01*   0.91E-01*   0.12E+00*    0.31E+01   0.76E+02   EDIIS        0.
   4  -224.127579668  -438.936701209   148.512804434  -0.31E+00*   0.13E+00*   0.89E-01*    0.13E+01   0.75E+02   EDIIS        0.
   5  -224.161712700  -440.918233283   150.460203475  -0.34E-01*   0.21E+00*   0.11E+00*    0.99E+00   0.76E+02   EDIIS        0.
   6  -224.340605414  -439.604796344   148.967873822  -0.18E+00*   0.21E+00*   0.13E+00*    0.14E+01   0.76E+02   EDIIS        0.
   7  -224.349237412  -440.811160791   150.165606272  -0.86E-02*   0.50E-01*   0.72E-01*    0.36E+00   0.76E+02   EDIIS        0.
 
       Fermi aufbau procedure completed!
      nOcc=   12
 
   8  -224.384982498  -440.244497709   149.563198103  -0.36E-01*   0.17E-01*   0.17E-01*    0.14E+00   0.76E+02   EDIIS        0.
   9  -224.385536224  -440.326493045   149.644639714  -0.55E-03*   0.32E-01*   0.13E-01*    0.28E-01   0.76E+02   EDIIS        0.
  10  -224.385716977  -440.240369238   149.558335154  -0.18E-03*   0.77E-02*   0.91E-02*    0.93E-02   0.76E+02   EDIIS        0.
  11  -224.386047248  -440.295234836   149.612870481  -0.33E-03*   0.10E-01*   0.37E-02*    0.41E-02   0.76E+02   EDIIS        0.
  12  -224.386084575  -440.271257618   149.588855935  -0.37E-04*   0.45E-02*   0.14E-02*    0.14E-02   0.76E+02   c2DIIS       0.
  13  -224.386115036  -440.281951348   149.599519205  -0.30E-04*   0.21E-02*   0.10E-02*    0.25E-03   0.76E+02   QNRc2DIIS    0.
  14  -224.386127063  -440.283495400   149.601051229  -0.12E-04*   0.60E-02*   0.76E-03*    0.85E-04   0.76E+02   QNRc2DIIS    0.
  15  -224.386138102  -440.280109385   149.597654175  -0.11E-04*   0.82E-03*   0.67E-03*    0.12E-03   0.76E+02   QNRc2DIIS    0.
  16  -224.386139505  -440.282328871   149.599872258  -0.14E-05*   0.71E-03*   0.16E-03*    0.35E-03   0.76E+02   QNRc2DIIS    0.
  17  -224.386139820  -440.282808950   149.600352022  -0.32E-06*   0.84E-04*   0.18E-04     0.17E-03   0.76E+02   QNRc2DIIS    0.
  18  -224.386139827  -440.282772403   149.600315469  -0.63E-08*   0.45E-05    0.27E-05     0.17E-03   0.76E+02   QNRc2DIIS    0.
  19  -224.386139827  -440.282823085   149.600366150  -0.51E-10    0.21E-05    0.11E-05     0.12E-03   0.76E+02   QNRc2DIIS    0.
 
       Convergence after 19 Macro Iterations
--
 
 *****************************************************************************************************************************
 *                                                                                                                           *
 *                                             SCF/KS-DFT Program, Final results                                             *
 *                                                                                                                           *
 *                                                                                                                           *
 *                                                                                                                           *
 *                                                       Final Results                                                       *
 *                                                                                                                           *
 *****************************************************************************************************************************
 
::    Total SCF energy                               -224.3861398266
      One-electron energy                            -440.2828230846
      Two-electron energy                             149.6003661504
      Nuclear repulsion energy                         66.2963171076
      Kinetic energy (interpolated)                   225.6336868174
      Virial theorem                                    0.9944709187
      Total spin, S(S+1)                                0.0000000000
      Total spin, S                                     0.0000000000
      Max non-diagonal density matrix element           0.0000030560
      Max non-diagonal Fock matrix element              0.0000004217
 
 
      All orbitals with orbital energies smaller than  E(LUMO)+0.5 are printed
 
++    Molecular orbitals:
      -------------------
 
      Title: SCF orbitals

      Molecular orbitals for symmetry species 1: a  
 
          Orbital            1         2         3         4         5         6         7         8         9        10    
          Energy          -20.8428  -20.7359  -20.7358   -1.7065   -1.4694   -1.0612   -0.8393   -0.7860   -0.7513   -0.6215
          Occ. No.          2.0000    2.0000    2.0000    2.0000    2.0000    2.0000    2.0000    2.0000    2.0000    2.0000
 
        1 O1     1s         0.0027   -0.7072    0.7072   -0.0155    0.0096    0.0142   -0.0022   -0.0194    0.0000    0.0032
        2 O1     2s         0.0001   -0.0008    0.0005    0.3268   -0.5734    0.6537   -0.0509   -0.4109    0.0000    0.0424
        3 O1     3s         0.0000   -0.0002   -0.0001   -0.0241    0.0127    0.0187   -0.0037   -0.0260    0.0000    0.0038
        4 O1     2px        0.0001    0.0001   -0.0000   -0.0072    0.0129    0.0256    0.3409   -0.1020   -0.0000   -0.6969
        5 O1     3px        0.0001    0.0000    0.0000    0.0029   -0.0017   -0.0040   -0.0320    0.0056    0.0000    0.0041
        6 O1     2py       -0.0002    0.0009   -0.0010   -0.1022    0.0935    0.1789   -0.0654   -0.4177    0.0000    0.0988
        7 O1     3py       -0.0000   -0.0005    0.0003    0.0251   -0.0188   -0.0269    0.0056    0.0289   -0.0000    0.0001
        8 O1     2pz       -0.0000   -0.0000   -0.0000   -0.0000    0.0000    0.0000    0.0000   -0.0000    0.4214   -0.0000
        9 O1     3pz        0.0000    0.0000    0.0000   -0.0000   -0.0000   -0.0000   -0.0000    0.0000   -0.0241    0.0000
       10 O1     3d2-       0.0000   -0.0000    0.0000    0.0013   -0.0031   -0.0025   -0.0223    0.0065    0.0000    0.0140
       11 O1     3d1-      -0.0000   -0.0000   -0.0000    0.0000   -0.0000   -0.0000   -0.0000    0.0000   -0.0309    0.0000
       12 O1     3d0        0.0000    0.0001   -0.0001   -0.0083    0.0084    0.0069   -0.0023   -0.0171   -0.0000    0.0026
       13 O1     3d1+      -0.0000   -0.0000    0.0000   -0.0000    0.0000    0.0000    0.0000   -0.0000   -0.0021   -0.0000
       14 O1     3d2+      -0.0001   -0.0002    0.0001   -0.0169    0.0154    0.0148   -0.0072   -0.0316    0.0000    0.0060
       15 O2     1s         1.0000   -0.0000   -0.0041   -0.0208   -0.0000   -0.0149   -0.0013   -0.0000    0.0000   -0.0000
       16 O2     2s         0.0000   -0.0000   -0.0008    0.6720    0.0000   -0.6250   -0.0151   -0.0000    0.0000   -0.0000
       17 O2     3s        -0.0009   -0.0000   -0.0007   -0.0358   -0.0000   -0.0147   -0.0012   -0.0000    0.0000   -0.0000
       18 O2     2px        0.0002   -0.0000   -0.0000    0.0268    0.0000    0.0478    0.7466   -0.0000   -0.0000    0.0000
       19 O2     3px       -0.0005   -0.0000   -0.0001   -0.0060   -0.0000   -0.0060   -0.0641    0.0000    0.0000    0.0000
       20 O2     2py        0.0000    0.0010   -0.0000    0.0000   -0.3276   -0.0000    0.0000    0.5345    0.0000   -0.0683
       21 O2     3py        0.0000    0.0013   -0.0000   -0.0000    0.0820    0.0000   -0.0000   -0.0836   -0.0000    0.0021
       22 O2     2pz        0.0000    0.0000    0.0000    0.0000    0.0000    0.0000    0.0000   -0.0000    0.6403    0.0000
       23 O2     3pz        0.0000   -0.0000   -0.0000   -0.0000    0.0000   -0.0000   -0.0000   -0.0000   -0.0149   -0.0000
       24 O2     3d2-       0.0000    0.0000   -0.0000    0.0000   -0.0101   -0.0000    0.0000    0.0067    0.0000   -0.0389
       25 O2     3d1-      -0.0000    0.0000    0.0000   -0.0000   -0.0000    0.0000    0.0000    0.0000    0.0000   -0.0000
       26 O2     3d0       -0.0003    0.0000    0.0003   -0.0183   -0.0000    0.0010   -0.0053   -0.0000    0.0000   -0.0000
       27 O2     3d1+       0.0000   -0.0000   -0.0000   -0.0000    0.0000   -0.0000    0.0000   -0.0000    0.0085    0.0000
       28 O2     3d2+       0.0001    0.0000    0.0004   -0.0322   -0.0000   -0.0024    0.0054   -0.0000   -0.0000   -0.0000
       29 O3     1s         0.0027    0.7072    0.7072   -0.0155   -0.0096    0.0142   -0.0022    0.0194    0.0000   -0.0032
       30 O3     2s         0.0001    0.0008    0.0005    0.3268    0.5734    0.6537   -0.0509    0.4109    0.0000   -0.0424
       31 O3     3s         0.0000    0.0002   -0.0001   -0.0241   -0.0127    0.0187   -0.0037    0.0260   -0.0000   -0.0038
       32 O3     2px        0.0001   -0.0001   -0.0000   -0.0072   -0.0129    0.0256    0.3409    0.1020   -0.0000    0.6969
       33 O3     3px        0.0001   -0.0000    0.0000    0.0029    0.0017   -0.0040   -0.0320   -0.0056    0.0000   -0.0041
       34 O3     2py        0.0002    0.0009    0.0010    0.1022    0.0935   -0.1789    0.0654   -0.4177   -0.0000    0.0988
       35 O3     3py        0.0000   -0.0005   -0.0003   -0.0251   -0.0188    0.0269   -0.0056    0.0289    0.0000    0.0001
       36 O3     2pz       -0.0000    0.0000    0.0000   -0.0000   -0.0000    0.0000    0.0000    0.0000    0.4214    0.0000
       37 O3     3pz       -0.0000    0.0000    0.0000    0.0000    0.0000   -0.0000   -0.0000   -0.0000   -0.0241   -0.0000
       38 O3     3d2-      -0.0000   -0.0000   -0.0000   -0.0013   -0.0031    0.0025    0.0223    0.0065   -0.0000    0.0140
       39 O3     3d1-       0.0000    0.0000   -0.0000    0.0000   -0.0000   -0.0000    0.0000   -0.0000    0.0309    0.0000
       40 O3     3d0        0.0000   -0.0001   -0.0001   -0.0083   -0.0084    0.0069   -0.0023    0.0171    0.0000   -0.0026
       41 O3     3d1+      -0.0000    0.0000    0.0000   -0.0000   -0.0000    0.0000   -0.0000    0.0000   -0.0021   -0.0000
       42 O3     3d2+      -0.0001    0.0002    0.0001   -0.0169   -0.0154    0.0148   -0.0072    0.0316    0.0000   -0.0060
 
          Orbital           11        12        13        14        15        16    
          Energy           -0.5175   -0.4738   -0.0279    0.1346    0.2858    0.4676
          Occ. No.          2.0000    2.0000    0.0000    0.0000    0.0000    0.0000
 
        1 O1     1s        -0.0000    0.0009   -0.0000    0.0256   -0.1644   -0.0133
        2 O1     2s        -0.0000   -0.0014    0.0000    0.3258   -1.1909   -0.0924
        3 O1     3s        -0.0000    0.0068   -0.0000    0.0093   -0.4280   -0.0538
        4 O1     2px        0.0000    0.6672   -0.0000    0.0247    0.0799   -0.0942
        5 O1     3px        0.0000    0.0406   -0.0000    0.0090    0.0655    0.4306
        6 O1     2py       -0.0000    0.0437   -0.0000   -0.8071    0.5941    0.0713
        7 O1     3py        0.0000   -0.0077   -0.0000   -0.1687    0.6545    0.1469
        8 O1     2pz       -0.7024    0.0000    0.6504   -0.0000    0.0000    0.0000
        9 O1     3pz       -0.0352    0.0000    0.1293    0.0000   -0.0000   -0.0000
       10 O1     3d2-      -0.0000    0.0035   -0.0000    0.0047   -0.0058    0.0276
       11 O1     3d1-       0.0246    0.0000    0.0138    0.0000   -0.0000   -0.0000
       12 O1     3d0        0.0000    0.0015   -0.0000   -0.0002    0.0198    0.0035
       13 O1     3d1+       0.0014   -0.0000    0.0014    0.0000    0.0000    0.0000
       14 O1     3d2+      -0.0000    0.0039   -0.0000    0.0005    0.0326    0.0123
       15 O2     1s        -0.0000    0.0089   -0.0000   -0.1169    0.0000    0.0435
       16 O2     2s        -0.0000    0.1120   -0.0000   -1.1098    0.0000    0.2671
       17 O2     3s        -0.0000    0.0168   -0.0000   -0.2559   -0.0000    0.1033
       18 O2     2px        0.0000   -0.7299    0.0000   -0.1858    0.0000   -0.0737
       19 O2     3px        0.0000   -0.0429    0.0000   -0.0371    0.0000    0.4548
       20 O2     2py        0.0000    0.0000    0.0000    0.0000    1.3308   -0.0000
       21 O2     3py        0.0000   -0.0000    0.0000    0.0000    1.1150   -0.0000
       22 O2     2pz        0.0000   -0.0000   -0.8991    0.0000    0.0000    0.0000
       23 O2     3pz        0.0000   -0.0000   -0.1670    0.0000   -0.0000    0.0000
       24 O2     3d2-       0.0000   -0.0000   -0.0000    0.0000    0.0141   -0.0000
       25 O2     3d1-      -0.0556   -0.0000   -0.0000   -0.0000    0.0000    0.0000
       26 O2     3d0       -0.0000    0.0086   -0.0000   -0.0390   -0.0000   -0.0201
       27 O2     3d1+       0.0000   -0.0000   -0.0028   -0.0000   -0.0000    0.0000
       28 O2     3d2+      -0.0000    0.0121   -0.0000   -0.0718   -0.0000   -0.0466
       29 O3     1s         0.0000    0.0009   -0.0000    0.0256    0.1644   -0.0133
       30 O3     2s         0.0000   -0.0014    0.0000    0.3258    1.1909   -0.0924
       31 O3     3s         0.0000    0.0068   -0.0000    0.0093    0.4280   -0.0538
       32 O3     2px       -0.0000    0.6672   -0.0000    0.0247   -0.0799   -0.0942
       33 O3     3px       -0.0000    0.0406   -0.0000    0.0090   -0.0655    0.4306
       34 O3     2py       -0.0000   -0.0437    0.0000    0.8071    0.5941   -0.0713
       35 O3     3py        0.0000    0.0077    0.0000    0.1687    0.6545   -0.1469
       36 O3     2pz        0.7024    0.0000    0.6504   -0.0000    0.0000    0.0000
       37 O3     3pz        0.0352    0.0000    0.1293   -0.0000   -0.0000    0.0000
       38 O3     3d2-      -0.0000   -0.0035    0.0000   -0.0047   -0.0058   -0.0276
       39 O3     3d1-       0.0246    0.0000   -0.0138    0.0000    0.0000    0.0000
       40 O3     3d0        0.0000    0.0015   -0.0000   -0.0002   -0.0198    0.0035
       41 O3     3d1+      -0.0014    0.0000    0.0014   -0.0000    0.0000    0.0000
       42 O3     3d2+       0.0000    0.0039   -0.0000    0.0005   -0.0326    0.0123
--
 
 
++    Molecular charges:
      ------------------
 
      Mulliken charges per centre and basis function type
      ---------------------------------------------------
 
                O1      O2      O3    
      1s       2.0003  1.9999  2.0003
      2s       1.9371  1.6776  1.9371
      2px      2.0107  1.9664  2.0107
      2pz      1.4504  1.0506  1.4504
      2py      0.7290  1.0077  0.7290
      3s      -0.0147 -0.0239 -0.0147
      3px     -0.0200 -0.0441 -0.0200
      3pz     -0.0108 -0.0060 -0.0108
      3py     -0.0130  0.0269 -0.0130
      3d2+     0.0203  0.0189  0.0203
      3d1+     0.0001  0.0005  0.0001
      3d0      0.0057  0.0050  0.0057
      3d1-     0.0135  0.0484  0.0135
      3d2-     0.0115  0.0319  0.0115
      Total    8.1201  7.7598  8.1201
 
      N-E     -0.1201  0.2402 -0.1201
 
      Total electronic charge=   24.000000
 
      Total            charge=   -0.000000
--
 
 
  Input file to MOLDEN was generated!
 
 
++    Static properties:
      ------------------
 
 
      LoProp Charges per center
 

                   O1       O2       O3    
      Nuclear      8.0000   8.0000   8.0000
      Electronic  -8.1669  -7.6661  -8.1669
 
      Total       -0.1669   0.3339  -0.1669
--
 
 
++    Natural Bond Order analysis
      ---------------------------
      Based on LoProp computed density
      -------------------------------------------------------------------------------------
      Atom A       Atom B       Bond Order | Atom A       Atom B       Bond Order
        O1           O2             2.000  |   O2           O3             2.000
      -------------------------------------------------------------------------------------
      NBO located     16.000 core electrons.
      NBO located      8.000 electrons involved in    2 bonds.
--
 
 
++    Molecular properties:
      ---------------------
 
      Charge (e):
                      =   -0.0000
      Dipole Moment (Debye):
      Origin of the operator (Ang)=    0.0000    0.0000    0.0000
                   X=  5.4757E-04               Y= -1.0872E-11               Z=  1.1225E-13           Total=  5.4757E-04
      Quadrupole Moment (Debye*Ang):
      Origin of the operator (Ang)=    0.0706    0.0000    0.0000
                  XX= -1.6368E+01              XY= -1.5818E-12              XZ= -8.6215E-13              YY= -1.7023E+01
                  YZ=  8.7702E-14              ZZ= -1.5161E+01
      In traceless form (Debye*Ang)
                  XX= -2.7569E-01              XY= -2.3728E-12              XZ= -1.2932E-12              YY= -1.2583E+00
                  YZ=  1.3155E-13              ZZ=  1.5340E+00
--
 
 
  Input file to MOLDEN was generated!
 
 ###############################################################################
 ###############################################################################
 ###                                                                         ###
 ###                                                                         ###
 ###    RunFile label nBas                                                   ###
 ###    was used       78 times                                              ###
 ###                                                                         ###
 ###                                                                         ###
 ###############################################################################
 ###############################################################################
--- Stop Module: scf at Mon Nov 18 16:18:34 2024 /rc=_RC_ALL_IS_WELL_ ---
*** files: ozone_170.50.LprOrb ozone_170.50.LoProp.molden ozone_170.50.scf.molden ozone_170.50.ScfOrb ozone_170.50.scf.h5 xmldump
    saved to directory /home/grierjones/DDCASPT2/ozone/ANO-RCC-VDZP/ozone_170.50

>>> COPY /tmp/ozone_170.50/ozone_170.50.scf.h5 /home/grierjones/DDCASPT2/ozone/ANO-RCC-VDZP/ozone_170.50/

*** symbolic link created: INPORB -> ozone_170.50.ScfOrb
--- Start Module: rasscf at Mon Nov 18 16:18:34 2024 ---
 
()()()()()()()()()()()()()()()()()()()()()()()()()()()()()()()()()()()()()()()()()()()()()()()()()()

                                              &RASSCF

                                   only a single process is used
                       available to each process: 2.0 GB of memory, 1 thread?
()()()()()()()()()()()()()()()()()()()()()()()()()()()()()()()()()()()()()()()()()()()()()()()()()()
 
 
 *************** WARNING ****************
 ###############################################################################
 ###############################################################################
 ###                                                                         ###
 ###                                                                         ###
 ###    Too many macro-iterations.                                           ###
 ###                                                                         ###
 ###                                                                         ###
 ###############################################################################
 ###############################################################################
 Too many macro-iterations requested.
 Reset to maximum, new MAXIT=     200
 ****************************************
 
 *************** WARNING ****************
 ###############################################################################
 ###############################################################################
 ###                                                                         ###
 ###                                                                         ###
 ###    Too many SX-iterations.                                              ###
 ###                                                                         ###
 ###                                                                         ###
 ###############################################################################
 ###############################################################################
 Too many SX-iterations requested.
 Reset to maximum, new ITMAX=     100
 ****************************************
 
      Header of the ONEINT file:
      --------------------------
      
      Integrals generated by seward 4.2.0  , Mon Nov 18 16:18:33 2024
 
 
      OrdInt status: non-squared
 
 
      Cartesian coordinates in Angstrom:
      -----------------------------------------------------
      No.  Label        X            Y            Z        
      -----------------------------------------------------
       1   O1         0.10582900   1.27361100   0.00000000
       2   O2         0.00000000   0.00000000   0.00000000
       3   O3         0.10582900  -1.27361100   0.00000000
      -----------------------------------------------------
      Nuclear repulsion energy =   66.29631711
 
++    Wave function specifications:
      -----------------------------
 
      Number of closed shell electrons          20
      Number of electrons in active shells       4
      Max number of holes in RAS1 space          0
      Max nr of electrons in RAS3 space          0
      Number of inactive orbitals               10
      Number of active orbitals                  3
      Number of secondary orbitals              29
      Spin quantum number                      0.0
      State symmetry                             1
--
 
++    Orbital specifications:
      -----------------------
 
      Symmetry species                           1
                                                 a
      Frozen orbitals                            0
      Inactive orbitals                         10
      Active orbitals                            3
      RAS1 orbitals                              0
      RAS2 orbitals                              3
      RAS3 orbitals                              0
      Secondary orbitals                        29
      Deleted orbitals                           0
      Number of basis functions                 42
--
 
++    CI expansion specifications:
      ----------------------------
 
      Number of CSFs                             6
      Number of determinants                     6
      Number of root(s) required                 1
      Root chosen for geometry opt.              1
      CI root used                               1
         
      highest root included in the CI            1
      max. size of the explicit Hamiltonian      6
--
 
++    Optimization specifications:
      ----------------------------
 
      RASSCF algorithm: Conventional
      Maximum number of macro iterations       200
      Maximum number of SX iterations          100
      Threshold for RASSCF energy            0.100E-07
      Threshold for max MO rotation          0.100E+00
      Threshold for max BLB element          0.100E-03
      Level shift parameter                  0.500E+00
      Make Quasi-Newton update
--
 
      The MO-coefficients are taken from the file:
      /home/grierjones/DDCASPT2/ozone/ANO-RCC-VDZP/ozone_170.00/ozone_170.00.RasOrb                                                   
      Title: RASSCF average (pseudo-natural) orbitals                                      
 
      Total molecular charge    0.00
 
      ************************************************************************************************************************
      *                                                                                                                      *
      *                                            Wave function control section                                             *
      *                                                                                                                      *
      ************************************************************************************************************************
 
 
                                         RASSCF iterations: Energy and convergence statistics
                                         ----------------------------------------------------
 
      Iter CI   SX   CI       RASSCF       Energy    max ROT     max BLB   max BLB  Level Ln srch  Step   QN   Walltime
          iter iter root      energy       change     param      element    value   shift minimum  type update hh:mm:ss
 Nr of preliminary CI iterations:   1
        1   1    3    1  -224.45885993    0.00E+00   0.14E-02    7  14 1 -0.33E-02*  0.19   0.00    SX    NO    0:00:00
        2   1    3    1  -224.45888805   -0.28E-04*  0.87E-03    7  14 1 -0.20E-02*  0.19   0.00    SX    NO    0:00:00
        3   1    3    1  -224.45889517   -0.71E-05* -0.59E-03    7  14 1 -0.12E-02*  0.19   0.00    SX    NO    0:00:00
        4   1    3    1  -224.45889769   -0.25E-05* -0.43E-03   10  14 1  0.67E-03*  0.19   0.00    SX    NO    0:00:00
        5   1    3    1  -224.45889865   -0.96E-06* -0.62E-03   10  14 1  0.52E-03*  0.19   2.46    LS   YES    0:00:00
        6   1    3    1  -224.45889934   -0.69E-06* -0.41E-03   10  14 1  0.29E-03*  0.19   1.29    QN   YES    0:00:00
        7   1    3    1  -224.45889961   -0.27E-06*  0.31E-03    7  14 1  0.18E-03*  0.19   1.15    QN   YES    0:00:00
        8   1    3    1  -224.45889974   -0.13E-06*  0.47E-03    7  14 1  0.13E-03*  0.19   1.55    QN   YES    0:00:00
        9   1    3    1  -224.45889979   -0.51E-07*  0.24E-03    8  19 1 -0.16E-03*  0.19   0.68    QN   YES    0:00:00
       10   1    3    1  -224.45889980   -0.17E-07* -0.47E-04    8  19 1  0.11E-03*  0.19   0.61    QN   YES    0:00:00
       11   1    2    1  -224.45889981   -0.32E-08   0.12E-04    8  19 1 -0.18E-04   0.19   0.63    QN   YES    0:00:00
      Convergence after 11 iterations
 
  Dmat in MO in SXCTL bf call to SXHAM                                                                                    
  mat. size =     3x    3
 
        1.9837652413484079
        0.0000000000002517      1.7745436173764835
        0.0019557628373200      0.0000000000007013      0.2416911412751079
       12   1    2    1  -224.45889981   -0.41E-10   0.12E-04    8  19 1  0.16E-04   0.19   0.63    QN   YES    0:00:00
 
      ************************************************************************************************************************
                                                      Wave function printout:
                       occupation of active orbitals, and spin coupling of open shells (u,d: Spin up or down)
      ************************************************************************************************************************
 
      Note: transformation to natural orbitals
      has been made, which may change the order of the CSFs.
 
      printout of CI-coefficients larger than  0.05 for root  1
      energy=    -224.458900
      conf/sym  111     Coeff  Weight
             1  220  -0.93763 0.87916
             3  202   0.33575 0.11273
             6  022   0.09009 0.00812
 
      Natural orbitals and occupation numbers for root  1
      sym 1:   1.983767   1.774544   0.241689
 
      ************************************************************************************************************************
      *                                                                                                                      *
      *                                                    Final results                                                     *
      *                                                                                                                      *
      ************************************************************************************************************************
 
 
++    Wave function specifications:
      -----------------------------
 
      Number of closed shell electrons          20
      Number of electrons in active shells       4
      Max number of holes in RAS1 space          0
      Max nr of electrons in RAS3 space          0
      Number of inactive orbitals               10
      Number of active orbitals                  3
      Number of secondary orbitals              29
      Spin quantum number                      0.0
      State symmetry                             1
--
 
++    Orbital specifications:
      -----------------------
 
      Symmetry species                           1
                                                 a
      Frozen orbitals                            0
      Inactive orbitals                         10
      Active orbitals                            3
      RAS1 orbitals                              0
      RAS2 orbitals                              3
      RAS3 orbitals                              0
      Secondary orbitals                        29
      Deleted orbitals                           0
      Number of basis functions                 42
--
 
++    CI expansion specifications:
      ----------------------------
 
      Number of CSFs                             6
      Number of determinants                     6
      Number of root(s) required                 1
      CI root used                               1
      highest root included in the CI            1
      Root passed to geometry opt.               1
--
 
++    Final optimization conditions:
      ------------------------------
 
      Average CI energy                            -224.45889981
      RASSCF energy for state  1                   -224.45889981
      Super-CI energy                                -0.00000000
      RASSCF energy change                           -0.00000000
      Max change in MO coefficients               0.139E-04
      Max non-diagonal density matrix element     0.116E-04
      Maximum BLB matrix element                  0.155E-04
      (orbital pair   8,  19 in symmetry   1)
      Norm of electronic gradient            0.236E-04
--
 
 
      Final state energy(ies):
      ------------------------
 
::    RASSCF root number  1 Total energy:   -224.45889981
 
++    Molecular orbitals:
      -------------------
 
      Pseudonatural active orbitals and approximate occupation numbers
 
 
 
 
      Molecular orbitals for symmetry species 1: a  
 
 
      Orbital                1         2         3         4         5         6         7         8         9        10
      Energy          -20.7541  -20.7393  -20.7392   -1.6736   -1.4536   -1.0506   -0.8031   -0.7728   -0.6237   -0.4521
      Occ. No.          2.0000    2.0000    2.0000    2.0000    2.0000    2.0000    2.0000    2.0000    2.0000    2.0000
 
    1 O1     1s         0.0186   -0.7072    0.7069   -0.0152    0.0085    0.0147   -0.0019   -0.0187    0.0037    0.0005
    2 O1     2s         0.0002   -0.0008    0.0005    0.3479   -0.5906    0.6404   -0.0411   -0.3819    0.0477   -0.0076
    3 O1     3s         0.0001   -0.0001   -0.0001   -0.0250    0.0120    0.0186   -0.0030   -0.0248    0.0043    0.0078
    4 O1     2px        0.0001    0.0001   -0.0000   -0.0071    0.0125    0.0261    0.3948   -0.1157   -0.6956    0.6401
    5 O1     3px        0.0002    0.0001   -0.0000    0.0029   -0.0017   -0.0037   -0.0330    0.0062    0.0062    0.0458
    6 O1     2py       -0.0003    0.0009   -0.0010   -0.1040    0.0902    0.1981   -0.0669   -0.4415    0.1076    0.0635
    7 O1     3py       -0.0000   -0.0005    0.0003    0.0253   -0.0177   -0.0273    0.0044    0.0272    0.0002   -0.0080
    8 O1     2pz       -0.0000   -0.0000    0.0000    0.0000    0.0000    0.0000    0.0000   -0.0000   -0.0000    0.0000
    9 O1     3pz        0.0000    0.0000   -0.0000    0.0000    0.0000   -0.0000   -0.0000    0.0000    0.0000   -0.0000
   10 O1     3d2-       0.0000   -0.0000    0.0000    0.0011   -0.0028   -0.0023   -0.0225    0.0062    0.0128    0.0074
   11 O1     3d1-      -0.0000   -0.0000    0.0000    0.0000   -0.0000    0.0000    0.0000   -0.0000   -0.0000   -0.0000
   12 O1     3d0        0.0000    0.0001   -0.0002   -0.0089    0.0087    0.0073   -0.0024   -0.0172    0.0031    0.0016
   13 O1     3d1+       0.0000   -0.0000   -0.0000   -0.0000   -0.0000   -0.0000    0.0000    0.0000   -0.0000   -0.0000
   14 O1     3d2+      -0.0001   -0.0002    0.0001   -0.0168    0.0148    0.0158   -0.0069   -0.0318    0.0063    0.0048
   15 O2     1s         0.9996   -0.0000   -0.0264   -0.0220   -0.0000   -0.0123   -0.0017   -0.0000    0.0000    0.0109
   16 O2     2s         0.0001   -0.0000   -0.0008    0.6448    0.0000   -0.6272   -0.0231   -0.0000    0.0000    0.1395
   17 O2     3s        -0.0012   -0.0000   -0.0006   -0.0299   -0.0000   -0.0187   -0.0011   -0.0000    0.0000    0.0211
   18 O2     2px        0.0002    0.0000    0.0000    0.0281    0.0000    0.0355    0.6817   -0.0000   -0.0000   -0.7946
   19 O2     3px       -0.0006   -0.0000   -0.0000   -0.0057   -0.0000   -0.0046   -0.0499    0.0000    0.0000   -0.0626
   20 O2     2py        0.0000    0.0010   -0.0000    0.0000   -0.2989   -0.0000    0.0000    0.5099   -0.0762   -0.0000
   21 O2     3py        0.0000    0.0012   -0.0000    0.0000    0.0788    0.0000   -0.0000   -0.0764    0.0007   -0.0000
   22 O2     2pz       -0.0000   -0.0000   -0.0000    0.0000   -0.0000    0.0000    0.0000    0.0000    0.0000   -0.0000
   23 O2     3pz       -0.0000    0.0000    0.0000   -0.0000   -0.0000    0.0000    0.0000   -0.0000    0.0000   -0.0000
   24 O2     3d2-       0.0000    0.0000   -0.0000    0.0000   -0.0105   -0.0000    0.0000    0.0078   -0.0366    0.0000
   25 O2     3d1-      -0.0000   -0.0000    0.0000   -0.0000    0.0000    0.0000    0.0000   -0.0000   -0.0000   -0.0000
   26 O2     3d0       -0.0002    0.0000    0.0003   -0.0177   -0.0000    0.0013   -0.0058   -0.0000   -0.0000    0.0106
   27 O2     3d1+       0.0000   -0.0000   -0.0000   -0.0000    0.0000    0.0000    0.0000   -0.0000   -0.0000   -0.0000
   28 O2     3d2+       0.0002    0.0000    0.0004   -0.0323   -0.0000    0.0004    0.0062   -0.0000   -0.0000    0.0115
   29 O3     1s         0.0186    0.7072    0.7069   -0.0152   -0.0085    0.0147   -0.0019    0.0187   -0.0037    0.0005
   30 O3     2s         0.0002    0.0008    0.0005    0.3479    0.5906    0.6404   -0.0411    0.3819   -0.0477   -0.0076
   31 O3     3s         0.0001    0.0001   -0.0001   -0.0250   -0.0120    0.0186   -0.0030    0.0248   -0.0043    0.0078
   32 O3     2px        0.0001   -0.0001   -0.0000   -0.0071   -0.0125    0.0261    0.3948    0.1157    0.6956    0.6401
   33 O3     3px        0.0002   -0.0001   -0.0000    0.0029    0.0017   -0.0037   -0.0330   -0.0062   -0.0062    0.0458
   34 O3     2py        0.0003    0.0009    0.0010    0.1040    0.0902   -0.1981    0.0669   -0.4415    0.1076   -0.0635
   35 O3     3py        0.0000   -0.0005   -0.0003   -0.0253   -0.0177    0.0273   -0.0044    0.0272    0.0002    0.0080
   36 O3     2pz        0.0000   -0.0000   -0.0000    0.0000    0.0000    0.0000    0.0000    0.0000   -0.0000   -0.0000
   37 O3     3pz        0.0000   -0.0000    0.0000    0.0000    0.0000    0.0000    0.0000   -0.0000   -0.0000    0.0000
   38 O3     3d2-      -0.0000   -0.0000   -0.0000   -0.0011   -0.0028    0.0023    0.0225    0.0062    0.0128   -0.0074
   39 O3     3d1-       0.0000    0.0000    0.0000    0.0000    0.0000   -0.0000    0.0000   -0.0000   -0.0000    0.0000
   40 O3     3d0        0.0000   -0.0001   -0.0002   -0.0089   -0.0087    0.0073   -0.0024    0.0172   -0.0031    0.0016
   41 O3     3d1+      -0.0000   -0.0000    0.0000   -0.0000    0.0000   -0.0000   -0.0000    0.0000   -0.0000   -0.0000
   42 O3     3d2+      -0.0001    0.0002    0.0001   -0.0168   -0.0148    0.0158   -0.0069    0.0318   -0.0063    0.0048
 
 
      Orbital               11        12        13        14        15        16        17        18        19        20
      Energy            0.0000    0.0000    0.0000    0.1393    0.2870    0.4680    0.4772    0.5159    0.6587    0.6736
      Occ. No.          1.9838    1.7745    0.2417    0.0000    0.0000    0.0000    0.0000    0.0000    0.0000    0.0000
 
    1 O1     1s        -0.0000   -0.0000   -0.0000   -0.0270   -0.1648   -0.0000   -0.0125    0.0347   -0.0357    0.0090
    2 O1     2s        -0.0000    0.0000   -0.0000   -0.3398   -1.1898   -0.0000   -0.0868    0.2583   -0.0940    0.0219
    3 O1     3s         0.0000   -0.0000   -0.0000   -0.0081   -0.4299   -0.0000   -0.0464    0.2157   -0.1174    0.0365
    4 O1     2px        0.0000    0.0000   -0.0000   -0.0371    0.0776    0.0000   -0.0723   -0.0480   -0.0559   -0.0833
    5 O1     3px        0.0000    0.0000   -0.0000   -0.0123    0.0672   -0.0000    0.4610    0.0627   -0.2019   -0.8006
    6 O1     2py       -0.0000    0.0000    0.0000    0.8012    0.5760    0.0000    0.0648   -0.2749   -0.4733    0.1351
    7 O1     3py       -0.0000    0.0000   -0.0000    0.1655    0.6591    0.0000    0.1328   -0.8265    0.0527   -0.0124
    8 O1     2pz        0.3345   -0.7038    0.6601   -0.0000    0.0000    0.0257    0.0000   -0.0000   -0.0000    0.0000
    9 O1     3pz       -0.0296   -0.0096   -0.0630   -0.0000   -0.0000    0.4913    0.0000    0.0000    0.0000    0.0000
   10 O1     3d2-       0.0000    0.0000    0.0000   -0.0050   -0.0061   -0.0000    0.0287   -0.0012   -0.0335   -0.0132
   11 O1     3d1-      -0.0299    0.0199    0.0092   -0.0000   -0.0000    0.0359    0.0000    0.0000   -0.0000    0.0000
   12 O1     3d0       -0.0000    0.0000    0.0000   -0.0005    0.0199   -0.0000    0.0037    0.0025    0.0650   -0.0184
   13 O1     3d1+      -0.0019    0.0008    0.0008   -0.0000    0.0000    0.0037    0.0000   -0.0000   -0.0000    0.0000
   14 O1     3d2+      -0.0000    0.0000    0.0000   -0.0023    0.0333   -0.0000    0.0131    0.0007    0.1077   -0.0308
   15 O2     1s        -0.0000   -0.0000    0.0000    0.1159    0.0000    0.0000    0.0405   -0.1796    0.0000   -0.0000
   16 O2     2s        -0.0000   -0.0000    0.0000    1.1253    0.0000    0.0000    0.2488   -1.0719    0.0000   -0.0000
   17 O2     3s        -0.0000    0.0000   -0.0000    0.2656   -0.0000    0.0000    0.1034   -0.3553   -0.0000    0.0000
   18 O2     2px       -0.0000   -0.0000    0.0000    0.2121    0.0000    0.0000   -0.1151   -0.0392    0.0000   -0.0000
   19 O2     3px       -0.0000   -0.0000    0.0000    0.0465    0.0000   -0.0000    0.4055   -0.0018    0.0000    0.0000
   20 O2     2py        0.0000    0.0000    0.0000   -0.0000    1.3206    0.0000    0.0000    0.0000   -0.4052    0.1105
   21 O2     3py        0.0000    0.0000    0.0000   -0.0000    1.1266    0.0000    0.0000    0.0000    0.7419   -0.2021
   22 O2     2pz        0.7487    0.0000   -0.6937    0.0000    0.0000   -0.2905   -0.0000   -0.0000    0.0000   -0.0000
   23 O2     3pz       -0.0038    0.0000   -0.0731    0.0000   -0.0000    0.3390    0.0000    0.0000    0.0000   -0.0000
   24 O2     3d2-       0.0000    0.0000   -0.0000   -0.0000    0.0153    0.0000   -0.0000    0.0000    0.0361    0.0595
   25 O2     3d1-       0.0000   -0.0466    0.0000    0.0000    0.0000   -0.0000    0.0000    0.0000   -0.0000   -0.0000
   26 O2     3d0        0.0000   -0.0000   -0.0000    0.0378   -0.0000   -0.0000   -0.0177    0.0981   -0.0000    0.0000
   27 O2     3d1+       0.0098    0.0000   -0.0064    0.0000   -0.0000   -0.0078   -0.0000   -0.0000   -0.0000    0.0000
   28 O2     3d2+       0.0000   -0.0000   -0.0000    0.0685   -0.0000   -0.0000   -0.0429    0.1585   -0.0000    0.0000
   29 O3     1s         0.0000    0.0000    0.0000   -0.0270    0.1648   -0.0000   -0.0125    0.0347    0.0357   -0.0090
   30 O3     2s         0.0000    0.0000    0.0000   -0.3398    1.1898    0.0000   -0.0868    0.2583    0.0940   -0.0219
   31 O3     3s         0.0000    0.0000    0.0000   -0.0081    0.4299   -0.0000   -0.0464    0.2157    0.1174   -0.0365
   32 O3     2px        0.0000    0.0000    0.0000   -0.0371   -0.0776    0.0000   -0.0723   -0.0480    0.0559    0.0833
   33 O3     3px        0.0000   -0.0000   -0.0000   -0.0123   -0.0672   -0.0000    0.4610    0.0627    0.2019    0.8006
   34 O3     2py        0.0000    0.0000   -0.0000   -0.8012    0.5760   -0.0000   -0.0648    0.2749   -0.4733    0.1351
   35 O3     3py        0.0000    0.0000    0.0000   -0.1655    0.6591   -0.0000   -0.1328    0.8265    0.0527   -0.0124
   36 O3     2pz        0.3345    0.7038    0.6601   -0.0000   -0.0000    0.0257    0.0000    0.0000   -0.0000   -0.0000
   37 O3     3pz       -0.0296    0.0096   -0.0630   -0.0000   -0.0000    0.4913    0.0000    0.0000   -0.0000   -0.0000
   38 O3     3d2-       0.0000    0.0000    0.0000    0.0050   -0.0061    0.0000   -0.0287    0.0012   -0.0335   -0.0132
   39 O3     3d1-       0.0299    0.0199   -0.0092   -0.0000    0.0000   -0.0359   -0.0000   -0.0000    0.0000    0.0000
   40 O3     3d0       -0.0000   -0.0000   -0.0000   -0.0005   -0.0199   -0.0000    0.0037    0.0025   -0.0650    0.0184
   41 O3     3d1+      -0.0019   -0.0008    0.0008    0.0000    0.0000    0.0037    0.0000    0.0000   -0.0000    0.0000
   42 O3     3d2+      -0.0000   -0.0000   -0.0000   -0.0023   -0.0333   -0.0000    0.0131    0.0007   -0.1077    0.0308
 
 
      Orbital               21        22        23        24        25        26        27        28        29        30
      Energy            0.6840    0.8574    1.0230    1.0350    1.0748    1.6897    1.7074    1.7302    1.7302    2.0000
      Occ. No.          0.0000    0.0000    0.0000    0.0000    0.0000    0.0000    0.0000    0.0000    0.0000    0.0000
 
    1 O1     1s        -0.0000   -0.0198   -0.0099    0.0000    0.0963    0.0000   -0.0258   -0.0014   -0.0000   -0.2746
    2 O1     2s        -0.0000   -0.1028   -0.0539    0.0000    0.5680    0.0000   -0.1982   -0.0123   -0.0000   -1.8791
    3 O1     3s         0.0000    0.4526   -0.0249   -0.0000   -0.0719    0.0000   -0.3211   -0.0172   -0.0000   -1.7045
    4 O1     2px       -0.0000   -0.0085   -0.4807   -0.0000   -0.0749   -0.0000    0.1681    0.0232    0.0000    0.0773
    5 O1     3px       -0.0000   -0.0017   -0.9205   -0.0000   -0.0518   -0.0000   -0.0069    0.0146    0.0000    0.1108
    6 O1     2py        0.0000   -0.0460    0.0215   -0.0000   -0.0705   -0.0000    0.0515    0.0096    0.0000    0.6516
    7 O1     3py        0.0000    0.3076    0.0101    0.0000    0.6898   -0.0000    0.1249    0.0088    0.0000    0.1724
    8 O1     2pz       -0.0850    0.0000   -0.0000    0.5118   -0.0000   -0.1793   -0.0000    0.0000   -0.0213    0.0000
    9 O1     3pz       -0.8258    0.0000   -0.0000    0.9118   -0.0000    0.0305    0.0000    0.0000   -0.0156   -0.0000
   10 O1     3d2-       0.0000   -0.0176   -0.0455   -0.0000   -0.0166   -0.0000    0.4402    0.0846    0.0000   -0.1043
   11 O1     3d1-      -0.0265    0.0000    0.0000    0.0382   -0.0000   -0.4510   -0.0000    0.0000   -0.0849   -0.0000
   12 O1     3d0       -0.0000    0.0500    0.0156    0.0000   -0.0658   -0.0000   -0.0339    0.3776    0.0000   -0.0095
   13 O1     3d1+      -0.0004    0.0000   -0.0000    0.0107    0.0000   -0.0637   -0.0000   -0.0000    0.4312    0.0000
   14 O1     3d2+       0.0000    0.0776    0.0050   -0.0000   -0.1114    0.0000    0.0741   -0.2081   -0.0000   -0.0169
   15 O2     1s         0.0000    0.0114   -0.0038    0.0000    0.0000   -0.0000    0.0000    0.0049    0.0000    0.0000
   16 O2     2s         0.0000    0.0507   -0.0101   -0.0000    0.0000    0.0000    0.0000    0.0316    0.0000    0.0000
   17 O2     3s         0.0000    0.5653   -0.0118   -0.0000    0.0000   -0.0000    0.0000    0.0240    0.0000    0.0000
   18 O2     2px       -0.0000    0.0041    0.6640    0.0000    0.0000   -0.0000    0.0000    0.0192    0.0000    0.0000
   19 O2     3px       -0.0000    0.0061    1.6365    0.0000    0.0000    0.0000    0.0000   -0.0302   -0.0000    0.0000
   20 O2     2py        0.0000   -0.0000    0.0000   -0.0000   -0.8266   -0.0000    0.1859    0.0000    0.0000    2.0325
   21 O2     3py        0.0000    0.0000    0.0000   -0.0000   -0.9899   -0.0000    0.2371   -0.0000    0.0000    2.1989
   22 O2     2pz       -0.0000   -0.0000    0.0000   -0.6713    0.0000   -0.0000    0.0000    0.0000   -0.0219   -0.0000
   23 O2     3pz        0.0000   -0.0000    0.0000   -1.6591    0.0000   -0.0000    0.0000   -0.0000    0.0347    0.0000
   24 O2     3d2-       0.0000    0.0000    0.0000    0.0000    0.0767    0.0000   -0.5484    0.0000   -0.0000    0.1563
   25 O2     3d1-       0.0807   -0.0000   -0.0000   -0.0000    0.0000    0.5716    0.0000    0.0000   -0.0000    0.0000
   26 O2     3d0       -0.0000    0.0489    0.0240    0.0000    0.0000   -0.0000    0.0000    0.5730    0.0000    0.0000
   27 O2     3d1+       0.0000    0.0000   -0.0000    0.0173    0.0000    0.0000   -0.0000   -0.0000    0.6637   -0.0000
   28 O2     3d2+      -0.0000    0.0706    0.0093   -0.0000    0.0000    0.0000    0.0000   -0.3350   -0.0000    0.0000
   29 O3     1s         0.0000   -0.0198   -0.0099   -0.0000   -0.0963    0.0000    0.0258   -0.0014   -0.0000    0.2746
   30 O3     2s        -0.0000   -0.1028   -0.0539   -0.0000   -0.5680   -0.0000    0.1982   -0.0123   -0.0000    1.8791
   31 O3     3s         0.0000    0.4526   -0.0249    0.0000    0.0719   -0.0000    0.3211   -0.0172   -0.0000    1.7045
   32 O3     2px        0.0000   -0.0085   -0.4807   -0.0000    0.0749    0.0000   -0.1681    0.0232    0.0000   -0.0773
   33 O3     3px        0.0000   -0.0017   -0.9205   -0.0000    0.0518   -0.0000    0.0069    0.0146    0.0000   -0.1108
   34 O3     2py        0.0000    0.0460   -0.0215   -0.0000   -0.0705    0.0000    0.0515   -0.0096   -0.0000    0.6516
   35 O3     3py       -0.0000   -0.3076   -0.0101    0.0000    0.6898   -0.0000    0.1249   -0.0088   -0.0000    0.1724
   36 O3     2pz        0.0850    0.0000   -0.0000    0.5118   -0.0000    0.1793   -0.0000    0.0000   -0.0213   -0.0000
   37 O3     3pz        0.8258   -0.0000   -0.0000    0.9118   -0.0000   -0.0305   -0.0000    0.0000   -0.0156   -0.0000
   38 O3     3d2-      -0.0000    0.0176    0.0455    0.0000   -0.0166   -0.0000    0.4402   -0.0846   -0.0000   -0.1043
   39 O3     3d1-      -0.0265    0.0000    0.0000   -0.0382    0.0000   -0.4510   -0.0000   -0.0000    0.0849   -0.0000
   40 O3     3d0        0.0000    0.0500    0.0156    0.0000    0.0658   -0.0000    0.0339    0.3776    0.0000    0.0095
   41 O3     3d1+       0.0004   -0.0000   -0.0000    0.0107    0.0000    0.0637   -0.0000   -0.0000    0.4312   -0.0000
   42 O3     3d2+       0.0000    0.0776    0.0050    0.0000    0.1114    0.0000   -0.0741   -0.2081   -0.0000    0.0169
 
 
      Orbital               31        32        33        34        35        36        37        38        39        40
      Energy            2.0265    2.0934    2.0936    2.4821    2.4826    2.6317    2.6808    2.7107    3.0012    3.5967
      Occ. No.          0.0000    0.0000    0.0000    0.0000    0.0000    0.0000    0.0000    0.0000    0.0000    0.0000
 
    1 O1     1s        -0.1128    0.0000    0.0037    0.0147   -0.0000    0.0229   -0.0000   -0.0253    0.0288   -0.0000
    2 O1     2s        -0.8559    0.0000    0.0273    0.0899   -0.0000    0.0389   -0.0000   -0.2498    0.3327   -0.0000
    3 O1     3s        -0.9495    0.0000    0.0340    0.0369   -0.0000   -0.2196    0.0000   -0.3259    0.4011   -0.0000
    4 O1     2px        0.0340   -0.0000   -0.0024    0.0975   -0.0000    0.1559    0.0000   -0.2587   -0.0453    0.0000
    5 O1     3px        0.0500    0.0000    0.0090    0.1756   -0.0000    0.2610    0.0000   -0.3671   -0.0296    0.0000
    6 O1     2py        0.5807   -0.0000   -0.0121   -0.0499    0.0000    0.0746    0.0000    0.2411   -0.4237   -0.0000
    7 O1     3py        0.6013   -0.0000   -0.0112   -0.0092   -0.0000    0.2747   -0.0000    0.2953   -0.4121    0.0000
    8 O1     2pz        0.0000    0.0012   -0.0000   -0.0000   -0.1036   -0.0000   -0.3167   -0.0000   -0.0000   -0.3333
    9 O1     3pz       -0.0000   -0.0109    0.0000   -0.0000   -0.1727   -0.0000   -0.4559   -0.0000   -0.0000   -0.2035
   10 O1     3d2-      -0.0684   -0.0000   -0.0911   -0.2711    0.0000   -0.4312   -0.0000    0.6100    0.1628   -0.0000
   11 O1     3d1-       0.0000    0.0912   -0.0000    0.0000    0.2707    0.0000    0.7647    0.0000    0.0000    0.6788
   12 O1     3d0       -0.0365   -0.0000   -0.6130    0.4898   -0.0000    0.1488   -0.0000    0.3134   -0.4087   -0.0000
   13 O1     3d1+      -0.0000   -0.7035    0.0000    0.0000    0.5601    0.0000   -0.1392   -0.0000   -0.0000    0.0781
   14 O1     3d2+      -0.0743    0.0000    0.3447   -0.2656    0.0000    0.4962    0.0000    0.3580   -0.6882   -0.0000
   15 O2     1s         0.2707   -0.0000    0.0000   -0.0037    0.0000    0.1466   -0.0000    0.1539    0.0000    0.0000
   16 O2     2s         1.9437   -0.0000    0.0000   -0.0662    0.0000    0.7605   -0.0000    0.9470    0.0000    0.0000
   17 O2     3s         1.9522   -0.0000    0.0000   -0.1373    0.0000   -0.0136   -0.0000    0.4142    0.0000    0.0000
   18 O2     2px        0.0367   -0.0000    0.0000   -0.3194    0.0000   -0.3611   -0.0000    0.7251    0.0000   -0.0000
   19 O2     3px        0.0564   -0.0000   -0.0000   -0.2932    0.0000   -0.4227   -0.0000    0.6616    0.0000    0.0000
   20 O2     2py       -0.0000   -0.0000   -0.0269   -0.0000   -0.0000   -0.0000    0.0000   -0.0000   -0.7519    0.0000
   21 O2     3py       -0.0000   -0.0000   -0.0290   -0.0000   -0.0000   -0.0000   -0.0000   -0.0000    0.2933    0.0000
   22 O2     2pz        0.0000   -0.0000   -0.0000    0.0000    0.3235    0.0000    0.8018    0.0000    0.0000   -0.0000
   23 O2     3pz       -0.0000   -0.0000   -0.0000    0.0000    0.2796    0.0000    0.7676    0.0000    0.0000   -0.0000
   24 O2     3d2-      -0.0000    0.0000    0.0086   -0.0000    0.0000   -0.0000   -0.0000   -0.0000    0.0468   -0.0000
   25 O2     3d1-       0.0000   -0.0088    0.0000    0.0000    0.0000   -0.0000   -0.0000    0.0000   -0.0000    1.1059
   26 O2     3d0        0.0825   -0.0000    0.0000   -0.5507    0.0000    0.4319   -0.0000   -0.1545    0.0000   -0.0000
   27 O2     3d1+       0.0000    0.0000    0.0000   -0.0000   -0.6743   -0.0000    0.3920    0.0000    0.0000    0.0000
   28 O2     3d2+       0.1471   -0.0000   -0.0000    0.3859   -0.0000    0.2235   -0.0000    0.3352    0.0000   -0.0000
   29 O3     1s        -0.1128   -0.0000   -0.0037    0.0147   -0.0000    0.0229    0.0000   -0.0253   -0.0288   -0.0000
   30 O3     2s        -0.8559   -0.0000   -0.0273    0.0899   -0.0000    0.0389    0.0000   -0.2498   -0.3327   -0.0000
   31 O3     3s        -0.9495   -0.0000   -0.0340    0.0369   -0.0000   -0.2196    0.0000   -0.3259   -0.4011   -0.0000
   32 O3     2px        0.0340    0.0000    0.0024    0.0975   -0.0000    0.1559    0.0000   -0.2587    0.0453   -0.0000
   33 O3     3px        0.0500   -0.0000   -0.0090    0.1756   -0.0000    0.2610    0.0000   -0.3671    0.0296   -0.0000
   34 O3     2py       -0.5807   -0.0000   -0.0121    0.0499   -0.0000   -0.0746    0.0000   -0.2411   -0.4237   -0.0000
   35 O3     3py       -0.6013   -0.0000   -0.0112    0.0092   -0.0000   -0.2747    0.0000   -0.2953   -0.4121   -0.0000
   36 O3     2pz        0.0000   -0.0012    0.0000   -0.0000   -0.1036    0.0000   -0.3167    0.0000    0.0000    0.3333
   37 O3     3pz       -0.0000    0.0109   -0.0000   -0.0000   -0.1727   -0.0000   -0.4559   -0.0000   -0.0000    0.2035
   38 O3     3d2-       0.0684   -0.0000   -0.0911    0.2711   -0.0000    0.4312   -0.0000   -0.6100    0.1628   -0.0000
   39 O3     3d1-       0.0000    0.0912   -0.0000   -0.0000   -0.2707   -0.0000   -0.7647   -0.0000   -0.0000    0.6788
   40 O3     3d0       -0.0365    0.0000    0.6130    0.4898   -0.0000    0.1488   -0.0000    0.3134    0.4087    0.0000
   41 O3     3d1+       0.0000    0.7035   -0.0000    0.0000    0.5601    0.0000   -0.1392   -0.0000   -0.0000   -0.0781
   42 O3     3d2+      -0.0743   -0.0000   -0.3447   -0.2656    0.0000    0.4962   -0.0000    0.3580    0.6882    0.0000
 
 
      Orbital               41        42
      Energy            3.6051    4.4623
      Occ. No.          0.0000    0.0000
 
    1 O1     1s        -0.0179    0.2397
    2 O1     2s        -0.1124    1.5818
    3 O1     3s        -0.0387    0.7979
    4 O1     2px       -0.3210   -0.1492
    5 O1     3px       -0.2027   -0.0683
    6 O1     2py        0.1092   -1.1724
    7 O1     3py        0.0271   -0.4949
    8 O1     2pz       -0.0000   -0.0000
    9 O1     3pz       -0.0000   -0.0000
   10 O1     3d2-       0.6549    0.1851
   11 O1     3d1-       0.0000    0.0000
   12 O1     3d0        0.0207   -0.3442
   13 O1     3d1+       0.0000   -0.0000
   14 O1     3d2+       0.1894   -0.5720
   15 O2     1s         0.0000   -0.4298
   16 O2     2s         0.0000   -3.0361
   17 O2     3s         0.0000   -1.9533
   18 O2     2px       -0.0000   -0.0875
   19 O2     3px       -0.0000   -0.0014
   20 O2     2py        0.1011   -0.0000
   21 O2     3py        0.0128   -0.0000
   22 O2     2pz       -0.0000   -0.0000
   23 O2     3pz        0.0000   -0.0000
   24 O2     3d2-       1.1078    0.0000
   25 O2     3d1-       0.0000    0.0000
   26 O2     3d0       -0.0000    0.7123
   27 O2     3d1+      -0.0000    0.0000
   28 O2     3d2+      -0.0000    1.2369
   29 O3     1s         0.0179    0.2397
   30 O3     2s         0.1124    1.5818
   31 O3     3s         0.0387    0.7979
   32 O3     2px        0.3210   -0.1492
   33 O3     3px        0.2027   -0.0683
   34 O3     2py        0.1092    1.1724
   35 O3     3py        0.0271    0.4949
   36 O3     2pz       -0.0000    0.0000
   37 O3     3pz        0.0000    0.0000
   38 O3     3d2-       0.6549   -0.1851
   39 O3     3d1-       0.0000    0.0000
   40 O3     3d0       -0.0207   -0.3442
   41 O3     3d1+      -0.0000   -0.0000
   42 O3     3d2+      -0.1894   -0.5720
--
 
      Von Neumann Entropy (Root  1) =  0.53319
 

      Mulliken population analysis for root number:  1
      -----------------------------------------------
 
 
++    Molecular charges:
      ------------------
 
      Mulliken charges per centre and basis function type
      ---------------------------------------------------
 
                O1      O2      O3    
      1s       2.0003  1.9999  2.0003
      2s       1.9342  1.6470  1.9342
      2px      2.0120  1.9701  2.0120
      2pz      1.2812  1.3961  1.2812
      2py      0.7947  0.9398  0.7947
      3s      -0.0143 -0.0257 -0.0143
      3px     -0.0231 -0.0562 -0.0231
      3pz     -0.0087 -0.0052 -0.0087
      3py     -0.0132  0.0146 -0.0132
      3d2+     0.0198  0.0183  0.0198
      3d1+     0.0001  0.0005  0.0001
      3d0      0.0057  0.0052  0.0057
      3d1-     0.0145  0.0347  0.0145
      3d2-     0.0125  0.0297  0.0125
      Total    8.0157  7.9687  8.0157
 
      N-E     -0.0157  0.0313 -0.0157
 
      Total electronic charge=   24.000000
 
      Total            charge=   -0.000000
--
 
 

      Expectation values of various properties for root number:  1
      -----------------------------------------------------------
 
 
++    Molecular properties:
      ---------------------
 
      Charge (e):
                      =   -0.0000
      Dipole Moment (Debye):
      Origin of the operator (Ang)=    0.0000    0.0000    0.0000
                   X=  1.4070E-01               Y=  1.9462E-11               Z=  1.6710E-13           Total=  1.4070E-01
      Quadrupole Moment (Debye*Ang):
      Origin of the operator (Ang)=    0.0706    0.0000    0.0000
                  XX= -1.6321E+01              XY= -2.0651E-12              XZ=  1.1800E-13              YY= -1.5802E+01
                  YZ= -1.6992E-13              ZZ= -1.4794E+01
      In traceless form (Debye*Ang)
                  XX= -1.0231E+00              XY= -3.0977E-12              XZ=  1.7699E-13              YY= -2.4432E-01
                  YZ= -2.5489E-13              ZZ=  1.2674E+00
--
 

      LoProp population analysis for root number:  1
      -----------------------------------------------
 
 
++    LoProp analysis:
      ----------------
 
 
 
  Input file to MOLDEN was generated!
 
 
++    Static properties:
      ------------------
 
 
      LoProp Charges per center
 

                   O1       O2       O3    
      Nuclear      8.0000   8.0000   8.0000
      Electronic  -8.0534  -7.8932  -8.0534
 
      Total       -0.0534   0.1068  -0.0534
--
 
 
      Natural Bond Order analysis for root number:  1
 
++    Natural Bond Order analysis
      ---------------------------
      Based on LoProp computed density
      -------------------------------------------------------------------------------------
      Atom A       Atom B       Bond Order | Atom A       Atom B       Bond Order
        O1           O2             1.969  |   O2           O3             1.969
      -------------------------------------------------------------------------------------
      NBO located     16.000 core electrons.
      NBO located      7.875 electrons involved in    2 bonds.
      The remaining    0.125 electrons are to be considered as diffuse
--
 
--
 
 
  Input file to MOLDEN was generated!
 
      Average orbitals are written to the RASORB file
      Natural orbitals for root   1 are written to the RASORB.1 file
      Spin density orbitals for root   1 are written to the SPDORB.1 file
 
--- Stop Module: rasscf at Mon Nov 18 16:18:34 2024 /rc=_RC_ALL_IS_WELL_ ---
*** files: ozone_170.50.LprOrb ozone_170.50.rasscf.molden ozone_170.50.LoProp.molden ozone_170.50.RasOrb ozone_170.50.RasOrb.1 ozone_170.50.rasscf.h5 ozone_170.50.SpdOrb.1 xmldump
    saved to directory /home/grierjones/DDCASPT2/ozone/ANO-RCC-VDZP/ozone_170.50

>>> COPY /tmp/ozone_170.50/ozone_170.50.rasscf.h5 /home/grierjones/DDCASPT2/ozone/ANO-RCC-VDZP/ozone_170.50/

>>> COPY /tmp/ozone_170.50/GMJ_Fock_MO.csv /home/grierjones/DDCASPT2/ozone/ANO-RCC-VDZP/ozone_170.50/ozone_170.50.GMJ_Fock_MO.csv

>>> COPY /tmp/ozone_170.50/GMJ_PT2_Fock_MO.csv /home/grierjones/DDCASPT2/ozone/ANO-RCC-VDZP/ozone_170.50/ozone_170.50.GMJ_PT2_Fock_MO.csv

*** symbolic link created: INPORB -> ozone_170.50.RasOrb
--- Start Module: motra at Mon Nov 18 16:18:34 2024 ---
 
()()()()()()()()()()()()()()()()()()()()()()()()()()()()()()()()()()()()()()()()()()()()()()()()()()

                                               &MOTRA

                                   only a single process is used
                       available to each process: 2.0 GB of memory, 1 thread?
()()()()()()()()()()()()()()()()()()()()()()()()()()()()()()()()()()()()()()()()()()()()()()()()()()
 
 
      *** WARNING: Default frozen orbitals is overwritten by user input.
      *** Default values:   3
 
      Header of the integral files:
      
       Integrals generated by seward 4.2.0  , Mon Nov 18 16:18:33 2024
 
 
      Header of MO coefficients source file:
      * RASSCF average (pseudo-natural) orbitals                                      
 
 
      Cartesian coordinates in Angstrom:
      -----------------------------------------------------
      No.  Label        X            Y            Z        
      -----------------------------------------------------
       1   O1         0.10582900   1.27361100   0.00000000
       2   O2         0.00000000   0.00000000   0.00000000
       3   O3         0.10582900  -1.27361100   0.00000000
      -----------------------------------------------------
      Nuclear repulsion energy =   66.29631711
 
      Orbital specifications:
      -----------------------
 
      Symmetry species:              1
      Number of basis functions:    42
      Frozen orbitals:               0
      Deleted orbitals:              0
      Number of orbitals used:      42

       SYMMETRY  BASIS FUNCTIONS       ORBITALS      INTEGRALS   CPU(SEC)  I/O(SEC)
 
        1 1 1 1   42  42  42  42    42  42  42  42      408156       0.00      0.00

       TOTAL CPU TIME(SEC)    0.22TOTAL I/O TIME(SEC)    0.52
 
--- Stop Module: motra at Mon Nov 18 16:18:35 2024 /rc=_RC_ALL_IS_WELL_ ---
*** files: xmldump
    saved to directory /home/grierjones/DDCASPT2/ozone/ANO-RCC-VDZP/ozone_170.50

>>> COPY /tmp/ozone_170.50/GMJ_one_int_indx.csv /home/grierjones/DDCASPT2/ozone/ANO-RCC-VDZP/ozone_170.50/ozone_170.50.GMJ_one_int_indx.csv

>>> COPY /tmp/ozone_170.50/GMJ_one_int.csv /home/grierjones/DDCASPT2/ozone/ANO-RCC-VDZP/ozone_170.50/ozone_170.50.GMJ_one_int.csv

>>> COPY /tmp/ozone_170.50/GMJ_two_int_indx.csv /home/grierjones/DDCASPT2/ozone/ANO-RCC-VDZP/ozone_170.50/ozone_170.50.GMJ_two_int_indx.csv

>>> COPY /tmp/ozone_170.50/GMJ_two_int.csv /home/grierjones/DDCASPT2/ozone/ANO-RCC-VDZP/ozone_170.50/ozone_170.50.GMJ_two_int.csv

*** symbolic link created: INPORB -> ozone_170.50.RasOrb
--- Start Module: caspt2 at Mon Nov 18 16:18:35 2024 ---
 
()()()()()()()()()()()()()()()()()()()()()()()()()()()()()()()()()()()()()()()()()()()()()()()()()()

                                              &CASPT2

                                   only a single process is used
                       available to each process: 2.0 GB of memory, 1 thread?
()()()()()()()()()()()()()()()()()()()()()()()()()()()()()()()()()()()()()()()()()()()()()()()()()()
 
 Cholesky algorithm in CASPT2 =    1
 
 ###############################################################################
 ###############################################################################
 ###                                                                         ###
 ###                                                                         ###
 ###    User changed nr of frozen orbitals.                                  ###
 ###                                                                         ###
 ###                                                                         ###
 ###############################################################################
 ###############################################################################
 
++    Wave function specifications:
      -----------------------------
 
      Number of closed shell electrons          20
      Number of electrons in active shells       4
      Max number of holes in RAS1 space          0
      Max number of electrons in RAS3 space      0
      Number of inactive orbitals               10
      Number of active orbitals                  3
      Number of secondary orbitals              29
      Spin quantum number                      0.0
      State symmetry                             1
      Number of CSFs                             6
      Number of root(s) available                1
      Root passed to geometry opt.               1
      A file JOBMIX will be created.
      This is a CASSCF or RASSCF reference function
--
 
++    Orbital specifications:
      -----------------------
 
      Symmetry species                           1
                                                 a
      Frozen orbitals                            0
      Inactive orbitals                         10
      Active orbitals                            3
      Secondary orbitals                        29
      Deleted orbitals                           0
      Number of basis functions                 42
--
 
      Type of Fock operator: STANDARD
      Type of 0-order Hamiltonian: STANDARD WITH DEFAULT IPEA
        "IP-EA" denominator shift =      0.25
      The input orbitals and the CI vector will be transformed.
 
--------------------------------------------------------------------------------
 Estimated memory requirements:
  POLY3 :                   250202
  RHS:                      279634
  SIGMA :                   302200
  PRPCTL:                        0
 Available workspace:    230396563
 
++ CASPT2 computation for group   1
 
********************************************************************************
 Multi-State initialization phase begins for group   1
--------------------------------------------------------------------------------
********************************************************************************
 Compute H0 matrices for state    1
--------------------------------------------------------------------------------
--------------------------------------------------------------------------------
 H0 matrices have been computed.
 
********************************************************************************
  CASPT2 EQUATION SOLUTION
--------------------------------------------------------------------------------
 
  Total nr of CASPT2 parameters:
   Before reduction:       86691
   After  reduction:       82880
 
 The contributions to the second order correlation energy in atomic units.
-----------------------------------------------------------------------------------------------------------------------------
  IT.      VJTU        VJTI        ATVX        AIVX        VJAI        BVAT        BJAT        BJAI        TOTAL       RNORM  
-----------------------------------------------------------------------------------------------------------------------------
   1    -0.000000   -0.001568   -0.015483   -0.101232   -0.016816   -0.017088   -0.121030   -0.258687   -0.531904    0.002163
   2    -0.000000   -0.001588   -0.015539   -0.101576   -0.016832   -0.017092   -0.121044   -0.258689   -0.532359    0.000175
   3    -0.000000   -0.001588   -0.015539   -0.101580   -0.016832   -0.017092   -0.121045   -0.258689   -0.532365    0.000025
   4    -0.000000   -0.001588   -0.015539   -0.101578   -0.016832   -0.017092   -0.121045   -0.258689   -0.532363    0.000003
-------------------------------------------------------------------------------------------------------------------
 
  FINAL CASPT2 RESULT:
 
  Correlation energy /Case, /Symm, and sums:
 VJTU     -0.00000000 -0.00000000
 VJTIP    -0.00158793 -0.00158793
 VJTIM     0.00000000  0.00000000
 ATVX     -0.01553893 -0.01553893
 AIVX     -0.10157756 -0.10157756
 VJAIP    -0.01170349 -0.01170349
 VJAIM    -0.00512860 -0.00512860
 BVATP    -0.01623755 -0.01623755
 BVATM    -0.00085458 -0.00085458
 BJATP    -0.04533554 -0.04533554
 BJATM    -0.07570912 -0.07570912
 BJAIP    -0.17414599 -0.17414599
 BJAIM    -0.08454331 -0.08454331
 Summed:  -0.53236261 -0.53236261
 
      Reference energy:        -224.4588998074
      E2 (Non-variational):      -0.5323626120
      E2 (Variational):          -0.5323626392
      Total energy:            -224.9912624466
      Residual norm:              0.0000002970
      Reference weight:           0.85689
 
      Contributions to the CASPT2 correlation energy
      Active & Virtual Only:         -0.0326310668
      One Inactive Excited:          -0.2226222227
      Two Inactive Excited:          -0.2771093224
 
 
++ Denominators, etc.
----------------------------------------------------------------------------------------------------
 Report on small energy denominators, large coefficients, and large energy contributions.
CASE  SYMM ACTIVE-MIX  NON-ACTIVE INDICES          DENOMINATOR     RHS VALUE       COEFFICIENT     CONTRIBUTION
ATVX     1  Mu1.0006  Se1.016                       1.90241771     -0.06884483      0.03689033     -0.00253971
ATVX     1  Mu1.0005  Se1.021                       1.87182771     -0.11029961      0.05775311     -0.00637015
ATVX     1  Mu1.0005  Se1.026                       2.87758332      0.07968061     -0.02777745     -0.00221332
AIVX     1  Mu1.0005  In1.004 Se1.014               2.60631884     -0.08624552      0.03308550     -0.00285348
AIVX     1  Mu1.0002  In1.005 Se1.014               1.98202022     -0.05146774      0.02539161     -0.00130685
AIVX     1  Mu1.0003  In1.005 Se1.014               2.08176288     -0.06628613      0.03135608     -0.00207847
AIVX     1  Mu1.0004  In1.006 Se1.014               1.82856771     -0.06418535      0.03544653     -0.00227515
AIVX     1  Mu1.0005  In1.006 Se1.014               1.98333043      0.06068709     -0.03106618     -0.00188532
AIVX     1  Mu1.0002  In1.008 Se1.014               1.30117169      0.11809608     -0.08999081     -0.01062756
AIVX     1  Mu1.0003  In1.008 Se1.014               1.40091434      0.06718598     -0.04759399     -0.00319765
AIVX     1  Mu1.0002  In1.009 Se1.014               1.15204162     -0.03502756      0.03009492     -0.00105415
AIVX     1  Mu1.0002  In1.009 Se1.017               1.48991865     -0.05654201      0.03685055     -0.00208360
AIVX     1  Mu1.0004  In1.010 Se1.017               1.56793048      0.06050002     -0.03845377     -0.00232645
AIVX     1  Mu1.0002  In1.008 Se1.018               1.67768138      0.04502600     -0.02609580     -0.00117499
AIVX     1  Mu1.0004  In1.008 Se1.019               2.07010938     -0.12540597      0.06091311     -0.00763887
AIVX     1  Mu1.0005  In1.008 Se1.019               2.22487210      0.07726563     -0.03486913     -0.00269419
AIVX     1  Mu1.0002  In1.010 Se1.020               1.51471458     -0.06624750      0.04255115     -0.00281891
AIVX     1  Mu1.0003  In1.010 Se1.020               1.61445724     -0.04482987      0.02692333     -0.00120697
AIVX     1  Mu1.0004  In1.006 Se1.022               2.54666584      0.06933087     -0.02717609     -0.00188414
AIVX     1  Mu1.0002  In1.008 Se1.022               2.01926982     -0.05416752      0.02636306     -0.00142802
BJATM    1  Mu1.0002  In1.008 Se1.019 Se1.016       2.61906137     -0.06085279      0.02551356     -0.00155257
BJATM    1  Mu1.0001  In1.009 Se1.021 Se1.020       2.37965112      0.06178305     -0.02596743     -0.00160435
BJATM    1  Mu1.0002  In1.010 Se1.023 Se1.016       2.66263164      0.06510070     -0.02529608     -0.00164679
BJAIP    1  Se1.014 In1.006 Se1.014 In1.006         2.37995233      0.06513985     -0.02737022     -0.00178289
BJAIP    1  Se1.014 In1.006 Se1.019 In1.008         2.62149400      0.09707747     -0.03703134     -0.00359491
BJAIP    1  Se1.014 In1.008 Se1.014 In1.008         1.82426959      0.08656604     -0.04745244     -0.00410777
BJAIP    1  Se1.019 In1.008 Se1.019 In1.008         2.86303568      0.11235560     -0.03924351     -0.00440923
BJAIP    1  Se1.017 In1.007 Se1.023 In1.010         2.75537687     -0.07408976      0.02688915     -0.00199221
BJAIP    1  Se1.017 In1.009 Se1.020 In1.010         2.22655945      0.06491893     -0.02915661     -0.00189282
BJAIP    1  Se1.014 In1.010 Se1.014 In1.010         1.18292382      0.02989779     -0.02527448     -0.00075565
BJAIM    1  Se1.014 In1.006 Se1.018 In1.008         2.62149400      0.07058430     -0.02692520     -0.00190050
BJAIM    1  Se1.014 In1.008 Se1.016 In1.009         2.01301656     -0.05591446      0.02777646     -0.00155311
BJAIM    1  Se1.014 In1.008 Se1.019 In1.010         2.03781249     -0.05380198      0.02640183     -0.00142047
BJAIM    1  Se1.014 In1.008 Se1.026 In1.010         3.07165864     -0.08224704      0.02677610     -0.00220225
--
 
   (Skipping property calculation,
    use PROP keyword to activate)
--
 
  Total CASPT2 energies:
::    CASPT2 Root  1     Total energy:   -224.99126245
 
  A NEW JOBIPH FILE NAMED 'JOBMIX' IS PREPARED.
********************************************************************************
--- Stop Module: caspt2 at Mon Nov 18 16:18:35 2024 /rc=_RC_ALL_IS_WELL_ ---
*** files: xmldump
    saved to directory /home/grierjones/DDCASPT2/ozone/ANO-RCC-VDZP/ozone_170.50

>>> EXPORT i = B

>>> EXPORT j = P

>>> IF (-FILE GMJ_e2_${i}_${j}.csv)

>>> COPY /tmp/ozone_170.50/GMJ_RHS_B_P.csv /home/grierjones/DDCASPT2/ozone/ANO-RCC-VDZP/ozone_170.50/GMJ_RHS_B_P.csv

>>> COPY /tmp/ozone_170.50/GMJ_IVECW_B_P.csv /home/grierjones/DDCASPT2/ozone/ANO-RCC-VDZP/ozone_170.50/GMJ_IVECW_B_P.csv

>>> COPY /tmp/ozone_170.50/GMJ_IVECX_B_P.csv /home/grierjones/DDCASPT2/ozone/ANO-RCC-VDZP/ozone_170.50/GMJ_IVECX_B_P.csv

>>> COPY /tmp/ozone_170.50/GMJ_IVECC2_B_P.csv /home/grierjones/DDCASPT2/ozone/ANO-RCC-VDZP/ozone_170.50/GMJ_IVECC2_B_P.csv

>>> COPY /tmp/ozone_170.50/GMJ_e2_B_P.csv /home/grierjones/DDCASPT2/ozone/ANO-RCC-VDZP/ozone_170.50/GMJ_e2_B_P.csv

>>> END FOREACH

>>> EXPORT j = M

>>> IF (-FILE GMJ_e2_${i}_${j}.csv)
(Skipped)

>>> END FOREACH

>>> END FOREACH

>>> EXPORT i = E

>>> EXPORT j = P

>>> IF (-FILE GMJ_e2_${i}_${j}.csv)

>>> COPY /tmp/ozone_170.50/GMJ_RHS_E_P.csv /home/grierjones/DDCASPT2/ozone/ANO-RCC-VDZP/ozone_170.50/GMJ_RHS_E_P.csv

>>> COPY /tmp/ozone_170.50/GMJ_IVECW_E_P.csv /home/grierjones/DDCASPT2/ozone/ANO-RCC-VDZP/ozone_170.50/GMJ_IVECW_E_P.csv

>>> COPY /tmp/ozone_170.50/GMJ_IVECX_E_P.csv /home/grierjones/DDCASPT2/ozone/ANO-RCC-VDZP/ozone_170.50/GMJ_IVECX_E_P.csv

>>> COPY /tmp/ozone_170.50/GMJ_IVECC2_E_P.csv /home/grierjones/DDCASPT2/ozone/ANO-RCC-VDZP/ozone_170.50/GMJ_IVECC2_E_P.csv

>>> COPY /tmp/ozone_170.50/GMJ_e2_E_P.csv /home/grierjones/DDCASPT2/ozone/ANO-RCC-VDZP/ozone_170.50/GMJ_e2_E_P.csv

>>> END FOREACH

>>> EXPORT j = M

>>> IF (-FILE GMJ_e2_${i}_${j}.csv)

>>> COPY /tmp/ozone_170.50/GMJ_RHS_E_M.csv /home/grierjones/DDCASPT2/ozone/ANO-RCC-VDZP/ozone_170.50/GMJ_RHS_E_M.csv

>>> COPY /tmp/ozone_170.50/GMJ_IVECW_E_M.csv /home/grierjones/DDCASPT2/ozone/ANO-RCC-VDZP/ozone_170.50/GMJ_IVECW_E_M.csv

>>> COPY /tmp/ozone_170.50/GMJ_IVECX_E_M.csv /home/grierjones/DDCASPT2/ozone/ANO-RCC-VDZP/ozone_170.50/GMJ_IVECX_E_M.csv

>>> COPY /tmp/ozone_170.50/GMJ_IVECC2_E_M.csv /home/grierjones/DDCASPT2/ozone/ANO-RCC-VDZP/ozone_170.50/GMJ_IVECC2_E_M.csv

>>> COPY /tmp/ozone_170.50/GMJ_e2_E_M.csv /home/grierjones/DDCASPT2/ozone/ANO-RCC-VDZP/ozone_170.50/GMJ_e2_E_M.csv

>>> END FOREACH

>>> END FOREACH

>>> EXPORT i = F

>>> EXPORT j = P

>>> IF (-FILE GMJ_e2_${i}_${j}.csv)

>>> COPY /tmp/ozone_170.50/GMJ_RHS_F_P.csv /home/grierjones/DDCASPT2/ozone/ANO-RCC-VDZP/ozone_170.50/GMJ_RHS_F_P.csv

>>> COPY /tmp/ozone_170.50/GMJ_IVECW_F_P.csv /home/grierjones/DDCASPT2/ozone/ANO-RCC-VDZP/ozone_170.50/GMJ_IVECW_F_P.csv

>>> COPY /tmp/ozone_170.50/GMJ_IVECX_F_P.csv /home/grierjones/DDCASPT2/ozone/ANO-RCC-VDZP/ozone_170.50/GMJ_IVECX_F_P.csv

>>> COPY /tmp/ozone_170.50/GMJ_IVECC2_F_P.csv /home/grierjones/DDCASPT2/ozone/ANO-RCC-VDZP/ozone_170.50/GMJ_IVECC2_F_P.csv

>>> COPY /tmp/ozone_170.50/GMJ_e2_F_P.csv /home/grierjones/DDCASPT2/ozone/ANO-RCC-VDZP/ozone_170.50/GMJ_e2_F_P.csv

>>> END FOREACH

>>> EXPORT j = M

>>> IF (-FILE GMJ_e2_${i}_${j}.csv)

>>> COPY /tmp/ozone_170.50/GMJ_RHS_F_M.csv /home/grierjones/DDCASPT2/ozone/ANO-RCC-VDZP/ozone_170.50/GMJ_RHS_F_M.csv

>>> COPY /tmp/ozone_170.50/GMJ_IVECW_F_M.csv /home/grierjones/DDCASPT2/ozone/ANO-RCC-VDZP/ozone_170.50/GMJ_IVECW_F_M.csv

>>> COPY /tmp/ozone_170.50/GMJ_IVECX_F_M.csv /home/grierjones/DDCASPT2/ozone/ANO-RCC-VDZP/ozone_170.50/GMJ_IVECX_F_M.csv

>>> COPY /tmp/ozone_170.50/GMJ_IVECC2_F_M.csv /home/grierjones/DDCASPT2/ozone/ANO-RCC-VDZP/ozone_170.50/GMJ_IVECC2_F_M.csv

>>> COPY /tmp/ozone_170.50/GMJ_e2_F_M.csv /home/grierjones/DDCASPT2/ozone/ANO-RCC-VDZP/ozone_170.50/GMJ_e2_F_M.csv

>>> END FOREACH

>>> END FOREACH

>>> EXPORT i = G

>>> EXPORT j = P

>>> IF (-FILE GMJ_e2_${i}_${j}.csv)

>>> COPY /tmp/ozone_170.50/GMJ_RHS_G_P.csv /home/grierjones/DDCASPT2/ozone/ANO-RCC-VDZP/ozone_170.50/GMJ_RHS_G_P.csv

>>> COPY /tmp/ozone_170.50/GMJ_IVECW_G_P.csv /home/grierjones/DDCASPT2/ozone/ANO-RCC-VDZP/ozone_170.50/GMJ_IVECW_G_P.csv

>>> COPY /tmp/ozone_170.50/GMJ_IVECX_G_P.csv /home/grierjones/DDCASPT2/ozone/ANO-RCC-VDZP/ozone_170.50/GMJ_IVECX_G_P.csv

>>> COPY /tmp/ozone_170.50/GMJ_IVECC2_G_P.csv /home/grierjones/DDCASPT2/ozone/ANO-RCC-VDZP/ozone_170.50/GMJ_IVECC2_G_P.csv

>>> COPY /tmp/ozone_170.50/GMJ_e2_G_P.csv /home/grierjones/DDCASPT2/ozone/ANO-RCC-VDZP/ozone_170.50/GMJ_e2_G_P.csv

>>> END FOREACH

>>> EXPORT j = M

>>> IF (-FILE GMJ_e2_${i}_${j}.csv)

>>> COPY /tmp/ozone_170.50/GMJ_RHS_G_M.csv /home/grierjones/DDCASPT2/ozone/ANO-RCC-VDZP/ozone_170.50/GMJ_RHS_G_M.csv

>>> COPY /tmp/ozone_170.50/GMJ_IVECW_G_M.csv /home/grierjones/DDCASPT2/ozone/ANO-RCC-VDZP/ozone_170.50/GMJ_IVECW_G_M.csv

>>> COPY /tmp/ozone_170.50/GMJ_IVECX_G_M.csv /home/grierjones/DDCASPT2/ozone/ANO-RCC-VDZP/ozone_170.50/GMJ_IVECX_G_M.csv

>>> COPY /tmp/ozone_170.50/GMJ_IVECC2_G_M.csv /home/grierjones/DDCASPT2/ozone/ANO-RCC-VDZP/ozone_170.50/GMJ_IVECC2_G_M.csv

>>> COPY /tmp/ozone_170.50/GMJ_e2_G_M.csv /home/grierjones/DDCASPT2/ozone/ANO-RCC-VDZP/ozone_170.50/GMJ_e2_G_M.csv

>>> END FOREACH

>>> END FOREACH

>>> EXPORT i = H

>>> EXPORT j = P

>>> IF (-FILE GMJ_e2_${i}_${j}.csv)

>>> COPY /tmp/ozone_170.50/GMJ_RHS_H_P.csv /home/grierjones/DDCASPT2/ozone/ANO-RCC-VDZP/ozone_170.50/GMJ_RHS_H_P.csv

>>> COPY /tmp/ozone_170.50/GMJ_IVECW_H_P.csv /home/grierjones/DDCASPT2/ozone/ANO-RCC-VDZP/ozone_170.50/GMJ_IVECW_H_P.csv

>>> COPY /tmp/ozone_170.50/GMJ_IVECX_H_P.csv /home/grierjones/DDCASPT2/ozone/ANO-RCC-VDZP/ozone_170.50/GMJ_IVECX_H_P.csv

>>> COPY /tmp/ozone_170.50/GMJ_IVECC2_H_P.csv /home/grierjones/DDCASPT2/ozone/ANO-RCC-VDZP/ozone_170.50/GMJ_IVECC2_H_P.csv

>>> COPY /tmp/ozone_170.50/GMJ_e2_H_P.csv /home/grierjones/DDCASPT2/ozone/ANO-RCC-VDZP/ozone_170.50/GMJ_e2_H_P.csv

>>> END FOREACH

>>> EXPORT j = M

>>> IF (-FILE GMJ_e2_${i}_${j}.csv)

>>> COPY /tmp/ozone_170.50/GMJ_RHS_H_M.csv /home/grierjones/DDCASPT2/ozone/ANO-RCC-VDZP/ozone_170.50/GMJ_RHS_H_M.csv

>>> COPY /tmp/ozone_170.50/GMJ_IVECW_H_M.csv /home/grierjones/DDCASPT2/ozone/ANO-RCC-VDZP/ozone_170.50/GMJ_IVECW_H_M.csv

>>> COPY /tmp/ozone_170.50/GMJ_IVECX_H_M.csv /home/grierjones/DDCASPT2/ozone/ANO-RCC-VDZP/ozone_170.50/GMJ_IVECX_H_M.csv

>>> COPY /tmp/ozone_170.50/GMJ_IVECC2_H_M.csv /home/grierjones/DDCASPT2/ozone/ANO-RCC-VDZP/ozone_170.50/GMJ_IVECC2_H_M.csv

>>> COPY /tmp/ozone_170.50/GMJ_e2_H_M.csv /home/grierjones/DDCASPT2/ozone/ANO-RCC-VDZP/ozone_170.50/GMJ_e2_H_M.csv

>>> END FOREACH

>>> END FOREACH

>>> EXPORT i = A

>>> IF (-FILE GMJ_e2_$i.csv)

>>> COPY /tmp/ozone_170.50/GMJ_RHS_A.csv /home/grierjones/DDCASPT2/ozone/ANO-RCC-VDZP/ozone_170.50/GMJ_RHS_A.csv

>>> COPY /tmp/ozone_170.50/GMJ_IVECW_A.csv /home/grierjones/DDCASPT2/ozone/ANO-RCC-VDZP/ozone_170.50/GMJ_IVECW_A.csv

>>> COPY /tmp/ozone_170.50/GMJ_IVECX_A.csv /home/grierjones/DDCASPT2/ozone/ANO-RCC-VDZP/ozone_170.50/GMJ_IVECX_A.csv

>>> COPY /tmp/ozone_170.50/GMJ_IVECC2_A.csv /home/grierjones/DDCASPT2/ozone/ANO-RCC-VDZP/ozone_170.50/GMJ_IVECC2_A.csv

>>> COPY /tmp/ozone_170.50/GMJ_e2_A.csv /home/grierjones/DDCASPT2/ozone/ANO-RCC-VDZP/ozone_170.50/GMJ_e2_A.csv

>>> END FOREACH

>>> EXPORT i = C

>>> IF (-FILE GMJ_e2_$i.csv)

>>> COPY /tmp/ozone_170.50/GMJ_RHS_C.csv /home/grierjones/DDCASPT2/ozone/ANO-RCC-VDZP/ozone_170.50/GMJ_RHS_C.csv

>>> COPY /tmp/ozone_170.50/GMJ_IVECW_C.csv /home/grierjones/DDCASPT2/ozone/ANO-RCC-VDZP/ozone_170.50/GMJ_IVECW_C.csv

>>> COPY /tmp/ozone_170.50/GMJ_IVECX_C.csv /home/grierjones/DDCASPT2/ozone/ANO-RCC-VDZP/ozone_170.50/GMJ_IVECX_C.csv

>>> COPY /tmp/ozone_170.50/GMJ_IVECC2_C.csv /home/grierjones/DDCASPT2/ozone/ANO-RCC-VDZP/ozone_170.50/GMJ_IVECC2_C.csv

>>> COPY /tmp/ozone_170.50/GMJ_e2_C.csv /home/grierjones/DDCASPT2/ozone/ANO-RCC-VDZP/ozone_170.50/GMJ_e2_C.csv

>>> END FOREACH

>>> EXPORT i = D

>>> IF (-FILE GMJ_e2_$i.csv)

>>> COPY /tmp/ozone_170.50/GMJ_RHS_D.csv /home/grierjones/DDCASPT2/ozone/ANO-RCC-VDZP/ozone_170.50/GMJ_RHS_D.csv

>>> COPY /tmp/ozone_170.50/GMJ_IVECW_D.csv /home/grierjones/DDCASPT2/ozone/ANO-RCC-VDZP/ozone_170.50/GMJ_IVECW_D.csv

>>> COPY /tmp/ozone_170.50/GMJ_IVECX_D.csv /home/grierjones/DDCASPT2/ozone/ANO-RCC-VDZP/ozone_170.50/GMJ_IVECX_D.csv

>>> COPY /tmp/ozone_170.50/GMJ_IVECC2_D.csv /home/grierjones/DDCASPT2/ozone/ANO-RCC-VDZP/ozone_170.50/GMJ_IVECC2_D.csv

>>> COPY /tmp/ozone_170.50/GMJ_e2_D.csv /home/grierjones/DDCASPT2/ozone/ANO-RCC-VDZP/ozone_170.50/GMJ_e2_D.csv

>>> END FOREACH

.########################.
.# Non-zero return code #.
.########################.

    Timing: Wall=2.55 User=1.75 System=0.79
********************************************
*** WorkDir at /tmp/ozone_170.50 cleaned ***
********************************************
