[Molden Format]
[N_Atoms]
                     2
[Atoms] (AU)
BE1         1      4           0.00000000      0.00000000      0.00000000
C2          2      6           0.00000000      0.00000000      2.45664396
[Charge] (Mulliken)
  0.344083203554180     
 -0.344083203554177     
[GTO] (AU)
   1
   s  14
  2.262859900E+04  8.443999941E-05
  3.372318100E+03  4.601499968E-04
  7.603504000E+02  2.285389984E-03
  2.117404800E+02  9.648129932E-03
  6.722346800E+01  3.494469975E-02
  2.337217700E+01  1.061099893E-01
  8.721373000E+00  2.458240383E-01
  3.468091000E+00  3.862428773E-01
  1.452144000E+00  3.105526078E-01
  6.086150000E-01  6.415933955E-02
  2.576860000E-01 -2.265049984E-03
  1.041760000E-01 -5.217499963E-04
  4.242700000E-02 -8.757499938E-04
  1.484900000E-02  1.242199991E-04
   s  14
  2.262859900E+04 -1.586999994E-05
  3.372318100E+03 -8.656999968E-05
  7.603504000E+02 -4.302199984E-04
  2.117404800E+02 -1.825079993E-03
  6.722346800E+01 -6.682749976E-03
  2.337217700E+01 -2.095119992E-02
  8.721373000E+00 -5.200308981E-02
  3.468091000E+00 -9.849176964E-02
  1.452144000E+00 -1.355800695E-01
  6.086150000E-01 -6.429875976E-02
  2.576860000E-01  3.125414989E-01
  1.041760000E-01  6.270468577E-01
  4.242700000E-02  2.110231492E-01
  1.484900000E-02 -4.104669985E-03
   p   9
  3.371018400E+01  1.069960000E-03
  8.057649500E+00  6.828550001E-03
  2.836471400E+00  2.119065000E-02
  1.099965700E+00  5.843696001E-02
  4.433964000E-01  2.020920800E-01
  1.822264000E-01  4.582953101E-01
  7.572410000E-02  3.691239601E-01
  3.168540000E-02  6.611471001E-02
  1.108990000E-02  1.405160000E-03
 
   2
   s  14
  5.055750100E+04  1.128874000E-04
  7.524785600E+03  5.295373000E-04
  1.694327600E+03  2.450038300E-03
  4.728227900E+02  1.005398470E-02
  1.517107500E+02  3.545398060E-02
  5.391874600E+01  1.044071086E-01
  2.065931100E+01  2.412894918E-01
  8.383976000E+00  3.834225483E-01
  3.577015000E+00  3.078514393E-01
  1.547118000E+00  6.872442990E-02
  6.130130000E-01  2.224445000E-04
  2.460680000E-01  1.976748900E-03
  9.908700000E-02  2.057859400E-03
  3.468000000E-02  4.182020000E-04
   s  14
  5.055750100E+04 -2.507420000E-05
  7.524785600E+03 -1.175945000E-04
  1.694327600E+03 -5.456275000E-04
  4.728227900E+02 -2.245077100E-03
  1.517107500E+02 -8.043471800E-03
  5.391874600E+01 -2.442588710E-02
  2.065931100E+01 -6.136791180E-02
  8.383976000E+00 -1.177767835E-01
  3.577015000E+00 -1.550487783E-01
  1.547118000E+00 -1.933316860E-02
  6.130130000E-01  3.996930678E-01
  2.460680000E-01  5.589420949E-01
  9.908700000E-02  1.711195023E-01
  3.468000000E-02  7.456244600E-03
   p   9
  8.333315500E+01  1.344656000E-03
  1.955761100E+01  1.023555500E-02
  6.080365000E+00  4.520067100E-02
  2.179317000E+00  1.410756198E-01
  8.651500000E-01  3.047388085E-01
  3.619440000E-01  3.995281011E-01
  1.547400000E-01  2.719163432E-01
  6.542900000E-02  5.857669330E-02
  2.290000000E-02 -1.263813000E-04
 
[MO]
Sym=     1a  
Ene=   -11.2560
Spin= Alpha
Occup=    2.00000
   1        -0.00067826
   2        -0.00268765
   3         0.00000000
   4        -0.00000000
   5        -0.00160667
   6         1.00041104
   7         0.00090071
   8        -0.00000000
   9         0.00000000
  10        -0.00143681
Sym=     2a  
Ene=    -4.7980
Spin= Alpha
Occup=    2.00000
   1        -0.99848219
   2        -0.00090235
   3        -0.00000000
   4         0.00000000
   5         0.00145507
   6         0.00154985
   7        -0.00653246
   8         0.00000000
   9        -0.00000000
  10         0.00444141
Sym=     3a  
Ene=    -0.7694
Spin= Alpha
Occup=    2.00000
   1        -0.12614902
   2         0.13572240
   3        -0.00000000
   4         0.00000000
   5         0.13896392
   6        -0.02624962
   7         0.81846511
   8         0.00000000
   9        -0.00000000
  10        -0.18213544
Sym=     4a  
Ene=    -0.3324
Spin= Alpha
Occup=    2.00000
   1        -0.00000000
   2         0.00000000
   3         0.46438337
   4        -0.01797846
   5         0.00000000
   6        -0.00000000
   7        -0.00000000
   8         0.70690007
   9        -0.02736742
  10        -0.00000000
Sym=     5a  
Ene=    -0.2567
Spin= Alpha
Occup=    1.53913
   1         0.00000000
   2        -0.00000000
   3         0.01636812
   4         0.42278842
   5         0.00000000
   6         0.00000000
   7         0.00000000
   8         0.02869712
   9         0.74124622
  10         0.00000000
Sym=     6a  
Ene=    -0.0018
Spin= Alpha
Occup=    0.46087
   1         0.08280593
   2        -0.50404922
   3         0.00000000
   4        -0.00000000
   5         0.00881914
   6         0.03859828
   7         0.49259615
   8        -0.00000000
   9        -0.00000000
  10         0.73288734
Sym=     7a  
Ene=     0.0243
Spin= Alpha
Occup=    0.00000
   1         0.08204661
   2         0.68062810
   3         0.00000000
   4        -0.00000000
   5        -0.66340254
   6         0.03003302
   7         0.10209866
   8        -0.00000000
   9         0.00000000
  10         0.51951451
Sym=     8a  
Ene=     0.2471
Spin= Alpha
Occup=    0.00000
   1         0.00000000
   2         0.00000000
   3        -1.00548127
   4         0.03892690
   5        -0.00000000
   6         0.00000000
   7         0.00000000
   8         0.85260588
   9        -0.03300838
  10         0.00000000
Sym=     9a  
Ene=     0.2522
Spin= Alpha
Occup=    0.00000
   1        -0.00000000
   2         0.00000000
   3        -0.03963096
   4        -1.02366715
   5         0.00000000
   6        -0.00000000
   7        -0.00000000
   8         0.03185912
   9         0.82292073
  10        -0.00000000
Sym=    10a  
Ene=     0.5806
Spin= Alpha
Occup=    0.00000
   1         0.32502112
   2         1.40307922
   3         0.00000000
   4         0.00000000
   5         1.43209511
   6        -0.28863841
   7        -1.68858760
   8         0.00000000
   9        -0.00000000
  10         0.80319182
