[Molden Format]
[N_Atoms]
                     2
[Atoms] (AU)
B1          1      5           0.00000000      0.00000000      0.00000000
F2          2      9           0.00000000      0.00000000      5.10226054
[Charge] (Mulliken)
   1.92864704256131     
  7.135295743864489E-002
[GTO] (AU)
   1
   s  14
  3.336021700E+04  1.039699991E-04
  4.972095200E+03  5.254399956E-04
  1.125641700E+03  2.509059979E-03
  3.164913600E+02  1.031887991E-02
  1.020072600E+02  3.636632969E-02
  3.629587300E+01  1.064607991E-01
  1.397141000E+01  2.403999880E-01
  5.741156000E+00  3.748581168E-01
  2.494268000E+00  3.100066974E-01
  1.114202000E+00  7.922455933E-02
  4.215490000E-01 -4.947589958E-03
  1.696330000E-01 -7.737119935E-03
  6.853500000E-02 -1.501079987E-03
  2.398700000E-02 -1.333299989E-04
   s  14
  3.336021700E+04 -2.030000008E-05
  4.972095200E+03 -1.025700004E-04
  1.125641700E+03 -4.911300020E-04
  3.164913600E+02 -2.026570008E-03
  1.020072600E+02 -7.261010030E-03
  3.629587300E+01 -2.197722009E-02
  1.397141000E+01 -5.408428022E-02
  5.741156000E+00 -1.022402604E-01
  2.494268000E+00 -1.423595206E-01
  1.114202000E+00 -4.658690019E-02
  4.215490000E-01  3.799402916E-01
  1.696330000E-01  5.890463624E-01
  6.853500000E-02  1.749075107E-01
  2.398700000E-02 -1.142030005E-03
   p   9
  5.500000000E+01  1.229800005E-03
  1.336610100E+01  8.827380035E-03
  4.135394000E+00  3.843340015E-02
  1.481256000E+00  1.150031805E-01
  6.021360000E-01  2.733674011E-01
  2.556360000E-01  4.061972116E-01
  1.111510000E-01  3.014967912E-01
  4.764800000E-02  7.684809030E-02
  1.667700000E-02 -8.170000032E-06
 
   2
   s  14
  1.031094600E+05  1.713099991E-04
  1.528100700E+04  7.123999962E-04
  3.441539200E+03  2.990479984E-03
  9.670948300E+02  1.164036994E-02
  3.140353400E+02  3.968642979E-02
  1.134423000E+02  1.128546094E-01
  4.464472700E+01  2.473650687E-01
  1.894287400E+01  3.672702681E-01
  8.532743000E+00  2.896286985E-01
  3.919401000E+00  7.786681959E-02
  1.568157000E+00  4.562139976E-03
  6.232900000E-01  2.468879987E-03
  2.408610000E-01  1.106309994E-03
  8.430100000E-02  1.739699991E-04
   s  14
  1.031094600E+05 -4.044999995E-05
  1.528100700E+04 -1.682299998E-04
  3.441539200E+03 -7.084299991E-04
  9.670948300E+02 -2.767999996E-03
  3.140353400E+02 -9.611379987E-03
  1.134423000E+02 -2.833957996E-02
  4.464472700E+01 -6.839343991E-02
  1.894287400E+01 -1.237379298E-01
  8.532743000E+00 -1.512859698E-01
  3.919401000E+00 -9.099909988E-03
  1.568157000E+00  3.716257695E-01
  6.232900000E-01  5.500214393E-01
  2.408610000E-01  2.092318697E-01
  8.430100000E-02  8.074639989E-03
   p   9
  2.453302900E+02  1.024860004E-03
  5.691900500E+01  8.344290032E-03
  1.760456800E+01  4.078927016E-02
  6.274995000E+00  1.351370605E-01
  2.447030000E+00  2.798830811E-01
  9.950600000E-01  3.597966414E-01
  4.039730000E-01  3.055347412E-01
  1.548100000E-01  1.354703905E-01
  5.418400000E-02  2.804449011E-02
 
[MO]
Sym=     1a  
Ene=   -26.9260
Spin= Alpha
Occup=    2.00000
   1        -0.00000256
   2        -0.00008516
   3        -0.00000000
   4         0.00000000
   5        -0.00006411
   6         0.99999456
   7        -0.00349265
   8        -0.00000000
   9         0.00000000
  10        -0.00020658
Sym=     2a  
Ene=    -8.8684
Spin= Alpha
Occup=    2.00000
   1         0.99992759
   2         0.01205172
   3        -0.00000000
   4         0.00000000
   5         0.00004764
   6        -0.00000367
   7        -0.00000814
   8         0.00000000
   9        -0.00000000
  10         0.00004590
Sym=     3a  
Ene=    -2.0440
Spin= Alpha
Occup=    2.00000
   1        -0.00064119
   2         0.00261250
   3        -0.00000000
   4         0.00000000
   5         0.00520915
   6         0.00344216
   7         0.99821333
   8         0.00000000
   9        -0.00000000
  10        -0.04811542
Sym=     4a  
Ene=    -1.1692
Spin= Alpha
Occup=    2.00000
   1         0.00608400
   2        -0.13620844
   3         0.00000002
   4        -0.00000000
   5        -0.09888082
   6         0.00145762
   7         0.06325896
   8         0.00000297
   9        -0.00000011
  10         0.96374956
Sym=     5a  
Ene=    -1.1640
Spin= Alpha
Occup=    2.00000
   1        -0.00000000
   2         0.00000000
   3         0.00024699
   4         0.00690046
   5         0.00000000
   6        -0.00000000
   7         0.00000000
   8         0.03576015
   9         0.99908576
  10         0.00000000
Sym=     6a  
Ene=    -0.9601
Spin= Alpha
Occup=    1.00000
   1        -0.00779366
   2         0.70225396
   3        -0.00297299
   4         0.00010641
   5        -0.03837262
   6        -0.00150394
   7        -0.02141238
   8         0.70675623
   9        -0.02529684
  10         0.14201341
Sym=     7a  
Ene=    -0.0034
Spin= Alpha
Occup=    1.00000
   1         0.00779364
   2        -0.70225397
   3        -0.00297308
   4         0.00010642
   5         0.03837282
   6         0.00150394
   7         0.02141215
   8         0.70675566
   9        -0.02529682
  10        -0.14201763
Sym=     8a  
Ene=    -0.6883
Spin= Alpha
Occup=    0.00000
   1         0.00000000
   2        -0.00000004
   3         1.00001032
   4        -0.03579325
   5         0.00000031
   6        -0.00000000
   7        -0.00000002
   8        -0.03209949
   9         0.00114893
  10         0.00000002
Sym=     9a  
Ene=    -0.6879
Spin= Alpha
Occup=    0.00000
   1         0.00000000
   2        -0.00000000
   3        -0.03579271
   4        -0.99999535
   5         0.00000000
   6        -0.00000000
   7        -0.00000000
   8         0.00154613
   9         0.04319659
  10        -0.00000000
Sym=    10a  
Ene=    -0.6834
Spin= Alpha
Occup=    0.00000
   1        -0.00036013
   2        -0.05236373
   3         0.00000030
   4        -0.00000001
   5        -1.00359691
   6         0.00765263
   7         0.09191449
   8        -0.00000018
   9         0.00000001
  10        -0.21540236
