********************************************
*** WorkDir at /tmp/ozone_171.00 cleaned ***
********************************************
   This run of MOLCAS is using the pymolcas driver

                             OPE
                             OPE          NMOL  CASOP  ENMOLC A   SO
                 OPE        NMOLC        AS  OP EN  MO LC     AS  OP
                OPENM       OL CA        SO  PE NM  OL CA     SOP EN
                OP EN      MO   LC       AS  OP ENMOL  CASO   PENMOL
                OP  EN     MO   LC       AS  OP EN     MO     LC ASO
               OP   E  NMOL  C  AS       OP  EN MO     LC     AS  OP
               OP  E   NMO   LC AS        OPEN  MO     LCASOP EN   M
               O  PEN   MO  LCA  SO
            OPE   NMO   L   CAS    OP
        OPENMOL  CASOP     ENMOL   CASOPE
     OPENMOLCA   SOPENMOLCASOPEN   MOLCASOPE
    OPENMOLCAS   OP           EN   MOL    CAS
    OPENMOLCAS       OP  ENM        O     LCA
    OPENMOLCAS    OPEN  MOLCASO     P  E  NMO
    OPENMOLCAS     OP               E  N  MOL
    OPENMOLCA   SO           PENM   O  L  CAS    OPEN    MO    LCAS
    OPENMOLCA   SOP           ENM   O  L  CAS   OP  EN  MOLC  AS   O
    OPENMOLCA   SOPE           NM      O  LCA   S      OP  EN MO
    OPENMOLC                AS         O  PEN   M      OL  CA  SOPE
    OPENMO        LCASOPE  NMOL        C  ASO   P      ENMOLC     AS
    OPE     NMO      LCA  SO     P     E   NM   OL  CA SO  PE N   MO
          OPENMOLCA            SOPE   NMO        LCAS  O    P  ENMO
     OPENMOLCASOPENMOLCASOPENMOLCASOPENMOLCA
        OPENMOLCASOPENMOLCASOPENMOLCASOPE
            OPENMOLCASOPENMOLCASOPENM
               OPENMOLCASOPENMOLCA        version: f37762c57
                   OPENMOLCASO
                       OPE                tag:

 OpenMolcas is free software; you can redistribute it and/or modify it
 under the terms of the GNU Lesser General Public License version 2.1.
 OpenMolcas is distributed in the hope that it will be useful, but it
 is provided "as is" and without any express or implied warranties.
 For more details see the full text of the license in the file
 LICENSE or in <http://www.gnu.org/licenses/>.

                 Copyright (C) The OpenMolcas Authors
           For the author list and the recommended citation,
                   consult the file CONTRIBUTORS.md

           *************************************************
           * pymolcas version py2.28                       *
           *   build c4a6d18ded8cb6cad61d2372a9abd97c      *
           *   (after the EMIL interpreter by V. Veryazov) *
           *************************************************

configuration info
------------------
C Compiler ID: Intel
C flags: -std=gnu99 -gcc-sys
Fortran Compiler ID: IntelLLVM
Fortran flags: -standard-semantics -fltconsistency -fpp -i8 -heap-arrays
Definitions: _MOLCAS_;_I8_;_LINUX_
Parallel: OFF (GA=OFF)


   -------------------------------------------------------------------------------------------
  |
  |              Project: ozone_171.00
  |       Submitted from: /home/grierjones/DDCASPT2/ozone/multistate/ANO-RCC-VTZP/ozone_171.00
  |         Scratch area: /tmp/ozone_171.00
  |      Save outputs to: /home/grierjones/DDCASPT2/ozone/multistate/ANO-RCC-VTZP/ozone_171.00
  |               Molcas: /home/grierjones/Test/build
  |
  | Scratch area is empty
  |
  |       MOLCAS_DRIVER = /usr/local/pymolcas
  | MOLCAS_KEEP_WORKDIR = NO
  |  MOLCAS_NEW_WORKDIR = YES
  |       MOLCAS_NPROCS = 1
  |        MOLCAS_PRINT = NORMAL
  |       MOLCAS_SOURCE = /home/grierjones/Test
  |    MOLCAS_STRUCTURE = 0
  |      MOLCAS_THREADS = -1
  |
   -------------------------------------------------------------------------------------------

++ ---------   Input file   ---------

&GATEWAY
coord=ozone_171.00.xyz
Basis = ANO-RCC-VTZP
Group = nosymm
End of Input

&SEWARD
End of Input

&SCF
FileOrb
/home/grierjones/DDCASPT2/ozone/multistate/ANO-RCC-VTZP/ozone_170.00/ozone_170.00.ScfOrb

>>> COPY $WorkDir/ozone_171.00.scf.h5 $CurrDir/

&RASSCF
Title= RASSCF
ITERation
200 100
CIMX
200
SDAV
500
FileOrb
/home/grierjones/DDCASPT2/ozone/multistate/ANO-RCC-VTZP/ozone_170.00/ozone_170.00.RasOrb
CIROOT
3 3 1
NACTEL
12 0 0
Inactive
6
RAS2
9
Symmetry
1
Spin
1
orblisting
all

>>> COPY $WorkDir/ozone_171.00.rasscf.h5 $CurrDir/

>>> COPY $WorkDir/GMJ_Fock_MO.csv $CurrDir/ozone_171.00.GMJ_Fock_MO.csv

&MOTRA
Frozen=0
LUMORB

>>> COPY $WorkDir/GMJ_one_int_indx.csv $CurrDir/ozone_171.00.GMJ_one_int_indx.csv

>>> COPY $WorkDir/GMJ_one_int.csv $CurrDir/ozone_171.00.GMJ_one_int.csv

>>> COPY $WorkDir/GMJ_two_int_indx.csv $CurrDir/ozone_171.00.GMJ_two_int_indx.csv

>>> COPY $WorkDir/GMJ_two_int.csv $CurrDir/ozone_171.00.GMJ_two_int.csv

&CASPT2

Multistate
ALL

Frozen
0

MAXITER
50

>>> FOREACH k IN (1,2,3)

  >>> FOREACH i IN (B,E,F,G,H)

    >>> FOREACH j IN (P,M)

      >>> IF (-FILE GMJ_e2_${i}_${j}_${k}_.csv)

        >>> COPY $WorkDir/GMJ_RHS_${i}_${j}_${k}_.csv $CurrDir/GMJ_RHS_${i}_${j}_${k}_.csv

        >>> COPY $WorkDir/GMJ_IVECW_${i}_${j}_${k}_.csv $CurrDir/GMJ_IVECW_${i}_${j}_${k}_.csv

        >>> COPY $WorkDir/GMJ_IVECX_${i}_${j}_${k}_.csv $CurrDir/GMJ_IVECX_${i}_${j}_${k}_.csv

        >>> COPY $WorkDir/GMJ_IVECC2_${i}_${j}_${k}_.csv $CurrDir/GMJ_IVECC2_${i}_${j}_${k}_.csv

        >>> COPY $WorkDir/GMJ_e2_${i}_${j}_${k}_.csv $CurrDir/GMJ_e2_${i}_${j}_${k}_.csv

      >>> END IF

    >>> END FOREACH

  >>> END FOREACH

>>> END FOREACH

>>> FOREACH j IN (1,2,3)

  >>> FOREACH i IN (A,C,D)

    >>> IF (-FILE GMJ_e2_${i}_${j}_.csv)

      >>> COPY $WorkDir/GMJ_RHS_${i}_${j}_.csv $CurrDir/GMJ_RHS_${i}_${j}_.csv

      >>> COPY $WorkDir/GMJ_IVECW_${i}_${j}_.csv $CurrDir/GMJ_IVECW_${i}_${j}_.csv

      >>> COPY $WorkDir/GMJ_IVECX_${i}_${j}_.csv $CurrDir/GMJ_IVECX_${i}_${j}_.csv

      >>> COPY $WorkDir/GMJ_IVECC2_${i}_${j}_.csv $CurrDir/GMJ_IVECC2_${i}_${j}_.csv

      >>> COPY $WorkDir/GMJ_e2_${i}_${j}_.csv $CurrDir/GMJ_e2_${i}_${j}_.csv

    >>> END IF

  >>> END FOREACH

>>> END FOREACH

-- ----------------------------------

--- Start Module: gateway at Fri Apr 25 11:12:00 2025 ---
 
()()()()()()()()()()()()()()()()()()()()()()()()()()()()()()()()()()()()()()()()()()()()()()()()()()

                                              &GATEWAY

                                   only a single process is used
                       available to each process: 2.0 GB of memory, 1 thread?
()()()()()()()()()()()()()()()()()()()()()()()()()()()()()()()()()()()()()()()()()()()()()()()()()()
 
 
++    Symmetry information:
      ---------------------
 
                    Character Table for C1 
 
                             E  
                    a        1  x, y, xy, Rz, z, xz, Ry, yz, Rx, I
--
 
 
++    Basis set information:
      ----------------------
 
 
      Basis set label: O.ANO-RCC...4S3P2D1F.
 
      Electronic valence basis set:
      ------------------
      Associated Effective Charge   8.000000 au
      Associated Actual Charge      8.000000 au
      Nuclear Model: Point charge
 
      Shell  nPrim  nBasis  Cartesian Spherical Contaminant
         s      14       4        X                  
         p       9       3        X                  
         d       4       2                 X         
         f       3       1                 X         
--
 
 
++    Molecular structure info:
      -------------------------
 
                    ************************************************ 
                    **** Cartesian Coordinates / Bohr, Angstrom **** 
                    ************************************************ 
 
     Center  Label                x              y              z                     x              y              z
        1      O1               0.189485       2.407624       0.000000              0.100271       1.274060       0.000000
        2      O2               0.000000       0.000000       0.000000              0.000000       0.000000       0.000000
        3      O3               0.189485      -2.407624       0.000000              0.100271      -1.274060       0.000000
 
                    *************************************** 
                    *    InterNuclear Distances / Bohr    * 
                    *************************************** 
 
               1 O1            2 O2            3 O3    
    1 O1       0.000000
    2 O2       2.415069        0.000000
    3 O3       4.815249        2.415069        0.000000
 
                    ******************************************* 
                    *    InterNuclear Distances / Angstrom    * 
                    ******************************************* 
 
               1 O1            2 O2            3 O3    
    1 O1       0.000000
    2 O2       1.278000        0.000000
    3 O3       2.548120        1.278000        0.000000
 
                    ************************************** 
                    *    Valence Bond Angles / Degree    * 
                    ************************************** 
                          Atom centers                 Phi
                      1 O1       2 O2       3 O3       171.00
--
 
 
            Nuclear Potential Energy             66.29165740 au
 
--- Stop Module: gateway at Fri Apr 25 11:12:00 2025 /rc=_RC_ALL_IS_WELL_ ---
*** files: xmldump
    saved to directory /home/grierjones/DDCASPT2/ozone/multistate/ANO-RCC-VTZP/ozone_171.00

--- Start Module: seward at Fri Apr 25 11:12:00 2025 ---
 
()()()()()()()()()()()()()()()()()()()()()()()()()()()()()()()()()()()()()()()()()()()()()()()()()()

                                              &SEWARD

                                   only a single process is used
                       available to each process: 2.0 GB of memory, 1 thread?
()()()()()()()()()()()()()()()()()()()()()()()()()()()()()()()()()()()()()()()()()()()()()()()()()()
 
               SEWARD will generate:
                  Multipole Moment integrals up to order  2
                  Kinetic Energy integrals
                  Nuclear Attraction integrals (point charge)
                  One-Electron Hamiltonian integrals
                  Velocity integrals
                  Relativistic Douglas-Kroll-Hess integrals:
                    - Parametrization         : EXP
                    - DKH order of Hamiltonian: 2
                    - DKH order of Properties : 0
                         - multipole moment operators
                         - electric potential operators
                         - contact operators
                  Atomic mean-field integrals
                  Two-Electron Repulsion integrals
 
                   Integrals are discarded if absolute value <: 0.10E-13
                   Integral cutoff threshold is set to       <: 0.10E-15
 
            Nuclear Potential Energy             66.29165740 au
 
 
      Basis set specifications :
      Symmetry species         a  
      Basis functions           90
 
 
  Input file to MOLDEN was generated!
 
forrtl: warning (525): IEEE_DIVIDE_BY_ZERO is signaling
forrtl: warning (526): IEEE_INVALID is signaling
forrtl: warning (528): IEEE_UNDERFLOW is signaling
--- Stop Module: seward at Fri Apr 25 11:12:03 2025 /rc=_RC_ALL_IS_WELL_ ---
*** files: ozone_171.00.GssOrb ozone_171.00.guessorb.h5 ozone_171.00.guessorb.molden xmldump
    saved to directory /home/grierjones/DDCASPT2/ozone/multistate/ANO-RCC-VTZP/ozone_171.00
--- Module seward spent 2 seconds ---

*** symbolic link created: INPORB -> ozone_171.00.GssOrb
--- Start Module: scf at Fri Apr 25 11:12:03 2025 ---
 
()()()()()()()()()()()()()()()()()()()()()()()()()()()()()()()()()()()()()()()()()()()()()()()()()()

                                                &SCF

                                   only a single process is used
                       available to each process: 2.0 GB of memory, 1 thread?
()()()()()()()()()()()()()()()()()()()()()()()()()()()()()()()()()()()()()()()()()()()()()()()()()()
 
++    Input section:
      --------------
 
      Header of the integral files:
      
       Integrals generated by seward 4.2.0  , Fri Apr 25 11:12:00 2025
 
 
      Cartesian coordinates in Angstrom:
      -----------------------------------------------------
      No.  Label        X            Y            Z        
      -----------------------------------------------------
       1   O1         0.10027100   1.27406000   0.00000000
       2   O2         0.00000000   0.00000000   0.00000000
       3   O3         0.10027100  -1.27406000   0.00000000
      -----------------------------------------------------
      Nuclear repulsion energy =   66.29165740
--
 
++    Orbital specifications:
      -----------------------
 
      Symmetry species               1
                                     a
      Frozen orbitals                0
      Occupied orbitals             12
      Secondary orbitals            78
      Deleted orbitals               0
      Total number of orbitals      90
      Number of basis functions     90
--
 
      Molecular charge                           0.000
 
++    Optimization specifications:
      ----------------------------
 
      SCF Algorithm: Conventional
      Minimized density differences are used
      Number of density matrices in core                5
      Maximum number of NDDO SCF iterations           400
      Maximum number of HF SCF iterations             400
      Threshold for SCF energy change            0.10E-08
      Threshold for density matrix               0.10E-03
      Threshold for Fock matrix                  0.15E-03
      Threshold for linear dependence            0.10E-08
      Threshold at which DIIS is turned on       0.15E+00
      Threshold at which QNR/C2DIIS is turned on 0.75E-01
      Threshold for Norm(delta) (QNR/C2DIIS)     0.20E-04
      DIIS extrapolation of the SCF procedure
      All orbitals punched on: SCFORB
--
 
      Input vectors read from INPORB
      Orbital file label: * SCF orbitals
 
 
++ Convergence information
                                   SCF        iterations: Energy and convergence statistics
 
Iter     Tot. SCF        One-elec.       Two-elec.     Energy      Max Dij or  Max Fij      DNorm      TNorm      AccCon     Time
         Energy          Energy          Energy        Change      Delta Norm                                                in Sec.
   1  -224.407850504  -440.339886183   149.640378280   0.00E+00    0.64E-02*   0.31E-02*    0.75E+01   0.11E+03   None         0.
   2  -224.407967158  -440.339811714   149.640187156  -0.12E-03*   0.33E-02*   0.16E-02*    0.36E-01   0.11E+03   EDIIS        0.
   3  -224.407987902  -440.341427333   149.641782030  -0.21E-04*   0.83E-03*   0.14E-02*    0.47E-02   0.11E+03   c2DIIS       0.
   4  -224.407994705  -440.341622141   149.641970036  -0.68E-05*   0.40E-03*   0.20E-03*    0.17E-02   0.11E+03   QNRc2DIIS    0.
   5  -224.407995108  -440.342149314   149.642496806  -0.40E-06*   0.12E-02*   0.15E-03*    0.71E-03   0.11E+03   QNRc2DIIS    0.
   6  -224.407995549  -440.341564501   149.641911552  -0.44E-06*   0.14E-03*   0.90E-04     0.11E-02   0.11E+03   QNRc2DIIS    0.
   7  -224.407995575  -440.342271563   149.642618588  -0.26E-07*   0.60E-04*   0.41E-04     0.31E-03   0.11E+03   QNRc2DIIS    0.
   8  -224.407995586  -440.342129663   149.642476677  -0.12E-07*   0.46E-04*   0.11E-04     0.55E-04   0.11E+03   QNRc2DIIS    0.
   9  -224.407995588  -440.342029788   149.642376800  -0.20E-08*   0.17E-04    0.40E-05     0.60E-04   0.11E+03   QNRc2DIIS    0.
  10  -224.407995588  -440.342102703   149.642449715  -0.72E-10    0.66E-05    0.46E-05     0.83E-04   0.11E+03   QNRc2DIIS    0.
 
       Convergence after 10 Macro Iterations
--
 
 *****************************************************************************************************************************
 *                                                                                                                           *
 *                                             SCF/KS-DFT Program, Final results                                             *
 *                                                                                                                           *
 *                                                                                                                           *
 *                                                                                                                           *
 *                                                       Final Results                                                       *
 *                                                                                                                           *
 *****************************************************************************************************************************
 
::    Total SCF energy                               -224.4079955882
      One-electron energy                            -440.3421027033
      Two-electron energy                             149.6424497151
      Nuclear repulsion energy                         66.2916574001
      Kinetic energy (interpolated)                   225.2902534841
      Virial theorem                                    0.9960839056
      Total spin, S(S+1)                                0.0000000000
      Total spin, S                                     0.0000000000
      Max non-diagonal density matrix element           0.0000086913
      Max non-diagonal Fock matrix element              0.0000025001
 
 
      All orbitals with orbital energies smaller than  E(LUMO)+0.5 are printed
 
++    Molecular orbitals:
      -------------------
 
      Title: SCF orbitals

      Molecular orbitals for symmetry species 1: a  
 
          Orbital            1         2         3         4         5         6         7         8         9        10    
          Energy          -20.8572  -20.7408  -20.7407   -1.6997   -1.4631   -1.0568   -0.8367   -0.7815   -0.7486   -0.6186
          Occ. No.          2.0000    2.0000    2.0000    2.0000    2.0000    2.0000    2.0000    2.0000    2.0000    2.0000
 
        1 O1     1s         0.0025   -0.8813    0.4699   -0.0126    0.0126    0.0148   -0.0022   -0.0258    0.0000    0.0039
        2 O1     2s         0.0007    0.0077   -0.0039    0.3487   -0.5581    0.6569   -0.0485   -0.4493    0.0000    0.0463
        3 O1     3s         0.0003    0.0054   -0.0026   -0.0096    0.0217    0.0240   -0.0028   -0.0557   -0.0000    0.0077
        4 O1     4s         0.0000    0.0011   -0.0005   -0.0003    0.0040    0.0042   -0.0006   -0.0116   -0.0000    0.0017
        5 O1     2px       -0.0001   -0.0003    0.0002   -0.0074    0.0114    0.0243    0.3438   -0.0967   -0.0000   -0.6941
        6 O1     3px       -0.0002   -0.0003    0.0001    0.0038   -0.0019   -0.0044   -0.0256    0.0074    0.0000    0.0105
        7 O1     4px       -0.0001    0.0001   -0.0001    0.0009    0.0004    0.0001   -0.0004    0.0002    0.0000    0.0054
        8 O1     2py       -0.0005   -0.0035    0.0022   -0.1148    0.0872    0.1796   -0.0622   -0.3972    0.0000    0.0926
        9 O1     3py       -0.0002   -0.0034    0.0021    0.0117   -0.0202   -0.0288    0.0052    0.0483   -0.0000   -0.0029
       10 O1     4py        0.0001    0.0021   -0.0011    0.0010   -0.0032    0.0006    0.0011    0.0041   -0.0000   -0.0009
       11 O1     2pz        0.0000    0.0000    0.0000   -0.0000    0.0000    0.0000    0.0000    0.0000    0.4288   -0.0000
       12 O1     3pz        0.0000   -0.0000   -0.0000   -0.0000   -0.0000    0.0000   -0.0000    0.0000   -0.0146   -0.0000
       13 O1     4pz        0.0000    0.0000   -0.0000   -0.0000    0.0000    0.0000   -0.0000   -0.0000   -0.0067    0.0000
       14 O1     3d2-      -0.0000    0.0002   -0.0001    0.0022   -0.0023   -0.0025   -0.0211    0.0049    0.0000    0.0130
       15 O1     4d2-      -0.0000    0.0001   -0.0001    0.0000   -0.0002   -0.0000   -0.0017    0.0001    0.0000    0.0008
       16 O1     3d1-      -0.0000    0.0000    0.0000    0.0000    0.0000   -0.0000    0.0000   -0.0000   -0.0321    0.0000
       17 O1     4d1-       0.0000    0.0000    0.0000    0.0000    0.0000    0.0000    0.0000   -0.0000   -0.0057    0.0000
       18 O1     3d0       -0.0001   -0.0007    0.0005   -0.0102    0.0081    0.0075   -0.0024   -0.0154   -0.0000    0.0028
       19 O1     4d0       -0.0000   -0.0005    0.0003   -0.0010    0.0006    0.0005   -0.0004   -0.0010   -0.0000    0.0005
       20 O1     3d1+       0.0000   -0.0000    0.0000   -0.0000   -0.0000   -0.0000   -0.0000    0.0000   -0.0019   -0.0000
       21 O1     4d1+       0.0000    0.0000    0.0000    0.0000    0.0000    0.0000    0.0000   -0.0000   -0.0003    0.0000
       22 O1     3d2+      -0.0002   -0.0016    0.0010   -0.0203    0.0149    0.0168   -0.0064   -0.0291   -0.0000    0.0060
       23 O1     4d2+      -0.0001   -0.0008    0.0005   -0.0029    0.0017    0.0017   -0.0007   -0.0021   -0.0000    0.0007
       24 O1     4f3-       0.0001    0.0003   -0.0001    0.0059   -0.0051   -0.0033    0.0019    0.0068    0.0000   -0.0019
       25 O1     4f2-       0.0000    0.0000   -0.0000   -0.0000    0.0000    0.0000   -0.0000   -0.0000    0.0007    0.0000
       26 O1     4f1-       0.0000    0.0002   -0.0001    0.0034   -0.0029   -0.0022    0.0006    0.0042    0.0000   -0.0007
       27 O1     4f0       -0.0000   -0.0000    0.0000   -0.0000   -0.0000    0.0000   -0.0000   -0.0000   -0.0037   -0.0000
       28 O1     4f1+      -0.0000    0.0000   -0.0000    0.0002   -0.0002   -0.0002   -0.0006    0.0002   -0.0000   -0.0005
       29 O1     4f2+      -0.0000   -0.0000    0.0000   -0.0000   -0.0000   -0.0000   -0.0000   -0.0000   -0.0071    0.0000
       30 O1     4f3+      -0.0000    0.0001   -0.0000    0.0011   -0.0010   -0.0009   -0.0072    0.0018    0.0000    0.0061
       31 O2     1s         0.9998    0.0005   -0.0015   -0.0286   -0.0000   -0.0148   -0.0015   -0.0000   -0.0000   -0.0000
       32 O2     2s        -0.0012   -0.0036    0.0119    0.6232    0.0000   -0.6290   -0.0149   -0.0000   -0.0000   -0.0000
       33 O2     3s        -0.0014   -0.0021    0.0067   -0.0667   -0.0000   -0.0241   -0.0018   -0.0000   -0.0000   -0.0000
       34 O2     4s        -0.0001   -0.0003    0.0010   -0.0126   -0.0000   -0.0042   -0.0012   -0.0000   -0.0000   -0.0000
       35 O2     2px        0.0003   -0.0002    0.0007    0.0221    0.0000    0.0470    0.7366    0.0000   -0.0000    0.0000
       36 O2     3px       -0.0001   -0.0001    0.0004   -0.0099   -0.0000   -0.0054   -0.0779    0.0000   -0.0000    0.0000
       37 O2     4px        0.0006    0.0000   -0.0001   -0.0022   -0.0000    0.0009   -0.0108    0.0000   -0.0000   -0.0000
       38 O2     2py        0.0000   -0.0074   -0.0022    0.0000   -0.3382   -0.0000    0.0000    0.5705   -0.0000   -0.0711
       39 O2     3py        0.0000   -0.0050   -0.0015   -0.0000    0.0638    0.0000   -0.0000   -0.0491    0.0000   -0.0020
       40 O2     4py       -0.0000    0.0013    0.0004   -0.0000    0.0002    0.0000   -0.0000   -0.0125    0.0000    0.0010
       41 O2     2pz        0.0000   -0.0000   -0.0000   -0.0000   -0.0000   -0.0000    0.0000    0.0000    0.6206    0.0000
       42 O2     3pz       -0.0000   -0.0000   -0.0000    0.0000   -0.0000   -0.0000    0.0000   -0.0000   -0.0390    0.0000
       43 O2     4pz       -0.0000   -0.0000   -0.0000    0.0000   -0.0000   -0.0000    0.0000   -0.0000   -0.0193   -0.0000
       44 O2     3d2-       0.0000   -0.0004   -0.0001    0.0000   -0.0098   -0.0000    0.0000    0.0067   -0.0000   -0.0402
       45 O2     4d2-       0.0000   -0.0002   -0.0001    0.0000   -0.0011   -0.0000    0.0000    0.0007    0.0000   -0.0062
       46 O2     3d1-      -0.0000   -0.0000   -0.0000   -0.0000   -0.0000    0.0000   -0.0000    0.0000    0.0000   -0.0000
       47 O2     4d1-      -0.0000   -0.0000   -0.0000   -0.0000   -0.0000   -0.0000   -0.0000    0.0000    0.0000    0.0000
       48 O2     3d0       -0.0002    0.0003   -0.0011   -0.0146   -0.0000    0.0011   -0.0052    0.0000   -0.0000   -0.0000
       49 O2     4d0        0.0002    0.0002   -0.0006    0.0004   -0.0000    0.0011   -0.0006    0.0000   -0.0000   -0.0000
       50 O2     3d1+       0.0000   -0.0000   -0.0000   -0.0000   -0.0000    0.0000    0.0000    0.0000    0.0081   -0.0000
       51 O2     4d1+       0.0000   -0.0000   -0.0000   -0.0000    0.0000    0.0000   -0.0000    0.0000    0.0013   -0.0000
       52 O2     3d2+       0.0004    0.0006   -0.0019   -0.0257   -0.0000   -0.0041    0.0042   -0.0000    0.0000   -0.0000
       53 O2     4d2+       0.0001    0.0003   -0.0010   -0.0010   -0.0000    0.0002   -0.0000   -0.0000    0.0000   -0.0000
       54 O2     4f3-      -0.0000    0.0002    0.0001   -0.0000    0.0108    0.0000    0.0000   -0.0096    0.0000   -0.0016
       55 O2     4f2-      -0.0000    0.0000    0.0000    0.0000   -0.0000   -0.0000    0.0000   -0.0000    0.0000   -0.0000
       56 O2     4f1-      -0.0000    0.0001    0.0000   -0.0000    0.0053    0.0000   -0.0000   -0.0047    0.0000    0.0005
       57 O2     4f0       -0.0000    0.0000   -0.0000    0.0000    0.0000   -0.0000   -0.0000   -0.0000   -0.0051   -0.0000
       58 O2     4f1+       0.0000    0.0000   -0.0000   -0.0005   -0.0000    0.0002    0.0006    0.0000    0.0000    0.0000
       59 O2     4f2+      -0.0000   -0.0000   -0.0000    0.0000    0.0000   -0.0000   -0.0000   -0.0000   -0.0119   -0.0000
       60 O2     4f3+       0.0000    0.0000   -0.0001   -0.0030   -0.0000   -0.0004   -0.0126    0.0000    0.0000   -0.0000
       61 O3     1s         0.0025    0.4699    0.8813   -0.0126   -0.0126    0.0148   -0.0022    0.0258    0.0000   -0.0039
       62 O3     2s         0.0007   -0.0042   -0.0075    0.3486    0.5581    0.6568   -0.0485    0.4493   -0.0000   -0.0463
       63 O3     3s         0.0003   -0.0030   -0.0051   -0.0096   -0.0217    0.0240   -0.0028    0.0557    0.0000   -0.0077
       64 O3     4s         0.0000   -0.0007   -0.0010   -0.0003   -0.0040    0.0042   -0.0006    0.0116    0.0000   -0.0017
       65 O3     2px       -0.0001    0.0002    0.0003   -0.0074   -0.0114    0.0243    0.3438    0.0966   -0.0000    0.6941
       66 O3     3px       -0.0002    0.0002    0.0002    0.0038    0.0019   -0.0044   -0.0256   -0.0074    0.0000   -0.0105
       67 O3     4px       -0.0001   -0.0000   -0.0001    0.0009   -0.0004    0.0001   -0.0004   -0.0002    0.0000   -0.0054
       68 O3     2py        0.0005   -0.0017   -0.0038    0.1148    0.0872   -0.1796    0.0622   -0.3972    0.0000    0.0926
       69 O3     3py        0.0002   -0.0017   -0.0036   -0.0117   -0.0202    0.0288   -0.0052    0.0483   -0.0000   -0.0029
       70 O3     4py       -0.0001    0.0012    0.0021   -0.0010   -0.0032   -0.0006   -0.0011    0.0041   -0.0000   -0.0009
       71 O3     2pz       -0.0000   -0.0000   -0.0000    0.0000    0.0000    0.0000    0.0000    0.0000    0.4288    0.0000
       72 O3     3pz       -0.0000   -0.0000   -0.0000   -0.0000   -0.0000    0.0000   -0.0000   -0.0000   -0.0146   -0.0000
       73 O3     4pz        0.0000   -0.0000    0.0000    0.0000    0.0000    0.0000   -0.0000   -0.0000   -0.0067    0.0000
       74 O3     3d2-       0.0000    0.0001    0.0002   -0.0022   -0.0023    0.0025    0.0211    0.0049   -0.0000    0.0131
       75 O3     4d2-       0.0000    0.0001    0.0001   -0.0000   -0.0002    0.0000    0.0017    0.0001    0.0000    0.0008
       76 O3     3d1-      -0.0000   -0.0000   -0.0000   -0.0000   -0.0000    0.0000   -0.0000    0.0000    0.0321    0.0000
       77 O3     4d1-      -0.0000   -0.0000   -0.0000   -0.0000   -0.0000    0.0000   -0.0000    0.0000    0.0057    0.0000
       78 O3     3d0       -0.0001    0.0004    0.0008   -0.0102   -0.0081    0.0075   -0.0024    0.0154   -0.0000   -0.0028
       79 O3     4d0       -0.0000    0.0002    0.0006   -0.0010   -0.0006    0.0005   -0.0004    0.0010    0.0000   -0.0005
       80 O3     3d1+      -0.0000    0.0000    0.0000   -0.0000   -0.0000    0.0000   -0.0000   -0.0000   -0.0019   -0.0000
       81 O3     4d1+      -0.0000    0.0000    0.0000   -0.0000    0.0000    0.0000    0.0000    0.0000   -0.0003   -0.0000
       82 O3     3d2+      -0.0002    0.0008    0.0017   -0.0203   -0.0149    0.0168   -0.0064    0.0291   -0.0000   -0.0060
       83 O3     4d2+      -0.0001    0.0004    0.0008   -0.0029   -0.0017    0.0017   -0.0007    0.0021   -0.0000   -0.0007
       84 O3     4f3-      -0.0001    0.0001    0.0003   -0.0059   -0.0051    0.0033   -0.0019    0.0068   -0.0000   -0.0019
       85 O3     4f2-       0.0000    0.0000    0.0000   -0.0000   -0.0000    0.0000    0.0000    0.0000   -0.0007    0.0000
       86 O3     4f1-      -0.0000    0.0001    0.0002   -0.0034   -0.0029    0.0022   -0.0006    0.0042    0.0000   -0.0007
       87 O3     4f0        0.0000    0.0000    0.0000    0.0000    0.0000    0.0000    0.0000   -0.0000   -0.0037   -0.0000
       88 O3     4f1+      -0.0000   -0.0000   -0.0000    0.0002    0.0002   -0.0002   -0.0006   -0.0002   -0.0000    0.0005
       89 O3     4f2+       0.0000    0.0000    0.0000   -0.0000    0.0000    0.0000   -0.0000   -0.0000   -0.0071   -0.0000
       90 O3     4f3+      -0.0000   -0.0000   -0.0001    0.0011    0.0010   -0.0009   -0.0072   -0.0018    0.0000   -0.0061
 
          Orbital           11        12        13        14        15        16        17        18        19        20    
          Energy           -0.5151   -0.4698   -0.0222    0.1236    0.1668    0.2349    0.2350    0.2729    0.3661    0.3676
          Occ. No.          2.0000    2.0000    0.0000    0.0000    0.0000    0.0000    0.0000    0.0000    0.0000    0.0000
 
        1 O1     1s         0.0000    0.0001   -0.0000    0.0560   -0.2271   -0.0000   -0.0230    0.0983   -0.0051    0.0000
        2 O1     2s        -0.0000   -0.0080   -0.0000    0.5322   -1.6499   -0.0000   -0.1557    0.6693   -0.0193    0.0000
        3 O1     3s         0.0000    0.0042   -0.0000    0.1236   -0.9931   -0.0000   -0.1076    0.5805   -0.0051    0.0000
        4 O1     4s         0.0000    0.0018   -0.0000    0.0065   -0.2263   -0.0000   -0.0242    0.1488    0.0007    0.0000
        5 O1     2px        0.0000    0.6672   -0.0000    0.0213    0.0780   -0.0000   -0.0528   -0.0544   -0.1705    0.0000
        6 O1     3px       -0.0000    0.0428   -0.0000    0.0057    0.0879    0.0000    0.4033    0.0323   -0.8681    0.0000
        7 O1     4px       -0.0000    0.0009   -0.0000    0.0036    0.0133    0.0000    0.2037    0.0309   -0.3430    0.0000
        8 O1     2py        0.0000    0.0470    0.0000   -0.8997    0.6551    0.0000    0.0924   -0.4957   -0.0488    0.0000
        9 O1     3py        0.0000   -0.0042    0.0000   -0.3538    0.8122    0.0000    0.1348   -1.0488   -0.0340    0.0000
       10 O1     4py        0.0000   -0.0017    0.0000   -0.0353    0.1029    0.0000    0.0155   -0.2380   -0.0061    0.0000
       11 O1     2pz       -0.6941    0.0000    0.6615   -0.0000    0.0000   -0.1114    0.0000    0.0000   -0.0000   -0.1495
       12 O1     3pz       -0.0237    0.0000    0.1737    0.0000   -0.0000    0.3817   -0.0000   -0.0000   -0.0000   -0.8719
       13 O1     4pz        0.0070    0.0000    0.0285    0.0000   -0.0000    0.2062   -0.0000   -0.0000   -0.0000   -0.3498
       14 O1     3d2-      -0.0000    0.0046    0.0000    0.0085   -0.0138    0.0000    0.0017    0.0083    0.0162   -0.0000
       15 O1     4d2-      -0.0000    0.0004    0.0000    0.0035   -0.0097   -0.0000   -0.0038    0.0055    0.0172   -0.0000
       16 O1     3d1-       0.0253   -0.0000    0.0155   -0.0000    0.0000    0.0073   -0.0000   -0.0000    0.0000    0.0126
       17 O1     4d1-       0.0056   -0.0000    0.0021   -0.0000    0.0000   -0.0011    0.0000   -0.0000    0.0000    0.0157
       18 O1     3d0        0.0000    0.0015    0.0000   -0.0107    0.0522    0.0000    0.0114   -0.0579   -0.0027    0.0000
       19 O1     4d0        0.0000    0.0001    0.0000   -0.0067    0.0327    0.0000    0.0073   -0.0410   -0.0031    0.0000
       20 O1     3d1+       0.0013    0.0000    0.0014    0.0000   -0.0000    0.0011   -0.0000    0.0000    0.0000    0.0034
       21 O1     4d1+       0.0002   -0.0000    0.0001    0.0000   -0.0000    0.0003   -0.0000   -0.0000    0.0000    0.0027
       22 O1     3d2+       0.0000    0.0040    0.0000   -0.0163    0.0872    0.0000    0.0219   -0.1051    0.0017   -0.0000
       23 O1     4d2+       0.0000    0.0001    0.0000   -0.0101    0.0539    0.0000    0.0134   -0.0745   -0.0003   -0.0000
       24 O1     4f3-      -0.0000   -0.0011   -0.0000    0.0050   -0.0063   -0.0000   -0.0012    0.0129   -0.0008    0.0000
       25 O1     4f2-      -0.0005    0.0000   -0.0002   -0.0000   -0.0000    0.0003   -0.0000   -0.0000   -0.0000   -0.0017
       26 O1     4f1-      -0.0000   -0.0005   -0.0000    0.0020   -0.0048   -0.0000   -0.0015    0.0108    0.0015   -0.0000
       27 O1     4f0        0.0020    0.0000    0.0015    0.0000   -0.0000   -0.0018    0.0000    0.0000    0.0000    0.0064
       28 O1     4f1+       0.0000    0.0014   -0.0000    0.0003   -0.0001   -0.0000   -0.0011    0.0006    0.0029   -0.0000
       29 O1     4f2+       0.0059    0.0000   -0.0003   -0.0000   -0.0000   -0.0017    0.0000    0.0000    0.0000    0.0073
       30 O1     4f3+      -0.0000   -0.0012    0.0000    0.0012   -0.0006   -0.0000   -0.0032    0.0025    0.0095   -0.0000
       31 O2     1s         0.0000    0.0103    0.0000   -0.1781   -0.0000    0.0000    0.0566   -0.3174    0.0000   -0.0000
       32 O2     2s         0.0000    0.1201    0.0000   -1.5338   -0.0000    0.0000    0.3709   -2.0075    0.0000   -0.0000
       33 O2     3s         0.0000    0.0279    0.0000   -0.6658   -0.0000    0.0000    0.2334   -1.1871    0.0000   -0.0000
       34 O2     4s         0.0000    0.0067    0.0000   -0.1528   -0.0000    0.0000    0.0478   -0.2228    0.0000   -0.0000
       35 O2     2px        0.0000   -0.7315    0.0000   -0.1961   -0.0000   -0.0000   -0.0814   -0.0619    0.0000   -0.0000
       36 O2     3px        0.0000   -0.0450    0.0000   -0.0560   -0.0000    0.0000    0.2664   -0.0876    0.0000    0.0000
       37 O2     4px        0.0000   -0.0033    0.0000   -0.0007   -0.0000    0.0000    0.1662    0.0071    0.0000    0.0000
       38 O2     2py       -0.0000   -0.0000   -0.0000   -0.0000    1.6051    0.0000   -0.0000    0.0000   -0.0155   -0.0000
       39 O2     3py       -0.0000   -0.0000   -0.0000   -0.0000    1.6742    0.0000   -0.0000    0.0000    0.0860   -0.0000
       40 O2     4py       -0.0000   -0.0000   -0.0000   -0.0000    0.1715    0.0000   -0.0000    0.0000    0.0449   -0.0000
       41 O2     2pz        0.0000   -0.0000   -0.9230   -0.0000    0.0000   -0.0545    0.0000   -0.0000    0.0000    0.0000
       42 O2     3pz       -0.0000   -0.0000   -0.2184   -0.0000   -0.0000    0.2792   -0.0000   -0.0000    0.0000    0.0000
       43 O2     4pz       -0.0000   -0.0000   -0.0216    0.0000   -0.0000    0.1773   -0.0000   -0.0000    0.0000    0.0000
       44 O2     3d2-       0.0000   -0.0000    0.0000   -0.0000    0.0326    0.0000   -0.0000    0.0000    0.1081   -0.0000
       45 O2     4d2-      -0.0000   -0.0000    0.0000   -0.0000    0.0200    0.0000   -0.0000    0.0000    0.0689   -0.0000
       46 O2     3d1-      -0.0625   -0.0000   -0.0000   -0.0000   -0.0000   -0.0000    0.0000    0.0000    0.0000    0.1204
       47 O2     4d1-      -0.0145   -0.0000   -0.0000   -0.0000   -0.0000   -0.0000    0.0000    0.0000    0.0000    0.0731
       48 O2     3d0       -0.0000    0.0080   -0.0000   -0.0216   -0.0000   -0.0000   -0.0210    0.1144   -0.0000    0.0000
       49 O2     4d0       -0.0000    0.0009    0.0000    0.0031   -0.0000   -0.0000   -0.0110    0.0505   -0.0000    0.0000
       50 O2     3d1+       0.0000   -0.0000   -0.0028    0.0000    0.0000   -0.0050    0.0000    0.0000    0.0000   -0.0000
       51 O2     4d1+       0.0000   -0.0000   -0.0005    0.0000    0.0000   -0.0018    0.0000    0.0000    0.0000    0.0000
       52 O2     3d2+      -0.0000    0.0117   -0.0000   -0.0422   -0.0000   -0.0000   -0.0435    0.1822   -0.0000    0.0000
       53 O2     4d2+      -0.0000    0.0020   -0.0000    0.0047   -0.0000   -0.0000   -0.0209    0.0758   -0.0000    0.0000
       54 O2     4f3-       0.0000   -0.0000    0.0000    0.0000   -0.0153   -0.0000    0.0000   -0.0000   -0.0007    0.0000
       55 O2     4f2-      -0.0020   -0.0000   -0.0000   -0.0000   -0.0000   -0.0000    0.0000    0.0000    0.0000    0.0015
       56 O2     4f1-       0.0000   -0.0000    0.0000    0.0000   -0.0115   -0.0000    0.0000   -0.0000   -0.0022    0.0000
       57 O2     4f0       -0.0000   -0.0000   -0.0021    0.0000    0.0000   -0.0017    0.0000    0.0000    0.0000   -0.0000
       58 O2     4f1+       0.0000   -0.0026    0.0000   -0.0007   -0.0000   -0.0000   -0.0011    0.0010   -0.0000    0.0000
       59 O2     4f2+      -0.0000   -0.0000    0.0025   -0.0000    0.0000   -0.0021    0.0000    0.0000   -0.0000   -0.0000
       60 O2     4f3+      -0.0000    0.0009   -0.0000   -0.0005   -0.0000   -0.0000   -0.0036    0.0026   -0.0000    0.0000
       61 O3     1s        -0.0000    0.0001   -0.0000    0.0560    0.2271   -0.0000   -0.0230    0.0983    0.0051   -0.0000
       62 O3     2s        -0.0000   -0.0080   -0.0000    0.5321    1.6499   -0.0000   -0.1557    0.6693    0.0193   -0.0000
       63 O3     3s        -0.0000    0.0042   -0.0000    0.1236    0.9931   -0.0000   -0.1076    0.5806    0.0051   -0.0000
       64 O3     4s        -0.0000    0.0018   -0.0000    0.0065    0.2263   -0.0000   -0.0242    0.1488   -0.0007   -0.0000
       65 O3     2px       -0.0000    0.6672   -0.0000    0.0213   -0.0780   -0.0000   -0.0528   -0.0544    0.1704   -0.0000
       66 O3     3px       -0.0000    0.0428   -0.0000    0.0057   -0.0879    0.0000    0.4032    0.0323    0.8681   -0.0000
       67 O3     4px       -0.0000    0.0009   -0.0000    0.0036   -0.0133    0.0000    0.2037    0.0309    0.3430   -0.0000
       68 O3     2py       -0.0000   -0.0470   -0.0000    0.8996    0.6551   -0.0000   -0.0924    0.4957   -0.0488    0.0000
       69 O3     3py       -0.0000    0.0042   -0.0000    0.3538    0.8122   -0.0000   -0.1348    1.0488   -0.0340    0.0000
       70 O3     4py        0.0000    0.0017    0.0000    0.0353    0.1029   -0.0000   -0.0155    0.2380   -0.0061    0.0000
       71 O3     2pz        0.6941    0.0000    0.6615   -0.0000    0.0000   -0.1114    0.0000    0.0000    0.0000    0.1495
       72 O3     3pz        0.0237    0.0000    0.1737   -0.0000   -0.0000    0.3817   -0.0000   -0.0000    0.0000    0.8719
       73 O3     4pz       -0.0070    0.0000    0.0285    0.0000   -0.0000    0.2062   -0.0000   -0.0000    0.0000    0.3498
       74 O3     3d2-      -0.0000   -0.0046    0.0000   -0.0085   -0.0138   -0.0000   -0.0017   -0.0083    0.0162   -0.0000
       75 O3     4d2-      -0.0000   -0.0004   -0.0000   -0.0035   -0.0097    0.0000    0.0038   -0.0055    0.0172   -0.0000
       76 O3     3d1-       0.0253    0.0000   -0.0155   -0.0000    0.0000   -0.0073    0.0000    0.0000    0.0000    0.0126
       77 O3     4d1-       0.0056   -0.0000   -0.0021   -0.0000   -0.0000    0.0011   -0.0000    0.0000    0.0000    0.0157
       78 O3     3d0        0.0000    0.0015    0.0000   -0.0107   -0.0522    0.0000    0.0114   -0.0579    0.0027   -0.0000
       79 O3     4d0        0.0000    0.0001    0.0000   -0.0067   -0.0327    0.0000    0.0073   -0.0410    0.0031   -0.0000
       80 O3     3d1+      -0.0013   -0.0000    0.0014    0.0000    0.0000    0.0011   -0.0000    0.0000   -0.0000   -0.0034
       81 O3     4d1+      -0.0002   -0.0000    0.0001    0.0000    0.0000    0.0003   -0.0000    0.0000   -0.0000   -0.0027
       82 O3     3d2+       0.0000    0.0040    0.0000   -0.0163   -0.0872    0.0000    0.0219   -0.1051   -0.0017    0.0000
       83 O3     4d2+       0.0000    0.0001    0.0000   -0.0101   -0.0539    0.0000    0.0134   -0.0745    0.0003   -0.0000
       84 O3     4f3-      -0.0000    0.0011   -0.0000   -0.0050   -0.0063    0.0000    0.0012   -0.0129   -0.0008    0.0000
       85 O3     4f2-      -0.0005    0.0000    0.0002   -0.0000    0.0000   -0.0003    0.0000    0.0000   -0.0000   -0.0017
       86 O3     4f1-      -0.0000    0.0005   -0.0000   -0.0020   -0.0048    0.0000    0.0015   -0.0108    0.0015   -0.0000
       87 O3     4f0       -0.0020    0.0000    0.0015    0.0000    0.0000   -0.0018    0.0000    0.0000   -0.0000   -0.0064
       88 O3     4f1+      -0.0000    0.0014   -0.0000    0.0003    0.0001   -0.0000   -0.0011    0.0006   -0.0029    0.0000
       89 O3     4f2+      -0.0059   -0.0000   -0.0003    0.0000    0.0000   -0.0017    0.0000   -0.0000   -0.0000   -0.0073
       90 O3     4f3+       0.0000   -0.0012    0.0000    0.0012    0.0006   -0.0000   -0.0032    0.0025   -0.0095    0.0000
 
          Orbital           21    
          Energy            0.4609
          Occ. No.          0.0000
 
        1 O1     1s        -0.0699
        2 O1     2s        -0.4114
        3 O1     3s         0.1451
        4 O1     4s         0.1307
        5 O1     2px        0.0400
        6 O1     3px        0.0768
        7 O1     4px        0.0132
        8 O1     2py        0.0295
        9 O1     3py        0.4486
       10 O1     4py        0.0738
       11 O1     2pz        0.0000
       12 O1     3pz        0.0000
       13 O1     4pz        0.0000
       14 O1     3d2-      -0.0236
       15 O1     4d2-      -0.0143
       16 O1     3d1-      -0.0000
       17 O1     4d1-      -0.0000
       18 O1     3d0        0.0715
       19 O1     4d0        0.0412
       20 O1     3d1+       0.0000
       21 O1     4d1+       0.0000
       22 O1     3d2+       0.1083
       23 O1     4d2+       0.0603
       24 O1     4f3-      -0.0030
       25 O1     4f2-       0.0000
       26 O1     4f1-      -0.0036
       27 O1     4f0       -0.0000
       28 O1     4f1+      -0.0004
       29 O1     4f2+      -0.0000
       30 O1     4f3+      -0.0013
       31 O2     1s         0.0971
       32 O2     2s         0.6090
       33 O2     3s         0.9883
       34 O2     4s         0.3010
       35 O2     2px       -0.0373
       36 O2     3px       -0.0892
       37 O2     4px       -0.0400
       38 O2     2py        0.0000
       39 O2     3py        0.0001
       40 O2     4py        0.0000
       41 O2     2pz       -0.0000
       42 O2     3pz       -0.0000
       43 O2     4pz       -0.0000
       44 O2     3d2-       0.0000
       45 O2     4d2-       0.0000
       46 O2     3d1-       0.0000
       47 O2     4d1-       0.0000
       48 O2     3d0       -0.0366
       49 O2     4d0       -0.0145
       50 O2     3d1+       0.0000
       51 O2     4d1+       0.0000
       52 O2     3d2+      -0.0900
       53 O2     4d2+      -0.0435
       54 O2     4f3-      -0.0000
       55 O2     4f2-      -0.0000
       56 O2     4f1-      -0.0000
       57 O2     4f0        0.0000
       58 O2     4f1+      -0.0007
       59 O2     4f2+       0.0000
       60 O2     4f3+      -0.0029
       61 O3     1s        -0.0699
       62 O3     2s        -0.4114
       63 O3     3s         0.1451
       64 O3     4s         0.1307
       65 O3     2px        0.0400
       66 O3     3px        0.0767
       67 O3     4px        0.0132
       68 O3     2py       -0.0295
       69 O3     3py       -0.4486
       70 O3     4py       -0.0738
       71 O3     2pz        0.0000
       72 O3     3pz        0.0000
       73 O3     4pz        0.0000
       74 O3     3d2-       0.0236
       75 O3     4d2-       0.0143
       76 O3     3d1-       0.0000
       77 O3     4d1-       0.0000
       78 O3     3d0        0.0715
       79 O3     4d0        0.0412
       80 O3     3d1+       0.0000
       81 O3     4d1+       0.0000
       82 O3     3d2+       0.1083
       83 O3     4d2+       0.0603
       84 O3     4f3-       0.0030
       85 O3     4f2-      -0.0000
       86 O3     4f1-       0.0036
       87 O3     4f0       -0.0000
       88 O3     4f1+      -0.0004
       89 O3     4f2+      -0.0000
       90 O3     4f3+      -0.0013
--
 
 
++    Molecular charges:
      ------------------
 
      Mulliken charges per centre and basis function type
      ---------------------------------------------------
 
                O1      O2      O3    
      1s       1.9975  1.9996  1.9975
      2s       1.9618  1.5942  1.9618
      2px      2.0073  1.9496  2.0073
      2pz      1.4469  1.0145  1.4469
      2py      0.7119  1.0590  0.7119
      3s      -0.0100 -0.0400 -0.0100
      3px     -0.0173 -0.0473 -0.0173
      3pz     -0.0065 -0.0146 -0.0065
      3py     -0.0034  0.0051 -0.0034
      4s       0.0029 -0.0018  0.0029
      3d2+     0.0217  0.0170  0.0217
      3d1+     0.0001  0.0005  0.0001
      3d0      0.0060  0.0041  0.0060
      3d1-     0.0144  0.0554  0.0144
      3d2-     0.0113  0.0331  0.0113
      4px      0.0008  0.0008  0.0008
      4pz      0.0011  0.0020  0.0011
      4py      0.0019  0.0058  0.0019
      4d2+     0.0016  0.0008  0.0016
      4d1+     0.0000  0.0001  0.0000
      4d0      0.0003 -0.0005  0.0003
      4d1-     0.0023  0.0140  0.0023
      4d2-     0.0010  0.0056  0.0010
      4f3+     0.0025  0.0043  0.0025
      4f2+     0.0020  0.0045  0.0020
      4f1+     0.0002  0.0004  0.0002
      4f0      0.0008  0.0015  0.0008
      4f1-     0.0013  0.0013  0.0013
      4f2-     0.0000  0.0002  0.0000
      4f3-     0.0030  0.0040  0.0030
      Total    8.1635  7.6731  8.1635
 
      N-E     -0.1635  0.3269 -0.1635
 
      Total electronic charge=   24.000000
 
      Total            charge=   -0.000000
--
 
 
  Input file to MOLDEN was generated!
 
 
++    Static properties:
      ------------------
 
 
      LoProp Charges per center
 

                   O1       O2       O3    
      Nuclear      8.0000   8.0000   8.0000
      Electronic  -8.1706  -7.6588  -8.1706
 
      Total       -0.1706   0.3412  -0.1706
--
 
 
++    Natural Bond Order analysis
      ---------------------------
      Based on LoProp computed density
      -------------------------------------------------------------------------------------
      Atom A       Atom B       Bond Order | Atom A       Atom B       Bond Order
        O1           O2             1.995  |   O2           O3             1.995
      -------------------------------------------------------------------------------------
      NBO located     15.999 core electrons.
      NBO located      7.979 electrons involved in    2 bonds.
      The remaining    0.021 electrons are to be considered as diffuse
--
 
 
++    Molecular properties:
      ---------------------
 
      Charge (e):
                      =   -0.0000
      Dipole Moment (Debye):
      Origin of the operator (Ang)=    0.0000    0.0000    0.0000
                   X= -6.2677E-03               Y=  2.2641E-06               Z=  6.2957E-14           Total=  6.2677E-03
      Quadrupole Moment (Debye*Ang):
      Origin of the operator (Ang)=    0.0668    0.0000    0.0000
                  XX= -1.6089E+01              XY=  3.2947E-08              XZ= -1.2565E-13              YY= -1.6797E+01
                  YZ=  1.5994E-13              ZZ= -1.4881E+01
      In traceless form (Debye*Ang)
                  XX= -2.5046E-01              XY=  4.9421E-08              XZ= -1.8848E-13              YY= -1.3120E+00
                  YZ=  2.3991E-13              ZZ=  1.5624E+00
--
 
 
  Input file to MOLDEN was generated!
 
 ###############################################################################
 ###############################################################################
 ###                                                                         ###
 ###                                                                         ###
 ###    RunFile label nBas                                                   ###
 ###    was used       78 times                                              ###
 ###                                                                         ###
 ###                                                                         ###
 ###############################################################################
 ###############################################################################
forrtl: warning (528): IEEE_UNDERFLOW is signaling
--- Stop Module: scf at Fri Apr 25 11:12:03 2025 /rc=_RC_ALL_IS_WELL_ ---
*** files: ozone_171.00.LprOrb ozone_171.00.LoProp.molden ozone_171.00.scf.molden ozone_171.00.ScfOrb ozone_171.00.scf.h5 xmldump
    saved to directory /home/grierjones/DDCASPT2/ozone/multistate/ANO-RCC-VTZP/ozone_171.00

>>> COPY /tmp/ozone_171.00/ozone_171.00.scf.h5 /home/grierjones/DDCASPT2/ozone/multistate/ANO-RCC-VTZP/ozone_171.00/

*** symbolic link created: INPORB -> ozone_171.00.ScfOrb
--- Start Module: rasscf at Fri Apr 25 11:12:03 2025 ---
 
()()()()()()()()()()()()()()()()()()()()()()()()()()()()()()()()()()()()()()()()()()()()()()()()()()

                                              &RASSCF

                                   only a single process is used
                       available to each process: 2.0 GB of memory, 1 thread?
()()()()()()()()()()()()()()()()()()()()()()()()()()()()()()()()()()()()()()()()()()()()()()()()()()
 
 
      Header of the ONEINT file:
      --------------------------
      
      Integrals generated by seward 4.2.0  , Fri Apr 25 11:12:00 2025
 
 
      OrdInt status: non-squared
 
 
      Cartesian coordinates in Angstrom:
      -----------------------------------------------------
      No.  Label        X            Y            Z        
      -----------------------------------------------------
       1   O1         0.10027100   1.27406000   0.00000000
       2   O2         0.00000000   0.00000000   0.00000000
       3   O3         0.10027100  -1.27406000   0.00000000
      -----------------------------------------------------
      Nuclear repulsion energy =   66.29165740
 
++    Wave function specifications:
      -----------------------------
 
      Number of closed shell electrons          12
      Number of electrons in active shells      12
      Max number of holes in RAS1 space          0
      Max nr of electrons in RAS3 space          0
      Number of inactive orbitals                6
      Number of active orbitals                  9
      Number of secondary orbitals              75
      Spin quantum number                      0.0
      State symmetry                             1
--
 
++    Orbital specifications:
      -----------------------
 
      Symmetry species                           1
                                                 a
      Frozen orbitals                            0
      Inactive orbitals                          6
      Active orbitals                            9
      RAS1 orbitals                              0
      RAS2 orbitals                              9
      RAS3 orbitals                              0
      Secondary orbitals                        75
      Deleted orbitals                           0
      Number of basis functions                 90
--
 
++    CI expansion specifications:
      ----------------------------
 
      Number of CSFs                          2520
      Number of determinants                  3570
      Number of root(s) required                 3
      Root chosen for geometry opt.              3
      CI roots used                              1     2     3
      weights                                0.333 0.333 0.333
      highest root included in the CI            3
      max. size of the explicit Hamiltonian    500
--
 
++    Optimization specifications:
      ----------------------------
 
      RASSCF algorithm: Conventional
      Maximum number of macro iterations       200
      Maximum number of SX iterations          100
      Threshold for RASSCF energy            0.100E-07
      Threshold for max MO rotation          0.100E+00
      Threshold for max BLB element          0.100E-03
      Level shift parameter                  0.500E+00
      Make Quasi-Newton update
--
 
      The MO-coefficients are taken from the file:
      /home/grierjones/DDCASPT2/ozone/multistate/ANO-RCC-VTZP/ozone_170.00/ozone_170.00.RasOrb                                        
      Title: RASSCF average (pseudo-natural) orbitals                                      
 
      Total molecular charge    0.00
 
      ************************************************************************************************************************
      *                                                                                                                      *
      *                                            Wave function control section                                             *
      *                                                                                                                      *
      ************************************************************************************************************************
 
 
                                         RASSCF iterations: Energy and convergence statistics
                                         ----------------------------------------------------
 
      Iter CI   SX   CI       RASSCF       Energy    max ROT     max BLB   max BLB  Level Ln srch  Step   QN   Walltime
          iter iter root      energy       change     param      element    value   shift minimum  type update hh:mm:ss
 Nr of preliminary CI iterations:   6
        1   1    7    0  -224.57129982    0.00E+00  -0.23E-02    4  14 1  0.49E-02*  0.02   0.00    SX    NO    0:00:00
        2   1    6    0  -224.57135667   -0.57E-04* -0.10E-02    6  14 1 -0.11E-02*  0.02   0.00    SX    NO    0:00:00
        3   1    6    0  -224.57136008   -0.34E-05* -0.70E-03    6  14 1 -0.53E-03*  0.02   0.00    SX    NO    0:00:00
        4   8    6    0  -224.57137092   -0.11E-04* -0.16E-02    4  14 1  0.13E-02*  0.02   0.00    SX    NO    0:00:00
        5   5    6    0  -224.57137501   -0.41E-05* -0.13E-02    4  14 1  0.60E-03*  0.02   1.82    LS   YES    0:00:00
        6   6    6    0  -224.57137588   -0.87E-06*  0.16E-02    1  47 1  0.33E-03*  0.02   0.90    QN   YES    0:00:00
        7   6    6    0  -224.57137676   -0.88E-06* -0.32E-02    6  50 1  0.21E-03*  0.02   1.65    QN   YES    0:00:00
        8   7    6    0  -224.57137719   -0.43E-06* -0.63E-04    6  50 1 -0.29E-03*  0.02   0.79    QN   YES    0:00:00
        9   3    5    0  -224.57137728   -0.93E-07*  0.37E-03    6  49 1  0.33E-04   0.02   1.28    QN   YES    0:00:00
       10   4    4    0  -224.57137730   -0.13E-07*  0.14E-03    6  50 1 -0.11E-04   0.02   1.32    QN   YES    0:00:00
       11   2    4    0  -224.57137730   -0.78E-09   0.49E-04    6  50 1  0.57E-05   0.02   0.74    QN   YES    0:00:00
      Convergence after 11 iterations
 
  Dmat in MO in SXCTL bf call to SXHAM                                                                                    
  mat. size =     9x    9
 
        1.9681421580336644
       -0.0000000010698842      1.9374255105581262
        0.0000000084676853      0.0000000001499579      1.9781533685362720
        0.0038574482103753      0.0000000009829758      0.0000001326215041      1.0914597005922142
        0.0000000006693743      0.0000019539199955      0.0000000000502121     -0.0000000013172747      1.9014389673030152
        0.0000000000738123      0.0000000122336119      0.0000000011561048      0.0000000001745770      0.0000000374648117
        1.9132544885045983
       -0.0000000026698127     -0.0000000000751244      0.0015066269980358     -0.0000000598614046      0.0000000006707891
        0.0000000027290105      1.0981405851339998
        0.0097909438239696     -0.0000000031266326      0.0000000011946409     -0.0099979673436115      0.0000000167619561
       -0.0000000008419112      0.0000001533164022      0.0815722879712895
        0.0000000037909472      0.0012039290411685     -0.0000000003312664      0.0000000004397934     -0.0094557940299584
       -0.0000000417083346     -0.0000000000670462     -0.0000000005283575      0.0304129333667757
       12   1    4    0  -224.57137730   -0.12E-09   0.49E-04    6  50 1  0.20E-05   0.02   0.74    QN   YES    0:00:00
 
      ************************************************************************************************************************
                                                      Wave function printout:
                       occupation of active orbitals, and spin coupling of open shells (u,d: Spin up or down)
      ************************************************************************************************************************
 
      Note: transformation to natural orbitals
      has been made, which may change the order of the CSFs.
 
      printout of CI-coefficients larger than  0.05 for root  1
      energy=    -224.593466
      conf/sym  111111111     Coeff  Weight
             1  222222000  -0.90728 0.82315
             4  222220200   0.24296 0.05903
           205  2u222dud0   0.09846 0.00969
           207  2u222udd0   0.10717 0.01148
           351  222022200   0.14311 0.02048
           355  222022020   0.05203 0.00271
           551  220222200   0.09048 0.00819
           611  2ud222u0d   0.06777 0.00459
           652  u2d222ud0  -0.06832 0.00467
           705  202222020   0.06034 0.00364
           731  202222002   0.05424 0.00294
           764  ud22220ud  -0.05978 0.00357
           992  2uu222d0d   0.07056 0.00498
 
      printout of CI-coefficients larger than  0.05 for root  2
      energy=    -224.575530
      conf/sym  111111111     Coeff  Weight
             5  2222ud200  -0.24760 0.06130
            51  222u22d00   0.92739 0.86005
           206  2u22d2ud0  -0.06659 0.00443
           208  2u22u2dd0  -0.08138 0.00662
           897  2u2u2d2d0  -0.09380 0.00880
          1285  2udu2220d  -0.05165 0.00267
          1321  u2du222d0   0.05319 0.00283
          1362  202u22d20  -0.06327 0.00400
          1381  202u22d02  -0.05643 0.00318
          1406  ud2u22dud   0.06483 0.00420
          1442  022u22d20  -0.05754 0.00331
          1485  2uud2220d  -0.06201 0.00384
 
      printout of CI-coefficients larger than  0.05 for root  3
      energy=    -224.545136
      conf/sym  111111111     Coeff  Weight
             1  222222000  -0.12922 0.01670
             4  222220200   0.06025 0.00363
             6  222202200   0.27904 0.07786
           351  222022200  -0.91082 0.82960
           355  222022020   0.08345 0.00696
           454  2u2du22d0   0.05548 0.00308
           898  2u2ud22d0   0.12216 0.01492
          1441  022u222d0   0.06311 0.00398
          1966  202022220   0.06434 0.00414
          1971  202022202   0.05703 0.00325
          1982  ud20222ud  -0.06904 0.00477
          1996  022022220   0.06317 0.00399
 
      Natural orbitals and occupation numbers for root  1
      sym 1:   1.978520   1.930893   1.955047   1.933174   1.992316   1.834021   0.254100   0.086483   0.035446
 
      Natural orbitals and occupation numbers for root  2
      sym 1:   1.967942   1.936325   1.982565   1.084057   1.909328   1.916580   1.096096   0.076242   0.030863
 
      Natural orbitals and occupation numbers for root  3
      sym 1:   1.964588   1.943756   1.997440   0.255292   1.804352   1.989162   1.943633   0.077225   0.024554
 
      ************************************************************************************************************************
      *                                                                                                                      *
      *                                                    Final results                                                     *
      *                                                                                                                      *
      ************************************************************************************************************************
 
 
++    Wave function specifications:
      -----------------------------
 
      Number of closed shell electrons          12
      Number of electrons in active shells      12
      Max number of holes in RAS1 space          0
      Max nr of electrons in RAS3 space          0
      Number of inactive orbitals                6
      Number of active orbitals                  9
      Number of secondary orbitals              75
      Spin quantum number                      0.0
      State symmetry                             1
--
 
++    Orbital specifications:
      -----------------------
 
      Symmetry species                           1
                                                 a
      Frozen orbitals                            0
      Inactive orbitals                          6
      Active orbitals                            9
      RAS1 orbitals                              0
      RAS2 orbitals                              9
      RAS3 orbitals                              0
      Secondary orbitals                        75
      Deleted orbitals                           0
      Number of basis functions                 90
--
 
++    CI expansion specifications:
      ----------------------------
 
      Number of CSFs                          2520
      Number of determinants                  3570
      Number of root(s) required                 3
      CI roots used                              1     2     3
      weights                                0.333 0.333 0.333
      highest root included in the CI            3
      Root passed to geometry opt.               3
--
 
++    Final optimization conditions:
      ------------------------------
 
      Average CI energy                            -224.57137730
      RASSCF energy for state  3                   -224.54513627
      Super-CI energy                                -0.00000000
      RASSCF energy change                            0.00000000
      Max change in MO coefficients              -0.410E-04
      Max non-diagonal density matrix element     0.495E-04
      Maximum BLB matrix element                  0.200E-05
      (orbital pair   6,  50 in symmetry   1)
      Norm of electronic gradient            0.141E+00
--
 
 
      Final state energy(ies):
      ------------------------
 
::    RASSCF root number  1 Total energy:   -224.59346592
::    RASSCF root number  2 Total energy:   -224.57552969
::    RASSCF root number  3 Total energy:   -224.54513627
 
++    Molecular orbitals:
      -------------------
 
      Pseudonatural active orbitals and approximate occupation numbers
 
 
 
 
      Molecular orbitals for symmetry species 1: a  
 
 
      Orbital                1         2         3         4         5         6         7         8         9        10
      Energy          -20.7743  -20.7178  -20.7177   -1.5371   -1.3510   -0.9677    0.0000    0.0000    0.0000    0.0000
      Occ. No.          2.0000    2.0000    2.0000    2.0000    2.0000    2.0000    1.9682    1.9374    1.9782    1.0915
 
    1 O1     1s         0.0051   -0.7063    0.7063   -0.0070    0.0015    0.0136   -0.0131   -0.0265   -0.0000   -0.0036
    2 O1     2s         0.0014    0.0056   -0.0055    0.5155   -0.6907    0.5121   -0.1694   -0.1787   -0.0000   -0.0578
    3 O1     3s         0.0006    0.0041   -0.0038   -0.0024   -0.0023    0.0227   -0.0162   -0.0560   -0.0000    0.0002
    4 O1     4s         0.0001    0.0008   -0.0007    0.0006   -0.0004    0.0032   -0.0022   -0.0110   -0.0000    0.0015
    5 O1     2px       -0.0002   -0.0002    0.0005   -0.0926   -0.0033    0.1864    0.2718    0.0065    0.0000    0.6597
    6 O1     3px       -0.0002   -0.0002    0.0001    0.0103    0.0003   -0.0176   -0.0163    0.0053    0.0000    0.0301
    7 O1     4px       -0.0002    0.0000   -0.0001    0.0018    0.0004   -0.0026   -0.0026   -0.0008   -0.0000   -0.0001
    8 O1     2py       -0.0007   -0.0021    0.0026   -0.0282   -0.0712    0.1163   -0.2058   -0.4415   -0.0000    0.1668
    9 O1     3py       -0.0004   -0.0024    0.0027    0.0026   -0.0005   -0.0238    0.0236    0.0563    0.0000   -0.0047
   10 O1     4py        0.0002    0.0016   -0.0015    0.0000   -0.0013    0.0018    0.0011    0.0041   -0.0000   -0.0036
   11 O1     2pz       -0.0000    0.0000    0.0000   -0.0000   -0.0000    0.0000   -0.0000   -0.0000    0.3674    0.0000
   12 O1     3pz        0.0000   -0.0000   -0.0000    0.0000    0.0000   -0.0000    0.0000    0.0000   -0.0249    0.0000
   13 O1     4pz        0.0000    0.0000   -0.0000    0.0000   -0.0000   -0.0000    0.0000    0.0000   -0.0035   -0.0000
   14 O1     3d2-      -0.0000    0.0001   -0.0002    0.0086   -0.0004   -0.0158   -0.0183    0.0019   -0.0000    0.0056
   15 O1     4d2-      -0.0000    0.0001   -0.0001    0.0009   -0.0001   -0.0019   -0.0026   -0.0003   -0.0000    0.0011
   16 O1     3d1-       0.0000    0.0000   -0.0000    0.0000   -0.0000   -0.0000    0.0000    0.0000   -0.0253    0.0000
   17 O1     4d1-       0.0000    0.0000    0.0000    0.0000   -0.0000   -0.0000    0.0000    0.0000   -0.0031    0.0000
   18 O1     3d0       -0.0001   -0.0006    0.0007   -0.0069    0.0018    0.0072   -0.0101   -0.0171   -0.0000    0.0010
   19 O1     4d0       -0.0001   -0.0003    0.0004   -0.0010    0.0004    0.0006   -0.0011   -0.0011   -0.0000   -0.0005
   20 O1     3d1+      -0.0000    0.0000   -0.0000   -0.0000    0.0000   -0.0000    0.0000    0.0000   -0.0011    0.0000
   21 O1     4d1+      -0.0000    0.0000    0.0000   -0.0000    0.0000   -0.0000    0.0000   -0.0000   -0.0000    0.0000
   22 O1     3d2+      -0.0002   -0.0010    0.0012   -0.0113    0.0031    0.0110   -0.0190   -0.0295   -0.0000    0.0040
   23 O1     4d2+      -0.0001   -0.0006    0.0007   -0.0017    0.0007    0.0009   -0.0019   -0.0019   -0.0000   -0.0006
   24 O1     4f3-       0.0001    0.0002   -0.0002    0.0033   -0.0019   -0.0019    0.0047    0.0071    0.0000   -0.0016
   25 O1     4f2-      -0.0000   -0.0000    0.0000   -0.0000   -0.0000    0.0000   -0.0000   -0.0000    0.0005   -0.0000
   26 O1     4f1-       0.0000    0.0001   -0.0002    0.0028   -0.0015   -0.0019    0.0033    0.0056    0.0000   -0.0007
   27 O1     4f0        0.0000    0.0000   -0.0000    0.0000   -0.0000   -0.0000    0.0000    0.0000   -0.0045    0.0000
   28 O1     4f1+      -0.0000    0.0000   -0.0000    0.0007   -0.0001   -0.0012   -0.0013    0.0002   -0.0000   -0.0002
   29 O1     4f2+       0.0000    0.0000   -0.0000    0.0000   -0.0000   -0.0000    0.0000    0.0000   -0.0057    0.0000
   30 O1     4f3+      -0.0000    0.0000   -0.0001    0.0027   -0.0003   -0.0043   -0.0047    0.0008   -0.0000   -0.0003
   31 O2     1s         0.9996   -0.0000   -0.0052   -0.0285    0.0000   -0.0133   -0.0086   -0.0000    0.0000    0.0239
   32 O2     2s        -0.0024    0.0000    0.0118    0.4012   -0.0000   -0.6307    0.4813    0.0000    0.0000    0.2430
   33 O2     3s        -0.0021    0.0000    0.0063   -0.0587    0.0000   -0.0285   -0.0246   -0.0000    0.0000    0.0683
   34 O2     4s        -0.0001    0.0000    0.0009   -0.0111    0.0000   -0.0051   -0.0051    0.0000    0.0000    0.0142
   35 O2     2px       -0.0002    0.0000    0.0013   -0.2033    0.0000    0.4182    0.5577   -0.0000    0.0000   -0.6931
   36 O2     3px       -0.0001    0.0000    0.0003    0.0043   -0.0000   -0.0228   -0.0447   -0.0000   -0.0000   -0.0592
   37 O2     4px        0.0008   -0.0000   -0.0002    0.0025   -0.0000   -0.0067   -0.0117    0.0000   -0.0000   -0.0029
   38 O2     2py       -0.0000   -0.0074    0.0000   -0.0000   -0.0873    0.0000   -0.0000    0.6091    0.0000   -0.0000
   39 O2     3py       -0.0000   -0.0047    0.0000    0.0000    0.0401   -0.0000    0.0000   -0.0722   -0.0000    0.0000
   40 O2     4py        0.0000    0.0012   -0.0000   -0.0000   -0.0042    0.0000    0.0000   -0.0063   -0.0000   -0.0000
   41 O2     2pz       -0.0000    0.0000    0.0000   -0.0000    0.0000    0.0000   -0.0000   -0.0000    0.7112   -0.0000
   42 O2     3pz        0.0000   -0.0000   -0.0000    0.0000   -0.0000   -0.0000    0.0000    0.0000   -0.0535   -0.0000
   43 O2     4pz       -0.0000    0.0000    0.0000    0.0000   -0.0000   -0.0000    0.0000    0.0000   -0.0141    0.0000
   44 O2     3d2-       0.0000   -0.0004    0.0000   -0.0000   -0.0051    0.0000   -0.0000    0.0176    0.0000   -0.0000
   45 O2     4d2-       0.0000   -0.0002    0.0000   -0.0000   -0.0005    0.0000   -0.0000    0.0015    0.0000   -0.0000
   46 O2     3d1-      -0.0000    0.0000    0.0000    0.0000    0.0000   -0.0000   -0.0000   -0.0000   -0.0000    0.0000
   47 O2     4d1-      -0.0000    0.0000    0.0000    0.0000    0.0000   -0.0000    0.0000   -0.0000   -0.0000    0.0000
   48 O2     3d0        0.0003   -0.0000   -0.0011   -0.0112    0.0000   -0.0048   -0.0110    0.0000    0.0000    0.0151
   49 O2     4d0        0.0002   -0.0000   -0.0005    0.0002    0.0000   -0.0003   -0.0009    0.0000    0.0000    0.0018
   50 O2     3d1+       0.0000   -0.0000    0.0000   -0.0000   -0.0000    0.0000   -0.0000   -0.0000    0.0096   -0.0000
   51 O2     4d1+      -0.0000    0.0000    0.0000   -0.0000   -0.0000   -0.0000   -0.0000   -0.0000    0.0010   -0.0000
   52 O2     3d2+       0.0005   -0.0000   -0.0018   -0.0241    0.0000    0.0021   -0.0036    0.0000    0.0000    0.0189
   53 O2     4d2+       0.0003   -0.0000   -0.0009   -0.0003    0.0000    0.0008   -0.0001    0.0000    0.0000    0.0030
   54 O2     4f3-       0.0000    0.0002   -0.0000    0.0000    0.0054   -0.0000    0.0000   -0.0110   -0.0000   -0.0000
   55 O2     4f2-      -0.0000    0.0000    0.0000    0.0000    0.0000    0.0000   -0.0000   -0.0000   -0.0000   -0.0000
   56 O2     4f1-       0.0000    0.0002   -0.0000    0.0000    0.0044   -0.0000    0.0000   -0.0091   -0.0000    0.0000
   57 O2     4f0        0.0000   -0.0000   -0.0000    0.0000   -0.0000   -0.0000    0.0000    0.0000   -0.0078    0.0000
   58 O2     4f1+       0.0000   -0.0000   -0.0000    0.0003   -0.0000   -0.0018   -0.0030    0.0000   -0.0000    0.0005
   59 O2     4f2+       0.0000   -0.0000   -0.0000    0.0000   -0.0000   -0.0000    0.0000    0.0000   -0.0096    0.0000
   60 O2     4f3+       0.0001   -0.0000   -0.0001    0.0010   -0.0000   -0.0063   -0.0104   -0.0000   -0.0000    0.0010
   61 O3     1s         0.0051    0.7063    0.7063   -0.0070   -0.0015    0.0136   -0.0131    0.0265   -0.0000   -0.0036
   62 O3     2s         0.0014   -0.0056   -0.0055    0.5155    0.6907    0.5121   -0.1694    0.1787   -0.0000   -0.0578
   63 O3     3s         0.0006   -0.0041   -0.0038   -0.0024    0.0023    0.0227   -0.0162    0.0560   -0.0000    0.0002
   64 O3     4s         0.0001   -0.0008   -0.0007    0.0006    0.0004    0.0032   -0.0022    0.0110   -0.0000    0.0015
   65 O3     2px       -0.0002    0.0002    0.0005   -0.0926    0.0033    0.1864    0.2718   -0.0065    0.0000    0.6597
   66 O3     3px       -0.0002    0.0002    0.0001    0.0103   -0.0003   -0.0176   -0.0163   -0.0053    0.0000    0.0301
   67 O3     4px       -0.0002   -0.0000   -0.0001    0.0018   -0.0004   -0.0026   -0.0026    0.0008   -0.0000   -0.0001
   68 O3     2py        0.0007   -0.0021   -0.0026    0.0282   -0.0712   -0.1163    0.2058   -0.4415    0.0000   -0.1668
   69 O3     3py        0.0004   -0.0024   -0.0027   -0.0026   -0.0005    0.0238   -0.0236    0.0563   -0.0000    0.0047
   70 O3     4py       -0.0002    0.0016    0.0015   -0.0000   -0.0013   -0.0018   -0.0011    0.0041    0.0000    0.0036
   71 O3     2pz       -0.0000   -0.0000    0.0000   -0.0000    0.0000    0.0000   -0.0000    0.0000    0.3674    0.0000
   72 O3     3pz        0.0000    0.0000    0.0000    0.0000   -0.0000   -0.0000    0.0000   -0.0000   -0.0249    0.0000
   73 O3     4pz        0.0000   -0.0000   -0.0000    0.0000    0.0000   -0.0000    0.0000   -0.0000   -0.0035   -0.0000
   74 O3     3d2-       0.0000    0.0001    0.0002   -0.0086   -0.0004    0.0158    0.0183    0.0019    0.0000   -0.0056
   75 O3     4d2-       0.0000    0.0001    0.0001   -0.0009   -0.0001    0.0019    0.0026   -0.0003    0.0000   -0.0011
   76 O3     3d1-      -0.0000    0.0000    0.0000   -0.0000    0.0000    0.0000   -0.0000    0.0000    0.0253   -0.0000
   77 O3     4d1-      -0.0000    0.0000   -0.0000   -0.0000   -0.0000    0.0000   -0.0000    0.0000    0.0031   -0.0000
   78 O3     3d0       -0.0001    0.0006    0.0007   -0.0069   -0.0018    0.0072   -0.0101    0.0171   -0.0000    0.0010
   79 O3     4d0       -0.0001    0.0003    0.0004   -0.0010   -0.0004    0.0006   -0.0011    0.0011   -0.0000   -0.0005
   80 O3     3d1+      -0.0000   -0.0000   -0.0000   -0.0000   -0.0000   -0.0000    0.0000   -0.0000   -0.0011    0.0000
   81 O3     4d1+      -0.0000   -0.0000    0.0000   -0.0000   -0.0000   -0.0000    0.0000    0.0000   -0.0000    0.0000
   82 O3     3d2+      -0.0002    0.0010    0.0012   -0.0113   -0.0031    0.0110   -0.0190    0.0295   -0.0000    0.0040
   83 O3     4d2+      -0.0001    0.0006    0.0007   -0.0017   -0.0007    0.0009   -0.0019    0.0019   -0.0000   -0.0006
   84 O3     4f3-      -0.0001    0.0002    0.0002   -0.0033   -0.0019    0.0019   -0.0047    0.0071   -0.0000    0.0016
   85 O3     4f2-       0.0000   -0.0000   -0.0000    0.0000   -0.0000   -0.0000    0.0000   -0.0000   -0.0005    0.0000
   86 O3     4f1-      -0.0000    0.0001    0.0002   -0.0028   -0.0015    0.0019   -0.0033    0.0056   -0.0000    0.0007
   87 O3     4f0        0.0000   -0.0000   -0.0000    0.0000    0.0000   -0.0000    0.0000   -0.0000   -0.0045    0.0000
   88 O3     4f1+      -0.0000   -0.0000   -0.0000    0.0007    0.0001   -0.0012   -0.0013   -0.0002   -0.0000   -0.0002
   89 O3     4f2+       0.0000   -0.0000   -0.0000    0.0000    0.0000   -0.0000    0.0000   -0.0000   -0.0057    0.0000
   90 O3     4f3+      -0.0000   -0.0000   -0.0001    0.0027    0.0003   -0.0043   -0.0047   -0.0008   -0.0000   -0.0003
 
 
      Orbital               11        12        13        14        15        16        17        18        19        20
      Energy            0.0000    0.0000    0.0000    0.0000    0.0000    0.1703    0.2370    0.2377    0.2635    0.3673
      Occ. No.          1.9015    1.9133    1.0981    0.0814    0.0304    0.0000    0.0000    0.0000    0.0000    0.0000
 
    1 O1     1s        -0.0008    0.0000    0.0000   -0.0128   -0.0483   -0.2277   -0.0307   -0.0000    0.1164   -0.0038
    2 O1     2s        -0.0109    0.0000    0.0000   -0.2339   -0.4781   -1.6406   -0.2184   -0.0000    0.8322   -0.0132
    3 O1     3s        -0.0035    0.0000   -0.0000   -0.0416   -0.1247   -1.0066   -0.1277   -0.0000    0.5787   -0.0014
    4 O1     4s        -0.0005    0.0000   -0.0000   -0.0042   -0.0172   -0.2296   -0.0256    0.0000    0.1329    0.0011
    5 O1     2px       -0.6990   -0.0000   -0.0000   -0.0634    0.0593    0.0741   -0.0346   -0.0000   -0.0390   -0.1656
    6 O1     3px        0.0014   -0.0000   -0.0000    0.0533   -0.0306    0.0970    0.4148    0.0000    0.0589   -0.8694
    7 O1     4px        0.0074    0.0000    0.0000    0.0048    0.0090    0.0166    0.2085    0.0000    0.0431   -0.3470
    8 O1     2py        0.0360    0.0000   -0.0000    0.6998    0.6872    0.5950    0.1691   -0.0000   -0.7374   -0.0358
    9 O1     3py        0.0056   -0.0000    0.0000   -0.0696   -0.0301    0.8054    0.1918   -0.0000   -1.1397   -0.0203
   10 O1     4py       -0.0006   -0.0000    0.0000   -0.0069   -0.0206    0.1027    0.0240   -0.0000   -0.2412   -0.0014
   11 O1     2pz        0.0000   -0.7007    0.6543   -0.0000   -0.0000    0.0000    0.0000   -0.0412    0.0000    0.0000
   12 O1     3pz       -0.0000    0.0027    0.0292    0.0000   -0.0000    0.0000   -0.0000    0.4182   -0.0000    0.0000
   13 O1     4pz       -0.0000    0.0074   -0.0003   -0.0000    0.0000    0.0000   -0.0000    0.2136   -0.0000    0.0000
   14 O1     3d2-       0.0170    0.0000   -0.0000    0.0060    0.0147   -0.0161    0.0011    0.0000    0.0126    0.0151
   15 O1     4d2-       0.0022    0.0000   -0.0000    0.0037    0.0051   -0.0107   -0.0046   -0.0000    0.0071    0.0165
   16 O1     3d1-      -0.0000    0.0165    0.0078   -0.0000    0.0000   -0.0000   -0.0000    0.0048   -0.0000   -0.0000
   17 O1     4d1-      -0.0000    0.0020    0.0013   -0.0000    0.0000   -0.0000    0.0000   -0.0025    0.0000   -0.0000
   18 O1     3d0        0.0005    0.0000   -0.0000    0.0099    0.0002    0.0556    0.0146    0.0000   -0.0650   -0.0032
   19 O1     4d0        0.0005    0.0000    0.0000    0.0030    0.0071    0.0334    0.0093    0.0000   -0.0450   -0.0031
   20 O1     3d1+      -0.0000    0.0002    0.0011    0.0000   -0.0000    0.0000   -0.0000    0.0013    0.0000   -0.0000
   21 O1     4d1+       0.0000   -0.0003    0.0002    0.0000    0.0000    0.0000    0.0000    0.0005    0.0000   -0.0000
   22 O1     3d2+       0.0014    0.0000   -0.0000    0.0208    0.0049    0.0953    0.0274    0.0000   -0.1108    0.0009
   23 O1     4d2+       0.0004    0.0000    0.0000    0.0057    0.0124    0.0572    0.0169    0.0000   -0.0769   -0.0004
   24 O1     4f3-      -0.0006   -0.0000    0.0000   -0.0036   -0.0009   -0.0066   -0.0019    0.0000    0.0142   -0.0011
   25 O1     4f2-       0.0000   -0.0003   -0.0004   -0.0000    0.0000   -0.0000    0.0000    0.0003   -0.0000    0.0000
   26 O1     4f1-      -0.0001   -0.0000    0.0000   -0.0018    0.0013   -0.0050   -0.0020    0.0000    0.0113    0.0014
   27 O1     4f0       -0.0000    0.0034    0.0001   -0.0000   -0.0000   -0.0000    0.0000   -0.0019    0.0000   -0.0000
   28 O1     4f1+       0.0015    0.0000    0.0000    0.0008    0.0016   -0.0002   -0.0009   -0.0000    0.0007    0.0026
   29 O1     4f2+      -0.0000    0.0042    0.0003    0.0000   -0.0000   -0.0000    0.0000   -0.0025    0.0000   -0.0000
   30 O1     4f3+       0.0051    0.0000    0.0000    0.0020    0.0054   -0.0007   -0.0036   -0.0000    0.0025    0.0099
   31 O2     1s        -0.0000   -0.0000   -0.0000    0.0767    0.0000   -0.0000    0.0788    0.0000   -0.3620   -0.0000
   32 O2     2s        -0.0000   -0.0000   -0.0000    0.8401    0.0000   -0.0000    0.5440    0.0000   -2.4127   -0.0000
   33 O2     3s        -0.0000   -0.0000   -0.0000    0.0407    0.0000   -0.0000    0.3296    0.0000   -1.4177   -0.0000
   34 O2     4s        -0.0000   -0.0000   -0.0000    0.0208    0.0000   -0.0000    0.0703    0.0000   -0.2844   -0.0000
   35 O2     2px        0.0000   -0.0000    0.0000    0.2598    0.0000   -0.0000   -0.1042   -0.0000   -0.1364   -0.0000
   36 O2     3px        0.0000    0.0000    0.0000   -0.1589   -0.0000   -0.0000    0.2447    0.0000   -0.1114   -0.0000
   37 O2     4px        0.0000    0.0000    0.0000    0.0138    0.0000   -0.0000    0.1615    0.0000    0.0103   -0.0000
   38 O2     2py        0.0334   -0.0000   -0.0000   -0.0000    1.1174    1.5446    0.0000    0.0000   -0.0000   -0.0189
   39 O2     3py       -0.0114    0.0000    0.0000    0.0000   -0.1004    1.7298    0.0000    0.0000   -0.0000    0.0599
   40 O2     4py       -0.0014   -0.0000    0.0000   -0.0000    0.0252    0.1861    0.0000    0.0000   -0.0000    0.0366
   41 O2     2pz       -0.0000   -0.0000   -0.7703    0.0000    0.0000   -0.0000    0.0000   -0.1346    0.0000   -0.0000
   42 O2     3pz       -0.0000    0.0000   -0.0491   -0.0000    0.0000   -0.0000   -0.0000    0.2187   -0.0000   -0.0000
   43 O2     4pz        0.0000    0.0000   -0.0002   -0.0000   -0.0000   -0.0000   -0.0000    0.1616   -0.0000   -0.0000
   44 O2     3d2-      -0.0433   -0.0000    0.0000   -0.0000    0.0486    0.0339    0.0000    0.0000   -0.0000    0.1120
   45 O2     4d2-      -0.0076   -0.0000    0.0000    0.0000   -0.0144    0.0210    0.0000    0.0000   -0.0000    0.0706
[...]

>>> COPY /tmp/ozone_171.00/GMJ_IVECC2_E_M_2_.csv /home/grierjones/DDCASPT2/ozone/multistate/ANO-RCC-VTZP/ozone_171.00/GMJ_IVECC2_E_M_2_.csv

>>> COPY /tmp/ozone_171.00/GMJ_e2_E_M_2_.csv /home/grierjones/DDCASPT2/ozone/multistate/ANO-RCC-VTZP/ozone_171.00/GMJ_e2_E_M_2_.csv

>>> END FOREACH

>>> END FOREACH

>>> EXPORT i = F

>>> EXPORT j = P

>>> IF (-FILE GMJ_e2_${i}_${j}_${k}_.csv)

>>> COPY /tmp/ozone_171.00/GMJ_RHS_F_P_2_.csv /home/grierjones/DDCASPT2/ozone/multistate/ANO-RCC-VTZP/ozone_171.00/GMJ_RHS_F_P_2_.csv

>>> COPY /tmp/ozone_171.00/GMJ_IVECW_F_P_2_.csv /home/grierjones/DDCASPT2/ozone/multistate/ANO-RCC-VTZP/ozone_171.00/GMJ_IVECW_F_P_2_.csv

>>> COPY /tmp/ozone_171.00/GMJ_IVECX_F_P_2_.csv /home/grierjones/DDCASPT2/ozone/multistate/ANO-RCC-VTZP/ozone_171.00/GMJ_IVECX_F_P_2_.csv

>>> COPY /tmp/ozone_171.00/GMJ_IVECC2_F_P_2_.csv /home/grierjones/DDCASPT2/ozone/multistate/ANO-RCC-VTZP/ozone_171.00/GMJ_IVECC2_F_P_2_.csv

>>> COPY /tmp/ozone_171.00/GMJ_e2_F_P_2_.csv /home/grierjones/DDCASPT2/ozone/multistate/ANO-RCC-VTZP/ozone_171.00/GMJ_e2_F_P_2_.csv

>>> END FOREACH

>>> EXPORT j = M

>>> IF (-FILE GMJ_e2_${i}_${j}_${k}_.csv)

>>> COPY /tmp/ozone_171.00/GMJ_RHS_F_M_2_.csv /home/grierjones/DDCASPT2/ozone/multistate/ANO-RCC-VTZP/ozone_171.00/GMJ_RHS_F_M_2_.csv

>>> COPY /tmp/ozone_171.00/GMJ_IVECW_F_M_2_.csv /home/grierjones/DDCASPT2/ozone/multistate/ANO-RCC-VTZP/ozone_171.00/GMJ_IVECW_F_M_2_.csv

>>> COPY /tmp/ozone_171.00/GMJ_IVECX_F_M_2_.csv /home/grierjones/DDCASPT2/ozone/multistate/ANO-RCC-VTZP/ozone_171.00/GMJ_IVECX_F_M_2_.csv

>>> COPY /tmp/ozone_171.00/GMJ_IVECC2_F_M_2_.csv /home/grierjones/DDCASPT2/ozone/multistate/ANO-RCC-VTZP/ozone_171.00/GMJ_IVECC2_F_M_2_.csv

>>> COPY /tmp/ozone_171.00/GMJ_e2_F_M_2_.csv /home/grierjones/DDCASPT2/ozone/multistate/ANO-RCC-VTZP/ozone_171.00/GMJ_e2_F_M_2_.csv

>>> END FOREACH

>>> END FOREACH

>>> EXPORT i = G

>>> EXPORT j = P

>>> IF (-FILE GMJ_e2_${i}_${j}_${k}_.csv)

>>> COPY /tmp/ozone_171.00/GMJ_RHS_G_P_2_.csv /home/grierjones/DDCASPT2/ozone/multistate/ANO-RCC-VTZP/ozone_171.00/GMJ_RHS_G_P_2_.csv

>>> COPY /tmp/ozone_171.00/GMJ_IVECW_G_P_2_.csv /home/grierjones/DDCASPT2/ozone/multistate/ANO-RCC-VTZP/ozone_171.00/GMJ_IVECW_G_P_2_.csv

>>> COPY /tmp/ozone_171.00/GMJ_IVECX_G_P_2_.csv /home/grierjones/DDCASPT2/ozone/multistate/ANO-RCC-VTZP/ozone_171.00/GMJ_IVECX_G_P_2_.csv

>>> COPY /tmp/ozone_171.00/GMJ_IVECC2_G_P_2_.csv /home/grierjones/DDCASPT2/ozone/multistate/ANO-RCC-VTZP/ozone_171.00/GMJ_IVECC2_G_P_2_.csv

>>> COPY /tmp/ozone_171.00/GMJ_e2_G_P_2_.csv /home/grierjones/DDCASPT2/ozone/multistate/ANO-RCC-VTZP/ozone_171.00/GMJ_e2_G_P_2_.csv

>>> END FOREACH

>>> EXPORT j = M

>>> IF (-FILE GMJ_e2_${i}_${j}_${k}_.csv)

>>> COPY /tmp/ozone_171.00/GMJ_RHS_G_M_2_.csv /home/grierjones/DDCASPT2/ozone/multistate/ANO-RCC-VTZP/ozone_171.00/GMJ_RHS_G_M_2_.csv

>>> COPY /tmp/ozone_171.00/GMJ_IVECW_G_M_2_.csv /home/grierjones/DDCASPT2/ozone/multistate/ANO-RCC-VTZP/ozone_171.00/GMJ_IVECW_G_M_2_.csv

>>> COPY /tmp/ozone_171.00/GMJ_IVECX_G_M_2_.csv /home/grierjones/DDCASPT2/ozone/multistate/ANO-RCC-VTZP/ozone_171.00/GMJ_IVECX_G_M_2_.csv

>>> COPY /tmp/ozone_171.00/GMJ_IVECC2_G_M_2_.csv /home/grierjones/DDCASPT2/ozone/multistate/ANO-RCC-VTZP/ozone_171.00/GMJ_IVECC2_G_M_2_.csv

>>> COPY /tmp/ozone_171.00/GMJ_e2_G_M_2_.csv /home/grierjones/DDCASPT2/ozone/multistate/ANO-RCC-VTZP/ozone_171.00/GMJ_e2_G_M_2_.csv

>>> END FOREACH

>>> END FOREACH

>>> EXPORT i = H

>>> EXPORT j = P

>>> IF (-FILE GMJ_e2_${i}_${j}_${k}_.csv)

>>> COPY /tmp/ozone_171.00/GMJ_RHS_H_P_2_.csv /home/grierjones/DDCASPT2/ozone/multistate/ANO-RCC-VTZP/ozone_171.00/GMJ_RHS_H_P_2_.csv

>>> COPY /tmp/ozone_171.00/GMJ_IVECW_H_P_2_.csv /home/grierjones/DDCASPT2/ozone/multistate/ANO-RCC-VTZP/ozone_171.00/GMJ_IVECW_H_P_2_.csv

>>> COPY /tmp/ozone_171.00/GMJ_IVECX_H_P_2_.csv /home/grierjones/DDCASPT2/ozone/multistate/ANO-RCC-VTZP/ozone_171.00/GMJ_IVECX_H_P_2_.csv

>>> COPY /tmp/ozone_171.00/GMJ_IVECC2_H_P_2_.csv /home/grierjones/DDCASPT2/ozone/multistate/ANO-RCC-VTZP/ozone_171.00/GMJ_IVECC2_H_P_2_.csv

>>> COPY /tmp/ozone_171.00/GMJ_e2_H_P_2_.csv /home/grierjones/DDCASPT2/ozone/multistate/ANO-RCC-VTZP/ozone_171.00/GMJ_e2_H_P_2_.csv

>>> END FOREACH

>>> EXPORT j = M

>>> IF (-FILE GMJ_e2_${i}_${j}_${k}_.csv)

>>> COPY /tmp/ozone_171.00/GMJ_RHS_H_M_2_.csv /home/grierjones/DDCASPT2/ozone/multistate/ANO-RCC-VTZP/ozone_171.00/GMJ_RHS_H_M_2_.csv

>>> COPY /tmp/ozone_171.00/GMJ_IVECW_H_M_2_.csv /home/grierjones/DDCASPT2/ozone/multistate/ANO-RCC-VTZP/ozone_171.00/GMJ_IVECW_H_M_2_.csv

>>> COPY /tmp/ozone_171.00/GMJ_IVECX_H_M_2_.csv /home/grierjones/DDCASPT2/ozone/multistate/ANO-RCC-VTZP/ozone_171.00/GMJ_IVECX_H_M_2_.csv

>>> COPY /tmp/ozone_171.00/GMJ_IVECC2_H_M_2_.csv /home/grierjones/DDCASPT2/ozone/multistate/ANO-RCC-VTZP/ozone_171.00/GMJ_IVECC2_H_M_2_.csv

>>> COPY /tmp/ozone_171.00/GMJ_e2_H_M_2_.csv /home/grierjones/DDCASPT2/ozone/multistate/ANO-RCC-VTZP/ozone_171.00/GMJ_e2_H_M_2_.csv

>>> END FOREACH

>>> END FOREACH

>>> END FOREACH

>>> EXPORT k = 3

>>> EXPORT i = B

>>> EXPORT j = P

>>> IF (-FILE GMJ_e2_${i}_${j}_${k}_.csv)

>>> COPY /tmp/ozone_171.00/GMJ_RHS_B_P_3_.csv /home/grierjones/DDCASPT2/ozone/multistate/ANO-RCC-VTZP/ozone_171.00/GMJ_RHS_B_P_3_.csv

>>> COPY /tmp/ozone_171.00/GMJ_IVECW_B_P_3_.csv /home/grierjones/DDCASPT2/ozone/multistate/ANO-RCC-VTZP/ozone_171.00/GMJ_IVECW_B_P_3_.csv

>>> COPY /tmp/ozone_171.00/GMJ_IVECX_B_P_3_.csv /home/grierjones/DDCASPT2/ozone/multistate/ANO-RCC-VTZP/ozone_171.00/GMJ_IVECX_B_P_3_.csv

>>> COPY /tmp/ozone_171.00/GMJ_IVECC2_B_P_3_.csv /home/grierjones/DDCASPT2/ozone/multistate/ANO-RCC-VTZP/ozone_171.00/GMJ_IVECC2_B_P_3_.csv

>>> COPY /tmp/ozone_171.00/GMJ_e2_B_P_3_.csv /home/grierjones/DDCASPT2/ozone/multistate/ANO-RCC-VTZP/ozone_171.00/GMJ_e2_B_P_3_.csv

>>> END FOREACH

>>> EXPORT j = M

>>> IF (-FILE GMJ_e2_${i}_${j}_${k}_.csv)

>>> COPY /tmp/ozone_171.00/GMJ_RHS_B_M_3_.csv /home/grierjones/DDCASPT2/ozone/multistate/ANO-RCC-VTZP/ozone_171.00/GMJ_RHS_B_M_3_.csv

>>> COPY /tmp/ozone_171.00/GMJ_IVECW_B_M_3_.csv /home/grierjones/DDCASPT2/ozone/multistate/ANO-RCC-VTZP/ozone_171.00/GMJ_IVECW_B_M_3_.csv

>>> COPY /tmp/ozone_171.00/GMJ_IVECX_B_M_3_.csv /home/grierjones/DDCASPT2/ozone/multistate/ANO-RCC-VTZP/ozone_171.00/GMJ_IVECX_B_M_3_.csv

>>> COPY /tmp/ozone_171.00/GMJ_IVECC2_B_M_3_.csv /home/grierjones/DDCASPT2/ozone/multistate/ANO-RCC-VTZP/ozone_171.00/GMJ_IVECC2_B_M_3_.csv

>>> COPY /tmp/ozone_171.00/GMJ_e2_B_M_3_.csv /home/grierjones/DDCASPT2/ozone/multistate/ANO-RCC-VTZP/ozone_171.00/GMJ_e2_B_M_3_.csv

>>> END FOREACH

>>> END FOREACH

>>> EXPORT i = E

>>> EXPORT j = P

>>> IF (-FILE GMJ_e2_${i}_${j}_${k}_.csv)

>>> COPY /tmp/ozone_171.00/GMJ_RHS_E_P_3_.csv /home/grierjones/DDCASPT2/ozone/multistate/ANO-RCC-VTZP/ozone_171.00/GMJ_RHS_E_P_3_.csv

>>> COPY /tmp/ozone_171.00/GMJ_IVECW_E_P_3_.csv /home/grierjones/DDCASPT2/ozone/multistate/ANO-RCC-VTZP/ozone_171.00/GMJ_IVECW_E_P_3_.csv

>>> COPY /tmp/ozone_171.00/GMJ_IVECX_E_P_3_.csv /home/grierjones/DDCASPT2/ozone/multistate/ANO-RCC-VTZP/ozone_171.00/GMJ_IVECX_E_P_3_.csv

>>> COPY /tmp/ozone_171.00/GMJ_IVECC2_E_P_3_.csv /home/grierjones/DDCASPT2/ozone/multistate/ANO-RCC-VTZP/ozone_171.00/GMJ_IVECC2_E_P_3_.csv

>>> COPY /tmp/ozone_171.00/GMJ_e2_E_P_3_.csv /home/grierjones/DDCASPT2/ozone/multistate/ANO-RCC-VTZP/ozone_171.00/GMJ_e2_E_P_3_.csv

>>> END FOREACH

>>> EXPORT j = M

>>> IF (-FILE GMJ_e2_${i}_${j}_${k}_.csv)

>>> COPY /tmp/ozone_171.00/GMJ_RHS_E_M_3_.csv /home/grierjones/DDCASPT2/ozone/multistate/ANO-RCC-VTZP/ozone_171.00/GMJ_RHS_E_M_3_.csv

>>> COPY /tmp/ozone_171.00/GMJ_IVECW_E_M_3_.csv /home/grierjones/DDCASPT2/ozone/multistate/ANO-RCC-VTZP/ozone_171.00/GMJ_IVECW_E_M_3_.csv

>>> COPY /tmp/ozone_171.00/GMJ_IVECX_E_M_3_.csv /home/grierjones/DDCASPT2/ozone/multistate/ANO-RCC-VTZP/ozone_171.00/GMJ_IVECX_E_M_3_.csv

>>> COPY /tmp/ozone_171.00/GMJ_IVECC2_E_M_3_.csv /home/grierjones/DDCASPT2/ozone/multistate/ANO-RCC-VTZP/ozone_171.00/GMJ_IVECC2_E_M_3_.csv

>>> COPY /tmp/ozone_171.00/GMJ_e2_E_M_3_.csv /home/grierjones/DDCASPT2/ozone/multistate/ANO-RCC-VTZP/ozone_171.00/GMJ_e2_E_M_3_.csv

>>> END FOREACH

>>> END FOREACH

>>> EXPORT i = F

>>> EXPORT j = P

>>> IF (-FILE GMJ_e2_${i}_${j}_${k}_.csv)

>>> COPY /tmp/ozone_171.00/GMJ_RHS_F_P_3_.csv /home/grierjones/DDCASPT2/ozone/multistate/ANO-RCC-VTZP/ozone_171.00/GMJ_RHS_F_P_3_.csv

>>> COPY /tmp/ozone_171.00/GMJ_IVECW_F_P_3_.csv /home/grierjones/DDCASPT2/ozone/multistate/ANO-RCC-VTZP/ozone_171.00/GMJ_IVECW_F_P_3_.csv

>>> COPY /tmp/ozone_171.00/GMJ_IVECX_F_P_3_.csv /home/grierjones/DDCASPT2/ozone/multistate/ANO-RCC-VTZP/ozone_171.00/GMJ_IVECX_F_P_3_.csv

>>> COPY /tmp/ozone_171.00/GMJ_IVECC2_F_P_3_.csv /home/grierjones/DDCASPT2/ozone/multistate/ANO-RCC-VTZP/ozone_171.00/GMJ_IVECC2_F_P_3_.csv

>>> COPY /tmp/ozone_171.00/GMJ_e2_F_P_3_.csv /home/grierjones/DDCASPT2/ozone/multistate/ANO-RCC-VTZP/ozone_171.00/GMJ_e2_F_P_3_.csv

>>> END FOREACH

>>> EXPORT j = M

>>> IF (-FILE GMJ_e2_${i}_${j}_${k}_.csv)

>>> COPY /tmp/ozone_171.00/GMJ_RHS_F_M_3_.csv /home/grierjones/DDCASPT2/ozone/multistate/ANO-RCC-VTZP/ozone_171.00/GMJ_RHS_F_M_3_.csv

>>> COPY /tmp/ozone_171.00/GMJ_IVECW_F_M_3_.csv /home/grierjones/DDCASPT2/ozone/multistate/ANO-RCC-VTZP/ozone_171.00/GMJ_IVECW_F_M_3_.csv

>>> COPY /tmp/ozone_171.00/GMJ_IVECX_F_M_3_.csv /home/grierjones/DDCASPT2/ozone/multistate/ANO-RCC-VTZP/ozone_171.00/GMJ_IVECX_F_M_3_.csv

>>> COPY /tmp/ozone_171.00/GMJ_IVECC2_F_M_3_.csv /home/grierjones/DDCASPT2/ozone/multistate/ANO-RCC-VTZP/ozone_171.00/GMJ_IVECC2_F_M_3_.csv

>>> COPY /tmp/ozone_171.00/GMJ_e2_F_M_3_.csv /home/grierjones/DDCASPT2/ozone/multistate/ANO-RCC-VTZP/ozone_171.00/GMJ_e2_F_M_3_.csv

>>> END FOREACH

>>> END FOREACH

>>> EXPORT i = G

>>> EXPORT j = P

>>> IF (-FILE GMJ_e2_${i}_${j}_${k}_.csv)

>>> COPY /tmp/ozone_171.00/GMJ_RHS_G_P_3_.csv /home/grierjones/DDCASPT2/ozone/multistate/ANO-RCC-VTZP/ozone_171.00/GMJ_RHS_G_P_3_.csv

>>> COPY /tmp/ozone_171.00/GMJ_IVECW_G_P_3_.csv /home/grierjones/DDCASPT2/ozone/multistate/ANO-RCC-VTZP/ozone_171.00/GMJ_IVECW_G_P_3_.csv

>>> COPY /tmp/ozone_171.00/GMJ_IVECX_G_P_3_.csv /home/grierjones/DDCASPT2/ozone/multistate/ANO-RCC-VTZP/ozone_171.00/GMJ_IVECX_G_P_3_.csv

>>> COPY /tmp/ozone_171.00/GMJ_IVECC2_G_P_3_.csv /home/grierjones/DDCASPT2/ozone/multistate/ANO-RCC-VTZP/ozone_171.00/GMJ_IVECC2_G_P_3_.csv

>>> COPY /tmp/ozone_171.00/GMJ_e2_G_P_3_.csv /home/grierjones/DDCASPT2/ozone/multistate/ANO-RCC-VTZP/ozone_171.00/GMJ_e2_G_P_3_.csv

>>> END FOREACH

>>> EXPORT j = M

>>> IF (-FILE GMJ_e2_${i}_${j}_${k}_.csv)

>>> COPY /tmp/ozone_171.00/GMJ_RHS_G_M_3_.csv /home/grierjones/DDCASPT2/ozone/multistate/ANO-RCC-VTZP/ozone_171.00/GMJ_RHS_G_M_3_.csv

>>> COPY /tmp/ozone_171.00/GMJ_IVECW_G_M_3_.csv /home/grierjones/DDCASPT2/ozone/multistate/ANO-RCC-VTZP/ozone_171.00/GMJ_IVECW_G_M_3_.csv

>>> COPY /tmp/ozone_171.00/GMJ_IVECX_G_M_3_.csv /home/grierjones/DDCASPT2/ozone/multistate/ANO-RCC-VTZP/ozone_171.00/GMJ_IVECX_G_M_3_.csv

>>> COPY /tmp/ozone_171.00/GMJ_IVECC2_G_M_3_.csv /home/grierjones/DDCASPT2/ozone/multistate/ANO-RCC-VTZP/ozone_171.00/GMJ_IVECC2_G_M_3_.csv

>>> COPY /tmp/ozone_171.00/GMJ_e2_G_M_3_.csv /home/grierjones/DDCASPT2/ozone/multistate/ANO-RCC-VTZP/ozone_171.00/GMJ_e2_G_M_3_.csv

>>> END FOREACH

>>> END FOREACH

>>> EXPORT i = H

>>> EXPORT j = P

>>> IF (-FILE GMJ_e2_${i}_${j}_${k}_.csv)

>>> COPY /tmp/ozone_171.00/GMJ_RHS_H_P_3_.csv /home/grierjones/DDCASPT2/ozone/multistate/ANO-RCC-VTZP/ozone_171.00/GMJ_RHS_H_P_3_.csv

>>> COPY /tmp/ozone_171.00/GMJ_IVECW_H_P_3_.csv /home/grierjones/DDCASPT2/ozone/multistate/ANO-RCC-VTZP/ozone_171.00/GMJ_IVECW_H_P_3_.csv

>>> COPY /tmp/ozone_171.00/GMJ_IVECX_H_P_3_.csv /home/grierjones/DDCASPT2/ozone/multistate/ANO-RCC-VTZP/ozone_171.00/GMJ_IVECX_H_P_3_.csv

>>> COPY /tmp/ozone_171.00/GMJ_IVECC2_H_P_3_.csv /home/grierjones/DDCASPT2/ozone/multistate/ANO-RCC-VTZP/ozone_171.00/GMJ_IVECC2_H_P_3_.csv

>>> COPY /tmp/ozone_171.00/GMJ_e2_H_P_3_.csv /home/grierjones/DDCASPT2/ozone/multistate/ANO-RCC-VTZP/ozone_171.00/GMJ_e2_H_P_3_.csv

>>> END FOREACH

>>> EXPORT j = M

>>> IF (-FILE GMJ_e2_${i}_${j}_${k}_.csv)

>>> COPY /tmp/ozone_171.00/GMJ_RHS_H_M_3_.csv /home/grierjones/DDCASPT2/ozone/multistate/ANO-RCC-VTZP/ozone_171.00/GMJ_RHS_H_M_3_.csv

>>> COPY /tmp/ozone_171.00/GMJ_IVECW_H_M_3_.csv /home/grierjones/DDCASPT2/ozone/multistate/ANO-RCC-VTZP/ozone_171.00/GMJ_IVECW_H_M_3_.csv

>>> COPY /tmp/ozone_171.00/GMJ_IVECX_H_M_3_.csv /home/grierjones/DDCASPT2/ozone/multistate/ANO-RCC-VTZP/ozone_171.00/GMJ_IVECX_H_M_3_.csv

>>> COPY /tmp/ozone_171.00/GMJ_IVECC2_H_M_3_.csv /home/grierjones/DDCASPT2/ozone/multistate/ANO-RCC-VTZP/ozone_171.00/GMJ_IVECC2_H_M_3_.csv

>>> COPY /tmp/ozone_171.00/GMJ_e2_H_M_3_.csv /home/grierjones/DDCASPT2/ozone/multistate/ANO-RCC-VTZP/ozone_171.00/GMJ_e2_H_M_3_.csv

>>> END FOREACH

>>> END FOREACH

>>> END FOREACH

>>> EXPORT j = 1

>>> EXPORT i = A

>>> IF (-FILE GMJ_e2_${i}_${j}_.csv)

>>> COPY /tmp/ozone_171.00/GMJ_RHS_A_1_.csv /home/grierjones/DDCASPT2/ozone/multistate/ANO-RCC-VTZP/ozone_171.00/GMJ_RHS_A_1_.csv

>>> COPY /tmp/ozone_171.00/GMJ_IVECW_A_1_.csv /home/grierjones/DDCASPT2/ozone/multistate/ANO-RCC-VTZP/ozone_171.00/GMJ_IVECW_A_1_.csv

>>> COPY /tmp/ozone_171.00/GMJ_IVECX_A_1_.csv /home/grierjones/DDCASPT2/ozone/multistate/ANO-RCC-VTZP/ozone_171.00/GMJ_IVECX_A_1_.csv

>>> COPY /tmp/ozone_171.00/GMJ_IVECC2_A_1_.csv /home/grierjones/DDCASPT2/ozone/multistate/ANO-RCC-VTZP/ozone_171.00/GMJ_IVECC2_A_1_.csv

>>> COPY /tmp/ozone_171.00/GMJ_e2_A_1_.csv /home/grierjones/DDCASPT2/ozone/multistate/ANO-RCC-VTZP/ozone_171.00/GMJ_e2_A_1_.csv

>>> END FOREACH

>>> EXPORT i = C

>>> IF (-FILE GMJ_e2_${i}_${j}_.csv)

>>> COPY /tmp/ozone_171.00/GMJ_RHS_C_1_.csv /home/grierjones/DDCASPT2/ozone/multistate/ANO-RCC-VTZP/ozone_171.00/GMJ_RHS_C_1_.csv

>>> COPY /tmp/ozone_171.00/GMJ_IVECW_C_1_.csv /home/grierjones/DDCASPT2/ozone/multistate/ANO-RCC-VTZP/ozone_171.00/GMJ_IVECW_C_1_.csv

>>> COPY /tmp/ozone_171.00/GMJ_IVECX_C_1_.csv /home/grierjones/DDCASPT2/ozone/multistate/ANO-RCC-VTZP/ozone_171.00/GMJ_IVECX_C_1_.csv

>>> COPY /tmp/ozone_171.00/GMJ_IVECC2_C_1_.csv /home/grierjones/DDCASPT2/ozone/multistate/ANO-RCC-VTZP/ozone_171.00/GMJ_IVECC2_C_1_.csv

>>> COPY /tmp/ozone_171.00/GMJ_e2_C_1_.csv /home/grierjones/DDCASPT2/ozone/multistate/ANO-RCC-VTZP/ozone_171.00/GMJ_e2_C_1_.csv

>>> END FOREACH

>>> EXPORT i = D

>>> IF (-FILE GMJ_e2_${i}_${j}_.csv)

>>> COPY /tmp/ozone_171.00/GMJ_RHS_D_1_.csv /home/grierjones/DDCASPT2/ozone/multistate/ANO-RCC-VTZP/ozone_171.00/GMJ_RHS_D_1_.csv

>>> COPY /tmp/ozone_171.00/GMJ_IVECW_D_1_.csv /home/grierjones/DDCASPT2/ozone/multistate/ANO-RCC-VTZP/ozone_171.00/GMJ_IVECW_D_1_.csv

>>> COPY /tmp/ozone_171.00/GMJ_IVECX_D_1_.csv /home/grierjones/DDCASPT2/ozone/multistate/ANO-RCC-VTZP/ozone_171.00/GMJ_IVECX_D_1_.csv

>>> COPY /tmp/ozone_171.00/GMJ_IVECC2_D_1_.csv /home/grierjones/DDCASPT2/ozone/multistate/ANO-RCC-VTZP/ozone_171.00/GMJ_IVECC2_D_1_.csv

>>> COPY /tmp/ozone_171.00/GMJ_e2_D_1_.csv /home/grierjones/DDCASPT2/ozone/multistate/ANO-RCC-VTZP/ozone_171.00/GMJ_e2_D_1_.csv

>>> END FOREACH

>>> END FOREACH

>>> EXPORT j = 2

>>> EXPORT i = A

>>> IF (-FILE GMJ_e2_${i}_${j}_.csv)

>>> COPY /tmp/ozone_171.00/GMJ_RHS_A_2_.csv /home/grierjones/DDCASPT2/ozone/multistate/ANO-RCC-VTZP/ozone_171.00/GMJ_RHS_A_2_.csv

>>> COPY /tmp/ozone_171.00/GMJ_IVECW_A_2_.csv /home/grierjones/DDCASPT2/ozone/multistate/ANO-RCC-VTZP/ozone_171.00/GMJ_IVECW_A_2_.csv

>>> COPY /tmp/ozone_171.00/GMJ_IVECX_A_2_.csv /home/grierjones/DDCASPT2/ozone/multistate/ANO-RCC-VTZP/ozone_171.00/GMJ_IVECX_A_2_.csv

>>> COPY /tmp/ozone_171.00/GMJ_IVECC2_A_2_.csv /home/grierjones/DDCASPT2/ozone/multistate/ANO-RCC-VTZP/ozone_171.00/GMJ_IVECC2_A_2_.csv

>>> COPY /tmp/ozone_171.00/GMJ_e2_A_2_.csv /home/grierjones/DDCASPT2/ozone/multistate/ANO-RCC-VTZP/ozone_171.00/GMJ_e2_A_2_.csv

>>> END FOREACH

>>> EXPORT i = C

>>> IF (-FILE GMJ_e2_${i}_${j}_.csv)

>>> COPY /tmp/ozone_171.00/GMJ_RHS_C_2_.csv /home/grierjones/DDCASPT2/ozone/multistate/ANO-RCC-VTZP/ozone_171.00/GMJ_RHS_C_2_.csv

>>> COPY /tmp/ozone_171.00/GMJ_IVECW_C_2_.csv /home/grierjones/DDCASPT2/ozone/multistate/ANO-RCC-VTZP/ozone_171.00/GMJ_IVECW_C_2_.csv

>>> COPY /tmp/ozone_171.00/GMJ_IVECX_C_2_.csv /home/grierjones/DDCASPT2/ozone/multistate/ANO-RCC-VTZP/ozone_171.00/GMJ_IVECX_C_2_.csv

>>> COPY /tmp/ozone_171.00/GMJ_IVECC2_C_2_.csv /home/grierjones/DDCASPT2/ozone/multistate/ANO-RCC-VTZP/ozone_171.00/GMJ_IVECC2_C_2_.csv

>>> COPY /tmp/ozone_171.00/GMJ_e2_C_2_.csv /home/grierjones/DDCASPT2/ozone/multistate/ANO-RCC-VTZP/ozone_171.00/GMJ_e2_C_2_.csv

>>> END FOREACH

>>> EXPORT i = D

>>> IF (-FILE GMJ_e2_${i}_${j}_.csv)

>>> COPY /tmp/ozone_171.00/GMJ_RHS_D_2_.csv /home/grierjones/DDCASPT2/ozone/multistate/ANO-RCC-VTZP/ozone_171.00/GMJ_RHS_D_2_.csv

>>> COPY /tmp/ozone_171.00/GMJ_IVECW_D_2_.csv /home/grierjones/DDCASPT2/ozone/multistate/ANO-RCC-VTZP/ozone_171.00/GMJ_IVECW_D_2_.csv

>>> COPY /tmp/ozone_171.00/GMJ_IVECX_D_2_.csv /home/grierjones/DDCASPT2/ozone/multistate/ANO-RCC-VTZP/ozone_171.00/GMJ_IVECX_D_2_.csv

>>> COPY /tmp/ozone_171.00/GMJ_IVECC2_D_2_.csv /home/grierjones/DDCASPT2/ozone/multistate/ANO-RCC-VTZP/ozone_171.00/GMJ_IVECC2_D_2_.csv

>>> COPY /tmp/ozone_171.00/GMJ_e2_D_2_.csv /home/grierjones/DDCASPT2/ozone/multistate/ANO-RCC-VTZP/ozone_171.00/GMJ_e2_D_2_.csv

>>> END FOREACH

>>> END FOREACH

>>> EXPORT j = 3

>>> EXPORT i = A

>>> IF (-FILE GMJ_e2_${i}_${j}_.csv)

>>> COPY /tmp/ozone_171.00/GMJ_RHS_A_3_.csv /home/grierjones/DDCASPT2/ozone/multistate/ANO-RCC-VTZP/ozone_171.00/GMJ_RHS_A_3_.csv

>>> COPY /tmp/ozone_171.00/GMJ_IVECW_A_3_.csv /home/grierjones/DDCASPT2/ozone/multistate/ANO-RCC-VTZP/ozone_171.00/GMJ_IVECW_A_3_.csv

>>> COPY /tmp/ozone_171.00/GMJ_IVECX_A_3_.csv /home/grierjones/DDCASPT2/ozone/multistate/ANO-RCC-VTZP/ozone_171.00/GMJ_IVECX_A_3_.csv

>>> COPY /tmp/ozone_171.00/GMJ_IVECC2_A_3_.csv /home/grierjones/DDCASPT2/ozone/multistate/ANO-RCC-VTZP/ozone_171.00/GMJ_IVECC2_A_3_.csv

>>> COPY /tmp/ozone_171.00/GMJ_e2_A_3_.csv /home/grierjones/DDCASPT2/ozone/multistate/ANO-RCC-VTZP/ozone_171.00/GMJ_e2_A_3_.csv

>>> END FOREACH

>>> EXPORT i = C

>>> IF (-FILE GMJ_e2_${i}_${j}_.csv)

>>> COPY /tmp/ozone_171.00/GMJ_RHS_C_3_.csv /home/grierjones/DDCASPT2/ozone/multistate/ANO-RCC-VTZP/ozone_171.00/GMJ_RHS_C_3_.csv

>>> COPY /tmp/ozone_171.00/GMJ_IVECW_C_3_.csv /home/grierjones/DDCASPT2/ozone/multistate/ANO-RCC-VTZP/ozone_171.00/GMJ_IVECW_C_3_.csv

>>> COPY /tmp/ozone_171.00/GMJ_IVECX_C_3_.csv /home/grierjones/DDCASPT2/ozone/multistate/ANO-RCC-VTZP/ozone_171.00/GMJ_IVECX_C_3_.csv

>>> COPY /tmp/ozone_171.00/GMJ_IVECC2_C_3_.csv /home/grierjones/DDCASPT2/ozone/multistate/ANO-RCC-VTZP/ozone_171.00/GMJ_IVECC2_C_3_.csv

>>> COPY /tmp/ozone_171.00/GMJ_e2_C_3_.csv /home/grierjones/DDCASPT2/ozone/multistate/ANO-RCC-VTZP/ozone_171.00/GMJ_e2_C_3_.csv

>>> END FOREACH

>>> EXPORT i = D

>>> IF (-FILE GMJ_e2_${i}_${j}_.csv)

>>> COPY /tmp/ozone_171.00/GMJ_RHS_D_3_.csv /home/grierjones/DDCASPT2/ozone/multistate/ANO-RCC-VTZP/ozone_171.00/GMJ_RHS_D_3_.csv

>>> COPY /tmp/ozone_171.00/GMJ_IVECW_D_3_.csv /home/grierjones/DDCASPT2/ozone/multistate/ANO-RCC-VTZP/ozone_171.00/GMJ_IVECW_D_3_.csv

>>> COPY /tmp/ozone_171.00/GMJ_IVECX_D_3_.csv /home/grierjones/DDCASPT2/ozone/multistate/ANO-RCC-VTZP/ozone_171.00/GMJ_IVECX_D_3_.csv

>>> COPY /tmp/ozone_171.00/GMJ_IVECC2_D_3_.csv /home/grierjones/DDCASPT2/ozone/multistate/ANO-RCC-VTZP/ozone_171.00/GMJ_IVECC2_D_3_.csv

>>> COPY /tmp/ozone_171.00/GMJ_e2_D_3_.csv /home/grierjones/DDCASPT2/ozone/multistate/ANO-RCC-VTZP/ozone_171.00/GMJ_e2_D_3_.csv

>>> END FOREACH

>>> END FOREACH

.########################.
.# Non-zero return code #.
.########################.

    Timing: Wall=42.36 User=33.21 System=9.12
********************************************
*** WorkDir at /tmp/ozone_171.00 cleaned ***
********************************************
