   This run of MOLCAS is using the pymolcas driver

                             OPE
                             OPE          NMOL  CASOP  ENMOLC A   SO
                 OPE        NMOLC        AS  OP EN  MO LC     AS  OP
                OPENM       OL CA        SO  PE NM  OL CA     SOP EN
                OP EN      MO   LC       AS  OP ENMOL  CASO   PENMOL
                OP  EN     MO   LC       AS  OP EN     MO     LC ASO
               OP   E  NMOL  C  AS       OP  EN MO     LC     AS  OP
               OP  E   NMO   LC AS        OPEN  MO     LCASOP EN   M
               O  PEN   MO  LCA  SO
            OPE   NMO   L   CAS    OP
        OPENMOL  CASOP     ENMOL   CASOPE
     OPENMOLCA   SOPENMOLCASOPEN   MOLCASOPE
    OPENMOLCAS   OP           EN   MOL    CAS
    OPENMOLCAS       OP  ENM        O     LCA
    OPENMOLCAS    OPEN  MOLCASO     P  E  NMO
    OPENMOLCAS     OP               E  N  MOL
    OPENMOLCA   SO           PENM   O  L  CAS    OPEN    MO    LCAS
    OPENMOLCA   SOP           ENM   O  L  CAS   OP  EN  MOLC  AS   O
    OPENMOLCA   SOPE           NM      O  LCA   S      OP  EN MO
    OPENMOLC                AS         O  PEN   M      OL  CA  SOPE
    OPENMO        LCASOPE  NMOL        C  ASO   P      ENMOLC     AS
    OPE     NMO      LCA  SO     P     E   NM   OL  CA SO  PE N   MO
          OPENMOLCA            SOPE   NMO        LCAS  O    P  ENMO
     OPENMOLCASOPENMOLCASOPENMOLCASOPENMOLCA
        OPENMOLCASOPENMOLCASOPENMOLCASOPE
            OPENMOLCASOPENMOLCASOPENM
               OPENMOLCASOPENMOLCA        version: ea724fe96-dirty
                   OPENMOLCASO
                       OPE                tag:

 OpenMolcas is free software; you can redistribute it and/or modify it
 under the terms of the GNU Lesser General Public License version 2.1.
 OpenMolcas is distributed in the hope that it will be useful, but it
 is provided "as is" and without any express or implied warranties.
 For more details see the full text of the license in the file
 LICENSE or in <http://www.gnu.org/licenses/>.

                 Copyright (C) The OpenMolcas Authors
           For the author list and the recommended citation,
                   consult the file CONTRIBUTORS.md

           *************************************************
           * pymolcas version py2.28                       *
           *   build c4a6d18ded8cb6cad61d2372a9abd97c      *
           *   (after the EMIL interpreter by V. Veryazov) *
           *************************************************

configuration info
------------------
C Compiler ID: Intel
C flags: -std=gnu99
Fortran Compiler ID: Intel
Fortran flags: -fpp -i8 -r8 -heap-arrays
Definitions: _MOLCAS_;_I8_;_LINUX_
Parallel: OFF (GA=OFF)


   -------------------------------------------------------------------------------
  |
  |              Project: 6.44
  |       Submitted from: /home/grierjones/DDCASPT2/iron_oxo_DDCASPT2/cluster/6.44
  |         Scratch area: /tmp/6.44
  |      Save outputs to: /home/grierjones/DDCASPT2/iron_oxo_DDCASPT2/cluster/6.44
  |               Molcas: /home/grierjones/Test/build
  |
  | Scratch area is empty
  |
  |       MOLCAS_DRIVER = /usr/local/pymolcas
  | MOLCAS_KEEP_WORKDIR = NO
  |  MOLCAS_NEW_WORKDIR = YES
  |       MOLCAS_NPROCS = 1
  |        MOLCAS_PRINT = NORMAL
  |       MOLCAS_SOURCE = /home/grierjones/Test/build
  |    MOLCAS_STRUCTURE = 0
  |
   -------------------------------------------------------------------------------

++ ---------   Input file   ---------

&GATEWAY
coord=6.44.xyz
Basis = ANO-RCC-VDZP
Group = nosymm
Expert
End of Input

&SEWARD
End of Input

&SCF
UHF
charge
2
spin
5
FileOrb
/home/grierjones/DDCASPT2/iron_oxo_DDCASPT2/cluster/6.43/6.43.UhfOrb

>>> COPY $WorkDir/6.44.scf.h5 $CurrDir/

&RASSCF
Title= RASSCF
FileOrb
/home/grierjones/DDCASPT2/iron_oxo_DDCASPT2/cluster/6.43/6.43.RasOrb
NACTEL
10 0 0
RAS2
14
Symmetry
1
Spin
5
charge
2
orblisting
all
ITERation
300 200

>>> COPY $WorkDir/6.44.rasscf.h5 $CurrDir/

>>> COPY $WorkDir/GMJ_Fock_MO.csv $CurrDir/6.44.GMJ_Fock_MO.csv

>>> COPY $WorkDir/GMJ_PT2_Fock_MO.csv $CurrDir/6.44.GMJ_PT2_Fock_MO.csv

&MOTRA
Frozen=0
LUMORB

>>> COPY $WorkDir/GMJ_one_int_indx.csv $CurrDir/6.44.GMJ_one_int_indx.csv

>>> COPY $WorkDir/GMJ_one_int.csv $CurrDir/6.44.GMJ_one_int.csv

>>> COPY $WorkDir/GMJ_two_int_indx.csv $CurrDir/6.44.GMJ_two_int_indx.csv

>>> COPY $WorkDir/GMJ_two_int.csv $CurrDir/6.44.GMJ_two_int.csv

&CASPT2
Frozen
0
MAXITER
50

>>> FOREACH i IN (B,E,F,G,H)

  >>> FOREACH j IN (P,M)

    >>> IF (-FILE GMJ_e2_${i}_${j}.csv)

      >>> COPY $WorkDir/GMJ_RHS_${i}_${j}.csv $CurrDir/GMJ_RHS_${i}_${j}.csv

      >>> COPY $WorkDir/GMJ_IVECW_${i}_${j}.csv $CurrDir/GMJ_IVECW_${i}_${j}.csv

      >>> COPY $WorkDir/GMJ_IVECX_${i}_${j}.csv $CurrDir/GMJ_IVECX_${i}_${j}.csv

      >>> COPY $WorkDir/GMJ_IVECC2_${i}_${j}.csv $CurrDir/GMJ_IVECC2_${i}_${j}.csv

      >>> COPY $WorkDir/GMJ_e2_${i}_${j}.csv $CurrDir/GMJ_e2_${i}_${j}.csv

    >>> END IF

  >>> END FOREACH

>>> END FOREACH

>>> FOREACH i IN (A,C,D)

  >>> IF (-FILE GMJ_e2_$i.csv)

    >>> COPY $WorkDir/GMJ_RHS_$i.csv $CurrDir/GMJ_RHS_$i.csv

    >>> COPY $WorkDir/GMJ_IVECW_$i.csv $CurrDir/GMJ_IVECW_$i.csv

    >>> COPY $WorkDir/GMJ_IVECX_$i.csv $CurrDir/GMJ_IVECX_$i.csv

    >>> COPY $WorkDir/GMJ_IVECC2_$i.csv $CurrDir/GMJ_IVECC2_$i.csv

    >>> COPY $WorkDir/GMJ_e2_$i.csv $CurrDir/GMJ_e2_$i.csv

  >>> END IF

>>> END FOREACH

-- ----------------------------------

--- Start Module: gateway at Wed Dec 25 16:24:33 2024 ---
 
()()()()()()()()()()()()()()()()()()()()()()()()()()()()()()()()()()()()()()()()()()()()()()()()()()

                                              &GATEWAY

                                   only a single process is used
                       available to each process: 2.0 GB of memory, 1 thread?
()()()()()()()()()()()()()()()()()()()()()()()()()()()()()()()()()()()()()()()()()()()()()()()()()()
 
 ###############################################################################
 ###############################################################################
 ###                                                                         ###
 ###                                                                         ###
 ###                                                                         ###
 ###    WARNING: EXPERT option is ON!                                        ###
 ###                                                                         ###
 ###                                                                         ###
 ###############################################################################
 ###############################################################################
 
++    Symmetry information:
      ---------------------
 
                    Character Table for C1 
 
                             E  
                    a        1  x, y, xy, Rz, z, xz, Ry, yz, Rx, I
--
 
 
++    Basis set information:
      ----------------------
 
 
      Basis set label: O.ANO-RCC...3S2P1D.
 
      Electronic valence basis set:
      ------------------
      Associated Effective Charge   8.000000 au
      Associated Actual Charge      8.000000 au
      Nuclear Model: Point charge
 
      Shell  nPrim  nBasis  Cartesian Spherical Contaminant
         s      14       3        X                  
         p       9       2        X                  
         d       4       1                 X         
 
 
      Basis set label: FE.ANO-RCC...5S4P2D1F.
 
      Electronic valence basis set:
      ------------------
      Associated Effective Charge  26.000000 au
      Associated Actual Charge     26.000000 au
      Nuclear Model: Point charge
 
      Shell  nPrim  nBasis  Cartesian Spherical Contaminant
         s      21       5        X                  
         p      15       4        X                  
         d      10       2                 X         
         f       6       1                 X         
--
 
 
++    Molecular structure info:
      -------------------------
 
                    ************************************************ 
                    **** Cartesian Coordinates / Bohr, Angstrom **** 
                    ************************************************ 
 
     Center  Label                x              y              z                     x              y              z
        1      O1               0.000000       0.000000       7.596019              0.000000       0.000000       4.019640
        2      FE2              0.000000       0.000000      -4.572457              0.000000       0.000000      -2.419640
--
 
 
            Nuclear Potential Energy             17.09334892 au
 
 ###############################################################################
 ###############################################################################
 ###                                                                         ###
 ###                                                                         ###
 ###    There were warnings during the execution                             ###
 ###    Please, check the output with care!                                  ###
 ###                                                                         ###
 ###                                                                         ###
 ###############################################################################
 ###############################################################################
--- Stop Module: gateway at Wed Dec 25 16:24:33 2024 /rc=_RC_ALL_IS_WELL_ ---
*** files: xmldump
    saved to directory /home/grierjones/DDCASPT2/iron_oxo_DDCASPT2/cluster/6.44

--- Start Module: seward at Wed Dec 25 16:24:33 2024 ---
 
()()()()()()()()()()()()()()()()()()()()()()()()()()()()()()()()()()()()()()()()()()()()()()()()()()

                                              &SEWARD

                                   only a single process is used
                       available to each process: 2.0 GB of memory, 1 thread?
()()()()()()()()()()()()()()()()()()()()()()()()()()()()()()()()()()()()()()()()()()()()()()()()()()
 
 ###############################################################################
 ###############################################################################
 ###                                                                         ###
 ###                                                                         ###
 ###                                                                         ###
 ###    WARNING: EXPERT option is ON!                                        ###
 ###                                                                         ###
 ###                                                                         ###
 ###############################################################################
 ###############################################################################
               SEWARD will generate:
                  Multipole Moment integrals up to order  2
                  Kinetic Energy integrals
                  Nuclear Attraction integrals (point charge)
                  One-Electron Hamiltonian integrals
                  Velocity integrals
                  Relativistic Douglas-Kroll-Hess integrals:
                    - Parametrization         : EXP
                    - DKH order of Hamiltonian: 2
                    - DKH order of Properties : 0
                         - multipole moment operators
                         - electric potential operators
                         - contact operators
                  Atomic mean-field integrals
                  Two-Electron Repulsion integrals
 
                   Integrals are discarded if absolute value <: 0.10E-13
                   Integral cutoff threshold is set to       <: 0.10E-15
 
            Nuclear Potential Energy             17.09334892 au
 
 
      Basis set specifications :
      Symmetry species         a  
      Basis functions           48
 
 
  Input file to MOLDEN was generated!
 
 ###############################################################################
 ###############################################################################
 ###                                                                         ###
 ###                                                                         ###
 ###    There were warnings during the execution                             ###
 ###    Please, check the output with care!                                  ###
 ###                                                                         ###
 ###                                                                         ###
 ###############################################################################
 ###############################################################################
--- Stop Module: seward at Wed Dec 25 16:24:34 2024 /rc=_RC_ALL_IS_WELL_ ---
*** files: 6.44.GssOrb 6.44.guessorb.h5 6.44.guessorb.molden xmldump
    saved to directory /home/grierjones/DDCASPT2/iron_oxo_DDCASPT2/cluster/6.44

*** symbolic link created: INPORB -> 6.44.GssOrb
--- Start Module: scf at Wed Dec 25 16:24:34 2024 ---
 
()()()()()()()()()()()()()()()()()()()()()()()()()()()()()()()()()()()()()()()()()()()()()()()()()()

                                                &SCF

                                   only a single process is used
                       available to each process: 2.0 GB of memory, 1 thread?
()()()()()()()()()()()()()()()()()()()()()()()()()()()()()()()()()()()()()()()()()()()()()()()()()()
 
 *** Possible bug in opening file
 *** isFreeUnit resets the unit number
++    Input section:
      --------------
 
      Header of the integral files:
      
       Integrals generated by seward 4.2.0  , Wed Dec 25 16:24:33 2024
 
 
      Cartesian coordinates in Angstrom:
      -----------------------------------------------------
      No.  Label        X            Y            Z        
      -----------------------------------------------------
       1   O1         0.00000000   0.00000000   4.01964000
       2   FE2        0.00000000   0.00000000  -2.41964000
      -----------------------------------------------------
      Nuclear repulsion energy =   17.09334892
--
 
++    Orbital specifications:
      -----------------------
 
      Symmetry species               1
                                     a
      Frozen orbitals                0
      Occupied orbitals alpha       18
      Occupied orbitals beta        14
      Secondary orbitals alpha      30
      Secondary orbitals beta       34
      Deleted orbitals               0
      Total number of orbitals      48
      Number of basis functions     48
--
 
      Molecular charge                           2.000
 
++    Optimization specifications:
      ----------------------------
 
      SCF Algorithm: Conventional USCF
      D(i)-D(i-1) density differences are used
      Number of density matrices in core                5
      Maximum number of NDDO SCF iterations           400
      Maximum number of HF SCF iterations             400
      Threshold for SCF energy change            0.10E-08
      Threshold for density matrix               0.10E-03
      Threshold for Fock matrix                  0.15E-03
      Threshold for linear dependence            0.10E-08
      Threshold at which DIIS is turned on       0.15E+00
      Threshold at which QNR/C2DIIS is turned on 0.75E-01
      Threshold for Norm(delta) (QNR/C2DIIS)     0.20E-04
      DIIS extrapolation of the SCF procedure
      All orbitals punched on: UHFORB
--
 
      Input vectors read from INPORB
      Orbital file label: * UHF orbitals
 
 
++ Convergence information
                               UHF SCF        iterations: Energy and convergence statistics
 
Iter     Tot. SCF        One-elec.       Two-elec.     Energy      Max Dij or  Max Fij      DNorm      TNorm      AccCon     Time
         Energy          Energy          Energy        Change      Delta Norm                                                in Sec.
 
 The total and one-electron energies are shifted by a value of      1000. a.u.
 
   1  -345.276365954  -883.014656327   520.644941454   0.00E+00    0.41E-04    0.16E-04     0.80E+01   0.18E+03   None         0.
   2  -345.276365957  -883.013413206   520.643698331  -0.29E-08*   0.22E-04    0.12E-04     0.15E-03   0.18E+03   EDIIS        0.
   3  -345.276365958  -883.014582171   520.644867295  -0.50E-09    0.14E-04    0.10E-04     0.87E-04   0.18E+03   c2DIIS       0.
 
       Convergence after  3 Macro Iterations
--
 
 *****************************************************************************************************************************
 *                                                                                                                           *
 *                                             SCF/KS-DFT Program, Final results                                             *
 *                                                                                                                           *
 *                                                                                                                           *
 *                                                                                                                           *
 *                                                       Final Results                                                       *
 *                                                                                                                           *
 *****************************************************************************************************************************
 
::    Total SCF energy                              -1345.2763659578
      One-electron energy                           -1883.0145821707
      Two-electron energy                             520.6448672951
      Nuclear repulsion energy                         17.0933489178
      Kinetic energy (interpolated)                  1399.3977304421
      Virial theorem                                    0.9613252449
      Total spin, S(S+1)                                7.0175049514
      Total spin, S                                     2.1958310317
      Max non-diagonal density matrix element           0.0000138468
      Max non-diagonal Fock matrix element              0.0000104692
 
 
      All orbitals with orbital energies smaller than  E(LUMO)+0.5 are printed
 
++    Molecular orbitals:
      -------------------
 
      Title: UHF orbitals (alpha)

      Molecular orbitals for symmetry species 1: a  
 
          Orbital            1         2         3         4         5         6         7         8         9        10    
          Energy         -263.8579  -32.6344  -27.7179  -27.7179  -27.6871  -21.4811   -4.5484   -3.1258   -3.1258   -3.0542
          Occ. No.          1.0000    1.0000    1.0000    1.0000    1.0000    1.0000    1.0000    1.0000    1.0000    1.0000
 
        1 O1     1s         0.0000   -0.0000    0.0000   -0.0000   -0.0000    1.0000    0.0000   -0.0000   -0.0000    0.0000
        2 O1     2s         0.0000   -0.0000    0.0000   -0.0000   -0.0000    0.0003    0.0001   -0.0000   -0.0000    0.0000
        3 O1     3s         0.0000   -0.0000    0.0000   -0.0000   -0.0000   -0.0010    0.0001   -0.0000   -0.0000    0.0001
        4 O1     2px        0.0000    0.0000    0.0000   -0.0000    0.0000   -0.0000   -0.0000   -0.0000    0.0000   -0.0000
        5 O1     3px        0.0000    0.0000    0.0000   -0.0000    0.0000    0.0000    0.0000   -0.0000    0.0000   -0.0000
        6 O1     2py       -0.0000   -0.0000   -0.0000   -0.0000   -0.0000    0.0000    0.0000    0.0000    0.0000    0.0000
        7 O1     3py       -0.0000   -0.0000   -0.0000   -0.0000   -0.0000   -0.0000   -0.0000    0.0000    0.0000    0.0000
        8 O1     2pz        0.0000    0.0000   -0.0000    0.0000    0.0000   -0.0000   -0.0000    0.0000    0.0000   -0.0000
        9 O1     3pz        0.0000    0.0000   -0.0000    0.0000    0.0000    0.0000   -0.0001    0.0000    0.0000   -0.0001
       10 O1     3d2-       0.0000   -0.0000   -0.0000    0.0000   -0.0000    0.0000   -0.0000    0.0000   -0.0000    0.0000
       11 O1     3d1-       0.0000    0.0000    0.0000    0.0000    0.0000    0.0000    0.0000   -0.0000   -0.0000   -0.0000
       12 O1     3d0       -0.0000   -0.0000    0.0000   -0.0000   -0.0000   -0.0015    0.0000   -0.0000   -0.0000    0.0000
       13 O1     3d1+      -0.0000   -0.0000   -0.0000    0.0000   -0.0000   -0.0000   -0.0000    0.0000   -0.0000    0.0000
       14 O1     3d2+       0.0000   -0.0000   -0.0000   -0.0000    0.0000    0.0000    0.0000    0.0000    0.0000    0.0000
       15 FE2    1s         1.0000    0.0000    0.0000   -0.0000   -0.0000    0.0000   -0.0000   -0.0000   -0.0000    0.0000
       16 FE2    2s        -0.0000    1.0000    0.0000   -0.0000   -0.0002   -0.0000   -0.0023    0.0000    0.0000   -0.0000
       17 FE2    3s         0.0000    0.0023    0.0000   -0.0000   -0.0000   -0.0000    0.9999    0.0000    0.0000   -0.0011
       18 FE2    4s        -0.0000   -0.0001   -0.0000    0.0000    0.0000    0.0000    0.0063   -0.0000   -0.0000    0.0005
       19 FE2    5s         0.0000    0.0001    0.0000   -0.0000   -0.0000    0.0000   -0.0044    0.0000    0.0000   -0.0003
       20 FE2    2px       -0.0000   -0.0000   -0.2547    0.9670   -0.0000   -0.0000    0.0000    0.0006   -0.0020    0.0000
       21 FE2    3px        0.0000   -0.0000   -0.0005    0.0020   -0.0000    0.0000   -0.0000   -0.2711    0.9625   -0.0000
       22 FE2    4px       -0.0000    0.0000    0.0001   -0.0002    0.0000   -0.0000    0.0000   -0.0009    0.0032   -0.0000
       23 FE2    5px        0.0000   -0.0000   -0.0002    0.0006   -0.0000   -0.0000   -0.0000    0.0012   -0.0042    0.0000
       24 FE2    2py        0.0000    0.0000    0.9670    0.2547    0.0001    0.0000   -0.0000   -0.0020   -0.0006   -0.0000
       25 FE2    3py       -0.0000    0.0000    0.0020    0.0005    0.0000   -0.0000    0.0000    0.9625    0.2711    0.0001
       26 FE2    4py        0.0000   -0.0000   -0.0002   -0.0001   -0.0000    0.0000   -0.0000    0.0032    0.0009    0.0000
       27 FE2    5py       -0.0000    0.0000    0.0006    0.0002    0.0000    0.0000    0.0000   -0.0042   -0.0012   -0.0000
       28 FE2    2pz        0.0000    0.0002   -0.0001    0.0000    1.0000   -0.0000   -0.0000    0.0000    0.0000   -0.0016
       29 FE2    3pz       -0.0000    0.0000   -0.0000    0.0000    0.0016   -0.0000    0.0011   -0.0001   -0.0000    1.0000
       30 FE2    4pz        0.0000   -0.0000    0.0000   -0.0000   -0.0001    0.0000    0.0001   -0.0000   -0.0000    0.0057
       31 FE2    5pz       -0.0000    0.0000   -0.0000    0.0000    0.0003    0.0000   -0.0001    0.0000    0.0000   -0.0056
       32 FE2    3d2-       0.0000    0.0000   -0.0000    0.0000    0.0000   -0.0000    0.0000   -0.0000    0.0000    0.0000
       33 FE2    4d2-      -0.0000   -0.0000    0.0000   -0.0000   -0.0000   -0.0000   -0.0000    0.0000   -0.0000   -0.0000
       34 FE2    3d1-      -0.0000   -0.0000    0.0000    0.0000    0.0000    0.0000   -0.0000    0.0005    0.0002    0.0000
       35 FE2    4d1-       0.0000    0.0000   -0.0000   -0.0000   -0.0000    0.0000    0.0000    0.0001    0.0000    0.0000
       36 FE2    3d0       -0.0000   -0.0005   -0.0000    0.0000    0.0000    0.0000   -0.0124   -0.0000   -0.0000    0.0006
       37 FE2    4d0        0.0000    0.0004    0.0000   -0.0000   -0.0000    0.0000    0.0041   -0.0000   -0.0000    0.0002
       38 FE2    3d1+       0.0000    0.0000   -0.0000    0.0000   -0.0000   -0.0000    0.0000   -0.0002    0.0005   -0.0000
       39 FE2    4d1+      -0.0000   -0.0000    0.0000   -0.0000    0.0000   -0.0000   -0.0000   -0.0000    0.0001   -0.0000
       40 FE2    3d2+       0.0000    0.0000   -0.0000   -0.0000    0.0000    0.0000    0.0000   -0.0000   -0.0000    0.0000
       41 FE2    4d2+      -0.0000   -0.0000    0.0000    0.0000   -0.0000   -0.0000   -0.0000    0.0000    0.0000   -0.0000
       42 FE2    4f3-      -0.0000   -0.0000    0.0000    0.0000    0.0000    0.0000   -0.0000    0.0000    0.0000    0.0000
       43 FE2    4f2-       0.0000    0.0000    0.0000   -0.0000    0.0000   -0.0000    0.0000    0.0000   -0.0000    0.0000
       44 FE2    4f1-      -0.0000   -0.0000   -0.0003   -0.0001   -0.0000    0.0000   -0.0000   -0.0078   -0.0022   -0.0000
       45 FE2    4f0       -0.0000   -0.0000    0.0000   -0.0000   -0.0001    0.0000   -0.0000    0.0000    0.0000   -0.0018
       46 FE2    4f1+       0.0000    0.0000    0.0001   -0.0003    0.0000   -0.0000    0.0000    0.0022   -0.0078    0.0000
       47 FE2    4f2+      -0.0000    0.0000    0.0000    0.0000    0.0000   -0.0000    0.0000    0.0000    0.0000    0.0000
       48 FE2    4f3+      -0.0000   -0.0000   -0.0000    0.0000    0.0000   -0.0000   -0.0000   -0.0000    0.0000    0.0000
 
          Orbital           11        12        13        14        15        16        17        18        19        20    
          Energy           -1.9927   -1.3782   -1.3782   -0.8598   -0.8598   -0.8207   -0.7859   -0.7859   -0.5372   -0.3119
          Occ. No.          1.0000    1.0000    1.0000    1.0000    1.0000    1.0000    1.0000    1.0000    0.0000    0.0000
 
        1 O1     1s        -0.0004   -0.0000    0.0000    0.0000    0.0000   -0.0000    0.0000    0.0000   -0.0000   -0.0002
        2 O1     2s         0.9962    0.0000   -0.0000    0.0000    0.0000   -0.0001    0.0000    0.0000    0.0042   -0.0026
        3 O1     3s        -0.0712   -0.0000    0.0000    0.0000    0.0000   -0.0001    0.0000    0.0000   -0.0040    0.0019
        4 O1     2px       -0.0000   -0.2606    0.9548   -0.0000    0.0000    0.0000    0.0000   -0.0000    0.0000    0.0000
        5 O1     3px        0.0000    0.0376   -0.1379   -0.0000    0.0000    0.0000    0.0000   -0.0001    0.0000    0.0000
        6 O1     2py        0.0000    0.9548    0.2606   -0.0000   -0.0000   -0.0000   -0.0000   -0.0000   -0.0001   -0.0000
        7 O1     3py       -0.0000   -0.1379   -0.0376   -0.0000   -0.0000   -0.0000   -0.0001   -0.0000   -0.0000   -0.0000
        8 O1     2pz       -0.0047    0.0001   -0.0000   -0.0000   -0.0000    0.0004   -0.0000   -0.0000    0.9945    0.0097
        9 O1     3pz       -0.0002   -0.0000    0.0000   -0.0000   -0.0000    0.0007   -0.0000   -0.0000    0.1052   -0.0035
       10 O1     3d2-       0.0000   -0.0000    0.0000   -0.0000    0.0000    0.0000    0.0000   -0.0000    0.0000   -0.0000
       11 O1     3d1-       0.0000   -0.0013   -0.0004    0.0000    0.0000   -0.0000   -0.0000   -0.0000    0.0000   -0.0000
       12 O1     3d0       -0.0510   -0.0000    0.0000    0.0000    0.0000   -0.0000   -0.0000   -0.0000   -0.0022    0.0003
       13 O1     3d1+      -0.0000    0.0004   -0.0013    0.0000   -0.0000    0.0000    0.0000   -0.0000   -0.0000    0.0000
       14 O1     3d2+       0.0000   -0.0000   -0.0000    0.0000    0.0000   -0.0000    0.0000    0.0000    0.0000   -0.0000
       15 FE2    1s        -0.0000   -0.0000    0.0000    0.0000   -0.0000    0.0000   -0.0000   -0.0000    0.0000    0.0000
       16 FE2    2s        -0.0000   -0.0000    0.0000    0.0000    0.0000    0.0004   -0.0000   -0.0000    0.0000    0.0001
       17 FE2    3s        -0.0000   -0.0000    0.0000    0.0000    0.0000    0.0124   -0.0000   -0.0000    0.0001   -0.0058
       18 FE2    4s        -0.0000   -0.0000    0.0000   -0.0000   -0.0000   -0.0151   -0.0000   -0.0000    0.0011    0.9942
       19 FE2    5s        -0.0002   -0.0000    0.0000    0.0000    0.0000    0.0077   -0.0000   -0.0000    0.0022    0.0709
       20 FE2    2px        0.0000   -0.0000    0.0000   -0.0000    0.0000    0.0000    0.0000   -0.0000   -0.0000    0.0000
       21 FE2    3px       -0.0000   -0.0000    0.0000   -0.0000    0.0000    0.0000    0.0002   -0.0006   -0.0000    0.0000
       22 FE2    4px       -0.0000   -0.0001    0.0002    0.0000   -0.0000   -0.0000   -0.0020    0.0072   -0.0000    0.0000
       23 FE2    5px       -0.0000   -0.0000    0.0001    0.0000   -0.0000   -0.0000   -0.0001    0.0003   -0.0000    0.0000
       24 FE2    2py       -0.0000    0.0000    0.0000   -0.0000   -0.0000   -0.0000   -0.0000   -0.0000    0.0000   -0.0000
       25 FE2    3py        0.0000    0.0000    0.0000   -0.0000   -0.0000   -0.0000   -0.0006   -0.0002    0.0000   -0.0000
       26 FE2    4py        0.0000    0.0002    0.0001    0.0000    0.0000    0.0000    0.0072    0.0020    0.0000   -0.0000
       27 FE2    5py        0.0000    0.0001    0.0000    0.0000    0.0000    0.0000    0.0003    0.0001    0.0000   -0.0000
       28 FE2    2pz        0.0000   -0.0000    0.0000    0.0000    0.0000   -0.0000    0.0000    0.0000    0.0000    0.0000
       29 FE2    3pz       -0.0000   -0.0000    0.0000    0.0000    0.0000   -0.0006    0.0000    0.0000    0.0001   -0.0009
       30 FE2    4pz       -0.0001   -0.0000    0.0000   -0.0000   -0.0000    0.0082   -0.0000   -0.0000    0.0011    0.0764
       31 FE2    5pz       -0.0001   -0.0000    0.0000   -0.0000   -0.0000    0.0003   -0.0000   -0.0000    0.0004    0.0110
       32 FE2    3d2-       0.0000   -0.0000    0.0000   -0.0150    0.9999   -0.0000   -0.0000    0.0001    0.0000   -0.0000
       33 FE2    4d2-       0.0000    0.0000   -0.0000   -0.0000    0.0033   -0.0000   -0.0000    0.0000    0.0000    0.0000
       34 FE2    3d1-       0.0000    0.0000    0.0000    0.0001    0.0000    0.0002    0.9619    0.2718   -0.0000    0.0000
       35 FE2    4d1-       0.0000    0.0001    0.0000    0.0000    0.0000    0.0000    0.0260    0.0073    0.0000   -0.0000
       36 FE2    3d0       -0.0000   -0.0000    0.0000   -0.0000   -0.0000    0.9996   -0.0002   -0.0000    0.0006    0.0140
       37 FE2    4d0       -0.0000   -0.0000    0.0000   -0.0000   -0.0000    0.0153   -0.0000   -0.0000    0.0002   -0.0081
       38 FE2    3d1+      -0.0000   -0.0000    0.0000    0.0000   -0.0001   -0.0000   -0.2718    0.9619    0.0000   -0.0000
       39 FE2    4d1+      -0.0000   -0.0000    0.0001    0.0000   -0.0000   -0.0000   -0.0073    0.0260   -0.0000    0.0000
       40 FE2    3d2+       0.0000   -0.0000   -0.0000    0.9999    0.0150   -0.0000   -0.0001   -0.0000    0.0000   -0.0000
       41 FE2    4d2+       0.0000    0.0000    0.0000    0.0033    0.0000   -0.0000   -0.0000   -0.0000    0.0000    0.0000
       42 FE2    4f3-       0.0000   -0.0000   -0.0000    0.0000   -0.0000    0.0000   -0.0000   -0.0000   -0.0000    0.0000
       43 FE2    4f2-      -0.0000   -0.0000    0.0000   -0.0000    0.0005   -0.0000   -0.0000    0.0000   -0.0000   -0.0000
       44 FE2    4f1-       0.0000    0.0000    0.0000    0.0000    0.0000    0.0000    0.0006    0.0002   -0.0000    0.0000
       45 FE2    4f0        0.0000   -0.0000    0.0000   -0.0000   -0.0000    0.0007   -0.0000   -0.0000   -0.0000    0.0000
       46 FE2    4f1+      -0.0000   -0.0000    0.0000    0.0000   -0.0000   -0.0000   -0.0002    0.0006    0.0000   -0.0000
       47 FE2    4f2+      -0.0000   -0.0000   -0.0000    0.0005    0.0000   -0.0000   -0.0000   -0.0000   -0.0000   -0.0000
       48 FE2    4f3+       0.0000    0.0000   -0.0000   -0.0000   -0.0000    0.0000    0.0000   -0.0000   -0.0000    0.0000
 
          Orbital           21        22        23        24    
          Energy           -0.1652   -0.1652   -0.1566   -0.0769
          Occ. No.          0.0000    0.0000    0.0000    0.0000
 
        1 O1     1s         0.0000   -0.0000   -0.0004   -0.0008
        2 O1     2s         0.0000   -0.0000   -0.0035   -0.0071
        3 O1     3s        -0.0000    0.0000    0.0070    0.0200
        4 O1     2px       -0.0001    0.0005    0.0000    0.0000
        5 O1     3px       -0.0017    0.0061    0.0000    0.0000
        6 O1     2py        0.0005    0.0001   -0.0000   -0.0000
        7 O1     3py        0.0061    0.0017   -0.0000   -0.0000
        8 O1     2pz       -0.0000    0.0000    0.0148    0.0264
        9 O1     3pz        0.0000   -0.0000   -0.0252   -0.0543
       10 O1     3d2-       0.0000   -0.0000   -0.0000   -0.0000
       11 O1     3d1-      -0.0001   -0.0000   -0.0000   -0.0000
       12 O1     3d0       -0.0000    0.0000    0.0008    0.0018
       13 O1     3d1+       0.0000   -0.0001    0.0000    0.0000
       14 O1     3d2+       0.0000    0.0000   -0.0000   -0.0000
       15 FE2    1s         0.0000   -0.0000   -0.0000   -0.0000
       16 FE2    2s         0.0000   -0.0000   -0.0000   -0.0002
       17 FE2    3s        -0.0000    0.0000    0.0005    0.0045
       18 FE2    4s         0.0000   -0.0000   -0.0827   -0.0670
       19 FE2    5s        -0.0000    0.0000    0.0657    0.9887
       20 FE2    2px       -0.0000    0.0001   -0.0000   -0.0000
       21 FE2    3px        0.0008   -0.0027    0.0000   -0.0000
       22 FE2    4px       -0.2685    0.9563   -0.0000    0.0000
       23 FE2    5px       -0.0309    0.1102   -0.0000    0.0000
       24 FE2    2py        0.0001    0.0000    0.0000    0.0000
       25 FE2    3py       -0.0027   -0.0008   -0.0000    0.0000
       26 FE2    4py        0.9563    0.2685    0.0001   -0.0000
       27 FE2    5py        0.1102    0.0309    0.0000   -0.0000
       28 FE2    2pz       -0.0000    0.0000    0.0001   -0.0000
       29 FE2    3pz        0.0000   -0.0000   -0.0049    0.0007
       30 FE2    4pz       -0.0001    0.0000    0.9854   -0.0774
       31 FE2    5pz       -0.0000    0.0000    0.1201   -0.0049
       32 FE2    3d2-       0.0000   -0.0000    0.0000    0.0000
       33 FE2    4d2-       0.0000   -0.0000   -0.0000   -0.0000
       34 FE2    3d1-      -0.0074   -0.0021   -0.0000   -0.0000
       35 FE2    4d1-       0.0068    0.0019    0.0000    0.0000
       36 FE2    3d0        0.0000   -0.0000   -0.0101   -0.0084
       37 FE2    4d0       -0.0000    0.0000    0.0119    0.0147
       38 FE2    3d1+       0.0021   -0.0074    0.0000    0.0000
       39 FE2    4d1+      -0.0019    0.0068   -0.0000   -0.0000
       40 FE2    3d2+       0.0000    0.0000    0.0000    0.0000
       41 FE2    4d2+       0.0000    0.0000   -0.0000   -0.0000
       42 FE2    4f3-      -0.0000   -0.0000   -0.0000   -0.0000
       43 FE2    4f2-       0.0000   -0.0000    0.0000    0.0000
       44 FE2    4f1-      -0.0001   -0.0000   -0.0000   -0.0000
       45 FE2    4f0        0.0000   -0.0000   -0.0004    0.0000
       46 FE2    4f1+       0.0000   -0.0001    0.0000    0.0000
       47 FE2    4f2+       0.0000    0.0000    0.0000    0.0000
       48 FE2    4f3+       0.0000   -0.0000   -0.0000   -0.0000
--
 
 
  Input file to MOLDEN was generated!
 
 
++    Static properties:
      ------------------
 
 
      LoProp Charges per center
 

                   O1       FE2   
      Nuclear      8.0000  26.0000
      Electronic  -7.0000 -25.0000
 
      Total        1.0000   1.0000
--
 
 
      All orbitals with orbital energies smaller than  E(LUMO)+0.5 are printed
 
++    Molecular orbitals:
      -------------------
 
      Title: UHF orbitals (beta)

      Molecular orbitals for symmetry species 1: a  
 
          Orbital            1         2         3         4         5         6         7         8         9        10    
          Energy         -263.8565  -32.5496  -27.6235  -27.6235  -27.6229  -21.4341   -4.2970   -2.8303   -2.7810   -2.7810
          Occ. No.          1.0000    1.0000    1.0000    1.0000    1.0000    1.0000    1.0000    1.0000    1.0000    1.0000
 
        1 O1     1s         0.0000    0.0000   -0.0000    0.0000    0.0000    1.0000    0.0000    0.0000   -0.0000    0.0000
        2 O1     2s         0.0000    0.0000   -0.0000    0.0000    0.0000   -0.0019    0.0001    0.0001   -0.0000    0.0000
        3 O1     3s         0.0000    0.0000   -0.0000    0.0000    0.0000    0.0002    0.0001    0.0001   -0.0000    0.0000
        4 O1     2px       -0.0000    0.0000   -0.0000    0.0000   -0.0000    0.0000    0.0000   -0.0000   -0.0000    0.0000
        5 O1     3px        0.0000    0.0000   -0.0000    0.0000   -0.0000   -0.0000   -0.0000   -0.0000   -0.0000    0.0000
        6 O1     2py        0.0000   -0.0000    0.0000    0.0000    0.0000   -0.0000   -0.0000    0.0000    0.0000    0.0000
        7 O1     3py       -0.0000   -0.0000    0.0000    0.0000    0.0000    0.0000    0.0000    0.0000    0.0000    0.0000
        8 O1     2pz        0.0000   -0.0000    0.0000   -0.0000   -0.0000   -0.0000   -0.0001   -0.0000    0.0000   -0.0000
        9 O1     3pz        0.0000   -0.0000    0.0000   -0.0000   -0.0000   -0.0000   -0.0002   -0.0001    0.0000   -0.0000
       10 O1     3d2-       0.0000   -0.0000   -0.0000    0.0000   -0.0000   -0.0000   -0.0000    0.0000   -0.0000    0.0000
       11 O1     3d1-       0.0000    0.0000   -0.0000   -0.0000   -0.0000   -0.0000    0.0000   -0.0000   -0.0000   -0.0000
       12 O1     3d0       -0.0000    0.0000   -0.0000    0.0000    0.0000    0.0015    0.0000    0.0000   -0.0000    0.0000
       13 O1     3d1+      -0.0000   -0.0000    0.0000   -0.0000    0.0000    0.0000   -0.0000    0.0000    0.0000   -0.0000
       14 O1     3d2+       0.0000   -0.0000   -0.0000   -0.0000    0.0000   -0.0000    0.0000    0.0000   -0.0000   -0.0000
       15 FE2    1s         1.0000    0.0000    0.0000   -0.0000   -0.0000   -0.0000   -0.0000    0.0000   -0.0000    0.0000
       16 FE2    2s        -0.0000    1.0000    0.0000   -0.0000   -0.0002   -0.0000    0.0002   -0.0000    0.0000   -0.0000
       17 FE2    3s         0.0000   -0.0002   -0.0000    0.0000    0.0000    0.0000    1.0000   -0.0012    0.0000   -0.0000
       18 FE2    4s        -0.0000    0.0001   -0.0000    0.0000    0.0000   -0.0000    0.0076    0.0006   -0.0000    0.0000
       19 FE2    5s         0.0000   -0.0002    0.0000   -0.0000   -0.0000   -0.0000   -0.0057   -0.0003    0.0000   -0.0000
       20 FE2    2px       -0.0000   -0.0000   -0.2563    0.9666   -0.0000    0.0000   -0.0000   -0.0000   -0.0005    0.0018
       21 FE2    3px        0.0000    0.0000    0.0005   -0.0018    0.0000   -0.0000    0.0000   -0.0000   -0.2649    0.9641
       22 FE2    4px       -0.0000   -0.0000   -0.0001    0.0003   -0.0000    0.0000   -0.0000   -0.0000   -0.0021    0.0078
       23 FE2    5px        0.0000   -0.0000    0.0002   -0.0007    0.0000    0.0000   -0.0000    0.0000    0.0024   -0.0086
       24 FE2    2py        0.0000    0.0000    0.9666    0.2563    0.0001   -0.0000    0.0000    0.0000    0.0018    0.0005
       25 FE2    3py       -0.0000   -0.0000   -0.0018   -0.0005   -0.0000    0.0000   -0.0000    0.0001    0.9641    0.2649
       26 FE2    4py        0.0000    0.0000    0.0003    0.0001    0.0000   -0.0000    0.0000    0.0000    0.0078    0.0021
       27 FE2    5py       -0.0000    0.0000   -0.0007   -0.0002   -0.0000   -0.0000    0.0000   -0.0000   -0.0086   -0.0024
       28 FE2    2pz        0.0000    0.0002   -0.0001    0.0000    1.0000   -0.0000   -0.0000    0.0010   -0.0000    0.0000
       29 FE2    3pz       -0.0000    0.0000    0.0000   -0.0000   -0.0010    0.0000    0.0012    0.9997   -0.0001    0.0000
       30 FE2    4pz        0.0000   -0.0000   -0.0000    0.0000    0.0003   -0.0000    0.0001    0.0107   -0.0000    0.0000
       31 FE2    5pz       -0.0000    0.0000    0.0000   -0.0000   -0.0007   -0.0000   -0.0001   -0.0099    0.0000   -0.0000
       32 FE2    3d2-      -0.0000   -0.0000   -0.0000    0.0000   -0.0000    0.0000   -0.0000   -0.0000    0.0000   -0.0000
       33 FE2    4d2-      -0.0000   -0.0000    0.0000   -0.0000    0.0000    0.0000    0.0000    0.0000   -0.0000    0.0000
       34 FE2    3d1-       0.0000    0.0000    0.0000    0.0000    0.0000   -0.0000    0.0000    0.0000    0.0004    0.0001
       35 FE2    4d1-       0.0000    0.0000   -0.0000   -0.0000   -0.0000   -0.0000    0.0000   -0.0000    0.0003    0.0001
       36 FE2    3d0        0.0000    0.0000   -0.0000    0.0000    0.0000   -0.0000    0.0010    0.0010   -0.0000    0.0000
       37 FE2    4d0        0.0000    0.0000    0.0000   -0.0000   -0.0000   -0.0000    0.0004   -0.0002   -0.0000    0.0000
       38 FE2    3d1+      -0.0000   -0.0000   -0.0000    0.0000   -0.0000    0.0000   -0.0000   -0.0000   -0.0001    0.0004
       39 FE2    4d1+      -0.0000   -0.0000    0.0000   -0.0000    0.0000    0.0000   -0.0000    0.0000   -0.0001    0.0003
       40 FE2    3d2+      -0.0000   -0.0000   -0.0000   -0.0000   -0.0000    0.0000   -0.0000   -0.0000    0.0000    0.0000
       41 FE2    4d2+      -0.0000   -0.0000    0.0000    0.0000    0.0000    0.0000    0.0000    0.0000   -0.0000   -0.0000
       42 FE2    4f3-      -0.0000    0.0000   -0.0000   -0.0000   -0.0000   -0.0000    0.0000   -0.0000   -0.0000   -0.0000
       43 FE2    4f2-       0.0000   -0.0000   -0.0000    0.0000    0.0000    0.0000   -0.0000    0.0000   -0.0000    0.0000
       44 FE2    4f1-      -0.0000    0.0000    0.0007    0.0002   -0.0000   -0.0000    0.0000   -0.0000    0.0124    0.0034
       45 FE2    4f0       -0.0000    0.0000   -0.0000    0.0000   -0.0011   -0.0000    0.0000   -0.0211   -0.0000    0.0000
       46 FE2    4f1+       0.0000   -0.0000   -0.0002    0.0007    0.0000    0.0000   -0.0000    0.0000   -0.0034    0.0124
       47 FE2    4f2+       0.0000   -0.0000   -0.0000   -0.0000    0.0000    0.0000   -0.0000    0.0000   -0.0000   -0.0000
       48 FE2    4f3+      -0.0000    0.0000    0.0000   -0.0000   -0.0000    0.0000    0.0000   -0.0000    0.0000   -0.0000
 
          Orbital           11        12        13        14        15        16        17        18        19        20    
          Energy           -1.8128   -1.3333   -0.6839   -0.6839   -0.5035   -0.5035   -0.2947   -0.1452   -0.1442   -0.1442
          Occ. No.          1.0000    1.0000    1.0000    1.0000    0.0000    0.0000    0.0000    0.0000    0.0000    0.0000
 
        1 O1     1s         0.0018    0.0000   -0.0000    0.0000    0.0000    0.0000   -0.0003   -0.0004    0.0000   -0.0000
        2 O1     2s         0.9974    0.0032   -0.0000    0.0000    0.0000    0.0000   -0.0039   -0.0041    0.0000   -0.0000
        3 O1     3s        -0.0469   -0.0025    0.0000   -0.0000   -0.0000   -0.0000    0.0023    0.0066   -0.0000    0.0000
        4 O1     2px        0.0000    0.0000    0.0000   -0.0000   -0.2820    0.9503   -0.0000   -0.0000   -0.0025    0.0007
        5 O1     3px       -0.0000   -0.0000   -0.0001    0.0000   -0.0376    0.1268   -0.0000   -0.0000    0.0040   -0.0011
        6 O1     2py       -0.0000   -0.0001    0.0000    0.0000    0.9503    0.2820    0.0000    0.0000   -0.0007   -0.0025
        7 O1     3py        0.0000    0.0000   -0.0000   -0.0001    0.1268    0.0376    0.0000    0.0000    0.0011    0.0040
        8 O1     2pz       -0.0034    0.9917    0.0000   -0.0000    0.0001    0.0000    0.0020   -0.0027    0.0000   -0.0000
        9 O1     3pz       -0.0012   -0.1281    0.0000   -0.0000    0.0000    0.0000   -0.0092   -0.0455    0.0000   -0.0000
       10 O1     3d2-      -0.0000   -0.0000    0.0000   -0.0000    0.0000   -0.0000    0.0000    0.0000    0.0000   -0.0000
       11 O1     3d1-      -0.0000    0.0000   -0.0000   -0.0000   -0.0012   -0.0003    0.0000    0.0000   -0.0000   -0.0001
       12 O1     3d0        0.0553   -0.0009    0.0000   -0.0000   -0.0000   -0.0000    0.0002    0.0005   -0.0000    0.0000
       13 O1     3d1+       0.0000   -0.0000   -0.0000    0.0000    0.0003   -0.0012   -0.0000   -0.0000   -0.0001    0.0000
       14 O1     3d2+      -0.0000   -0.0000   -0.0000   -0.0000    0.0000    0.0000    0.0000    0.0000   -0.0000   -0.0000
       15 FE2    1s        -0.0000   -0.0000    0.0000   -0.0000    0.0000    0.0000    0.0000   -0.0000    0.0000   -0.0000
       16 FE2    2s        -0.0000   -0.0000   -0.0000    0.0000    0.0000    0.0000   -0.0001    0.0000   -0.0000    0.0000
       17 FE2    3s        -0.0000   -0.0000    0.0000   -0.0000    0.0000    0.0000   -0.0067    0.0008   -0.0000    0.0000
       18 FE2    4s        -0.0002   -0.0007    0.0000   -0.0000    0.0000    0.0000    0.9852   -0.0938    0.0000   -0.0000
       19 FE2    5s        -0.0005   -0.0011   -0.0000    0.0000    0.0000    0.0000    0.1463    0.0443   -0.0000    0.0000
       20 FE2    2px       -0.0000    0.0000   -0.0000    0.0000    0.0000   -0.0000   -0.0000   -0.0000   -0.0002    0.0001
       21 FE2    3px       -0.0000    0.0000   -0.0005    0.0001    0.0000   -0.0000    0.0000   -0.0000   -0.0066    0.0019
       22 FE2    4px        0.0000    0.0000    0.0118   -0.0033    0.0001   -0.0002    0.0000    0.0001    0.9545   -0.2680
       23 FE2    5px        0.0000    0.0000    0.0007   -0.0002    0.0000   -0.0001    0.0000    0.0000    0.1249   -0.0351
       24 FE2    2py        0.0000   -0.0000   -0.0000   -0.0000   -0.0000   -0.0000    0.0000    0.0000   -0.0001   -0.0002
       25 FE2    3py        0.0000   -0.0000   -0.0001   -0.0005   -0.0000   -0.0000   -0.0000    0.0000   -0.0019   -0.0066
       26 FE2    4py       -0.0000   -0.0000    0.0033    0.0118   -0.0002   -0.0001   -0.0000   -0.0003    0.2680    0.9545
       27 FE2    5py       -0.0000   -0.0000    0.0002    0.0007   -0.0001   -0.0000   -0.0000   -0.0000    0.0351    0.1249
       28 FE2    2pz       -0.0000   -0.0000   -0.0000    0.0000    0.0000    0.0000   -0.0000   -0.0002    0.0000   -0.0000
       29 FE2    3pz       -0.0000   -0.0000   -0.0000    0.0000    0.0000    0.0000   -0.0013   -0.0092    0.0000   -0.0000
       30 FE2    4pz       -0.0002   -0.0008    0.0000   -0.0000    0.0000    0.0000    0.0827    0.9825   -0.0000    0.0003
       31 FE2    5pz       -0.0001   -0.0003    0.0000   -0.0000    0.0000    0.0000    0.0128    0.1292   -0.0000    0.0000
       32 FE2    3d2-       0.0000   -0.0000    0.0001   -0.0000    0.0000   -0.0000   -0.0000   -0.0000   -0.0000    0.0000
       33 FE2    4d2-      -0.0000   -0.0000    0.0000   -0.0000    0.0000   -0.0000   -0.0000   -0.0000   -0.0000    0.0000
       34 FE2    3d1-      -0.0000    0.0000    0.2692    0.9603   -0.0003   -0.0001    0.0000    0.0000   -0.0034   -0.0123
       35 FE2    4d1-      -0.0000   -0.0000    0.0196    0.0700   -0.0001   -0.0000   -0.0000   -0.0000    0.0016    0.0059
       36 FE2    3d0       -0.0000   -0.0001    0.0000   -0.0002    0.0000    0.0000    0.0024    0.0240   -0.0000    0.0000
       37 FE2    4d0       -0.0001   -0.0003    0.0000   -0.0000    0.0000    0.0000   -0.0009    0.0161   -0.0000    0.0000
       38 FE2    3d1+       0.0000   -0.0000    0.9603   -0.2692    0.0001   -0.0003   -0.0000   -0.0000   -0.0123    0.0034
       39 FE2    4d1+       0.0000    0.0000    0.0700   -0.0196    0.0000   -0.0001    0.0000    0.0000    0.0059   -0.0016
       40 FE2    3d2+       0.0000   -0.0000   -0.0000   -0.0001    0.0000    0.0000   -0.0000   -0.0000    0.0000    0.0000
       41 FE2    4d2+      -0.0000   -0.0000   -0.0000   -0.0000    0.0000    0.0000   -0.0000   -0.0000    0.0000    0.0000
       42 FE2    4f3-       0.0000    0.0000   -0.0000   -0.0000    0.0000    0.0000   -0.0000   -0.0000   -0.0000   -0.0000
       43 FE2    4f2-      -0.0000   -0.0000    0.0000   -0.0000    0.0000   -0.0000    0.0000    0.0000    0.0000   -0.0000
       44 FE2    4f1-       0.0000   -0.0000    0.0002    0.0007    0.0000    0.0000   -0.0000   -0.0000    0.0004    0.0013
       45 FE2    4f0       -0.0000   -0.0000    0.0000   -0.0000   -0.0000   -0.0000   -0.0002   -0.0016    0.0000   -0.0000
       46 FE2    4f1+      -0.0000    0.0000    0.0007   -0.0002   -0.0000    0.0000    0.0000    0.0000    0.0013   -0.0004
       47 FE2    4f2+      -0.0000   -0.0000   -0.0000   -0.0000    0.0000    0.0000    0.0000    0.0000   -0.0000   -0.0000
       48 FE2    4f3+       0.0000    0.0000   -0.0000    0.0000   -0.0000    0.0000   -0.0000   -0.0000   -0.0000    0.0000
 
          Orbital           21        22        23    
          Energy           -0.0577   -0.0039   -0.0039
          Occ. No.          0.0000    0.0000    0.0000
 
        1 O1     1s        -0.0008   -0.0000   -0.0000
        2 O1     2s        -0.0086   -0.0000   -0.0000
        3 O1     3s         0.0196   -0.0000   -0.0000
        4 O1     2px       -0.0000   -0.0000    0.0000
        5 O1     3px       -0.0000    0.0000   -0.0000
        6 O1     2py        0.0000   -0.0000   -0.0000
        7 O1     3py        0.0000    0.0000    0.0000
        8 O1     2pz       -0.0093    0.0000    0.0000
        9 O1     3pz       -0.1267    0.0000    0.0000
       10 O1     3d2-       0.0000    0.0000    0.0000
       11 O1     3d1-       0.0000   -0.0000   -0.0000
       12 O1     3d0        0.0009   -0.0000   -0.0000
       13 O1     3d1+      -0.0000   -0.0000    0.0000
       14 O1     3d2+       0.0000    0.0000   -0.0000
       15 FE2    1s        -0.0000    0.0000    0.0000
       16 FE2    2s         0.0002    0.0000    0.0000
       17 FE2    3s         0.0065    0.0000    0.0000
       18 FE2    4s        -0.1454    0.0000    0.0000
       19 FE2    5s         0.9690    0.0000    0.0000
       20 FE2    2px        0.0000   -0.0000    0.0000
       21 FE2    3px       -0.0000   -0.0000    0.0000
       22 FE2    4px        0.0000   -0.0000    0.0000
       23 FE2    5px        0.0000   -0.0000    0.0000
       24 FE2    2py       -0.0000   -0.0000   -0.0000
       25 FE2    3py        0.0000   -0.0000   -0.0000
       26 FE2    4py       -0.0000   -0.0000   -0.0000
       27 FE2    5py       -0.0000   -0.0000   -0.0000
       28 FE2    2pz        0.0000    0.0000    0.0000
       29 FE2    3pz        0.0011    0.0000    0.0000
       30 FE2    4pz       -0.0727    0.0000    0.0000
       31 FE2    5pz       -0.0049    0.0000    0.0000
       32 FE2    3d2-      -0.0000    0.0119    0.9535
       33 FE2    4d2-      -0.0000    0.0037    0.3010
       34 FE2    3d1-       0.0000    0.0001    0.0000
       35 FE2    4d1-       0.0000    0.0000    0.0000
       36 FE2    3d0        0.0138   -0.0000   -0.0000
       37 FE2    4d0        0.0110   -0.0000   -0.0000
       38 FE2    3d1+      -0.0000    0.0000   -0.0001
       39 FE2    4d1+      -0.0000    0.0000   -0.0000
       40 FE2    3d2+      -0.0000    0.9535   -0.0119
       41 FE2    4d2+      -0.0000    0.3010   -0.0037
       42 FE2    4f3-       0.0000    0.0000   -0.0000
       43 FE2    4f2-      -0.0000    0.0000    0.0006
       44 FE2    4f1-       0.0000    0.0000    0.0000
       45 FE2    4f0        0.0002   -0.0000   -0.0000
       46 FE2    4f1+      -0.0000    0.0000   -0.0000
       47 FE2    4f2+      -0.0000    0.0006   -0.0000
       48 FE2    4f3+       0.0000   -0.0000   -0.0000
--
 
 
++    Molecular charges:
      ------------------
 
      Mulliken charges per centre and basis function type
      ---------------------------------------------------
 
                            O1                      FE2   
                     alpha        beta       alpha        beta
      1s           1.0000      1.0000      1.0000      1.0000
      2s           0.9923      0.9947      1.0000      1.0000
      2px          0.9796      0.0000      1.0000      1.0000
      2pz          0.0000      0.9836      1.0000      1.0000
      2py          0.9796      0.0000      1.0000      1.0000
      3s           0.0051      0.0022      0.9999      0.9999
      3px          0.0204     -0.0000      0.9999      0.9997
      3pz         -0.0000      0.0164      0.9999      0.9993
      3py          0.0204     -0.0000      0.9999      0.9997
      4s           0.0000      0.0000      0.0003      0.0001
      3d2+         0.0000      0.0000      1.0000      0.0000
      3d1+         0.0000      0.0000      0.9992      0.9946
      3d0          0.0026      0.0031      0.9994      0.0000
      3d1-         0.0000      0.0000      0.9992      0.9946
      3d2-         0.0000      0.0000      1.0000      0.0000
      4px          0.0000      0.0000      0.0001      0.0002
      4pz          0.0000      0.0000      0.0001      0.0001
      4py          0.0000      0.0000      0.0001      0.0002
      5s           0.0000      0.0000      0.0001      0.0000
      4d2+         0.0000      0.0000      0.0000      0.0000
      4d1+         0.0000      0.0000      0.0007      0.0053
      4d0          0.0000      0.0000      0.0003      0.0000
      4d1-         0.0000      0.0000      0.0007      0.0053
      4d2-         0.0000      0.0000      0.0000      0.0000
      5px          0.0000      0.0000      0.0000      0.0001
      5pz          0.0000      0.0000      0.0000      0.0001
      5py          0.0000      0.0000      0.0000      0.0001
      4f3+         0.0000      0.0000      0.0000      0.0000
      4f2+         0.0000      0.0000      0.0000      0.0000
      4f1+         0.0000      0.0000      0.0001      0.0002
      4f0          0.0000      0.0000      0.0000      0.0004
      4f1-         0.0000      0.0000      0.0001      0.0002
      4f2-         0.0000      0.0000      0.0000      0.0000
      4f3-         0.0000      0.0000      0.0000      0.0000
      Total        4.0000      3.0000     14.0000     11.0000
      Total              7.0000                 25.0000
 
      Charge            1.0000                  1.0000
 
      Total electronic charge=   32.000000
 
      Total            charge=    2.000000
--
 
 
  Input file to MOLDEN was generated!
 
 
++    Static properties:
      ------------------
 
 
      LoProp Charges per center
 

                   O1       FE2   
      Nuclear      8.0000  26.0000
      Electronic  -7.0000 -25.0000
 
      Total        1.0000   1.0000
--
 
 
++    Natural Bond Order analysis
      ---------------------------
      Based on LoProp computed density
      -------------------------------------------------------------------------------------
      Atom A       Atom B       Bond Order
      -------------------------------------------------------------------------------------
      NBO located     19.999 core electrons.
      NBO located      5.992 lone pair electrons.
      NBO located      1.000 non-bonded electrons on atom O1        
      NBO located      1.000 non-bonded electrons on atom O1        
      NBO located      1.000 non-bonded electrons on atom O1        
      NBO located      1.000 non-bonded electrons on atom FE2       
      NBO located      1.000 non-bonded electrons on atom FE2       
      NBO located      1.000 non-bonded electrons on atom FE2       
      The remaining    0.009 electrons are to be considered as diffuse
--
 
 
++    Molecular orbitals:
      -------------------
 
      Title: Natural orbitals

      Molecular orbitals for symmetry species 1: a  
 
          Orbital            1         2         3         4         5         6         7         8         9        10    
          Energy         -263.8572  -32.2585  -21.4449  -27.5488  -27.5682  -27.5681   -4.7561   -3.0432   -3.0542   -3.0543
          Occ. No.          2.0000    2.0000    2.0000    2.0000    2.0000    2.0000    2.0000    1.9998    1.9998    1.9998
 
        1 O1     1s         0.0000   -0.0029    0.9992    0.0266   -0.0000    0.0000    0.0022    0.0001   -0.0000    0.0000
        2 O1     2s         0.0000    0.0001   -0.0301   -0.0008    0.0000   -0.0000    0.0000    0.0001   -0.0000    0.0000
        3 O1     3s         0.0000   -0.0000    0.0013    0.0000   -0.0000    0.0000    0.0001    0.0001   -0.0000    0.0000
        4 O1     2px       -0.0000   -0.0000   -0.0000   -0.0000    0.0000   -0.0000    0.0000   -0.0000   -0.0000    0.0000
        5 O1     3px        0.0000    0.0000    0.0000    0.0000    0.0000   -0.0000    0.0000   -0.0000   -0.0000    0.0000
        6 O1     2py        0.0000    0.0000    0.0000    0.0000   -0.0000   -0.0000   -0.0000    0.0000    0.0000    0.0000
        7 O1     3py       -0.0000   -0.0000   -0.0000   -0.0000   -0.0000   -0.0000   -0.0000    0.0000    0.0000    0.0000
        8 O1     2pz        0.0000    0.0000    0.0001    0.0000   -0.0000    0.0000   -0.0000   -0.0000    0.0000   -0.0000
        9 O1     3pz        0.0000    0.0000    0.0000    0.0000   -0.0000    0.0000   -0.0002   -0.0001    0.0000   -0.0000
       10 O1     3d2-       0.0000   -0.0000    0.0000    0.0000   -0.0000    0.0000   -0.0000    0.0000    0.0000   -0.0000
       11 O1     3d1-       0.0000    0.0000    0.0000    0.0000    0.0000    0.0000    0.0000   -0.0000   -0.0000   -0.0000
       12 O1     3d0       -0.0000   -0.0000   -0.0000   -0.0000    0.0000   -0.0000    0.0000    0.0000   -0.0000    0.0000
       13 O1     3d1+      -0.0000   -0.0000   -0.0000   -0.0000   -0.0000    0.0000   -0.0000    0.0000    0.0000   -0.0000
       14 O1     3d2+       0.0000    0.0000    0.0000    0.0000   -0.0000   -0.0000    0.0000   -0.0000    0.0000    0.0000
       15 FE2    1s         1.0000   -0.0001   -0.0000   -0.0000    0.0000   -0.0000    0.0002    0.0000   -0.0000    0.0000
       16 FE2    2s         0.0001    0.9942    0.0026    0.0012    0.0000   -0.0000    0.1077    0.0000    0.0000   -0.0000
       17 FE2    3s        -0.0002   -0.1077   -0.0026    0.0033    0.0000   -0.0000    0.9941   -0.0017    0.0000   -0.0000
       18 FE2    4s        -0.0000   -0.0007   -0.0000   -0.0000    0.0000   -0.0000    0.0068    0.0006   -0.0000    0.0000
       19 FE2    5s         0.0000    0.0005    0.0000    0.0000   -0.0000    0.0000   -0.0049   -0.0003    0.0000   -0.0000
       20 FE2    2px       -0.0000    0.0000    0.0000   -0.0000   -0.2541    0.9650    0.0000   -0.0000   -0.0173    0.0620
       21 FE2    3px        0.0000    0.0000   -0.0000    0.0000    0.0164   -0.0622    0.0000   -0.0000   -0.2685    0.9609
       22 FE2    4px        0.0000   -0.0000   -0.0000    0.0000    0.0001   -0.0003   -0.0000   -0.0000   -0.0015    0.0053
       23 FE2    5px        0.0000   -0.0000    0.0000   -0.0000   -0.0001    0.0003   -0.0000    0.0000    0.0018   -0.0064
       24 FE2    2py        0.0000   -0.0000   -0.0000    0.0001    0.9650    0.2541   -0.0000    0.0000    0.0619    0.0173
       25 FE2    3py       -0.0000   -0.0000    0.0000   -0.0000   -0.0622   -0.0164   -0.0000    0.0001    0.9609    0.2685
       26 FE2    4py       -0.0000    0.0000    0.0000   -0.0000   -0.0003   -0.0001    0.0000    0.0000    0.0053    0.0015
       27 FE2    5py       -0.0000    0.0000   -0.0000    0.0000    0.0003    0.0001    0.0000   -0.0000   -0.0064   -0.0018
       28 FE2    2pz        0.0000   -0.0008   -0.0265    0.9976   -0.0001    0.0000   -0.0034    0.0638   -0.0000    0.0000
       29 FE2    3pz       -0.0000   -0.0002    0.0016   -0.0638    0.0000   -0.0000    0.0019    0.9978   -0.0001    0.0000
       30 FE2    4pz       -0.0000   -0.0000    0.0000   -0.0004    0.0000   -0.0000    0.0002    0.0082   -0.0000    0.0000
       31 FE2    5pz       -0.0000    0.0000   -0.0000    0.0003   -0.0000    0.0000   -0.0001   -0.0078    0.0000   -0.0000
       32 FE2    3d2-       0.0000   -0.0000    0.0000    0.0000    0.0000   -0.0000   -0.0000   -0.0000    0.0000   -0.0000
       33 FE2    4d2-       0.0000   -0.0000    0.0000   -0.0000    0.0000   -0.0000   -0.0000   -0.0000    0.0000   -0.0000
       34 FE2    3d1-      -0.0000    0.0000   -0.0000   -0.0000   -0.0001   -0.0000    0.0000    0.0000   -0.0183   -0.0051
       35 FE2    4d1-      -0.0000    0.0000   -0.0000    0.0000   -0.0000   -0.0000    0.0000    0.0000   -0.0008   -0.0002
       36 FE2    3d0       -0.0000   -0.0001   -0.0000   -0.0000    0.0000   -0.0000    0.0010    0.0010    0.0000   -0.0000
       37 FE2    4d0        0.0000   -0.0000   -0.0000   -0.0000    0.0000   -0.0000    0.0024   -0.0000    0.0000   -0.0000
       38 FE2    3d1+       0.0000   -0.0000    0.0000    0.0000    0.0000   -0.0001   -0.0000   -0.0000    0.0051   -0.0183
       39 FE2    4d1+       0.0000   -0.0000    0.0000   -0.0000    0.0000   -0.0000   -0.0000   -0.0000    0.0002   -0.0008
       40 FE2    3d2+       0.0000   -0.0000    0.0000    0.0000    0.0000    0.0000   -0.0000   -0.0000    0.0000    0.0000
       41 FE2    4d2+       0.0000   -0.0000    0.0000   -0.0000    0.0000    0.0000   -0.0000   -0.0000    0.0000    0.0000
       42 FE2    4f3-      -0.0000    0.0000    0.0000    0.0000   -0.0000   -0.0000    0.0000   -0.0000   -0.0000   -0.0000
       43 FE2    4f2-       0.0000   -0.0000    0.0000   -0.0000   -0.0000    0.0000   -0.0000    0.0000   -0.0000    0.0000
       44 FE2    4f1-      -0.0000    0.0000   -0.0000    0.0000    0.0001    0.0000    0.0000   -0.0000    0.0023    0.0006
       45 FE2    4f0        0.0000    0.0000   -0.0000    0.0002   -0.0000    0.0000    0.0000   -0.0115   -0.0000    0.0000
       46 FE2    4f1+       0.0000   -0.0000    0.0000   -0.0000   -0.0000    0.0001   -0.0000    0.0000   -0.0006    0.0023
       47 FE2    4f2+       0.0000   -0.0000    0.0000   -0.0000   -0.0000   -0.0000   -0.0000    0.0000   -0.0000   -0.0000
       48 FE2    4f3+      -0.0000    0.0000    0.0000    0.0000    0.0000   -0.0000    0.0000   -0.0000    0.0000   -0.0000
 
          Orbital           11        12        13        14        15        16        17        18        19        20    
          Energy           -0.7350   -0.7350   -1.9097   -0.6313   -0.9148   -0.9149   -0.3916   -0.3916   -0.6313    1.4440
          Occ. No.          1.9989    1.9989    1.9940    1.0001    1.0000    1.0000    1.0000    1.0000    0.9999    0.0060
 
        1 O1     1s        -0.0000   -0.0000    0.0301   -0.0000   -0.0000    0.0000   -0.0000   -0.0000   -0.0000    0.0001
        2 O1     2s        -0.0000   -0.0000    0.9978    0.0030   -0.0000    0.0000   -0.0000   -0.0000   -0.0032    0.0111
        3 O1     3s         0.0000    0.0000   -0.0591   -0.0019   -0.0000    0.0000   -0.0000   -0.0000    0.0017    0.2233
        4 O1     2px        0.0000    0.0000    0.0000   -0.0010    0.2605   -0.9548    0.0000   -0.0000   -0.0011   -0.0000
        5 O1     3px       -0.0001   -0.0000   -0.0000    0.0001   -0.0376    0.1379    0.0000   -0.0000    0.0002   -0.0000
        6 O1     2py        0.0000   -0.0000   -0.0000    0.0036   -0.9548   -0.2605    0.0000    0.0000    0.0038    0.0000
        7 O1     3py       -0.0000    0.0001    0.0000   -0.0005    0.1379    0.0376    0.0000    0.0000   -0.0005    0.0000
        8 O1     2pz        0.0000    0.0000   -0.0047    0.7015   -0.0001    0.0000    0.0000    0.0000   -0.7010    0.0003
        9 O1     3pz        0.0000    0.0000   -0.0006   -0.0901    0.0000   -0.0000    0.0000    0.0000    0.0911   -0.0085
       10 O1     3d2-       0.0000    0.0000   -0.0000   -0.0000    0.0000   -0.0000    0.0000   -0.0000   -0.0000   -0.0000
       11 O1     3d1-      -0.0000    0.0000   -0.0000   -0.0000    0.0013    0.0004   -0.0000   -0.0000   -0.0000   -0.0002
       12 O1     3d0        0.0000    0.0000    0.0022   -0.0006    0.0000   -0.0000   -0.0000   -0.0000    0.0006    0.9747
       13 O1     3d1+      -0.0000   -0.0000    0.0000    0.0000   -0.0004    0.0013   -0.0000    0.0000    0.0000    0.0000
       14 O1     3d2+      -0.0000    0.0000   -0.0000   -0.0000    0.0000    0.0000   -0.0000   -0.0000   -0.0000   -0.0000
       15 FE2    1s        -0.0000   -0.0000   -0.0000   -0.0000   -0.0000    0.0000    0.0000    0.0000    0.0000   -0.0000
       16 FE2    2s         0.0000    0.0000    0.0000   -0.0000   -0.0000    0.0000    0.0000    0.0000   -0.0000   -0.0000
       17 FE2    3s         0.0000    0.0000   -0.0000   -0.0006   -0.0000    0.0000    0.0000    0.0000   -0.0006   -0.0000
       18 FE2    4s         0.0000    0.0000   -0.0001   -0.0112   -0.0001    0.0000    0.0000    0.0000   -0.0102   -0.0011
       19 FE2    5s        -0.0000   -0.0000   -0.0003    0.0047    0.0000   -0.0000   -0.0000   -0.0000    0.0062   -0.0027
       20 FE2    2px        0.0013    0.0004    0.0000    0.0000    0.0000   -0.0000    0.0000   -0.0000    0.0000    0.0000
       21 FE2    3px        0.0182    0.0051    0.0000    0.0000    0.0000   -0.0000    0.0000   -0.0000    0.0000   -0.0000
       22 FE2    4px        0.0097    0.0027    0.0000   -0.0000    0.0001   -0.0002   -0.0000    0.0000   -0.0000    0.0000
       23 FE2    5px        0.0004    0.0001   -0.0000   -0.0000    0.0000   -0.0001   -0.0000    0.0000   -0.0000    0.0000
       24 FE2    2py        0.0004   -0.0013   -0.0000   -0.0000   -0.0000   -0.0000    0.0000    0.0000   -0.0000   -0.0000
       25 FE2    3py        0.0051   -0.0182   -0.0000   -0.0000   -0.0000   -0.0000    0.0000    0.0000   -0.0000    0.0000
       26 FE2    4py        0.0027   -0.0097   -0.0000    0.0000   -0.0002   -0.0001   -0.0000   -0.0000    0.0000   -0.0000
       27 FE2    5py        0.0001   -0.0004    0.0000    0.0000   -0.0001   -0.0000   -0.0000   -0.0000    0.0000   -0.0000
       28 FE2    2pz        0.0000    0.0000    0.0000   -0.0000   -0.0000    0.0000   -0.0000   -0.0000   -0.0000   -0.0000
       29 FE2    3pz        0.0000    0.0000   -0.0001   -0.0008   -0.0000    0.0000   -0.0000   -0.0000   -0.0007    0.0000
       30 FE2    4pz        0.0000    0.0000   -0.0001    0.0052    0.0000   -0.0000    0.0000    0.0000    0.0064   -0.0013
       31 FE2    5pz        0.0000    0.0000   -0.0001   -0.0000    0.0000   -0.0000    0.0000    0.0000    0.0005   -0.0008
       32 FE2    3d2-       0.0001    0.0000    0.0000   -0.0000   -0.0000    0.0000    0.0150   -0.9999   -0.0000   -0.0000
       33 FE2    4d2-       0.0000    0.0000    0.0000   -0.0000   -0.0000    0.0000    0.0000   -0.0033   -0.0000    0.0000
       34 FE2    3d1-       0.2666   -0.9623   -0.0000    0.0001    0.0000    0.0000   -0.0001   -0.0000    0.0001    0.0000
       35 FE2    4d1-       0.0133   -0.0480   -0.0000    0.0000   -0.0001   -0.0000   -0.0000   -0.0000    0.0000   -0.0000
       36 FE2    3d0        0.0000    0.0002   -0.0000    0.7068    0.0055   -0.0000    0.0000    0.0000    0.7070   -0.0003
       37 FE2    4d0        0.0000    0.0000   -0.0000    0.0106    0.0001   -0.0000   -0.0000   -0.0000    0.0110   -0.0005
       38 FE2    3d1+       0.9623    0.2666    0.0000   -0.0000   -0.0000    0.0000   -0.0000    0.0001   -0.0000   -0.0000
       39 FE2    4d1+       0.0480    0.0133    0.0000   -0.0000    0.0000   -0.0001   -0.0000    0.0000   -0.0000    0.0000
       40 FE2    3d2+      -0.0000    0.0001    0.0000   -0.0000   -0.0000   -0.0000   -0.9999   -0.0150   -0.0000   -0.0000
       41 FE2    4d2+      -0.0000    0.0000    0.0000   -0.0000   -0.0000   -0.0000   -0.0033   -0.0000   -0.0000    0.0000
       42 FE2    4f3-      -0.0000    0.0000    0.0000    0.0000    0.0000    0.0000   -0.0000    0.0000    0.0000    0.0000
       43 FE2    4f2-       0.0000    0.0000   -0.0000   -0.0000    0.0000   -0.0000    0.0000   -0.0005   -0.0000   -0.0000
       44 FE2    4f1-       0.0002   -0.0007    0.0000    0.0000   -0.0000   -0.0000   -0.0000   -0.0000    0.0000    0.0000
       45 FE2    4f0        0.0000    0.0000    0.0000    0.0005    0.0000   -0.0000    0.0000    0.0000    0.0005    0.0000
       46 FE2    4f1+       0.0007    0.0002   -0.0000   -0.0000    0.0000   -0.0000   -0.0000    0.0000   -0.0000   -0.0000
       47 FE2    4f2+      -0.0000    0.0000   -0.0000   -0.0000    0.0000    0.0000   -0.0005   -0.0000   -0.0000   -0.0000
       48 FE2    4f3+      -0.0000   -0.0000    0.0000    0.0000   -0.0000    0.0000    0.0000    0.0000    0.0000    0.0000
 
          Orbital           21        22        23        24        25        26        27        28        29        30    
          Energy            0.7098    0.7098    3.5316    3.5316    3.4842    0.5500    2.0066    2.0066    2.0428    0.4436
          Occ. No.          0.0011    0.0011    0.0002    0.0002    0.0002    0.0000    0.0000    0.0000    0.0000    0.0000
 
        1 O1     1s         0.0000    0.0000   -0.0000    0.0000   -0.0001    0.0003    0.0000   -0.0000   -0.0006   -0.0005
        2 O1     2s         0.0000    0.0000   -0.0000    0.0000   -0.0007    0.0037    0.0000   -0.0000   -0.0076   -0.0588
        3 O1     3s        -0.0000   -0.0000   -0.0000    0.0000   -0.0010    0.0079    0.0000   -0.0000   -0.0263   -0.9702
        4 O1     2px       -0.0000    0.0001   -0.0000    0.0001    0.0000   -0.0000    0.0004   -0.0014    0.0000   -0.0000
        5 O1     3px       -0.0004    0.0014   -0.0001    0.0003    0.0000   -0.0000    0.0019   -0.0072    0.0000   -0.0000
        6 O1     2py        0.0001    0.0000    0.0001    0.0000   -0.0000    0.0000   -0.0014   -0.0004   -0.0000    0.0000
        7 O1     3py        0.0014    0.0004    0.0003    0.0001   -0.0000    0.0000   -0.0072   -0.0019   -0.0000    0.0000
        8 O1     2pz       -0.0000   -0.0000    0.0000   -0.0000    0.0005   -0.0061   -0.0000    0.0000    0.0093   -0.0078
        9 O1     3pz        0.0000    0.0000    0.0000   -0.0000    0.0016   -0.0251   -0.0000    0.0000    0.0422   -0.0492
       10 O1     3d2-      -0.0000    0.0000   -0.0000    0.0000    0.0000   -0.0000   -0.0000    0.0000   -0.0000   -0.0000
       11 O1     3d1-      -0.0001   -0.0000   -0.0000   -0.0000    0.0000   -0.0000    0.0006    0.0002   -0.0000   -0.0000
       12 O1     3d0        0.0000    0.0000   -0.0000    0.0000   -0.0004    0.0021    0.0000   -0.0000    0.0006    0.2217
       13 O1     3d1+       0.0000   -0.0001    0.0000   -0.0000   -0.0000    0.0000   -0.0002    0.0006    0.0000    0.0000
       14 O1     3d2+      -0.0000   -0.0000   -0.0000   -0.0000    0.0000   -0.0000   -0.0000   -0.0000   -0.0000   -0.0000
       15 FE2    1s        -0.0000   -0.0000    0.0000   -0.0000    0.0000    0.0000   -0.0000    0.0000    0.0000   -0.0000
       16 FE2    2s        -0.0000   -0.0000   -0.0000    0.0000   -0.0000    0.0002    0.0000   -0.0000   -0.0000    0.0000
       17 FE2    3s         0.0000    0.0000   -0.0000    0.0000    0.0000   -0.0019   -0.0000    0.0000    0.0002    0.0003
       18 FE2    4s        -0.0001   -0.0000    0.0000   -0.0000   -0.0030    0.3404   -0.0000    0.0000   -0.0014    0.0124
       19 FE2    5s         0.0000    0.0000   -0.0000    0.0000    0.0011   -0.3343   -0.0000    0.0000    0.0109    0.0753
       20 FE2    2px       -0.0000    0.0000    0.0001   -0.0003   -0.0000    0.0000   -0.0000    0.0000   -0.0000   -0.0000
       21 FE2    3px        0.0002   -0.0007    0.0013   -0.0047   -0.0000    0.0000   -0.0018    0.0066   -0.0000    0.0000
       22 FE2    4px       -0.0286    0.1020   -0.0568    0.2034    0.0000   -0.0000    0.0544   -0.2049    0.0000   -0.0000
       23 FE2    5px       -0.0020    0.0070    0.0572   -0.2045   -0.0000   -0.0000   -0.2420    0.9111   -0.0000    0.0000
       24 FE2    2py        0.0000    0.0000   -0.0003   -0.0001    0.0000   -0.0000    0.0000    0.0000    0.0000    0.0000
       25 FE2    3py       -0.0007   -0.0002   -0.0047   -0.0013    0.0000   -0.0000    0.0066    0.0018    0.0000   -0.0000
       26 FE2    4py        0.1020    0.0286    0.2034    0.0568   -0.0000    0.0000   -0.2049   -0.0544   -0.0000    0.0000
       27 FE2    5py        0.0070    0.0020   -0.2045   -0.0572    0.0000    0.0000    0.9111    0.2420    0.0001   -0.0000
       28 FE2    2pz        0.0000    0.0000    0.0000   -0.0000    0.0006   -0.0000    0.0000   -0.0000    0.0000    0.0000
       29 FE2    3pz        0.0000    0.0000    0.0000   -0.0000    0.0145   -0.0000   -0.0000    0.0000    0.0056   -0.0002
       30 FE2    4pz       -0.0000   -0.0000   -0.0000    0.0000   -0.2466   -0.0237    0.0000   -0.0000   -0.0991    0.0274
       31 FE2    5pz       -0.0000   -0.0000    0.0000   -0.0000    0.2111   -0.0010   -0.0001    0.0000    0.9663   -0.0065
       32 FE2    3d2-       0.0000   -0.0000   -0.0000    0.0000   -0.0000   -0.0000    0.0000   -0.0000   -0.0000   -0.0000
       33 FE2    4d2-      -0.0000    0.0001    0.0000   -0.0000    0.0000    0.0000   -0.0000    0.0000    0.0000    0.0000
       34 FE2    3d1-      -0.0488   -0.0137   -0.0010   -0.0003    0.0000    0.0000    0.0008    0.0002    0.0000    0.0000
       35 FE2    4d1-       0.9560    0.2685   -0.0296   -0.0083   -0.0000   -0.0001    0.0128    0.0034   -0.0000   -0.0000
       36 FE2    3d0        0.0000    0.0000    0.0000   -0.0000    0.0011    0.0212   -0.0000    0.0000    0.0008    0.0001
       37 FE2    4d0       -0.0002   -0.0000    0.0000   -0.0000    0.0154   -0.8790   -0.0000    0.0000   -0.0037   -0.0215
       38 FE2    3d1+       0.0137   -0.0488    0.0003   -0.0010   -0.0000   -0.0000   -0.0002    0.0008   -0.0000   -0.0000
       39 FE2    4d1+      -0.2685    0.9560    0.0083   -0.0296    0.0000    0.0000   -0.0034    0.0128    0.0000    0.0000
       40 FE2    3d2+       0.0000    0.0000   -0.0000   -0.0000   -0.0000   -0.0000    0.0000    0.0000   -0.0000   -0.0000
       41 FE2    4d2+      -0.0001   -0.0000    0.0000    0.0000    0.0000    0.0000   -0.0000   -0.0000    0.0000    0.0000
       42 FE2    4f3-      -0.0000   -0.0000   -0.0000   -0.0000    0.0000    0.0000   -0.0000   -0.0000   -0.0000    0.0000
       43 FE2    4f2-      -0.0000    0.0000   -0.0001    0.0001   -0.0000    0.0000   -0.0000    0.0000    0.0000   -0.0000
       44 FE2    4f1-       0.0097    0.0027    0.9184    0.2567    0.0002   -0.0000    0.2487    0.0660   -0.0001    0.0000
       45 FE2    4f0       -0.0000   -0.0000   -0.0002    0.0000    0.9456    0.0098   -0.0001    0.0000   -0.2415    0.0094
       46 FE2    4f1+      -0.0027    0.0097   -0.2567    0.9184   -0.0000    0.0000   -0.0660    0.2487    0.0000   -0.0000
       47 FE2    4f2+      -0.0000   -0.0000   -0.0001   -0.0001   -0.0000    0.0000   -0.0000   -0.0000    0.0000   -0.0000
       48 FE2    4f3+       0.0000   -0.0000    0.0000   -0.0000    0.0000    0.0000    0.0000   -0.0000   -0.0000    0.0000
 
          Orbital           31        32        33        34        35        36        37        38        39        40    
          Energy            0.0777   -0.2267   -0.0078   -0.0078    0.0508    0.0991    0.1047    0.1047    0.7425    0.7471
          Occ. No.          0.0000    0.0000    0.0000    0.0000    0.0000    0.0000    0.0000    0.0000    0.0000    0.0000
 
        1 O1     1s        -0.0004    0.0007   -0.0000   -0.0000    0.0002    0.0002   -0.0000   -0.0000   -0.0000    0.0000
        2 O1     2s        -0.0028    0.0059   -0.0000   -0.0000    0.0005    0.0034    0.0000    0.0000   -0.0000   -0.0000
        3 O1     3s         0.0398   -0.0356    0.0000   -0.0000   -0.0437    0.0316    0.0000   -0.0000   -0.0000   -0.0000
        4 O1     2px       -0.0000    0.0000    0.0001   -0.0003   -0.0000   -0.0000   -0.1377   -0.0382   -0.0000   -0.0001
        5 O1     3px        0.0000    0.0000    0.0015   -0.0053    0.0000   -0.0000   -0.9537   -0.2647   -0.0002   -0.0004
        6 O1     2py        0.0000   -0.0000   -0.0004   -0.0001   -0.0000    0.0000   -0.0382    0.1377    0.0001    0.0002
        7 O1     3py       -0.0000   -0.0000   -0.0053   -0.0013   -0.0000    0.0001   -0.2647    0.9537    0.0007    0.0010
        8 O1     2pz        0.0100   -0.0099   -0.0000    0.0000    0.0759   -0.1037   -0.0000    0.0000    0.0000    0.0000
        9 O1     3pz        0.0470   -0.0247   -0.0000    0.0001    0.6026   -0.7896   -0.0000    0.0001    0.0001    0.0001
       10 O1     3d2-       0.0000    0.0000    0.0000    0.0000    0.0000   -0.0001   -0.0000   -0.0025   -0.0063   -0.0027
       11 O1     3d1-       0.0000   -0.0000    0.0001    0.0000   -0.0000    0.0000    0.0006   -0.0008    0.0081    0.0279
       12 O1     3d0       -0.0129    0.0157   -0.0000    0.0000    0.0173   -0.0115   -0.0000    0.0000    0.0000    0.0000
       13 O1     3d1+      -0.0000    0.0000    0.0000    0.0001   -0.0000    0.0000    0.0014    0.0006   -0.0065   -0.0037
       14 O1     3d2+       0.0000    0.0000   -0.0000   -0.0001   -0.0000   -0.0000    0.0001    0.0000    0.0064    0.0102
       15 FE2    1s        -0.0000    0.0000   -0.0000    0.0000    0.0000   -0.0000   -0.0000    0.0000    0.0000    0.0000
       16 FE2    2s         0.0001   -0.0000   -0.0000    0.0000    0.0001   -0.0001   -0.0000    0.0000    0.0000    0.0000
       17 FE2    3s         0.0083    0.0023    0.0000    0.0000    0.0000   -0.0005   -0.0000    0.0000    0.0000    0.0000
       18 FE2    4s        -0.5336   -0.7693   -0.0000    0.0000    0.0893    0.0109    0.0000   -0.0000   -0.0000    0.0000
       19 FE2    5s         0.6999   -0.6304   -0.0000    0.0000    0.0443    0.0061    0.0000   -0.0000   -0.0000    0.0000
       20 FE2    2px        0.0000    0.0000    0.0000   -0.0000    0.0000    0.0000    0.0000    0.0000    0.0000    0.0000
       21 FE2    3px       -0.0000    0.0000   -0.0009    0.0032   -0.0000    0.0000    0.0000    0.0000    0.0000   -0.0000
       22 FE2    4px        0.0000   -0.0000    0.2563   -0.9128    0.0001   -0.0000    0.0128    0.0038   -0.0000    0.0000
       23 FE2    5px        0.0000   -0.0000    0.0696   -0.2478    0.0000   -0.0000    0.0034    0.0010   -0.0000    0.0000
       24 FE2    2py       -0.0000   -0.0000   -0.0000   -0.0000   -0.0000   -0.0000    0.0000   -0.0000   -0.0000   -0.0000
       25 FE2    3py        0.0000    0.0000    0.0032    0.0009    0.0000    0.0000    0.0000   -0.0000   -0.0000   -0.0000
       26 FE2    4py       -0.0000   -0.0000   -0.9128   -0.2563   -0.0001   -0.0001    0.0036   -0.0129   -0.0000    0.0000
       27 FE2    5py       -0.0000    0.0000   -0.2478   -0.0696   -0.0000   -0.0000    0.0010   -0.0035   -0.0000    0.0000
       28 FE2    2pz       -0.0000   -0.0000    0.0000    0.0000   -0.0000   -0.0001   -0.0000    0.0000    0.0000    0.0000
       29 FE2    3pz        0.0007    0.0006   -0.0000    0.0000    0.0035    0.0022   -0.0000   -0.0000   -0.0000    0.0000
       30 FE2    4pz       -0.0309   -0.0834    0.0001   -0.0000   -0.7359   -0.6165    0.0000    0.0001    0.0002   -0.0000
       31 FE2    5pz       -0.0117   -0.0123    0.0000   -0.0000   -0.1191   -0.0992    0.0000    0.0000    0.0000   -0.0000
       32 FE2    3d2-      -0.0000   -0.0000    0.0000   -0.0000   -0.0000    0.0000   -0.0000   -0.0000   -0.0003    0.0033
       33 FE2    4d2-       0.0000    0.0000   -0.0000   -0.0000    0.0001   -0.0001    0.0001    0.0010    0.1055   -0.9933
       34 FE2    3d1-       0.0000    0.0000    0.0042    0.0012    0.0000    0.0000    0.0001   -0.0005    0.0000    0.0000
       35 FE2    4d1-      -0.0001   -0.0001    0.0980    0.0275   -0.0000   -0.0000    0.0017   -0.0061   -0.0001   -0.0000
       36 FE2    3d0       -0.0059   -0.0053   -0.0000    0.0000    0.0086    0.0025   -0.0000   -0.0000   -0.0000    0.0000
       37 FE2    4d0       -0.4708   -0.0590   -0.0000    0.0000    0.0428    0.0064   -0.0000   -0.0000   -0.0000    0.0000
       38 FE2    3d1+      -0.0000   -0.0000   -0.0012    0.0042   -0.0000    0.0000    0.0005    0.0001    0.0000   -0.0000
       39 FE2    4d1+       0.0000    0.0000   -0.0275    0.0980   -0.0000    0.0000    0.0061    0.0017   -0.0000    0.0001
       40 FE2    3d2+      -0.0000    0.0000    0.0000    0.0000    0.0000    0.0000   -0.0000   -0.0000    0.0033    0.0003
       41 FE2    4d2+       0.0000   -0.0000   -0.0000   -0.0000   -0.0001   -0.0002    0.0000    0.0009   -0.9943   -0.1051
       42 FE2    4f3-      -0.0000    0.0000   -0.0000   -0.0000    0.0000    0.0000    0.0000   -0.0000    0.0000    0.0000
       43 FE2    4f2-      -0.0000   -0.0000   -0.0000    0.0000   -0.0003   -0.0000   -0.0001    0.0000    0.0009   -0.0285
       44 FE2    4f1-       0.0000   -0.0000    0.1502    0.0422   -0.0000   -0.0000   -0.0006    0.0021   -0.0000   -0.0000
[...]
ATVX     1  Mu1.0010  Se1.027                       0.18687720     -0.00000000      0.00000001     -0.00000000
ATVX     1  Mu1.0011  Se1.027                       0.18899955      0.00000037     -0.00000606     -0.00000000
ATVX     1  Mu1.0012  Se1.027                       0.18900326     -0.00000056      0.00000935     -0.00000000
ATVX     1  Mu1.0013  Se1.027                       0.23333167      0.00000000      0.00000000      0.00000000
ATVX     1  Mu1.0014  Se1.027                       0.23333168      0.00000000     -0.00000000     -0.00000000
ATVX     1  Mu1.0015  Se1.027                       0.26618251      0.00000000     -0.00000000     -0.00000000
ATVX     1  Mu1.0016  Se1.027                       0.26618252     -0.00000000      0.00000000     -0.00000000
ATVX     1  Mu1.0017  Se1.027                       0.26787520     -0.00000002     -0.00000007      0.00000000
ATVX     1  Mu1.0018  Se1.027                       0.26788089     -0.00000001     -0.00000003      0.00000000
ATVX     1  Mu1.0019  Se1.027                       0.27022197     -0.00000025      0.00000085     -0.00000000
ATVX     1  Mu1.0020  Se1.027                       0.27023197     -0.00000005      0.00000016     -0.00000000
ATVX     1  Mu1.0021  Se1.027                       0.27592475      0.00000000     -0.00000000     -0.00000000
ATVX     1  Mu1.0022  Se1.027                       0.27593212     -0.00000000      0.00000000     -0.00000000
ATVX     1  Mu1.0023  Se1.027                       0.27732808      0.00000000     -0.00000000     -0.00000000
ATVX     1  Mu1.0024  Se1.027                       0.27732816     -0.00000000     -0.00000000      0.00000000
ATVX     1  Mu1.0025  Se1.027                       0.27819217      0.00000000     -0.00000000     -0.00000000
ATVX     1  Mu1.0026  Se1.027                       0.27819561     -0.00000000      0.00000000     -0.00000000
ATVX     1  Mu1.0001  Se1.028                      -0.20156837      0.00000000      0.00000000      0.00000000
ATVX     1  Mu1.0002  Se1.028                      -0.19380743      0.00000000     -0.00000000     -0.00000000
ATVX     1  Mu1.0003  Se1.028                      -0.19380404      0.00000005      0.00000016      0.00000000
ATVX     1  Mu1.0004  Se1.028                      -0.15080890      0.00000000      0.00000000      0.00000000
ATVX     1  Mu1.0005  Se1.028                      -0.01044193     -0.00000004      0.00000315     -0.00000000
ATVX     1  Mu1.0006  Se1.028                      -0.01044187     -0.00000212      0.00015195     -0.00000000
ATVX     1  Mu1.0007  Se1.028                       0.18996429      0.00000008     -0.00000183     -0.00000000
ATVX     1  Mu1.0008  Se1.028                       0.18996430      0.00000000      0.00000000      0.00000000
ATVX     1  Mu1.0009  Se1.028                       0.19461000     -0.00000000     -0.00000000      0.00000000
ATVX     1  Mu1.0010  Se1.028                       0.19461343      0.00000000     -0.00000000     -0.00000000
ATVX     1  Mu1.0011  Se1.028                       0.19673579     -0.00000000      0.00000000     -0.00000000
ATVX     1  Mu1.0012  Se1.028                       0.19673950     -0.00000000     -0.00000000      0.00000000
ATVX     1  Mu1.0013  Se1.028                       0.24106791      0.00000001     -0.00000010     -0.00000000
ATVX     1  Mu1.0014  Se1.028                       0.24106792      0.00000000     -0.00000000     -0.00000000
ATVX     1  Mu1.0015  Se1.028                       0.27391875     -0.00000000      0.00000000     -0.00000000
ATVX     1  Mu1.0016  Se1.028                       0.27391876      0.00000032     -0.00000112     -0.00000000
ATVX     1  Mu1.0017  Se1.028                       0.27561143     -0.00000000      0.00000000     -0.00000000
ATVX     1  Mu1.0018  Se1.028                       0.27561713     -0.00000000      0.00000000     -0.00000000
ATVX     1  Mu1.0019  Se1.028                       0.27795820     -0.00000000      0.00000000     -0.00000000
ATVX     1  Mu1.0020  Se1.028                       0.27796821     -0.00000000      0.00000000     -0.00000000
ATVX     1  Mu1.0021  Se1.028                       0.28366099     -0.00000015      0.00000043     -0.00000000
ATVX     1  Mu1.0022  Se1.028                       0.28366836      0.00000000     -0.00000001     -0.00000000
ATVX     1  Mu1.0023  Se1.028                       0.28506432     -0.00000000      0.00000001     -0.00000000
ATVX     1  Mu1.0024  Se1.028                       0.28506440      0.00000089     -0.00000393     -0.00000000
ATVX     1  Mu1.0025  Se1.028                       0.28592841     -0.00000000      0.00000000     -0.00000000
ATVX     1  Mu1.0026  Se1.028                       0.28593184     -0.00000000      0.00000000     -0.00000000
ATVX     1  Mu1.0001  Se1.029                      -0.20156764      0.00000000      0.00000000      0.00000000
ATVX     1  Mu1.0002  Se1.029                      -0.19380670      0.00000005      0.00000016      0.00000000
ATVX     1  Mu1.0003  Se1.029                      -0.19380331     -0.00000000     -0.00000000      0.00000000
ATVX     1  Mu1.0004  Se1.029                      -0.15080817      0.00000000      0.00000000      0.00000000
ATVX     1  Mu1.0005  Se1.029                      -0.01044119     -0.00000212      0.00015188     -0.00000000
ATVX     1  Mu1.0006  Se1.029                      -0.01044114      0.00000004     -0.00000315     -0.00000000
ATVX     1  Mu1.0007  Se1.029                       0.18996502     -0.00000000     -0.00000000      0.00000000
ATVX     1  Mu1.0008  Se1.029                       0.18996503      0.00000008     -0.00000183     -0.00000000
ATVX     1  Mu1.0009  Se1.029                       0.19461073     -0.00000000      0.00000000     -0.00000000
ATVX     1  Mu1.0010  Se1.029                       0.19461417      0.00000000      0.00000000      0.00000000
ATVX     1  Mu1.0011  Se1.029                       0.19673652     -0.00000000     -0.00000000      0.00000000
ATVX     1  Mu1.0012  Se1.029                       0.19674023     -0.00000000      0.00000000     -0.00000000
ATVX     1  Mu1.0013  Se1.029                       0.24106864     -0.00000000      0.00000000     -0.00000000
ATVX     1  Mu1.0014  Se1.029                       0.24106865      0.00000001     -0.00000010     -0.00000000
ATVX     1  Mu1.0015  Se1.029                       0.27391948     -0.00000032      0.00000112     -0.00000000
ATVX     1  Mu1.0016  Se1.029                       0.27391949     -0.00000000      0.00000000     -0.00000000
ATVX     1  Mu1.0017  Se1.029                       0.27561217     -0.00000000     -0.00000000      0.00000000
ATVX     1  Mu1.0018  Se1.029                       0.27561786      0.00000000     -0.00000000     -0.00000000
ATVX     1  Mu1.0019  Se1.029                       0.27795894      0.00000000      0.00000000      0.00000000
ATVX     1  Mu1.0020  Se1.029                       0.27796895      0.00000000     -0.00000000     -0.00000000
ATVX     1  Mu1.0021  Se1.029                       0.28366172     -0.00000000      0.00000001     -0.00000000
ATVX     1  Mu1.0022  Se1.029                       0.28366909     -0.00000015      0.00000043     -0.00000000
ATVX     1  Mu1.0023  Se1.029                       0.28506505      0.00000089     -0.00000393     -0.00000000
ATVX     1  Mu1.0024  Se1.029                       0.28506513      0.00000000     -0.00000001     -0.00000000
ATVX     1  Mu1.0025  Se1.029                       0.28592914      0.00000000      0.00000000      0.00000000
ATVX     1  Mu1.0026  Se1.029                       0.28593258      0.00000000     -0.00000000     -0.00000000
ATVX     1  Mu1.0001  Se1.030                      -0.04060645      0.00000000     -0.00000000     -0.00000000
ATVX     1  Mu1.0002  Se1.030                      -0.03284551     -0.00000000     -0.00000000      0.00000000
ATVX     1  Mu1.0003  Se1.030                      -0.03284212      0.00000000      0.00000000      0.00000000
ATVX     1  Mu1.0004  Se1.030                       0.01015302     -0.00000000      0.00000004     -0.00000000
ATVX     1  Mu1.0005  Se1.030                       0.15051999      0.00000000      0.00000000      0.00000000
ATVX     1  Mu1.0006  Se1.030                       0.15052005     -0.00000000      0.00000000     -0.00000000
ATVX     1  Mu1.0261  Se1.031                       2.28273737     -0.09246092      0.04206437     -0.00388931
ATVX     1  Mu1.0262  Se1.032                       2.28273738     -0.09246091      0.04206436     -0.00388931
AIVX     1  Mu1.0135  In1.011 Se1.033               3.32296491     -0.10908744      0.03326172     -0.00362844
AIVX     1  Mu1.0136  In1.011 Se1.033               3.32710175     -0.07746046      0.02632479     -0.00203913
AIVX     1  Mu1.0130  In1.008 Se1.034               6.28899096      0.17057666     -0.02712714     -0.00462726
AIVX     1  Mu1.0130  In1.009 Se1.035               6.29879932     -0.17015038      0.02701064     -0.00459587
AIVX     1  Mu1.0168  In1.009 Se1.035               6.56035537      0.17706237     -0.02698974     -0.00477887
AIVX     1  Mu1.0130  In1.010 Se1.036               6.29880056     -0.17015044      0.02701064     -0.00459587
AIVX     1  Mu1.0168  In1.010 Se1.036               6.56035661      0.17706435     -0.02699004     -0.00477897
AIVX     1  Mu1.0036  In1.011 Se1.037               3.46946750      0.11422014     -0.03152197     -0.00360044
AIVX     1  Mu1.0037  In1.011 Se1.037               3.46946750      0.09212567     -0.02542444     -0.00234224
AIVX     1  Mu1.0049  In1.011 Se1.038               3.71946189     -0.14673991      0.03786364     -0.00555611
AIVX     1  Mu1.0041  In1.011 Se1.041               3.52313105     -0.10186898      0.02764030     -0.00281569
BVATM    1  Mu1.0001  Se1.027 Se1.026               0.18806356     -0.00000000      0.00000000     -0.00000000
BVATM    1  Mu1.0001  Se1.028 Se1.026               0.19579980      0.00000000      0.00000000      0.00000000
BVATM    1  Mu1.0001  Se1.029 Se1.026               0.19580053      0.00000000      0.00000000      0.00000000
BVATM    1  Mu1.0001  Se1.032 Se1.031               1.95550098     -0.07207240      0.03718039     -0.00267968
BVATM    1  Mu1.0001  Se1.038 Se1.037               5.00951591     -0.12959607      0.02586998     -0.00335265
BJATP    1  Mu1.0002  In1.011 Se1.033 Se1.031       2.93910221      0.08260937     -0.02798278     -0.00231164
BJATP    1  Mu1.0001  In1.011 Se1.033 Se1.032       2.93910221      0.08260937     -0.02798278     -0.00231164
BJATM    1  Mu1.0002  In1.011 Se1.033 Se1.031       2.93910221     -0.07870667      0.02870412     -0.00225921
BJATM    1  Mu1.0001  In1.011 Se1.033 Se1.032       2.93910221     -0.07870667      0.02870412     -0.00225921
BJAIP    1  Se1.033 In1.011 Se1.033 In1.011         3.92270099      0.12252418     -0.03339433     -0.00409161
--
 
   (Skipping property calculation,
    use PROP keyword to activate)
--
 
  Total CASPT2 energies:
::    CASPT2 Root  1     Total energy:  -1345.82474424
 
  A NEW JOBIPH FILE NAMED 'JOBMIX' IS PREPARED.
********************************************************************************
--- Stop Module: caspt2 at Wed Dec 25 16:31:13 2024 /rc=_RC_ALL_IS_WELL_ ---
*** files: xmldump
    saved to directory /home/grierjones/DDCASPT2/iron_oxo_DDCASPT2/cluster/6.44
--- Module caspt2 spent 5 minutes 31 seconds ---

>>> EXPORT i = B

>>> EXPORT j = P

>>> IF (-FILE GMJ_e2_${i}_${j}.csv)

>>> COPY /tmp/6.44/GMJ_RHS_B_P.csv /home/grierjones/DDCASPT2/iron_oxo_DDCASPT2/cluster/6.44/GMJ_RHS_B_P.csv

>>> COPY /tmp/6.44/GMJ_IVECW_B_P.csv /home/grierjones/DDCASPT2/iron_oxo_DDCASPT2/cluster/6.44/GMJ_IVECW_B_P.csv

>>> COPY /tmp/6.44/GMJ_IVECX_B_P.csv /home/grierjones/DDCASPT2/iron_oxo_DDCASPT2/cluster/6.44/GMJ_IVECX_B_P.csv

>>> COPY /tmp/6.44/GMJ_IVECC2_B_P.csv /home/grierjones/DDCASPT2/iron_oxo_DDCASPT2/cluster/6.44/GMJ_IVECC2_B_P.csv

>>> COPY /tmp/6.44/GMJ_e2_B_P.csv /home/grierjones/DDCASPT2/iron_oxo_DDCASPT2/cluster/6.44/GMJ_e2_B_P.csv

>>> END FOREACH

>>> EXPORT j = M

>>> IF (-FILE GMJ_e2_${i}_${j}.csv)

>>> COPY /tmp/6.44/GMJ_RHS_B_M.csv /home/grierjones/DDCASPT2/iron_oxo_DDCASPT2/cluster/6.44/GMJ_RHS_B_M.csv

>>> COPY /tmp/6.44/GMJ_IVECW_B_M.csv /home/grierjones/DDCASPT2/iron_oxo_DDCASPT2/cluster/6.44/GMJ_IVECW_B_M.csv

>>> COPY /tmp/6.44/GMJ_IVECX_B_M.csv /home/grierjones/DDCASPT2/iron_oxo_DDCASPT2/cluster/6.44/GMJ_IVECX_B_M.csv

>>> COPY /tmp/6.44/GMJ_IVECC2_B_M.csv /home/grierjones/DDCASPT2/iron_oxo_DDCASPT2/cluster/6.44/GMJ_IVECC2_B_M.csv

>>> COPY /tmp/6.44/GMJ_e2_B_M.csv /home/grierjones/DDCASPT2/iron_oxo_DDCASPT2/cluster/6.44/GMJ_e2_B_M.csv

>>> END FOREACH

>>> END FOREACH

>>> EXPORT i = E

>>> EXPORT j = P

>>> IF (-FILE GMJ_e2_${i}_${j}.csv)

>>> COPY /tmp/6.44/GMJ_RHS_E_P.csv /home/grierjones/DDCASPT2/iron_oxo_DDCASPT2/cluster/6.44/GMJ_RHS_E_P.csv

>>> COPY /tmp/6.44/GMJ_IVECW_E_P.csv /home/grierjones/DDCASPT2/iron_oxo_DDCASPT2/cluster/6.44/GMJ_IVECW_E_P.csv

>>> COPY /tmp/6.44/GMJ_IVECX_E_P.csv /home/grierjones/DDCASPT2/iron_oxo_DDCASPT2/cluster/6.44/GMJ_IVECX_E_P.csv

>>> COPY /tmp/6.44/GMJ_IVECC2_E_P.csv /home/grierjones/DDCASPT2/iron_oxo_DDCASPT2/cluster/6.44/GMJ_IVECC2_E_P.csv

>>> COPY /tmp/6.44/GMJ_e2_E_P.csv /home/grierjones/DDCASPT2/iron_oxo_DDCASPT2/cluster/6.44/GMJ_e2_E_P.csv

>>> END FOREACH

>>> EXPORT j = M

>>> IF (-FILE GMJ_e2_${i}_${j}.csv)

>>> COPY /tmp/6.44/GMJ_RHS_E_M.csv /home/grierjones/DDCASPT2/iron_oxo_DDCASPT2/cluster/6.44/GMJ_RHS_E_M.csv

>>> COPY /tmp/6.44/GMJ_IVECW_E_M.csv /home/grierjones/DDCASPT2/iron_oxo_DDCASPT2/cluster/6.44/GMJ_IVECW_E_M.csv

>>> COPY /tmp/6.44/GMJ_IVECX_E_M.csv /home/grierjones/DDCASPT2/iron_oxo_DDCASPT2/cluster/6.44/GMJ_IVECX_E_M.csv

>>> COPY /tmp/6.44/GMJ_IVECC2_E_M.csv /home/grierjones/DDCASPT2/iron_oxo_DDCASPT2/cluster/6.44/GMJ_IVECC2_E_M.csv

>>> COPY /tmp/6.44/GMJ_e2_E_M.csv /home/grierjones/DDCASPT2/iron_oxo_DDCASPT2/cluster/6.44/GMJ_e2_E_M.csv

>>> END FOREACH

>>> END FOREACH

>>> EXPORT i = F

>>> EXPORT j = P

>>> IF (-FILE GMJ_e2_${i}_${j}.csv)

>>> COPY /tmp/6.44/GMJ_RHS_F_P.csv /home/grierjones/DDCASPT2/iron_oxo_DDCASPT2/cluster/6.44/GMJ_RHS_F_P.csv

>>> COPY /tmp/6.44/GMJ_IVECW_F_P.csv /home/grierjones/DDCASPT2/iron_oxo_DDCASPT2/cluster/6.44/GMJ_IVECW_F_P.csv

>>> COPY /tmp/6.44/GMJ_IVECX_F_P.csv /home/grierjones/DDCASPT2/iron_oxo_DDCASPT2/cluster/6.44/GMJ_IVECX_F_P.csv

>>> COPY /tmp/6.44/GMJ_IVECC2_F_P.csv /home/grierjones/DDCASPT2/iron_oxo_DDCASPT2/cluster/6.44/GMJ_IVECC2_F_P.csv

>>> COPY /tmp/6.44/GMJ_e2_F_P.csv /home/grierjones/DDCASPT2/iron_oxo_DDCASPT2/cluster/6.44/GMJ_e2_F_P.csv

>>> END FOREACH

>>> EXPORT j = M

>>> IF (-FILE GMJ_e2_${i}_${j}.csv)

>>> COPY /tmp/6.44/GMJ_RHS_F_M.csv /home/grierjones/DDCASPT2/iron_oxo_DDCASPT2/cluster/6.44/GMJ_RHS_F_M.csv

>>> COPY /tmp/6.44/GMJ_IVECW_F_M.csv /home/grierjones/DDCASPT2/iron_oxo_DDCASPT2/cluster/6.44/GMJ_IVECW_F_M.csv

>>> COPY /tmp/6.44/GMJ_IVECX_F_M.csv /home/grierjones/DDCASPT2/iron_oxo_DDCASPT2/cluster/6.44/GMJ_IVECX_F_M.csv

>>> COPY /tmp/6.44/GMJ_IVECC2_F_M.csv /home/grierjones/DDCASPT2/iron_oxo_DDCASPT2/cluster/6.44/GMJ_IVECC2_F_M.csv

>>> COPY /tmp/6.44/GMJ_e2_F_M.csv /home/grierjones/DDCASPT2/iron_oxo_DDCASPT2/cluster/6.44/GMJ_e2_F_M.csv

>>> END FOREACH

>>> END FOREACH

>>> EXPORT i = G

>>> EXPORT j = P

>>> IF (-FILE GMJ_e2_${i}_${j}.csv)

>>> COPY /tmp/6.44/GMJ_RHS_G_P.csv /home/grierjones/DDCASPT2/iron_oxo_DDCASPT2/cluster/6.44/GMJ_RHS_G_P.csv

>>> COPY /tmp/6.44/GMJ_IVECW_G_P.csv /home/grierjones/DDCASPT2/iron_oxo_DDCASPT2/cluster/6.44/GMJ_IVECW_G_P.csv

>>> COPY /tmp/6.44/GMJ_IVECX_G_P.csv /home/grierjones/DDCASPT2/iron_oxo_DDCASPT2/cluster/6.44/GMJ_IVECX_G_P.csv

>>> COPY /tmp/6.44/GMJ_IVECC2_G_P.csv /home/grierjones/DDCASPT2/iron_oxo_DDCASPT2/cluster/6.44/GMJ_IVECC2_G_P.csv

>>> COPY /tmp/6.44/GMJ_e2_G_P.csv /home/grierjones/DDCASPT2/iron_oxo_DDCASPT2/cluster/6.44/GMJ_e2_G_P.csv

>>> END FOREACH

>>> EXPORT j = M

>>> IF (-FILE GMJ_e2_${i}_${j}.csv)

>>> COPY /tmp/6.44/GMJ_RHS_G_M.csv /home/grierjones/DDCASPT2/iron_oxo_DDCASPT2/cluster/6.44/GMJ_RHS_G_M.csv

>>> COPY /tmp/6.44/GMJ_IVECW_G_M.csv /home/grierjones/DDCASPT2/iron_oxo_DDCASPT2/cluster/6.44/GMJ_IVECW_G_M.csv

>>> COPY /tmp/6.44/GMJ_IVECX_G_M.csv /home/grierjones/DDCASPT2/iron_oxo_DDCASPT2/cluster/6.44/GMJ_IVECX_G_M.csv

>>> COPY /tmp/6.44/GMJ_IVECC2_G_M.csv /home/grierjones/DDCASPT2/iron_oxo_DDCASPT2/cluster/6.44/GMJ_IVECC2_G_M.csv

>>> COPY /tmp/6.44/GMJ_e2_G_M.csv /home/grierjones/DDCASPT2/iron_oxo_DDCASPT2/cluster/6.44/GMJ_e2_G_M.csv

>>> END FOREACH

>>> END FOREACH

>>> EXPORT i = H

>>> EXPORT j = P

>>> IF (-FILE GMJ_e2_${i}_${j}.csv)

>>> COPY /tmp/6.44/GMJ_RHS_H_P.csv /home/grierjones/DDCASPT2/iron_oxo_DDCASPT2/cluster/6.44/GMJ_RHS_H_P.csv

>>> COPY /tmp/6.44/GMJ_IVECW_H_P.csv /home/grierjones/DDCASPT2/iron_oxo_DDCASPT2/cluster/6.44/GMJ_IVECW_H_P.csv

>>> COPY /tmp/6.44/GMJ_IVECX_H_P.csv /home/grierjones/DDCASPT2/iron_oxo_DDCASPT2/cluster/6.44/GMJ_IVECX_H_P.csv

>>> COPY /tmp/6.44/GMJ_IVECC2_H_P.csv /home/grierjones/DDCASPT2/iron_oxo_DDCASPT2/cluster/6.44/GMJ_IVECC2_H_P.csv

>>> COPY /tmp/6.44/GMJ_e2_H_P.csv /home/grierjones/DDCASPT2/iron_oxo_DDCASPT2/cluster/6.44/GMJ_e2_H_P.csv

>>> END FOREACH

>>> EXPORT j = M

>>> IF (-FILE GMJ_e2_${i}_${j}.csv)

>>> COPY /tmp/6.44/GMJ_RHS_H_M.csv /home/grierjones/DDCASPT2/iron_oxo_DDCASPT2/cluster/6.44/GMJ_RHS_H_M.csv

>>> COPY /tmp/6.44/GMJ_IVECW_H_M.csv /home/grierjones/DDCASPT2/iron_oxo_DDCASPT2/cluster/6.44/GMJ_IVECW_H_M.csv

>>> COPY /tmp/6.44/GMJ_IVECX_H_M.csv /home/grierjones/DDCASPT2/iron_oxo_DDCASPT2/cluster/6.44/GMJ_IVECX_H_M.csv

>>> COPY /tmp/6.44/GMJ_IVECC2_H_M.csv /home/grierjones/DDCASPT2/iron_oxo_DDCASPT2/cluster/6.44/GMJ_IVECC2_H_M.csv

>>> COPY /tmp/6.44/GMJ_e2_H_M.csv /home/grierjones/DDCASPT2/iron_oxo_DDCASPT2/cluster/6.44/GMJ_e2_H_M.csv

>>> END FOREACH

>>> END FOREACH

>>> EXPORT i = A

>>> IF (-FILE GMJ_e2_$i.csv)

>>> COPY /tmp/6.44/GMJ_RHS_A.csv /home/grierjones/DDCASPT2/iron_oxo_DDCASPT2/cluster/6.44/GMJ_RHS_A.csv

>>> COPY /tmp/6.44/GMJ_IVECW_A.csv /home/grierjones/DDCASPT2/iron_oxo_DDCASPT2/cluster/6.44/GMJ_IVECW_A.csv

>>> COPY /tmp/6.44/GMJ_IVECX_A.csv /home/grierjones/DDCASPT2/iron_oxo_DDCASPT2/cluster/6.44/GMJ_IVECX_A.csv

>>> COPY /tmp/6.44/GMJ_IVECC2_A.csv /home/grierjones/DDCASPT2/iron_oxo_DDCASPT2/cluster/6.44/GMJ_IVECC2_A.csv

>>> COPY /tmp/6.44/GMJ_e2_A.csv /home/grierjones/DDCASPT2/iron_oxo_DDCASPT2/cluster/6.44/GMJ_e2_A.csv

>>> END FOREACH

>>> EXPORT i = C

>>> IF (-FILE GMJ_e2_$i.csv)

>>> COPY /tmp/6.44/GMJ_RHS_C.csv /home/grierjones/DDCASPT2/iron_oxo_DDCASPT2/cluster/6.44/GMJ_RHS_C.csv

>>> COPY /tmp/6.44/GMJ_IVECW_C.csv /home/grierjones/DDCASPT2/iron_oxo_DDCASPT2/cluster/6.44/GMJ_IVECW_C.csv

>>> COPY /tmp/6.44/GMJ_IVECX_C.csv /home/grierjones/DDCASPT2/iron_oxo_DDCASPT2/cluster/6.44/GMJ_IVECX_C.csv

>>> COPY /tmp/6.44/GMJ_IVECC2_C.csv /home/grierjones/DDCASPT2/iron_oxo_DDCASPT2/cluster/6.44/GMJ_IVECC2_C.csv

>>> COPY /tmp/6.44/GMJ_e2_C.csv /home/grierjones/DDCASPT2/iron_oxo_DDCASPT2/cluster/6.44/GMJ_e2_C.csv

>>> END FOREACH

>>> EXPORT i = D

>>> IF (-FILE GMJ_e2_$i.csv)

>>> COPY /tmp/6.44/GMJ_RHS_D.csv /home/grierjones/DDCASPT2/iron_oxo_DDCASPT2/cluster/6.44/GMJ_RHS_D.csv

>>> COPY /tmp/6.44/GMJ_IVECW_D.csv /home/grierjones/DDCASPT2/iron_oxo_DDCASPT2/cluster/6.44/GMJ_IVECW_D.csv

>>> COPY /tmp/6.44/GMJ_IVECX_D.csv /home/grierjones/DDCASPT2/iron_oxo_DDCASPT2/cluster/6.44/GMJ_IVECX_D.csv

>>> COPY /tmp/6.44/GMJ_IVECC2_D.csv /home/grierjones/DDCASPT2/iron_oxo_DDCASPT2/cluster/6.44/GMJ_IVECC2_D.csv

>>> COPY /tmp/6.44/GMJ_e2_D.csv /home/grierjones/DDCASPT2/iron_oxo_DDCASPT2/cluster/6.44/GMJ_e2_D.csv

>>> END FOREACH

.########################.
.# Non-zero return code #.
.########################.

    Timing: Wall=399.95 User=396.10 System=3.72
************************************
*** WorkDir at /tmp/6.44 cleaned ***
************************************
