   This run of MOLCAS is using the pymolcas driver

                             OPE
                             OPE          NMOL  CASOP  ENMOLC A   SO
                 OPE        NMOLC        AS  OP EN  MO LC     AS  OP
                OPENM       OL CA        SO  PE NM  OL CA     SOP EN
                OP EN      MO   LC       AS  OP ENMOL  CASO   PENMOL
                OP  EN     MO   LC       AS  OP EN     MO     LC ASO
               OP   E  NMOL  C  AS       OP  EN MO     LC     AS  OP
               OP  E   NMO   LC AS        OPEN  MO     LCASOP EN   M
               O  PEN   MO  LCA  SO
            OPE   NMO   L   CAS    OP
        OPENMOL  CASOP     ENMOL   CASOPE
     OPENMOLCA   SOPENMOLCASOPEN   MOLCASOPE
    OPENMOLCAS   OP           EN   MOL    CAS
    OPENMOLCAS       OP  ENM        O     LCA
    OPENMOLCAS    OPEN  MOLCASO     P  E  NMO
    OPENMOLCAS     OP               E  N  MOL
    OPENMOLCA   SO           PENM   O  L  CAS    OPEN    MO    LCAS
    OPENMOLCA   SOP           ENM   O  L  CAS   OP  EN  MOLC  AS   O
    OPENMOLCA   SOPE           NM      O  LCA   S      OP  EN MO
    OPENMOLC                AS         O  PEN   M      OL  CA  SOPE
    OPENMO        LCASOPE  NMOL        C  ASO   P      ENMOLC     AS
    OPE     NMO      LCA  SO     P     E   NM   OL  CA SO  PE N   MO
          OPENMOLCA            SOPE   NMO        LCAS  O    P  ENMO
     OPENMOLCASOPENMOLCASOPENMOLCASOPENMOLCA
        OPENMOLCASOPENMOLCASOPENMOLCASOPE
            OPENMOLCASOPENMOLCASOPENM
               OPENMOLCASOPENMOLCA        version: 1d1d16313-dirty
                   OPENMOLCASO
                       OPE                tag:

 OpenMolcas is free software; you can redistribute it and/or modify it
 under the terms of the GNU Lesser General Public License version 2.1.
 OpenMolcas is distributed in the hope that it will be useful, but it
 is provided "as is" and without any express or implied warranties.
 For more details see the full text of the license in the file
 LICENSE or in <http://www.gnu.org/licenses/>.

                 Copyright (C) The OpenMolcas Authors
           For the author list and the recommended citation,
                   consult the file CONTRIBUTORS.md

           *************************************************
           * pymolcas version py2.28                       *
           *   build c4a6d18ded8cb6cad61d2372a9abd97c      *
           *   (after the EMIL interpreter by V. Veryazov) *
           *************************************************

configuration info
------------------
C Compiler ID: IntelLLVM
C flags: -std=gnu99
Fortran Compiler ID: IntelLLVM
Fortran flags: -standard-semantics -fltconsistency -fpp -i8 -heap-arrays
Definitions: _MOLCAS_;_I8_;_LINUX_
Parallel: OFF (GA=OFF)


   --------------------------------------------------------------------------------
  |
  |              Project: ozone_166.25
  |       Submitted from: /home/grierjones/DDCASPT2/ozone/ANO-RCC-VDZP/ozone_166.25
  |         Scratch area: /tmp/ozone_166.25
  |      Save outputs to: /home/grierjones/DDCASPT2/ozone/ANO-RCC-VDZP/ozone_166.25
  |               Molcas: /home/grierjones/Test/build
  |
  | Scratch area is empty
  |
  |       MOLCAS_DRIVER = /usr/local/pymolcas
  | MOLCAS_KEEP_WORKDIR = NO
  |  MOLCAS_NEW_WORKDIR = YES
  |       MOLCAS_NPROCS = 1
  |        MOLCAS_PRINT = NORMAL
  |       MOLCAS_SOURCE = /home/grierjones/Test
  |    MOLCAS_STRUCTURE = 0
  |
   --------------------------------------------------------------------------------

++ ---------   Input file   ---------

&GATEWAY
coord=ozone_166.25.xyz
Basis = ANO-RCC-VDZP
Group = nosymm
Expert
End of Input

&SEWARD
End of Input

&SCF

>>> COPY $WorkDir/ozone_166.25.scf.h5 $CurrDir/

&RASSCF
Title= RASSCF
FileOrb
/home/grierjones/DDCASPT2/ozone/ANO-RCC-VDZP/ozone_166.00/ozone_166.00.RasOrb
NACTEL
4 0 0
Inactive
10
RAS2
3
Symmetry
1
Spin
1
orblisting
all
ITERation
300 200

>>> COPY $WorkDir/ozone_166.25.rasscf.h5 $CurrDir/

>>> COPY $WorkDir/GMJ_Fock_MO.csv $CurrDir/ozone_166.25.GMJ_Fock_MO.csv

>>> COPY $WorkDir/GMJ_PT2_Fock_MO.csv $CurrDir/ozone_166.25.GMJ_PT2_Fock_MO.csv

&MOTRA
Frozen=0
LUMORB

>>> COPY $WorkDir/GMJ_one_int_indx.csv $CurrDir/ozone_166.25.GMJ_one_int_indx.csv

>>> COPY $WorkDir/GMJ_one_int.csv $CurrDir/ozone_166.25.GMJ_one_int.csv

>>> COPY $WorkDir/GMJ_two_int_indx.csv $CurrDir/ozone_166.25.GMJ_two_int_indx.csv

>>> COPY $WorkDir/GMJ_two_int.csv $CurrDir/ozone_166.25.GMJ_two_int.csv

&CASPT2
Frozen
0
MAXITER
50

>>> FOREACH i IN (B,E,F,G,H)

  >>> FOREACH j IN (P,M)

    >>> IF (-FILE GMJ_e2_${i}_${j}.csv)

      >>> COPY $WorkDir/GMJ_RHS_${i}_${j}.csv $CurrDir/GMJ_RHS_${i}_${j}.csv

      >>> COPY $WorkDir/GMJ_IVECW_${i}_${j}.csv $CurrDir/GMJ_IVECW_${i}_${j}.csv

      >>> COPY $WorkDir/GMJ_IVECX_${i}_${j}.csv $CurrDir/GMJ_IVECX_${i}_${j}.csv

      >>> COPY $WorkDir/GMJ_IVECC2_${i}_${j}.csv $CurrDir/GMJ_IVECC2_${i}_${j}.csv

      >>> COPY $WorkDir/GMJ_e2_${i}_${j}.csv $CurrDir/GMJ_e2_${i}_${j}.csv

    >>> END IF

  >>> END FOREACH

>>> END FOREACH

>>> FOREACH i IN (A,C,D)

  >>> IF (-FILE GMJ_e2_$i.csv)

    >>> COPY $WorkDir/GMJ_RHS_$i.csv $CurrDir/GMJ_RHS_$i.csv

    >>> COPY $WorkDir/GMJ_IVECW_$i.csv $CurrDir/GMJ_IVECW_$i.csv

    >>> COPY $WorkDir/GMJ_IVECX_$i.csv $CurrDir/GMJ_IVECX_$i.csv

    >>> COPY $WorkDir/GMJ_IVECC2_$i.csv $CurrDir/GMJ_IVECC2_$i.csv

    >>> COPY $WorkDir/GMJ_e2_$i.csv $CurrDir/GMJ_e2_$i.csv

  >>> END IF

>>> END FOREACH

-- ----------------------------------

--- Start Module: gateway at Fri Jan 24 17:55:17 2025 ---
 
()()()()()()()()()()()()()()()()()()()()()()()()()()()()()()()()()()()()()()()()()()()()()()()()()()

                                              &GATEWAY

                                   only a single process is used
                       available to each process: 2.0 GB of memory, 1 thread?
()()()()()()()()()()()()()()()()()()()()()()()()()()()()()()()()()()()()()()()()()()()()()()()()()()
 
 ###############################################################################
 ###############################################################################
 ###                                                                         ###
 ###                                                                         ###
 ###                                                                         ###
 ###    WARNING: EXPERT option is ON!                                        ###
 ###                                                                         ###
 ###                                                                         ###
 ###############################################################################
 ###############################################################################
 
++    Symmetry information:
      ---------------------
 
                    Character Table for C1 
 
                             E  
                    a        1  x, y, xy, Rz, z, xz, Ry, yz, Rx, I
--
 
 
++    Basis set information:
      ----------------------
 
 
      Basis set label: O.ANO-RCC...3S2P1D.
 
      Electronic valence basis set:
      ------------------
      Associated Effective Charge   8.000000 au
      Associated Actual Charge      8.000000 au
      Nuclear Model: Point charge
 
      Shell  nPrim  nBasis  Cartesian Spherical Contaminant
         s      14       3        X                  
         p       9       2        X                  
         d       4       1                 X         
--
 
 
++    Molecular structure info:
      -------------------------
 
                    ************************************************ 
                    **** Cartesian Coordinates / Bohr, Angstrom **** 
                    ************************************************ 
 
     Center  Label                x              y              z                     x              y              z
        1      O1               0.289092       2.397705       0.000000              0.152981       1.268811       0.000000
        2      O2               0.000000       0.000000       0.000000              0.000000       0.000000       0.000000
        3      O3               0.289092      -2.397705       0.000000              0.152981      -1.268811       0.000000
 
                    *************************************** 
                    *    InterNuclear Distances / Bohr    * 
                    *************************************** 
 
               1 O1            2 O2            3 O3    
    1 O1       0.000000
    2 O2       2.415070        0.000000
    3 O3       4.795411        2.415070        0.000000
 
                    ******************************************* 
                    *    InterNuclear Distances / Angstrom    * 
                    ******************************************* 
 
               1 O1            2 O2            3 O3    
    1 O1       0.000000
    2 O2       1.278000        0.000000
    3 O3       2.537622        1.278000        0.000000
 
                    ************************************** 
                    *    Valence Bond Angles / Degree    * 
                    ************************************** 
                          Atom centers                 Phi
                      1 O1       2 O2       3 O3       166.25
--
 
 
            Nuclear Potential Energy             66.34661953 au
 
 ###############################################################################
 ###############################################################################
 ###                                                                         ###
 ###                                                                         ###
 ###    There were warnings during the execution                             ###
 ###    Please, check the output with care!                                  ###
 ###                                                                         ###
 ###                                                                         ###
 ###############################################################################
 ###############################################################################
--- Stop Module: gateway at Fri Jan 24 17:55:17 2025 /rc=_RC_ALL_IS_WELL_ ---
*** files: xmldump
    saved to directory /home/grierjones/DDCASPT2/ozone/ANO-RCC-VDZP/ozone_166.25

--- Start Module: seward at Fri Jan 24 17:55:17 2025 ---
 
()()()()()()()()()()()()()()()()()()()()()()()()()()()()()()()()()()()()()()()()()()()()()()()()()()

                                              &SEWARD

                                   only a single process is used
                       available to each process: 2.0 GB of memory, 1 thread?
()()()()()()()()()()()()()()()()()()()()()()()()()()()()()()()()()()()()()()()()()()()()()()()()()()
 
 ###############################################################################
 ###############################################################################
 ###                                                                         ###
 ###                                                                         ###
 ###                                                                         ###
 ###    WARNING: EXPERT option is ON!                                        ###
 ###                                                                         ###
 ###                                                                         ###
 ###############################################################################
 ###############################################################################
               SEWARD will generate:
                  Multipole Moment integrals up to order  2
                  Kinetic Energy integrals
                  Nuclear Attraction integrals (point charge)
                  One-Electron Hamiltonian integrals
                  Velocity integrals
                  Relativistic Douglas-Kroll-Hess integrals:
                    - Parametrization         : EXP
                    - DKH order of Hamiltonian: 2
                    - DKH order of Properties : 0
                         - multipole moment operators
                         - electric potential operators
                         - contact operators
                  Atomic mean-field integrals
                  Two-Electron Repulsion integrals
 
                   Integrals are discarded if absolute value <: 0.10E-13
                   Integral cutoff threshold is set to       <: 0.10E-15
 
            Nuclear Potential Energy             66.34661953 au
 
 
      Basis set specifications :
      Symmetry species         a  
      Basis functions           42
 
 
  Input file to MOLDEN was generated!
 
 ###############################################################################
 ###############################################################################
 ###                                                                         ###
 ###                                                                         ###
 ###    There were warnings during the execution                             ###
 ###    Please, check the output with care!                                  ###
 ###                                                                         ###
 ###                                                                         ###
 ###############################################################################
 ###############################################################################
forrtl: warning (525): IEEE_DIVIDE_BY_ZERO is signaling
forrtl: warning (526): IEEE_INVALID is signaling
forrtl: warning (528): IEEE_UNDERFLOW is signaling
--- Stop Module: seward at Fri Jan 24 17:55:18 2025 /rc=_RC_ALL_IS_WELL_ ---
*** files: ozone_166.25.GssOrb ozone_166.25.guessorb.h5 ozone_166.25.guessorb.molden xmldump
    saved to directory /home/grierjones/DDCASPT2/ozone/ANO-RCC-VDZP/ozone_166.25
--- Module seward spent 1 second ---

*** symbolic link created: INPORB -> ozone_166.25.GssOrb
--- Start Module: scf at Fri Jan 24 17:55:18 2025 ---
 
()()()()()()()()()()()()()()()()()()()()()()()()()()()()()()()()()()()()()()()()()()()()()()()()()()

                                                &SCF

                                   only a single process is used
                       available to each process: 2.0 GB of memory, 1 thread?
()()()()()()()()()()()()()()()()()()()()()()()()()()()()()()()()()()()()()()()()()()()()()()()()()()
 
++    Input section:
      --------------
 
      Header of the integral files:
      
       Integrals generated by seward 4.2.0  , Fri Jan 24 17:55:17 2025
 
 
      Cartesian coordinates in Angstrom:
      -----------------------------------------------------
      No.  Label        X            Y            Z        
      -----------------------------------------------------
       1   O1         0.15298100   1.26881100   0.00000000
       2   O2         0.00000000   0.00000000   0.00000000
       3   O3         0.15298100  -1.26881100   0.00000000
      -----------------------------------------------------
      Nuclear repulsion energy =   66.34661953
--
 
++    Orbital specifications:
      -----------------------
 
      Symmetry species               1
                                     a
      Frozen orbitals                0
      Aufbau                        12
      Start temperature = 0.500
      End temperature   = 0.010
      Temperature Factor= 0.460
      Deleted orbitals               0
      Total number of orbitals      42
      Number of basis functions     42
--
 
      Molecular charge                           0.000
 
++    Optimization specifications:
      ----------------------------
 
      SCF Algorithm: Conventional
      Minimized density differences are used
      Number of density matrices in core                5
      Maximum number of NDDO SCF iterations           400
      Maximum number of HF SCF iterations             400
      Threshold for SCF energy change            0.10E-08
      Threshold for density matrix               0.10E-03
      Threshold for Fock matrix                  0.15E-03
      Threshold for linear dependence            0.10E-08
      Threshold at which DIIS is turned on       0.15E+00
      Threshold at which QNR/C2DIIS is turned on 0.75E-01
      Threshold for Norm(delta) (QNR/C2DIIS)     0.20E-04
      DIIS extrapolation of the SCF procedure
      All orbitals punched on: SCFORB
--
 
      Input vectors read from INPORB
      Orbital file label: *Guess orbitals
 
 
++ Convergence information
                                   SCF        iterations: Energy and convergence statistics
 
Iter     Tot. SCF        One-elec.       Two-elec.     Energy      Max Dij or  Max Fij      DNorm      TNorm      AccCon     Time
         Energy          Energy          Energy        Change      Delta Norm                                                in Sec.
   1  -221.452734975  -440.327472483   152.528117973   0.00E+00    0.10E+00*   0.73E+00*    0.77E+01   0.76E+02   None         0.
   2  -222.514408642  -435.418516053   146.557487877  -0.11E+01*   0.11E+00*   0.80E-01*    0.34E+01   0.75E+02   EDIIS        0.
   3  -223.836564061  -441.783786205   151.600602610  -0.13E+01*   0.88E-01*   0.12E+00*    0.31E+01   0.76E+02   EDIIS        0.
   4  -224.137659839  -439.056197402   148.571918028  -0.30E+00*   0.13E+00*   0.89E-01*    0.13E+01   0.75E+02   EDIIS        0.
   5  -224.229961757  -440.976419695   150.399838404  -0.92E-01*   0.23E+00*   0.11E+00*    0.15E+01   0.76E+02   EDIIS        0.
   6  -224.355133616  -439.775961057   149.074207906  -0.13E+00*   0.20E+00*   0.12E+00*    0.83E+00   0.76E+02   EDIIS        0.
   7  -224.360484711  -440.845899124   150.138794878  -0.54E-02*   0.40E-01*   0.66E-01*    0.32E+00   0.76E+02   EDIIS        0.
 
       Fermi aufbau procedure completed!
      nOcc=   12
 
   8  -224.393101856  -440.339911961   149.600190571  -0.33E-01*   0.16E-01*   0.11E-01*    0.80E-01   0.76E+02   EDIIS        0.
   9  -224.393598352  -440.392758967   149.652541081  -0.50E-03*   0.24E-01*   0.89E-02*    0.26E-01   0.76E+02   EDIIS        0.
  10  -224.393778754  -440.338107674   149.597709385  -0.18E-03*   0.92E-02*   0.84E-02*    0.59E-02   0.76E+02   EDIIS        0.
  11  -224.393885782  -440.389477032   149.648971715  -0.11E-03*   0.11E-01*   0.45E-02*    0.47E-02   0.76E+02   EDIIS        0.
  12  -224.393988313  -440.354379449   149.613771602  -0.10E-03*   0.48E-02*   0.17E-02*    0.13E-02   0.76E+02   c2DIIS       0.
  13  -224.394026907  -440.365573453   149.624927012  -0.39E-04*   0.22E-02*   0.11E-02*    0.33E-03   0.76E+02   QNRc2DIIS    0.
  14  -224.394039497  -440.366389081   149.625730049  -0.13E-04*   0.58E-02*   0.80E-03*    0.61E-04   0.76E+02   QNRc2DIIS    0.
  15  -224.394052042  -440.364417560   149.623745984  -0.13E-04*   0.42E-03*   0.48E-03*    0.11E-03   0.76E+02   QNRc2DIIS    0.
  16  -224.394052723  -440.365929635   149.625257378  -0.68E-06*   0.55E-03*   0.15E-03     0.55E-03   0.76E+02   QNRc2DIIS    0.
  17  -224.394052929  -440.366377383   149.625704920  -0.21E-06*   0.50E-04*   0.12E-04     0.27E-03   0.76E+02   QNRc2DIIS    0.
  18  -224.394052931  -440.366446048   149.625773582  -0.23E-08*   0.55E-05    0.20E-05     0.33E-03   0.76E+02   QNRc2DIIS    0.
  19  -224.394052931  -440.366409782   149.625737316  -0.39E-10    0.11E-05    0.57E-06     0.37E-02   0.76E+02   QNRc2DIIS    0.
 
       Convergence after 19 Macro Iterations
--
 
 *****************************************************************************************************************************
 *                                                                                                                           *
 *                                             SCF/KS-DFT Program, Final results                                             *
 *                                                                                                                           *
 *                                                                                                                           *
 *                                                                                                                           *
 *                                                       Final Results                                                       *
 *                                                                                                                           *
 *****************************************************************************************************************************
 
::    Total SCF energy                               -224.3940529314
      One-electron energy                            -440.3664097823
      Two-electron energy                             149.6257373164
      Nuclear repulsion energy                         66.3466195344
      Kinetic energy (interpolated)                   225.6095412736
      Virial theorem                                    0.9946124249
      Total spin, S(S+1)                                0.0000000000
      Total spin, S                                     0.0000000000
      Max non-diagonal density matrix element           0.0000012751
      Max non-diagonal Fock matrix element              0.0000000513
 
 
      All orbitals with orbital energies smaller than  E(LUMO)+0.5 are printed
 
++    Molecular orbitals:
      -------------------
 
      Title: SCF orbitals

      Molecular orbitals for symmetry species 1: a  
 
          Orbital            1         2         3         4         5         6         7         8         9        10    
          Energy          -20.8496  -20.7354  -20.7354   -1.7096   -1.4697   -1.0633   -0.8385   -0.7895   -0.7538   -0.6180
          Occ. No.          2.0000    2.0000    2.0000    2.0000    2.0000    2.0000    2.0000    2.0000    2.0000    2.0000
 
        1 O1     1s         0.0026   -0.7072    0.7072   -0.0155    0.0097    0.0139   -0.0032   -0.0192    0.0000    0.0043
        2 O1     2s         0.0001   -0.0008    0.0005    0.3261   -0.5728    0.6515   -0.0722   -0.4093    0.0000    0.0552
        3 O1     3s         0.0000   -0.0002   -0.0001   -0.0239    0.0127    0.0184   -0.0054   -0.0259    0.0000    0.0050
        4 O1     2px        0.0001    0.0001   -0.0001   -0.0104    0.0185    0.0361    0.3350   -0.1389   -0.0000   -0.6895
        5 O1     3px        0.0002    0.0001    0.0000    0.0042   -0.0025   -0.0057   -0.0313    0.0077   -0.0000    0.0027
        6 O1     2py       -0.0002    0.0009   -0.0010   -0.1028    0.0933    0.1755   -0.0944   -0.4100    0.0000    0.1390
        7 O1     3py        0.0000   -0.0005    0.0003    0.0250   -0.0188   -0.0264    0.0082    0.0292   -0.0000    0.0002
        8 O1     2pz        0.0000    0.0000   -0.0000   -0.0000    0.0000    0.0000    0.0000    0.0000    0.4177   -0.0000
        9 O1     3pz       -0.0000   -0.0000   -0.0000   -0.0000   -0.0000   -0.0000   -0.0000    0.0000   -0.0241    0.0000
       10 O1     3d2-       0.0000   -0.0000    0.0000    0.0021   -0.0044   -0.0037   -0.0213    0.0092    0.0000    0.0135
       11 O1     3d1-       0.0000   -0.0000   -0.0000    0.0000    0.0000   -0.0000   -0.0000   -0.0000   -0.0308    0.0000
       12 O1     3d0        0.0000    0.0001   -0.0001   -0.0084    0.0084    0.0068   -0.0033   -0.0168    0.0000    0.0035
       13 O1     3d1+       0.0000   -0.0000    0.0000    0.0000    0.0000    0.0000   -0.0000   -0.0000   -0.0032   -0.0000
       14 O1     3d2+      -0.0001   -0.0002    0.0001   -0.0170    0.0150    0.0143   -0.0102   -0.0305    0.0000    0.0083
       15 O2     1s         1.0000   -0.0000   -0.0039   -0.0209    0.0000   -0.0150   -0.0019    0.0000    0.0000    0.0000
       16 O2     2s         0.0001   -0.0000   -0.0008    0.6712   -0.0000   -0.6256   -0.0224    0.0000    0.0000    0.0000
       17 O2     3s        -0.0008   -0.0000   -0.0007   -0.0367    0.0000   -0.0139   -0.0019    0.0000   -0.0000    0.0000
       18 O2     2px        0.0003   -0.0000   -0.0000    0.0375   -0.0000    0.0681    0.7438    0.0000   -0.0000   -0.0000
       19 O2     3px       -0.0006   -0.0000   -0.0001   -0.0086    0.0000   -0.0085   -0.0632   -0.0000    0.0000   -0.0000
       20 O2     2py       -0.0000    0.0010   -0.0000   -0.0000   -0.3280    0.0000   -0.0000    0.5301   -0.0000   -0.0901
       21 O2     3py        0.0000    0.0012   -0.0000    0.0000    0.0819   -0.0000    0.0000   -0.0838    0.0000    0.0027
       22 O2     2pz        0.0000    0.0000    0.0000    0.0000   -0.0000    0.0000    0.0000    0.0000    0.6454    0.0000
       23 O2     3pz        0.0000    0.0000    0.0000    0.0000   -0.0000   -0.0000   -0.0000   -0.0000   -0.0160   -0.0000
       24 O2     3d2-      -0.0000    0.0001   -0.0000   -0.0000   -0.0142    0.0000   -0.0000    0.0094   -0.0000   -0.0397
       25 O2     3d1-      -0.0000    0.0000    0.0000   -0.0000   -0.0000    0.0000    0.0000    0.0000   -0.0000   -0.0000
       26 O2     3d0       -0.0003    0.0000    0.0003   -0.0182    0.0000    0.0004   -0.0073    0.0000    0.0000    0.0000
       27 O2     3d1+       0.0000    0.0000    0.0000    0.0000    0.0000   -0.0000    0.0000    0.0000    0.0119    0.0000
       28 O2     3d2+       0.0001    0.0000    0.0004   -0.0312    0.0000   -0.0025    0.0076    0.0000   -0.0000    0.0000
       29 O3     1s         0.0026    0.7072    0.7072   -0.0155   -0.0097    0.0139   -0.0032    0.0192   -0.0000   -0.0043
       30 O3     2s         0.0001    0.0008    0.0005    0.3261    0.5728    0.6515   -0.0722    0.4093   -0.0000   -0.0552
       31 O3     3s         0.0000    0.0002   -0.0001   -0.0239   -0.0127    0.0184   -0.0054    0.0259   -0.0000   -0.0050
       32 O3     2px        0.0001   -0.0001   -0.0001   -0.0104   -0.0185    0.0361    0.3350    0.1389   -0.0000    0.6895
       33 O3     3px        0.0002   -0.0001    0.0000    0.0042    0.0025   -0.0057   -0.0313   -0.0077    0.0000   -0.0027
       34 O3     2py        0.0002    0.0009    0.0010    0.1028    0.0933   -0.1755    0.0944   -0.4100    0.0000    0.1390
       35 O3     3py       -0.0000   -0.0005   -0.0003   -0.0250   -0.0188    0.0264   -0.0082    0.0292   -0.0000    0.0002
       36 O3     2pz        0.0000   -0.0000   -0.0000   -0.0000    0.0000    0.0000    0.0000    0.0000    0.4177    0.0000
       37 O3     3pz       -0.0000    0.0000    0.0000    0.0000    0.0000   -0.0000   -0.0000   -0.0000   -0.0241   -0.0000
       38 O3     3d2-      -0.0000   -0.0000   -0.0000   -0.0021   -0.0044    0.0037    0.0213    0.0092   -0.0000    0.0135
       39 O3     3d1-      -0.0000   -0.0000   -0.0000    0.0000   -0.0000   -0.0000    0.0000    0.0000    0.0308    0.0000
       40 O3     3d0        0.0000   -0.0001   -0.0001   -0.0084   -0.0084    0.0068   -0.0033    0.0168   -0.0000   -0.0035
       41 O3     3d1+      -0.0000    0.0000    0.0000   -0.0000   -0.0000    0.0000   -0.0000    0.0000   -0.0032   -0.0000
       42 O3     3d2+      -0.0001    0.0002    0.0001   -0.0170   -0.0150    0.0143   -0.0102    0.0305   -0.0000   -0.0083
 
          Orbital           11        12        13        14        15        16    
          Energy           -0.5162   -0.4784   -0.0300    0.1406    0.2860    0.4654
          Occ. No.          2.0000    2.0000    0.0000    0.0000    0.0000    0.0000
 
        1 O1     1s        -0.0000    0.0013    0.0000    0.0266   -0.1633   -0.0183
        2 O1     2s        -0.0000   -0.0005    0.0000    0.3328   -1.1854   -0.1267
        3 O1     3s        -0.0000    0.0095    0.0000    0.0129   -0.4244   -0.0746
        4 O1     2px        0.0000    0.6669   -0.0000    0.0284    0.1160   -0.0863
        5 O1     3px        0.0000    0.0388   -0.0000    0.0107    0.0941    0.4266
        6 O1     2py       -0.0000    0.0560   -0.0000   -0.8078    0.5917    0.0942
        7 O1     3py        0.0000   -0.0108   -0.0000   -0.1762    0.6491    0.1969
        8 O1     2pz       -0.7027    0.0000    0.6520   -0.0000    0.0000   -0.0000
        9 O1     3pz       -0.0359   -0.0000    0.1293    0.0000   -0.0000    0.0000
       10 O1     3d2-      -0.0000    0.0023   -0.0000    0.0064   -0.0082    0.0263
       11 O1     3d1-       0.0246    0.0000    0.0134   -0.0000   -0.0000   -0.0000
       12 O1     3d0        0.0000    0.0021   -0.0000    0.0001    0.0195    0.0050
       13 O1     3d1+       0.0021    0.0000    0.0020   -0.0000   -0.0000    0.0000
       14 O1     3d2+      -0.0000    0.0053   -0.0000    0.0020    0.0317    0.0175
       15 O2     1s         0.0000    0.0122   -0.0000   -0.1181    0.0000    0.0590
       16 O2     2s         0.0000    0.1527   -0.0000   -1.1120    0.0000    0.3616
       17 O2     3s         0.0000    0.0228   -0.0000   -0.2563    0.0000    0.1407
       18 O2     2px        0.0000   -0.7120    0.0000   -0.2602    0.0000   -0.0656
       19 O2     3px       -0.0000   -0.0406    0.0000   -0.0534    0.0000    0.4632
       20 O2     2py        0.0000   -0.0000   -0.0000    0.0000    1.3289    0.0000
       21 O2     3py        0.0000    0.0000   -0.0000    0.0000    1.1061    0.0000
       22 O2     2pz       -0.0000   -0.0000   -0.8947    0.0000   -0.0000   -0.0000
       23 O2     3pz       -0.0000   -0.0000   -0.1640    0.0000    0.0000    0.0000
       24 O2     3d2-       0.0000    0.0000   -0.0000    0.0000    0.0199    0.0000
       25 O2     3d1-      -0.0555   -0.0000    0.0000   -0.0000    0.0000    0.0000
       26 O2     3d0        0.0000    0.0117   -0.0000   -0.0380    0.0000   -0.0275
       27 O2     3d1+      -0.0000   -0.0000   -0.0035   -0.0000   -0.0000   -0.0000
       28 O2     3d2+      -0.0000    0.0169   -0.0000   -0.0696    0.0000   -0.0637
       29 O3     1s         0.0000    0.0013   -0.0000    0.0266    0.1633   -0.0183
       30 O3     2s         0.0000   -0.0005   -0.0000    0.3328    1.1854   -0.1267
       31 O3     3s         0.0000    0.0095   -0.0000    0.0129    0.4244   -0.0746
       32 O3     2px       -0.0000    0.6669   -0.0000    0.0284   -0.1160   -0.0863
       33 O3     3px       -0.0000    0.0388   -0.0000    0.0107   -0.0941    0.4266
       34 O3     2py       -0.0000   -0.0560    0.0000    0.8078    0.5917   -0.0942
       35 O3     3py        0.0000    0.0108   -0.0000    0.1762    0.6491   -0.1969
       36 O3     2pz        0.7027    0.0000    0.6520   -0.0000    0.0000   -0.0000
       37 O3     3pz        0.0359    0.0000    0.1293   -0.0000    0.0000    0.0000
       38 O3     3d2-      -0.0000   -0.0023    0.0000   -0.0064   -0.0082   -0.0263
       39 O3     3d1-       0.0246   -0.0000   -0.0134    0.0000   -0.0000   -0.0000
       40 O3     3d0        0.0000    0.0021   -0.0000    0.0001   -0.0195    0.0050
       41 O3     3d1+      -0.0021    0.0000    0.0020   -0.0000    0.0000    0.0000
       42 O3     3d2+       0.0000    0.0053   -0.0000    0.0020   -0.0317    0.0175
--
 
 
++    Molecular charges:
      ------------------
 
      Mulliken charges per centre and basis function type
      ---------------------------------------------------
 
                O1      O2      O3    
      1s       2.0003  2.0000  2.0003
      2s       1.9361  1.6872  1.9361
      2px      2.0049  1.9349  2.0049
      2pz      1.4440  1.0636  1.4440
      2py      0.7436  1.0052  0.7436
      3s      -0.0139 -0.0234 -0.0139
      3px     -0.0197 -0.0423 -0.0197
      3pz     -0.0109 -0.0063 -0.0109
      3py     -0.0120  0.0267 -0.0120
      3d2+     0.0203  0.0209  0.0203
      3d1+     0.0002  0.0009  0.0002
      3d0      0.0057  0.0055  0.0057
      3d1-     0.0135  0.0481  0.0135
      3d2-     0.0110  0.0328  0.0110
      Total    8.1231  7.7538  8.1231
 
      N-E     -0.1231  0.2462 -0.1231
 
      Total electronic charge=   24.000000
 
      Total            charge=   -0.000000
--
 
 
  Input file to MOLDEN was generated!
 
 
++    Static properties:
      ------------------
 
 
      LoProp Charges per center
 

                   O1       O2       O3    
      Nuclear      8.0000   8.0000   8.0000
      Electronic  -8.1694  -7.6612  -8.1694
 
      Total       -0.1694   0.3388  -0.1694
--
 
 
++    Natural Bond Order analysis
      ---------------------------
      Based on LoProp computed density
      -------------------------------------------------------------------------------------
      Atom A       Atom B       Bond Order | Atom A       Atom B       Bond Order
        O1           O2             2.000  |   O2           O3             2.000
      -------------------------------------------------------------------------------------
      NBO located     16.000 core electrons.
      NBO located      8.000 electrons involved in    2 bonds.
--
 
 
++    Molecular properties:
      ---------------------
 
      Charge (e):
                      =   -0.0000
      Dipole Moment (Debye):
      Origin of the operator (Ang)=    0.0000    0.0000    0.0000
                   X= -1.3986E-02               Y=  5.3597E-10               Z=  2.0197E-13           Total=  1.3986E-02
      Quadrupole Moment (Debye*Ang):
      Origin of the operator (Ang)=    0.1020    0.0000    0.0000
                  XX= -1.6395E+01              XY=  1.7577E-11              XZ= -3.3161E-13              YY= -1.7060E+01
                  YZ=  2.7655E-13              ZZ= -1.5167E+01
      In traceless form (Debye*Ang)
                  XX= -2.8167E-01              XY=  2.6365E-11              XZ= -4.9741E-13              YY= -1.2791E+00
                  YZ=  4.1482E-13              ZZ=  1.5607E+00
--
 
 
  Input file to MOLDEN was generated!
 
 ###############################################################################
 ###############################################################################
 ###                                                                         ###
 ###                                                                         ###
 ###    RunFile label nBas                                                   ###
 ###    was used       78 times                                              ###
 ###                                                                         ###
 ###                                                                         ###
 ###############################################################################
 ###############################################################################
forrtl: warning (528): IEEE_UNDERFLOW is signaling
--- Stop Module: scf at Fri Jan 24 17:55:19 2025 /rc=_RC_ALL_IS_WELL_ ---
*** files: ozone_166.25.LprOrb ozone_166.25.LoProp.molden ozone_166.25.scf.molden ozone_166.25.ScfOrb ozone_166.25.scf.h5 xmldump
    saved to directory /home/grierjones/DDCASPT2/ozone/ANO-RCC-VDZP/ozone_166.25

>>> COPY /tmp/ozone_166.25/ozone_166.25.scf.h5 /home/grierjones/DDCASPT2/ozone/ANO-RCC-VDZP/ozone_166.25/

*** symbolic link created: INPORB -> ozone_166.25.ScfOrb
--- Start Module: rasscf at Fri Jan 24 17:55:19 2025 ---
 
()()()()()()()()()()()()()()()()()()()()()()()()()()()()()()()()()()()()()()()()()()()()()()()()()()

                                              &RASSCF

                                   only a single process is used
                       available to each process: 2.0 GB of memory, 1 thread?
()()()()()()()()()()()()()()()()()()()()()()()()()()()()()()()()()()()()()()()()()()()()()()()()()()
 
 
 *************** WARNING ****************
 ###############################################################################
 ###############################################################################
 ###                                                                         ###
 ###                                                                         ###
 ###    Too many macro-iterations.                                           ###
 ###                                                                         ###
 ###                                                                         ###
 ###############################################################################
 ###############################################################################
 Too many macro-iterations requested.
 Reset to maximum, new MAXIT=     200
 ****************************************
 
 *************** WARNING ****************
 ###############################################################################
 ###############################################################################
 ###                                                                         ###
 ###                                                                         ###
 ###    Too many SX-iterations.                                              ###
 ###                                                                         ###
 ###                                                                         ###
 ###############################################################################
 ###############################################################################
 Too many SX-iterations requested.
 Reset to maximum, new ITMAX=     100
 ****************************************
 
      Header of the ONEINT file:
      --------------------------
      
      Integrals generated by seward 4.2.0  , Fri Jan 24 17:55:17 2025
 
 
      OrdInt status: non-squared
 
 
      Cartesian coordinates in Angstrom:
      -----------------------------------------------------
      No.  Label        X            Y            Z        
      -----------------------------------------------------
       1   O1         0.15298100   1.26881100   0.00000000
       2   O2         0.00000000   0.00000000   0.00000000
       3   O3         0.15298100  -1.26881100   0.00000000
      -----------------------------------------------------
      Nuclear repulsion energy =   66.34661953
 
++    Wave function specifications:
      -----------------------------
 
      Number of closed shell electrons          20
      Number of electrons in active shells       4
      Max number of holes in RAS1 space          0
      Max nr of electrons in RAS3 space          0
      Number of inactive orbitals               10
      Number of active orbitals                  3
      Number of secondary orbitals              29
      Spin quantum number                      0.0
      State symmetry                             1
--
 
++    Orbital specifications:
      -----------------------
 
      Symmetry species                           1
                                                 a
      Frozen orbitals                            0
      Inactive orbitals                         10
      Active orbitals                            3
      RAS1 orbitals                              0
      RAS2 orbitals                              3
      RAS3 orbitals                              0
      Secondary orbitals                        29
      Deleted orbitals                           0
      Number of basis functions                 42
--
 
++    CI expansion specifications:
      ----------------------------
 
      Number of CSFs                             6
      Number of determinants                     6
      Number of root(s) required                 1
      Root chosen for geometry opt.              1
      CI root used                               1
         
      highest root included in the CI            1
      max. size of the explicit Hamiltonian      6
--
 
++    Optimization specifications:
      ----------------------------
 
      RASSCF algorithm: Conventional
      Maximum number of macro iterations       200
      Maximum number of SX iterations          100
      Threshold for RASSCF energy            0.100E-07
      Threshold for max MO rotation          0.100E+00
      Threshold for max BLB element          0.100E-03
      Level shift parameter                  0.500E+00
      Make Quasi-Newton update
--
 
      The MO-coefficients are taken from the file:
      /home/grierjones/DDCASPT2/ozone/ANO-RCC-VDZP/ozone_166.00/ozone_166.00.RasOrb                                                   
      Title: RASSCF average (pseudo-natural) orbitals                                      
 
      Total molecular charge    0.00
 
      ************************************************************************************************************************
      *                                                                                                                      *
      *                                            Wave function control section                                             *
      *                                                                                                                      *
      ************************************************************************************************************************
 
 
                                         RASSCF iterations: Energy and convergence statistics
                                         ----------------------------------------------------
 
      Iter CI   SX   CI       RASSCF       Energy    max ROT     max BLB   max BLB  Level Ln srch  Step   QN   Walltime
          iter iter root      energy       change     param      element    value   shift minimum  type update hh:mm:ss
 Nr of preliminary CI iterations:   1
        1   1    3    1  -224.46858157    0.00E+00   0.70E-03    7  14 1 -0.16E-02*  0.19   0.00    SX    NO    0:00:00
        2   1    3    1  -224.46858813   -0.66E-05* -0.42E-03    7  14 1 -0.95E-03*  0.19   0.00    SX    NO    0:00:00
        3   1    3    1  -224.46858971   -0.16E-05*  0.26E-03    7  14 1 -0.59E-03*  0.19   0.00    SX    NO    0:00:00
        4   1    3    1  -224.46859028   -0.56E-06* -0.17E-03    7  14 1 -0.31E-03*  0.19   0.00    SX    NO    0:00:00
        5   1    3    1  -224.46859047   -0.19E-06* -0.56E-03   10  14 1  0.22E-03*  0.19   2.22    QN   YES    0:00:00
        6   1    3    1  -224.46859063   -0.16E-06* -0.17E-03    7  14 1  0.26E-03*  0.19   0.70    QN   YES    0:00:00
        7   1    3    1  -224.46859066   -0.36E-07* -0.68E-04    8  19 1  0.18E-03*  0.19   0.60    QN   YES    0:00:00
        8   1    2    1  -224.46859068   -0.17E-07* -0.10E-03    7  14 1  0.48E-04   0.19   2.50    LS   YES    0:00:00
        9   1    3    1  -224.46859069   -0.72E-08   0.41E-04    8  19 1 -0.80E-04   0.19   0.78    QN   YES    0:00:00
      Convergence after  9 iterations
 
  Dmat in MO in SXCTL bf call to SXHAM                                                                                    
  mat. size =     3x    3
 
        1.9847925237282986
       -0.0000000000009617      1.7626359375822684
        0.0011930927333333     -0.0000000000020848      0.2525715386894342
       10   1    3    1  -224.46859069   -0.23E-08   0.41E-04    8  19 1  0.68E-04   0.19   0.78    QN   YES    0:00:00
 
      ************************************************************************************************************************
                                                      Wave function printout:
                       occupation of active orbitals, and spin coupling of open shells (u,d: Spin up or down)
      ************************************************************************************************************************
 
      Note: transformation to natural orbitals
      has been made, which may change the order of the CSFs.
 
      printout of CI-coefficients larger than  0.05 for root  1
      energy=    -224.468591
      conf/sym  111     Coeff  Weight
             1  220  -0.93473 0.87371
             3  202   0.34450 0.11868
             6  022   0.08720 0.00760
 
      Natural orbitals and occupation numbers for root  1
      sym 1:   1.984793   1.762636   0.252571
 
      ************************************************************************************************************************
      *                                                                                                                      *
      *                                                    Final results                                                     *
      *                                                                                                                      *
      ************************************************************************************************************************
 
 
++    Wave function specifications:
      -----------------------------
 
      Number of closed shell electrons          20
      Number of electrons in active shells       4
      Max number of holes in RAS1 space          0
      Max nr of electrons in RAS3 space          0
      Number of inactive orbitals               10
      Number of active orbitals                  3
      Number of secondary orbitals              29
      Spin quantum number                      0.0
      State symmetry                             1
--
 
++    Orbital specifications:
      -----------------------
 
      Symmetry species                           1
                                                 a
      Frozen orbitals                            0
      Inactive orbitals                         10
      Active orbitals                            3
      RAS1 orbitals                              0
      RAS2 orbitals                              3
      RAS3 orbitals                              0
      Secondary orbitals                        29
      Deleted orbitals                           0
      Number of basis functions                 42
--
 
++    CI expansion specifications:
      ----------------------------
 
      Number of CSFs                             6
      Number of determinants                     6
      Number of root(s) required                 1
      CI root used                               1
      highest root included in the CI            1
      Root passed to geometry opt.               1
--
 
++    Final optimization conditions:
      ------------------------------
 
      Average CI energy                            -224.46859069
      RASSCF energy for state  1                   -224.46859069
      Super-CI energy                                -0.00000001
      RASSCF energy change                           -0.00000000
      Max change in MO coefficients               0.366E-04
      Max non-diagonal density matrix element     0.405E-04
      Maximum BLB matrix element                  0.678E-04
      (orbital pair   8,  19 in symmetry   1)
      Norm of electronic gradient            0.612E-04
--
 
 
      Final state energy(ies):
      ------------------------
 
::    RASSCF root number  1 Total energy:   -224.46859069
 
++    Molecular orbitals:
      -------------------
 
      Pseudonatural active orbitals and approximate occupation numbers
 
 
 
 
      Molecular orbitals for symmetry species 1: a  
 
 
      Orbital                1         2         3         4         5         6         7         8         9        10
      Energy          -20.7603  -20.7377  -20.7377   -1.6765   -1.4536   -1.0524   -0.8013   -0.7765   -0.6195   -0.4568
      Occ. No.          2.0000    2.0000    2.0000    2.0000    2.0000    2.0000    2.0000    2.0000    2.0000    2.0000
 
    1 O1     1s         0.0125   -0.7072    0.7071   -0.0152    0.0085    0.0145   -0.0027   -0.0184    0.0048    0.0009
    2 O1     2s         0.0002   -0.0008    0.0005    0.3472   -0.5902    0.6391   -0.0577   -0.3795    0.0611   -0.0089
    3 O1     3s         0.0001   -0.0001   -0.0001   -0.0247    0.0120    0.0184   -0.0044   -0.0247    0.0056    0.0108
    4 O1     2px        0.0001    0.0001   -0.0001   -0.0104    0.0178    0.0367    0.3899   -0.1555   -0.6870    0.6393
    5 O1     3px        0.0002    0.0001    0.0000    0.0041   -0.0024   -0.0052   -0.0324    0.0084    0.0043    0.0440
    6 O1     2py       -0.0002    0.0009   -0.0010   -0.1049    0.0902    0.1952   -0.0968   -0.4332    0.1494    0.0833
    7 O1     3py       -0.0000   -0.0005    0.0003    0.0252   -0.0177   -0.0269    0.0065    0.0275    0.0004   -0.0112
    8 O1     2pz        0.0000    0.0000   -0.0000    0.0000   -0.0000   -0.0000   -0.0000    0.0000    0.0000   -0.0000
    9 O1     3pz        0.0000    0.0000    0.0000    0.0000   -0.0000    0.0000   -0.0000   -0.0000    0.0000   -0.0000
   10 O1     3d2-       0.0000   -0.0000    0.0001    0.0018   -0.0040   -0.0033   -0.0217    0.0088    0.0124    0.0061
   11 O1     3d1-       0.0000   -0.0000   -0.0000   -0.0000   -0.0000    0.0000   -0.0000    0.0000   -0.0000   -0.0000
   12 O1     3d0        0.0000    0.0001   -0.0002   -0.0090    0.0089    0.0071   -0.0033   -0.0169    0.0041    0.0022
   13 O1     3d1+       0.0000   -0.0000    0.0000   -0.0000    0.0000   -0.0000   -0.0000    0.0000    0.0000   -0.0000
   14 O1     3d2+      -0.0000   -0.0002    0.0001   -0.0170    0.0145    0.0154   -0.0098   -0.0307    0.0085    0.0065
   15 O2     1s         0.9998   -0.0000   -0.0179   -0.0221    0.0000   -0.0124   -0.0025    0.0000    0.0000    0.0148
   16 O2     2s         0.0002   -0.0000   -0.0008    0.6440   -0.0000   -0.6276   -0.0342    0.0000   -0.0000    0.1898
   17 O2     3s        -0.0011   -0.0000   -0.0006   -0.0308    0.0000   -0.0179   -0.0020    0.0000    0.0000    0.0285
   18 O2     2px        0.0003   -0.0000   -0.0000    0.0391   -0.0000    0.0502    0.6783    0.0000    0.0000   -0.7740
   19 O2     3px       -0.0008   -0.0000   -0.0001   -0.0081    0.0000   -0.0063   -0.0486   -0.0000   -0.0000   -0.0599
   20 O2     2py        0.0000    0.0010   -0.0000   -0.0000   -0.2990    0.0000   -0.0000    0.5038   -0.0987   -0.0000
   21 O2     3py        0.0000    0.0012   -0.0000   -0.0000    0.0786   -0.0000    0.0000   -0.0768    0.0006   -0.0000
   22 O2     2pz       -0.0000   -0.0000   -0.0000    0.0000   -0.0000   -0.0000   -0.0000   -0.0000   -0.0000    0.0000
   23 O2     3pz       -0.0000   -0.0000   -0.0000   -0.0000    0.0000   -0.0000    0.0000   -0.0000   -0.0000    0.0000
   24 O2     3d2-       0.0000    0.0000   -0.0000   -0.0000   -0.0147    0.0000    0.0000    0.0109   -0.0377   -0.0000
   25 O2     3d1-      -0.0000   -0.0000    0.0000   -0.0000   -0.0000    0.0000    0.0000    0.0000    0.0000   -0.0000
   26 O2     3d0       -0.0001    0.0000    0.0003   -0.0176    0.0000    0.0006   -0.0079   -0.0000   -0.0000    0.0143
   27 O2     3d1+      -0.0000    0.0000   -0.0000    0.0000   -0.0000   -0.0000    0.0000    0.0000    0.0000    0.0000
   28 O2     3d2+       0.0002    0.0000    0.0004   -0.0312    0.0000    0.0002    0.0088    0.0000   -0.0000    0.0160
   29 O3     1s         0.0125    0.7072    0.7071   -0.0152   -0.0085    0.0145   -0.0027    0.0184   -0.0048    0.0009
   30 O3     2s         0.0002    0.0008    0.0005    0.3472    0.5902    0.6391   -0.0577    0.3795   -0.0611   -0.0089
   31 O3     3s         0.0001    0.0001   -0.0001   -0.0247   -0.0120    0.0184   -0.0044    0.0247   -0.0056    0.0108
   32 O3     2px        0.0001   -0.0001   -0.0001   -0.0104   -0.0178    0.0367    0.3899    0.1555    0.6870    0.6393
   33 O3     3px        0.0002   -0.0001    0.0000    0.0041    0.0024   -0.0052   -0.0324   -0.0084   -0.0043    0.0440
   34 O3     2py        0.0002    0.0009    0.0010    0.1049    0.0902   -0.1952    0.0968   -0.4332    0.1494   -0.0833
   35 O3     3py        0.0000   -0.0005   -0.0003   -0.0252   -0.0177    0.0269   -0.0065    0.0275    0.0004    0.0112
   36 O3     2pz        0.0000   -0.0000    0.0000    0.0000   -0.0000   -0.0000   -0.0000   -0.0000   -0.0000    0.0000
   37 O3     3pz        0.0000    0.0000   -0.0000    0.0000   -0.0000   -0.0000    0.0000    0.0000    0.0000   -0.0000
   38 O3     3d2-      -0.0000   -0.0000   -0.0001   -0.0018   -0.0040    0.0033    0.0217    0.0088    0.0124   -0.0061
   39 O3     3d1-       0.0000   -0.0000    0.0000    0.0000    0.0000    0.0000   -0.0000   -0.0000    0.0000   -0.0000
   40 O3     3d0        0.0000   -0.0001   -0.0002   -0.0090   -0.0089    0.0071   -0.0033    0.0169   -0.0041    0.0022
   41 O3     3d1+       0.0000   -0.0000    0.0000   -0.0000    0.0000    0.0000   -0.0000    0.0000   -0.0000    0.0000
   42 O3     3d2+      -0.0000    0.0002    0.0001   -0.0170   -0.0145    0.0154   -0.0098    0.0307   -0.0085    0.0065
 
 
      Orbital               11        12        13        14        15        16        17        18        19        20
      Energy            0.0000    0.0000    0.0000    0.1462    0.2874    0.4675    0.4756    0.5184    0.6532    0.6755
      Occ. No.          1.9848    1.7626    0.2526    0.0000    0.0000    0.0000    0.0000    0.0000    0.0000    0.0000
 
    1 O1     1s        -0.0000   -0.0000   -0.0000   -0.0281   -0.1638    0.0000   -0.0173    0.0331   -0.0350    0.0091
    2 O1     2s         0.0000   -0.0000   -0.0000   -0.3472   -1.1846    0.0000   -0.1197    0.2456   -0.0910    0.0209
    3 O1     3s        -0.0000   -0.0000    0.0000   -0.0122   -0.4264    0.0000   -0.0651    0.2134   -0.1159    0.0402
    4 O1     2px       -0.0000   -0.0000    0.0000   -0.0448    0.1126    0.0000   -0.0649   -0.0657   -0.0720   -0.0764
    5 O1     3px        0.0000    0.0000   -0.0000   -0.0150    0.0965   -0.0000    0.4586    0.0868   -0.2082   -0.7999
    6 O1     2py       -0.0000    0.0000    0.0000    0.8009    0.5731    0.0000    0.0862   -0.2603   -0.4660    0.1428
    7 O1     3py        0.0000    0.0000    0.0000    0.1737    0.6540   -0.0000    0.1804   -0.8156    0.0634   -0.0169
    8 O1     2pz        0.3276   -0.7041    0.6641    0.0000    0.0000    0.0234    0.0000   -0.0000    0.0000   -0.0000
    9 O1     3pz       -0.0296   -0.0094   -0.0610   -0.0000   -0.0000    0.4898    0.0000    0.0000    0.0000    0.0000
   10 O1     3d2-      -0.0000    0.0000   -0.0000   -0.0068   -0.0086   -0.0000    0.0273   -0.0023   -0.0451   -0.0093
   11 O1     3d1-      -0.0298    0.0198    0.0088   -0.0000   -0.0000    0.0353    0.0000    0.0000    0.0000    0.0000
   12 O1     3d0        0.0000   -0.0000    0.0000   -0.0007    0.0196   -0.0000    0.0053    0.0028    0.0638   -0.0194
   13 O1     3d1+      -0.0028    0.0013    0.0010    0.0000   -0.0000    0.0053    0.0000    0.0000   -0.0000   -0.0000
   14 O1     3d2+       0.0000   -0.0000   -0.0000   -0.0039    0.0324   -0.0000    0.0186    0.0014    0.1022   -0.0314
   15 O2     1s         0.0000   -0.0000   -0.0000    0.1170    0.0000   -0.0000    0.0556   -0.1747   -0.0000    0.0000
   16 O2     2s        -0.0000    0.0000    0.0000    1.1255    0.0000   -0.0000    0.3405   -1.0395   -0.0000    0.0000
   17 O2     3s         0.0000   -0.0000    0.0000    0.2662    0.0000   -0.0000    0.1421   -0.3434   -0.0000   -0.0000
   18 O2     2px        0.0000    0.0000   -0.0000    0.2955    0.0000    0.0000   -0.1088   -0.0546   -0.0000    0.0000
   19 O2     3px       -0.0000   -0.0000   -0.0000    0.0665    0.0000   -0.0000    0.4125   -0.0084   -0.0000    0.0000
   20 O2     2py       -0.0000    0.0000    0.0000   -0.0000    1.3187    0.0000   -0.0000    0.0000   -0.4097    0.1186
   21 O2     3py        0.0000    0.0000   -0.0000   -0.0000    1.1184    0.0000    0.0000   -0.0000    0.7305   -0.2097
   22 O2     2pz        0.7564    0.0000   -0.6874    0.0000    0.0000   -0.2852   -0.0000    0.0000   -0.0000    0.0000
   23 O2     3pz       -0.0049   -0.0000   -0.0734    0.0000    0.0000    0.3418    0.0000   -0.0000    0.0000    0.0000
   24 O2     3d2-       0.0000    0.0000    0.0000   -0.0000    0.0217   -0.0000    0.0000   -0.0000    0.0447    0.0524
   25 O2     3d1-       0.0000   -0.0462    0.0000    0.0000    0.0000    0.0000    0.0000   -0.0000   -0.0000   -0.0000
   26 O2     3d0       -0.0000    0.0000   -0.0000    0.0365    0.0000    0.0000   -0.0247    0.0972    0.0000   -0.0000
   27 O2     3d1+       0.0136    0.0000   -0.0085    0.0000    0.0000   -0.0111   -0.0000    0.0000   -0.0000   -0.0000
   28 O2     3d2+      -0.0000    0.0000    0.0000    0.0663    0.0000    0.0000   -0.0593    0.1518    0.0000   -0.0000
   29 O3     1s         0.0000    0.0000    0.0000   -0.0281    0.1638    0.0000   -0.0173    0.0331    0.0350   -0.0091
   30 O3     2s         0.0000    0.0000   -0.0000   -0.3472    1.1846    0.0000   -0.1197    0.2456    0.0910   -0.0209
   31 O3     3s        -0.0000    0.0000   -0.0000   -0.0122    0.4264    0.0000   -0.0651    0.2134    0.1159   -0.0402
   32 O3     2px        0.0000    0.0000    0.0000   -0.0448   -0.1126    0.0000   -0.0649   -0.0657    0.0720    0.0764
   33 O3     3px       -0.0000    0.0000    0.0000   -0.0150   -0.0965   -0.0000    0.4586    0.0868    0.2082    0.7999
   34 O3     2py       -0.0000   -0.0000   -0.0000   -0.8009    0.5731    0.0000   -0.0862    0.2603   -0.4660    0.1428
   35 O3     3py       -0.0000   -0.0000   -0.0000   -0.1737    0.6540    0.0000   -0.1804    0.8156    0.0634   -0.0169
   36 O3     2pz        0.3276    0.7041    0.6641   -0.0000   -0.0000    0.0234   -0.0000    0.0000   -0.0000   -0.0000
   37 O3     3pz       -0.0296    0.0094   -0.0610   -0.0000   -0.0000    0.4898    0.0000   -0.0000   -0.0000   -0.0000
   38 O3     3d2-       0.0000   -0.0000    0.0000    0.0068   -0.0086    0.0000   -0.0273    0.0023   -0.0451   -0.0093
   39 O3     3d1-       0.0298    0.0198   -0.0088    0.0000   -0.0000   -0.0353   -0.0000    0.0000   -0.0000    0.0000
   40 O3     3d0        0.0000    0.0000    0.0000   -0.0007   -0.0196   -0.0000    0.0053    0.0028   -0.0638    0.0194
   41 O3     3d1+      -0.0028   -0.0013    0.0010    0.0000    0.0000    0.0053    0.0000    0.0000    0.0000   -0.0000
   42 O3     3d2+       0.0000   -0.0000    0.0000   -0.0039   -0.0324   -0.0000    0.0186    0.0014   -0.1022    0.0314
 
 
      Orbital               21        22        23        24        25        26        27        28        29        30
      Energy            0.6850    0.8567    1.0164    1.0301    1.0657    1.6899    1.7190    1.7288    1.7289    2.0070
      Occ. No.          0.0000    0.0000    0.0000    0.0000    0.0000    0.0000    0.0000    0.0000    0.0000    0.0000
 
    1 O1     1s         0.0000   -0.0198   -0.0143    0.0000    0.0956   -0.0000   -0.0399   -0.0018    0.0000   -0.2715
    2 O1     2s         0.0000   -0.1035   -0.0774    0.0000    0.5627   -0.0000   -0.3036   -0.0152    0.0000   -1.8537
    3 O1     3s         0.0000    0.4530   -0.0335    0.0000   -0.0608   -0.0000   -0.4721   -0.0193    0.0000   -1.6605
    4 O1     2px       -0.0000   -0.0111   -0.4750    0.0000   -0.1060    0.0000    0.1701    0.0336   -0.0000    0.1110
    5 O1     3px       -0.0000    0.0011   -0.9128    0.0000   -0.0770    0.0000    0.0090    0.0208   -0.0000    0.1572
    6 O1     2py        0.0000   -0.0432    0.0303    0.0000   -0.0532    0.0000    0.0822    0.0100   -0.0000    0.6407
    7 O1     3py       -0.0000    0.3085    0.0134    0.0000    0.6873    0.0000    0.1747    0.0099   -0.0000    0.1477
    8 O1     2pz       -0.0860    0.0000    0.0000    0.5086   -0.0000   -0.1785    0.0000   -0.0000   -0.0308    0.0000
    9 O1     3pz       -0.8268    0.0000    0.0000    0.9098   -0.0000    0.0302    0.0000   -0.0000   -0.0224    0.0000
   10 O1     3d2-      -0.0000   -0.0252   -0.0447    0.0000   -0.0207    0.0000    0.4219    0.1210   -0.0000   -0.1459
   11 O1     3d1-      -0.0267    0.0000    0.0000    0.0357   -0.0000   -0.4459    0.0000   -0.0000   -0.1219    0.0000
   12 O1     3d0        0.0000    0.0496    0.0225   -0.0000   -0.0658    0.0000   -0.0500    0.3748   -0.0000    0.0170
   13 O1     3d1+      -0.0006   -0.0000    0.0000    0.0153   -0.0000   -0.0924   -0.0000    0.0000    0.4227   -0.0000
   14 O1     3d2+      -0.0000    0.0755    0.0075   -0.0000   -0.1161   -0.0000    0.1046   -0.1958    0.0000   -0.0523
   15 O2     1s         0.0000    0.0116   -0.0058   -0.0000   -0.0000    0.0000   -0.0000    0.0056   -0.0000   -0.0000
   16 O2     2s        -0.0000    0.0531   -0.0165    0.0000   -0.0000    0.0000   -0.0000    0.0377   -0.0000   -0.0000
   17 O2     3s         0.0000    0.5651   -0.0162    0.0000   -0.0000    0.0000   -0.0000    0.0325   -0.0000   -0.0000
   18 O2     2px        0.0000    0.0045    0.6599   -0.0000    0.0000   -0.0000   -0.0000    0.0278   -0.0000   -0.0000
   19 O2     3px       -0.0000    0.0045    1.6285   -0.0000    0.0000   -0.0000   -0.0000   -0.0427    0.0000   -0.0000
   20 O2     2py       -0.0000    0.0000    0.0000   -0.0000   -0.8178    0.0000    0.2876   -0.0000    0.0000    2.0079
   21 O2     3py        0.0000   -0.0000    0.0000   -0.0000   -1.0036    0.0000    0.3625    0.0000    0.0000    2.1726
   22 O2     2pz       -0.0000   -0.0000   -0.0000   -0.6709    0.0000   -0.0000    0.0000   -0.0000   -0.0307   -0.0000
   23 O2     3pz        0.0000   -0.0000   -0.0000   -1.6549    0.0000   -0.0000   -0.0000    0.0000    0.0499   -0.0000
   24 O2     3d2-       0.0000    0.0000   -0.0000    0.0000    0.1062   -0.0000   -0.5208   -0.0000   -0.0000    0.2256
   25 O2     3d1-       0.0802    0.0000    0.0000    0.0000    0.0000    0.5724   -0.0000   -0.0000   -0.0000   -0.0000
   26 O2     3d0       -0.0000    0.0490    0.0345   -0.0000   -0.0000    0.0000   -0.0000    0.5694   -0.0000   -0.0000
   27 O2     3d1+      -0.0000    0.0000    0.0000    0.0244   -0.0000    0.0000   -0.0000    0.0000    0.6620    0.0000
   28 O2     3d2+      -0.0000    0.0708    0.0139    0.0000   -0.0000   -0.0000   -0.0000   -0.3378    0.0000   -0.0000
   29 O3     1s         0.0000   -0.0198   -0.0143   -0.0000   -0.0956   -0.0000    0.0399   -0.0018    0.0000    0.2715
   30 O3     2s         0.0000   -0.1035   -0.0774   -0.0000   -0.5627    0.0000    0.3036   -0.0152    0.0000    1.8537
   31 O3     3s         0.0000    0.4530   -0.0335   -0.0000    0.0608    0.0000    0.4721   -0.0193    0.0000    1.6605
   32 O3     2px        0.0000   -0.0111   -0.4750    0.0000    0.1060   -0.0000   -0.1701    0.0336   -0.0000   -0.1110
   33 O3     3px        0.0000    0.0011   -0.9128    0.0000    0.0770    0.0000   -0.0090    0.0208   -0.0000   -0.1572
   34 O3     2py        0.0000    0.0432   -0.0303    0.0000   -0.0532   -0.0000    0.0822   -0.0100    0.0000    0.6407
   35 O3     3py        0.0000   -0.3085   -0.0134    0.0000    0.6873    0.0000    0.1747   -0.0099    0.0000    0.1477
   36 O3     2pz        0.0860    0.0000    0.0000    0.5086   -0.0000    0.1785   -0.0000   -0.0000   -0.0308    0.0000
   37 O3     3pz        0.8268   -0.0000    0.0000    0.9098   -0.0000   -0.0302    0.0000   -0.0000   -0.0224   -0.0000
   38 O3     3d2-      -0.0000    0.0252    0.0447   -0.0000   -0.0207    0.0000    0.4219   -0.1210    0.0000   -0.1459
   39 O3     3d1-      -0.0267   -0.0000   -0.0000   -0.0357    0.0000   -0.4459    0.0000    0.0000    0.1219    0.0000
   40 O3     3d0       -0.0000    0.0496    0.0225   -0.0000    0.0658    0.0000    0.0500    0.3748   -0.0000   -0.0170
   41 O3     3d1+       0.0006   -0.0000    0.0000    0.0153   -0.0000    0.0924   -0.0000    0.0000    0.4227    0.0000
   42 O3     3d2+       0.0000    0.0755    0.0075    0.0000    0.1161   -0.0000   -0.1046   -0.1958    0.0000    0.0523
 
 
      Orbital               31        32        33        34        35        36        37        38        39        40
      Energy            2.0213    2.0946    2.0950    2.4569    2.4590    2.6325    2.7113    2.7462    2.9961    3.5892
      Occ. No.          0.0000    0.0000    0.0000    0.0000    0.0000    0.0000    0.0000    0.0000    0.0000    0.0000
 
    1 O1     1s        -0.1111   -0.0000    0.0069    0.0259   -0.0000    0.0271    0.0000   -0.0380    0.0299   -0.0000
    2 O1     2s        -0.8438   -0.0000    0.0437    0.1635   -0.0000    0.0656    0.0000   -0.3308    0.3408   -0.0000
    3 O1     3s        -0.9420    0.0000    0.0243    0.0823   -0.0000   -0.2036    0.0000   -0.3659    0.4120   -0.0000
    4 O1     2px        0.0479   -0.0000   -0.0011    0.1044   -0.0000    0.1348    0.0000   -0.2520   -0.0659   -0.0000
    5 O1     3px        0.0723    0.0000   -0.0192    0.2029   -0.0000    0.2415    0.0000   -0.3532   -0.0441   -0.0000
    6 O1     2py        0.5710   -0.0000   -0.0123   -0.0947    0.0000    0.0591   -0.0000    0.2948   -0.4210    0.0000
    7 O1     3py        0.5942   -0.0000    0.0100   -0.0319    0.0000    0.2664   -0.0000    0.3148   -0.4124    0.0000
    8 O1     2pz       -0.0000    0.0018    0.0000   -0.0000   -0.1161   -0.0000   -0.3145   -0.0000    0.0000   -0.3321
    9 O1     3pz       -0.0000   -0.0159   -0.0000   -0.0000   -0.1980    0.0000   -0.4438   -0.0000    0.0000   -0.2039
   10 O1     3d2-      -0.0961   -0.0000    0.1374   -0.3055    0.0000   -0.4005   -0.0000    0.5855    0.2333    0.0000
   11 O1     3d1-       0.0000    0.1319    0.0000    0.0000    0.3038   -0.0000    0.7472    0.0000   -0.0000    0.6735
   12 O1     3d0       -0.0258   -0.0000    0.6115    0.4880   -0.0000    0.1276   -0.0000    0.3293   -0.4090    0.0000
   13 O1     3d1+      -0.0000   -0.6972   -0.0000    0.0000    0.5654   -0.0000   -0.1439   -0.0000    0.0000    0.1126
   14 O1     3d2+      -0.0879    0.0000   -0.3321   -0.2694    0.0000    0.5020   -0.0000    0.3770   -0.6650    0.0000
   15 O2     1s         0.2684   -0.0000   -0.0000   -0.0142    0.0000    0.1434   -0.0000    0.1649   -0.0000   -0.0000
   16 O2     2s         1.9250   -0.0000   -0.0000   -0.1614    0.0000    0.7295   -0.0000    1.0457   -0.0000    0.0000
   17 O2     3s         1.9284   -0.0000   -0.0000   -0.2605    0.0000   -0.0545   -0.0000    0.5292   -0.0000   -0.0000
   18 O2     2px        0.0523    0.0000   -0.0000   -0.3798    0.0000   -0.2888   -0.0000    0.7485   -0.0000   -0.0000
   19 O2     3px        0.0802    0.0000   -0.0000   -0.3507    0.0000   -0.3881   -0.0000    0.6704   -0.0000    0.0000
   20 O2     2py        0.0000    0.0000   -0.0525   -0.0000    0.0000    0.0000   -0.0000    0.0000   -0.7586    0.0000
   21 O2     3py        0.0000    0.0000   -0.0547   -0.0000    0.0000    0.0000   -0.0000    0.0000    0.2783    0.0000
   22 O2     2pz       -0.0000   -0.0000    0.0000    0.0000    0.3744   -0.0000    0.7768    0.0000   -0.0000   -0.0000
   23 O2     3pz        0.0000   -0.0000   -0.0000    0.0000    0.3191   -0.0000    0.7518    0.0000   -0.0000   -0.0000
   24 O2     3d2-       0.0000    0.0000   -0.0219   -0.0000   -0.0000    0.0000    0.0000    0.0000    0.0687    0.0000
   25 O2     3d1-      -0.0000   -0.0134   -0.0000    0.0000    0.0000    0.0000    0.0000   -0.0000   -0.0000    1.1036
   26 O2     3d0        0.0855   -0.0000   -0.0000   -0.4843    0.0000    0.4820    0.0000   -0.2402    0.0000    0.0000
   27 O2     3d1+       0.0000    0.0000   -0.0000   -0.0000   -0.6223    0.0000    0.4785    0.0000   -0.0000   -0.0000
   28 O2     3d2+       0.1579   -0.0000    0.0000    0.3802   -0.0000    0.2067   -0.0000    0.3486    0.0000    0.0000
   29 O3     1s        -0.1111    0.0000   -0.0069    0.0259   -0.0000    0.0271   -0.0000   -0.0380   -0.0299    0.0000
   30 O3     2s        -0.8438    0.0000   -0.0437    0.1635   -0.0000    0.0656    0.0000   -0.3308   -0.3408    0.0000
   31 O3     3s        -0.9420    0.0000   -0.0243    0.0823   -0.0000   -0.2036    0.0000   -0.3659   -0.4120    0.0000
   32 O3     2px        0.0479    0.0000    0.0011    0.1044   -0.0000    0.1348    0.0000   -0.2520    0.0659    0.0000
   33 O3     3px        0.0723   -0.0000    0.0192    0.2029   -0.0000    0.2415    0.0000   -0.3532    0.0441    0.0000
   34 O3     2py       -0.5710    0.0000   -0.0123    0.0947   -0.0000   -0.0591    0.0000   -0.2948   -0.4210    0.0000
   35 O3     3py       -0.5942    0.0000    0.0100    0.0319   -0.0000   -0.2664    0.0000   -0.3148   -0.4124    0.0000
   36 O3     2pz       -0.0000   -0.0018    0.0000   -0.0000   -0.1161   -0.0000   -0.3145   -0.0000   -0.0000    0.3321
   37 O3     3pz        0.0000    0.0159    0.0000   -0.0000   -0.1980    0.0000   -0.4438   -0.0000    0.0000    0.2039
   38 O3     3d2-       0.0961   -0.0000    0.1374    0.3055   -0.0000    0.4005    0.0000   -0.5855    0.2333    0.0000
   39 O3     3d1-       0.0000    0.1319    0.0000   -0.0000   -0.3038    0.0000   -0.7472   -0.0000   -0.0000    0.6735
   40 O3     3d0       -0.0258    0.0000   -0.6115    0.4880   -0.0000    0.1276   -0.0000    0.3293    0.4090   -0.0000
   41 O3     3d1+       0.0000    0.6972    0.0000    0.0000    0.5654   -0.0000   -0.1439   -0.0000    0.0000   -0.1126
   42 O3     3d2+      -0.0879   -0.0000    0.3321   -0.2694    0.0000    0.5020   -0.0000    0.3770    0.6650   -0.0000
 
 
      Orbital               41        42
      Energy            3.5953    4.4372
      Occ. No.          0.0000    0.0000
 
    1 O1     1s        -0.0263    0.2365
    2 O1     2s        -0.1651    1.5620
    3 O1     3s        -0.0587    0.7897
    4 O1     2px       -0.3077   -0.2136
    5 O1     3px       -0.1999   -0.0981
    6 O1     2py        0.1580   -1.1493
    7 O1     3py        0.0399   -0.4860
    8 O1     2pz        0.0000    0.0000
    9 O1     3pz        0.0000   -0.0000
   10 O1     3d2-       0.6234    0.2639
   11 O1     3d1-      -0.0000   -0.0000
   12 O1     3d0        0.0306   -0.3427
   13 O1     3d1+      -0.0000    0.0000
   14 O1     3d2+       0.2703   -0.5426
   15 O2     1s        -0.0000   -0.4253
   16 O2     2s        -0.0000   -3.0035
   17 O2     3s        -0.0000   -1.9300
   18 O2     2px       -0.0000   -0.1240
   19 O2     3px       -0.0000   -0.0009
   20 O2     2py        0.1497    0.0000
   21 O2     3py        0.0210    0.0000
   22 O2     2pz       -0.0000    0.0000
   23 O2     3pz       -0.0000    0.0000
   24 O2     3d2-       1.1076    0.0000
   25 O2     3d1-      -0.0000   -0.0000
   26 O2     3d0       -0.0000    0.7057
   27 O2     3d1+      -0.0000   -0.0000
   28 O2     3d2+      -0.0000    1.2291
   29 O3     1s         0.0263    0.2365
   30 O3     2s         0.1651    1.5620
   31 O3     3s         0.0587    0.7897
   32 O3     2px        0.3077   -0.2136
   33 O3     3px        0.1999   -0.0981
   34 O3     2py        0.1580    1.1493
   35 O3     3py        0.0399    0.4860
   36 O3     2pz       -0.0000   -0.0000
   37 O3     3pz       -0.0000   -0.0000
   38 O3     3d2-       0.6234   -0.2639
   39 O3     3d1-      -0.0000   -0.0000
   40 O3     3d0       -0.0306   -0.3427
   41 O3     3d1+       0.0000    0.0000
   42 O3     3d2+      -0.2703   -0.5426
--
 
      Von Neumann Entropy (Root  1) =  0.54855
 

      Mulliken population analysis for root number:  1
      -----------------------------------------------
 
 
++    Molecular charges:
      ------------------
 
      Mulliken charges per centre and basis function type
      ---------------------------------------------------
 
                O1      O2      O3    
      1s       2.0003  1.9999  2.0003
      2s       1.9331  1.6613  1.9331
      2px      2.0065  1.9276  2.0065
      2pz      1.2704  1.4185  1.2704
      2py      0.8130  0.9349  0.8130
      3s      -0.0134 -0.0255 -0.0134
      3px     -0.0227 -0.0541 -0.0227
      3pz     -0.0088 -0.0058 -0.0088
      3py     -0.0121  0.0143 -0.0121
      3d2+     0.0198  0.0204  0.0198
      3d1+     0.0001  0.0009  0.0001
      3d0      0.0057  0.0060  0.0057
      3d1-     0.0145  0.0340  0.0145
      3d2-     0.0119  0.0309  0.0119
      Total    8.0184  7.9632  8.0184
 
      N-E     -0.0184  0.0368 -0.0184
 
      Total electronic charge=   24.000000
 
      Total            charge=   -0.000000
--
 
 

      Expectation values of various properties for root number:  1
      -----------------------------------------------------------
 
 
++    Molecular properties:
      ---------------------
 
      Charge (e):
                      =   -0.0000
      Dipole Moment (Debye):
      Origin of the operator (Ang)=    0.0000    0.0000    0.0000
                   X=  1.8301E-01               Y= -6.9736E-11               Z=  3.4710E-13           Total=  1.8301E-01
      Quadrupole Moment (Debye*Ang):
      Origin of the operator (Ang)=    0.1020    0.0000    0.0000
                  XX= -1.6359E+01              XY=  2.8278E-13              XZ=  2.8474E-13              YY= -1.5850E+01
                  YZ=  2.6546E-13              ZZ= -1.4785E+01
      In traceless form (Debye*Ang)
                  XX= -1.0412E+00              XY=  4.2417E-13              XZ=  4.2712E-13              YY= -2.7855E-01
                  YZ=  3.9819E-13              ZZ=  1.3197E+00
--
 

      LoProp population analysis for root number:  1
      -----------------------------------------------
 
 
++    LoProp analysis:
      ----------------
 
 
 
  Input file to MOLDEN was generated!
 
 
++    Static properties:
      ------------------
 
 
      LoProp Charges per center
 

                   O1       O2       O3    
      Nuclear      8.0000   8.0000   8.0000
      Electronic  -8.0547  -7.8906  -8.0547
 
      Total       -0.0547   0.1094  -0.0547
--
 
 
      Natural Bond Order analysis for root number:  1
 
++    Natural Bond Order analysis
      ---------------------------
      Based on LoProp computed density
      -------------------------------------------------------------------------------------
      Atom A       Atom B       Bond Order | Atom A       Atom B       Bond Order
        O1           O2             1.968  |   O2           O3             1.968
      -------------------------------------------------------------------------------------
      NBO located     16.000 core electrons.
      NBO located      7.874 electrons involved in    2 bonds.
      The remaining    0.126 electrons are to be considered as diffuse
--
 
--
 
 
  Input file to MOLDEN was generated!
 
      Average orbitals are written to the RASORB file
      Natural orbitals for root   1 are written to the RASORB.1 file
      Spin density orbitals for root   1 are written to the SPDORB.1 file
 
forrtl: warning (525): IEEE_DIVIDE_BY_ZERO is signaling
forrtl: warning (526): IEEE_INVALID is signaling
forrtl: warning (528): IEEE_UNDERFLOW is signaling
--- Stop Module: rasscf at Fri Jan 24 17:55:19 2025 /rc=_RC_ALL_IS_WELL_ ---
*** files: ozone_166.25.LprOrb ozone_166.25.rasscf.molden ozone_166.25.LoProp.molden ozone_166.25.RasOrb ozone_166.25.RasOrb.1 ozone_166.25.rasscf.h5 ozone_166.25.SpdOrb.1 xmldump
    saved to directory /home/grierjones/DDCASPT2/ozone/ANO-RCC-VDZP/ozone_166.25

>>> COPY /tmp/ozone_166.25/ozone_166.25.rasscf.h5 /home/grierjones/DDCASPT2/ozone/ANO-RCC-VDZP/ozone_166.25/

>>> COPY /tmp/ozone_166.25/GMJ_Fock_MO.csv /home/grierjones/DDCASPT2/ozone/ANO-RCC-VDZP/ozone_166.25/ozone_166.25.GMJ_Fock_MO.csv

>>> COPY /tmp/ozone_166.25/GMJ_PT2_Fock_MO.csv /home/grierjones/DDCASPT2/ozone/ANO-RCC-VDZP/ozone_166.25/ozone_166.25.GMJ_PT2_Fock_MO.csv

*** symbolic link created: INPORB -> ozone_166.25.RasOrb
--- Start Module: motra at Fri Jan 24 17:55:19 2025 ---
 
()()()()()()()()()()()()()()()()()()()()()()()()()()()()()()()()()()()()()()()()()()()()()()()()()()

                                               &MOTRA

                                   only a single process is used
                       available to each process: 2.0 GB of memory, 1 thread?
()()()()()()()()()()()()()()()()()()()()()()()()()()()()()()()()()()()()()()()()()()()()()()()()()()
 
 
      *** WARNING: Default frozen orbitals is overwritten by user input.
      *** Default values:   3
 
      Header of the integral files:
      
       Integrals generated by seward 4.2.0  , Fri Jan 24 17:55:17 2025
 
 
      Header of MO coefficients source file:
      * RASSCF average (pseudo-natural) orbitals                                      
 
 
      Cartesian coordinates in Angstrom:
      -----------------------------------------------------
      No.  Label        X            Y            Z        
      -----------------------------------------------------
       1   O1         0.15298100   1.26881100   0.00000000
       2   O2         0.00000000   0.00000000   0.00000000
       3   O3         0.15298100  -1.26881100   0.00000000
      -----------------------------------------------------
      Nuclear repulsion energy =   66.34661953
 
      Orbital specifications:
      -----------------------
 
      Symmetry species:              1
      Number of basis functions:    42
      Frozen orbitals:               0
      Deleted orbitals:              0
      Number of orbitals used:      42

       SYMMETRY  BASIS FUNCTIONS       ORBITALS      INTEGRALS   CPU(SEC)  I/O(SEC)
 
        1 1 1 1   42  42  42  42    42  42  42  42      408156       0.00      0.00

       TOTAL CPU TIME(SEC)    0.32TOTAL I/O TIME(SEC)    0.76
 
--- Stop Module: motra at Fri Jan 24 17:55:20 2025 /rc=_RC_ALL_IS_WELL_ ---
*** files: xmldump
    saved to directory /home/grierjones/DDCASPT2/ozone/ANO-RCC-VDZP/ozone_166.25

>>> COPY /tmp/ozone_166.25/GMJ_one_int_indx.csv /home/grierjones/DDCASPT2/ozone/ANO-RCC-VDZP/ozone_166.25/ozone_166.25.GMJ_one_int_indx.csv

>>> COPY /tmp/ozone_166.25/GMJ_one_int.csv /home/grierjones/DDCASPT2/ozone/ANO-RCC-VDZP/ozone_166.25/ozone_166.25.GMJ_one_int.csv

>>> COPY /tmp/ozone_166.25/GMJ_two_int_indx.csv /home/grierjones/DDCASPT2/ozone/ANO-RCC-VDZP/ozone_166.25/ozone_166.25.GMJ_two_int_indx.csv

>>> COPY /tmp/ozone_166.25/GMJ_two_int.csv /home/grierjones/DDCASPT2/ozone/ANO-RCC-VDZP/ozone_166.25/ozone_166.25.GMJ_two_int.csv

*** symbolic link created: INPORB -> ozone_166.25.RasOrb
--- Start Module: caspt2 at Fri Jan 24 17:55:20 2025 ---
 
()()()()()()()()()()()()()()()()()()()()()()()()()()()()()()()()()()()()()()()()()()()()()()()()()()

                                              &CASPT2

                                   only a single process is used
                       available to each process: 2.0 GB of memory, 1 thread?
()()()()()()()()()()()()()()()()()()()()()()()()()()()()()()()()()()()()()()()()()()()()()()()()()()
 
 Cholesky algorithm in CASPT2 =    1
 
 ###############################################################################
 ###############################################################################
 ###                                                                         ###
 ###                                                                         ###
 ###    User changed nr of frozen orbitals.                                  ###
 ###                                                                         ###
 ###                                                                         ###
 ###############################################################################
 ###############################################################################
 
++    Wave function specifications:
      -----------------------------
 
      Number of closed shell electrons          20
      Number of electrons in active shells       4
      Max number of holes in RAS1 space          0
      Max number of electrons in RAS3 space      0
      Number of inactive orbitals               10
      Number of active orbitals                  3
      Number of secondary orbitals              29
      Spin quantum number                      0.0
      State symmetry                             1
      Number of CSFs                             6
      Number of root(s) available                1
      Root passed to geometry opt.               1
      A file JOBMIX will be created.
      This is a CASSCF or RASSCF reference function
--
 
++    Orbital specifications:
      -----------------------
 
      Symmetry species                           1
                                                 a
      Frozen orbitals                            0
      Inactive orbitals                         10
      Active orbitals                            3
      Secondary orbitals                        29
      Deleted orbitals                           0
      Number of basis functions                 42
--
 
      Type of Fock operator: STANDARD
      Type of 0-order Hamiltonian: STANDARD WITH DEFAULT IPEA
        "IP-EA" denominator shift =      0.25
      The input orbitals and the CI vector will be transformed.
 
--------------------------------------------------------------------------------
 Estimated memory requirements:
  POLY3 :                   250202
  RHS:                      279634
  SIGMA :                   302200
  PRPCTL:                        0
 Available workspace:    230396563
 
++ CASPT2 computation for group   1
 
********************************************************************************
 Multi-State initialization phase begins for group   1
--------------------------------------------------------------------------------
********************************************************************************
 Compute H0 matrices for state    1
--------------------------------------------------------------------------------
--------------------------------------------------------------------------------
 H0 matrices have been computed.
 
********************************************************************************
  CASPT2 EQUATION SOLUTION
--------------------------------------------------------------------------------
 
  Total nr of CASPT2 parameters:
   Before reduction:       86691
   After  reduction:       82880
 
 The contributions to the second order correlation energy in atomic units.
-----------------------------------------------------------------------------------------------------------------------------
  IT.      VJTU        VJTI        ATVX        AIVX        VJAI        BVAT        BJAT        BJAI        TOTAL       RNORM  
-----------------------------------------------------------------------------------------------------------------------------
   1    -0.000000   -0.001552   -0.015265   -0.101465   -0.016901   -0.017055   -0.121507   -0.260941   -0.534685    0.002168
   2    -0.000000   -0.001571   -0.015319   -0.101812   -0.016918   -0.017059   -0.121522   -0.260943   -0.535143    0.000176
   3    -0.000000   -0.001571   -0.015320   -0.101816   -0.016918   -0.017059   -0.121523   -0.260943   -0.535149    0.000025
   4    -0.000000   -0.001571   -0.015319   -0.101814   -0.016918   -0.017059   -0.121522   -0.260943   -0.535147    0.000003
-------------------------------------------------------------------------------------------------------------------
 
  FINAL CASPT2 RESULT:
 
  Correlation energy /Case, /Symm, and sums:
 VJTU     -0.00000000 -0.00000000
 VJTIP    -0.00157102 -0.00157102
 VJTIM     0.00000000  0.00000000
 ATVX     -0.01531942 -0.01531942
 AIVX     -0.10181344 -0.10181344
 VJAIP    -0.01176742 -0.01176742
 VJAIM    -0.00515015 -0.00515015
 BVATP    -0.01619357 -0.01619357
 BVATM    -0.00086590 -0.00086590
 BJATP    -0.04539951 -0.04539951
 BJATM    -0.07612299 -0.07612299
 BJAIP    -0.17567651 -0.17567651
 BJAIM    -0.08526653 -0.08526653
 Summed:  -0.53514645 -0.53514645
 
      Reference energy:        -224.4685906892
      E2 (Non-variational):      -0.5351464545
      E2 (Variational):          -0.5351464821
      Total energy:            -225.0037371713
      Residual norm:              0.0000002959
      Reference weight:           0.85571
 
      Contributions to the CASPT2 correlation energy
      Active & Virtual Only:         -0.0323788921
      One Inactive Excited:          -0.2233359308
      Two Inactive Excited:          -0.2794316316
 
 
++ Denominators, etc.
----------------------------------------------------------------------------------------------------
 Report on small energy denominators, large coefficients, and large energy contributions.
CASE  SYMM ACTIVE-MIX  NON-ACTIVE INDICES          DENOMINATOR     RHS VALUE       COEFFICIENT     CONTRIBUTION
ATVX     1  Mu1.0006  Se1.016                       1.89987796     -0.06856145      0.03679273     -0.00252256
ATVX     1  Mu1.0005  Se1.021                       1.86494626      0.10882497     -0.05719513     -0.00622426
ATVX     1  Mu1.0005  Se1.026                       2.86989083     -0.07846675      0.02742872     -0.00215224
AIVX     1  Mu1.0005  In1.004 Se1.014               2.61262924      0.08516222     -0.03259172     -0.00277558
AIVX     1  Mu1.0003  In1.005 Se1.014               2.07666523      0.06609005     -0.03135002     -0.00207192
AIVX     1  Mu1.0004  In1.006 Se1.014               1.83241214      0.06076740     -0.03348725     -0.00203493
AIVX     1  Mu1.0005  In1.006 Se1.014               1.98863694     -0.05763210      0.02942842     -0.00169602
AIVX     1  Mu1.0004  In1.007 Se1.014               1.58119732     -0.04148209      0.02645718     -0.00109750
AIVX     1  Mu1.0002  In1.008 Se1.014               1.30131072     -0.11196233      0.08529959     -0.00955034
AIVX     1  Mu1.0003  In1.008 Se1.014               1.39963123     -0.06280345      0.04452731     -0.00279647
AIVX     1  Mu1.0002  In1.009 Se1.014               1.14426566      0.04583952     -0.03963927     -0.00181704
AIVX     1  Mu1.0002  In1.009 Se1.017               1.47359439      0.05219736     -0.03437119     -0.00179409
AIVX     1  Mu1.0004  In1.010 Se1.017               1.56608555     -0.05934015      0.03777215     -0.00224140
AIVX     1  Mu1.0004  In1.008 Se1.019               2.06349801      0.12276394     -0.05984734     -0.00734710
AIVX     1  Mu1.0005  In1.008 Se1.019               2.21972281     -0.07543991      0.03414400     -0.00257582
AIVX     1  Mu1.0002  In1.010 Se1.020               1.51086344      0.06886626     -0.04437446     -0.00305590
AIVX     1  Mu1.0003  In1.010 Se1.020               1.60918395      0.04652477     -0.02805298     -0.00130516
AIVX     1  Mu1.0004  In1.006 Se1.022               2.54284379     -0.06848265      0.02689174     -0.00184162
AIVX     1  Mu1.0002  In1.008 Se1.022               2.01174237      0.05284236     -0.02580887     -0.00136380
BJATM    1  Mu1.0002  In1.008 Se1.019 Se1.016       2.61972147      0.06050062     -0.02533603     -0.00153285
BJATM    1  Mu1.0001  In1.009 Se1.021 Se1.020       2.37301776     -0.06014192      0.02535251     -0.00152475
BJAIP    1  Se1.014 In1.006 Se1.014 In1.006         2.39735988      0.06266463     -0.02613900     -0.00163799
BJAIP    1  Se1.014 In1.006 Se1.019 In1.008         2.62844576      0.09270171     -0.03526862     -0.00326946
BJAIP    1  Se1.014 In1.008 Se1.014 In1.008         1.84549718      0.08095287     -0.04386508     -0.00355100
BJAIP    1  Se1.019 In1.008 Se1.019 In1.008         2.85953163      0.10935412     -0.03824194     -0.00418191
BJAIP    1  Se1.017 In1.007 Se1.023 In1.010         2.74997647     -0.07238154      0.02632077     -0.00190514
BJAIP    1  Se1.017 In1.009 Se1.020 In1.010         2.22733357      0.06309152     -0.02832603     -0.00178713
BJAIM    1  Se1.014 In1.006 Se1.018 In1.008         2.62844576      0.06725362     -0.02558680     -0.00172081
BJAIM    1  Se1.014 In1.008 Se1.016 In1.009         2.01778085     -0.05429165      0.02690661     -0.00146080
BJAIM    1  Se1.014 In1.008 Se1.019 In1.010         2.05504990     -0.05245455      0.02552474     -0.00133889
--
 
   (Skipping property calculation,
    use PROP keyword to activate)
--
 
  Total CASPT2 energies:
::    CASPT2 Root  1     Total energy:   -225.00373717
 
  A NEW JOBIPH FILE NAMED 'JOBMIX' IS PREPARED.
********************************************************************************
forrtl: warning (528): IEEE_UNDERFLOW is signaling
--- Stop Module: caspt2 at Fri Jan 24 17:55:20 2025 /rc=_RC_ALL_IS_WELL_ ---
*** files: xmldump
    saved to directory /home/grierjones/DDCASPT2/ozone/ANO-RCC-VDZP/ozone_166.25

>>> EXPORT i = B

>>> EXPORT j = P

>>> IF (-FILE GMJ_e2_${i}_${j}.csv)

>>> COPY /tmp/ozone_166.25/GMJ_RHS_B_P.csv /home/grierjones/DDCASPT2/ozone/ANO-RCC-VDZP/ozone_166.25/GMJ_RHS_B_P.csv

>>> COPY /tmp/ozone_166.25/GMJ_IVECW_B_P.csv /home/grierjones/DDCASPT2/ozone/ANO-RCC-VDZP/ozone_166.25/GMJ_IVECW_B_P.csv

>>> COPY /tmp/ozone_166.25/GMJ_IVECX_B_P.csv /home/grierjones/DDCASPT2/ozone/ANO-RCC-VDZP/ozone_166.25/GMJ_IVECX_B_P.csv

>>> COPY /tmp/ozone_166.25/GMJ_IVECC2_B_P.csv /home/grierjones/DDCASPT2/ozone/ANO-RCC-VDZP/ozone_166.25/GMJ_IVECC2_B_P.csv

>>> COPY /tmp/ozone_166.25/GMJ_e2_B_P.csv /home/grierjones/DDCASPT2/ozone/ANO-RCC-VDZP/ozone_166.25/GMJ_e2_B_P.csv

>>> END FOREACH

>>> EXPORT j = M

>>> IF (-FILE GMJ_e2_${i}_${j}.csv)
(Skipped)

>>> END FOREACH

>>> END FOREACH

>>> EXPORT i = E

>>> EXPORT j = P

>>> IF (-FILE GMJ_e2_${i}_${j}.csv)

>>> COPY /tmp/ozone_166.25/GMJ_RHS_E_P.csv /home/grierjones/DDCASPT2/ozone/ANO-RCC-VDZP/ozone_166.25/GMJ_RHS_E_P.csv

>>> COPY /tmp/ozone_166.25/GMJ_IVECW_E_P.csv /home/grierjones/DDCASPT2/ozone/ANO-RCC-VDZP/ozone_166.25/GMJ_IVECW_E_P.csv

>>> COPY /tmp/ozone_166.25/GMJ_IVECX_E_P.csv /home/grierjones/DDCASPT2/ozone/ANO-RCC-VDZP/ozone_166.25/GMJ_IVECX_E_P.csv

>>> COPY /tmp/ozone_166.25/GMJ_IVECC2_E_P.csv /home/grierjones/DDCASPT2/ozone/ANO-RCC-VDZP/ozone_166.25/GMJ_IVECC2_E_P.csv

>>> COPY /tmp/ozone_166.25/GMJ_e2_E_P.csv /home/grierjones/DDCASPT2/ozone/ANO-RCC-VDZP/ozone_166.25/GMJ_e2_E_P.csv

>>> END FOREACH

>>> EXPORT j = M

>>> IF (-FILE GMJ_e2_${i}_${j}.csv)

>>> COPY /tmp/ozone_166.25/GMJ_RHS_E_M.csv /home/grierjones/DDCASPT2/ozone/ANO-RCC-VDZP/ozone_166.25/GMJ_RHS_E_M.csv

>>> COPY /tmp/ozone_166.25/GMJ_IVECW_E_M.csv /home/grierjones/DDCASPT2/ozone/ANO-RCC-VDZP/ozone_166.25/GMJ_IVECW_E_M.csv

>>> COPY /tmp/ozone_166.25/GMJ_IVECX_E_M.csv /home/grierjones/DDCASPT2/ozone/ANO-RCC-VDZP/ozone_166.25/GMJ_IVECX_E_M.csv

>>> COPY /tmp/ozone_166.25/GMJ_IVECC2_E_M.csv /home/grierjones/DDCASPT2/ozone/ANO-RCC-VDZP/ozone_166.25/GMJ_IVECC2_E_M.csv

>>> COPY /tmp/ozone_166.25/GMJ_e2_E_M.csv /home/grierjones/DDCASPT2/ozone/ANO-RCC-VDZP/ozone_166.25/GMJ_e2_E_M.csv

>>> END FOREACH

>>> END FOREACH

>>> EXPORT i = F

>>> EXPORT j = P

>>> IF (-FILE GMJ_e2_${i}_${j}.csv)

>>> COPY /tmp/ozone_166.25/GMJ_RHS_F_P.csv /home/grierjones/DDCASPT2/ozone/ANO-RCC-VDZP/ozone_166.25/GMJ_RHS_F_P.csv

>>> COPY /tmp/ozone_166.25/GMJ_IVECW_F_P.csv /home/grierjones/DDCASPT2/ozone/ANO-RCC-VDZP/ozone_166.25/GMJ_IVECW_F_P.csv

>>> COPY /tmp/ozone_166.25/GMJ_IVECX_F_P.csv /home/grierjones/DDCASPT2/ozone/ANO-RCC-VDZP/ozone_166.25/GMJ_IVECX_F_P.csv

>>> COPY /tmp/ozone_166.25/GMJ_IVECC2_F_P.csv /home/grierjones/DDCASPT2/ozone/ANO-RCC-VDZP/ozone_166.25/GMJ_IVECC2_F_P.csv

>>> COPY /tmp/ozone_166.25/GMJ_e2_F_P.csv /home/grierjones/DDCASPT2/ozone/ANO-RCC-VDZP/ozone_166.25/GMJ_e2_F_P.csv

>>> END FOREACH

>>> EXPORT j = M

>>> IF (-FILE GMJ_e2_${i}_${j}.csv)

>>> COPY /tmp/ozone_166.25/GMJ_RHS_F_M.csv /home/grierjones/DDCASPT2/ozone/ANO-RCC-VDZP/ozone_166.25/GMJ_RHS_F_M.csv

>>> COPY /tmp/ozone_166.25/GMJ_IVECW_F_M.csv /home/grierjones/DDCASPT2/ozone/ANO-RCC-VDZP/ozone_166.25/GMJ_IVECW_F_M.csv

>>> COPY /tmp/ozone_166.25/GMJ_IVECX_F_M.csv /home/grierjones/DDCASPT2/ozone/ANO-RCC-VDZP/ozone_166.25/GMJ_IVECX_F_M.csv

>>> COPY /tmp/ozone_166.25/GMJ_IVECC2_F_M.csv /home/grierjones/DDCASPT2/ozone/ANO-RCC-VDZP/ozone_166.25/GMJ_IVECC2_F_M.csv

>>> COPY /tmp/ozone_166.25/GMJ_e2_F_M.csv /home/grierjones/DDCASPT2/ozone/ANO-RCC-VDZP/ozone_166.25/GMJ_e2_F_M.csv

>>> END FOREACH

>>> END FOREACH

>>> EXPORT i = G

>>> EXPORT j = P

>>> IF (-FILE GMJ_e2_${i}_${j}.csv)

>>> COPY /tmp/ozone_166.25/GMJ_RHS_G_P.csv /home/grierjones/DDCASPT2/ozone/ANO-RCC-VDZP/ozone_166.25/GMJ_RHS_G_P.csv

>>> COPY /tmp/ozone_166.25/GMJ_IVECW_G_P.csv /home/grierjones/DDCASPT2/ozone/ANO-RCC-VDZP/ozone_166.25/GMJ_IVECW_G_P.csv

>>> COPY /tmp/ozone_166.25/GMJ_IVECX_G_P.csv /home/grierjones/DDCASPT2/ozone/ANO-RCC-VDZP/ozone_166.25/GMJ_IVECX_G_P.csv

>>> COPY /tmp/ozone_166.25/GMJ_IVECC2_G_P.csv /home/grierjones/DDCASPT2/ozone/ANO-RCC-VDZP/ozone_166.25/GMJ_IVECC2_G_P.csv

>>> COPY /tmp/ozone_166.25/GMJ_e2_G_P.csv /home/grierjones/DDCASPT2/ozone/ANO-RCC-VDZP/ozone_166.25/GMJ_e2_G_P.csv

>>> END FOREACH

>>> EXPORT j = M

>>> IF (-FILE GMJ_e2_${i}_${j}.csv)

>>> COPY /tmp/ozone_166.25/GMJ_RHS_G_M.csv /home/grierjones/DDCASPT2/ozone/ANO-RCC-VDZP/ozone_166.25/GMJ_RHS_G_M.csv

>>> COPY /tmp/ozone_166.25/GMJ_IVECW_G_M.csv /home/grierjones/DDCASPT2/ozone/ANO-RCC-VDZP/ozone_166.25/GMJ_IVECW_G_M.csv

>>> COPY /tmp/ozone_166.25/GMJ_IVECX_G_M.csv /home/grierjones/DDCASPT2/ozone/ANO-RCC-VDZP/ozone_166.25/GMJ_IVECX_G_M.csv

>>> COPY /tmp/ozone_166.25/GMJ_IVECC2_G_M.csv /home/grierjones/DDCASPT2/ozone/ANO-RCC-VDZP/ozone_166.25/GMJ_IVECC2_G_M.csv

>>> COPY /tmp/ozone_166.25/GMJ_e2_G_M.csv /home/grierjones/DDCASPT2/ozone/ANO-RCC-VDZP/ozone_166.25/GMJ_e2_G_M.csv

>>> END FOREACH

>>> END FOREACH

>>> EXPORT i = H

>>> EXPORT j = P

>>> IF (-FILE GMJ_e2_${i}_${j}.csv)

>>> COPY /tmp/ozone_166.25/GMJ_RHS_H_P.csv /home/grierjones/DDCASPT2/ozone/ANO-RCC-VDZP/ozone_166.25/GMJ_RHS_H_P.csv

>>> COPY /tmp/ozone_166.25/GMJ_IVECW_H_P.csv /home/grierjones/DDCASPT2/ozone/ANO-RCC-VDZP/ozone_166.25/GMJ_IVECW_H_P.csv

>>> COPY /tmp/ozone_166.25/GMJ_IVECX_H_P.csv /home/grierjones/DDCASPT2/ozone/ANO-RCC-VDZP/ozone_166.25/GMJ_IVECX_H_P.csv

>>> COPY /tmp/ozone_166.25/GMJ_IVECC2_H_P.csv /home/grierjones/DDCASPT2/ozone/ANO-RCC-VDZP/ozone_166.25/GMJ_IVECC2_H_P.csv

>>> COPY /tmp/ozone_166.25/GMJ_e2_H_P.csv /home/grierjones/DDCASPT2/ozone/ANO-RCC-VDZP/ozone_166.25/GMJ_e2_H_P.csv

>>> END FOREACH

>>> EXPORT j = M

>>> IF (-FILE GMJ_e2_${i}_${j}.csv)

>>> COPY /tmp/ozone_166.25/GMJ_RHS_H_M.csv /home/grierjones/DDCASPT2/ozone/ANO-RCC-VDZP/ozone_166.25/GMJ_RHS_H_M.csv

>>> COPY /tmp/ozone_166.25/GMJ_IVECW_H_M.csv /home/grierjones/DDCASPT2/ozone/ANO-RCC-VDZP/ozone_166.25/GMJ_IVECW_H_M.csv

>>> COPY /tmp/ozone_166.25/GMJ_IVECX_H_M.csv /home/grierjones/DDCASPT2/ozone/ANO-RCC-VDZP/ozone_166.25/GMJ_IVECX_H_M.csv

>>> COPY /tmp/ozone_166.25/GMJ_IVECC2_H_M.csv /home/grierjones/DDCASPT2/ozone/ANO-RCC-VDZP/ozone_166.25/GMJ_IVECC2_H_M.csv

>>> COPY /tmp/ozone_166.25/GMJ_e2_H_M.csv /home/grierjones/DDCASPT2/ozone/ANO-RCC-VDZP/ozone_166.25/GMJ_e2_H_M.csv

>>> END FOREACH

>>> END FOREACH

>>> EXPORT i = A

>>> IF (-FILE GMJ_e2_$i.csv)

>>> COPY /tmp/ozone_166.25/GMJ_RHS_A.csv /home/grierjones/DDCASPT2/ozone/ANO-RCC-VDZP/ozone_166.25/GMJ_RHS_A.csv

>>> COPY /tmp/ozone_166.25/GMJ_IVECW_A.csv /home/grierjones/DDCASPT2/ozone/ANO-RCC-VDZP/ozone_166.25/GMJ_IVECW_A.csv

>>> COPY /tmp/ozone_166.25/GMJ_IVECX_A.csv /home/grierjones/DDCASPT2/ozone/ANO-RCC-VDZP/ozone_166.25/GMJ_IVECX_A.csv

>>> COPY /tmp/ozone_166.25/GMJ_IVECC2_A.csv /home/grierjones/DDCASPT2/ozone/ANO-RCC-VDZP/ozone_166.25/GMJ_IVECC2_A.csv

>>> COPY /tmp/ozone_166.25/GMJ_e2_A.csv /home/grierjones/DDCASPT2/ozone/ANO-RCC-VDZP/ozone_166.25/GMJ_e2_A.csv

>>> END FOREACH

>>> EXPORT i = C

>>> IF (-FILE GMJ_e2_$i.csv)

>>> COPY /tmp/ozone_166.25/GMJ_RHS_C.csv /home/grierjones/DDCASPT2/ozone/ANO-RCC-VDZP/ozone_166.25/GMJ_RHS_C.csv

>>> COPY /tmp/ozone_166.25/GMJ_IVECW_C.csv /home/grierjones/DDCASPT2/ozone/ANO-RCC-VDZP/ozone_166.25/GMJ_IVECW_C.csv

>>> COPY /tmp/ozone_166.25/GMJ_IVECX_C.csv /home/grierjones/DDCASPT2/ozone/ANO-RCC-VDZP/ozone_166.25/GMJ_IVECX_C.csv

>>> COPY /tmp/ozone_166.25/GMJ_IVECC2_C.csv /home/grierjones/DDCASPT2/ozone/ANO-RCC-VDZP/ozone_166.25/GMJ_IVECC2_C.csv

>>> COPY /tmp/ozone_166.25/GMJ_e2_C.csv /home/grierjones/DDCASPT2/ozone/ANO-RCC-VDZP/ozone_166.25/GMJ_e2_C.csv

>>> END FOREACH

>>> EXPORT i = D

>>> IF (-FILE GMJ_e2_$i.csv)

>>> COPY /tmp/ozone_166.25/GMJ_RHS_D.csv /home/grierjones/DDCASPT2/ozone/ANO-RCC-VDZP/ozone_166.25/GMJ_RHS_D.csv

>>> COPY /tmp/ozone_166.25/GMJ_IVECW_D.csv /home/grierjones/DDCASPT2/ozone/ANO-RCC-VDZP/ozone_166.25/GMJ_IVECW_D.csv

>>> COPY /tmp/ozone_166.25/GMJ_IVECX_D.csv /home/grierjones/DDCASPT2/ozone/ANO-RCC-VDZP/ozone_166.25/GMJ_IVECX_D.csv

>>> COPY /tmp/ozone_166.25/GMJ_IVECC2_D.csv /home/grierjones/DDCASPT2/ozone/ANO-RCC-VDZP/ozone_166.25/GMJ_IVECC2_D.csv

>>> COPY /tmp/ozone_166.25/GMJ_e2_D.csv /home/grierjones/DDCASPT2/ozone/ANO-RCC-VDZP/ozone_166.25/GMJ_e2_D.csv

>>> END FOREACH

.########################.
.# Non-zero return code #.
.########################.

    Timing: Wall=3.60 User=2.67 System=0.92
********************************************
*** WorkDir at /tmp/ozone_166.25 cleaned ***
********************************************
