[Molden Format]
[N_Atoms]
                     2
[Atoms] (AU)
B1          1      5           0.00000000      0.00000000      0.00000000
BE2         2      4           0.00000000      0.00000000      3.02356180
[Charge] (Mulliken)
 -0.189154279923972     
  0.189154279923927     
[GTO] (AU)
   1
   s  14
  3.336021700E+04  1.039699991E-04
  4.972095200E+03  5.254399956E-04
  1.125641700E+03  2.509059979E-03
  3.164913600E+02  1.031887991E-02
  1.020072600E+02  3.636632969E-02
  3.629587300E+01  1.064607991E-01
  1.397141000E+01  2.403999880E-01
  5.741156000E+00  3.748581168E-01
  2.494268000E+00  3.100066974E-01
  1.114202000E+00  7.922455933E-02
  4.215490000E-01 -4.947589958E-03
  1.696330000E-01 -7.737119935E-03
  6.853500000E-02 -1.501079987E-03
  2.398700000E-02 -1.333299989E-04
   s  14
  3.336021700E+04 -2.030000008E-05
  4.972095200E+03 -1.025700004E-04
  1.125641700E+03 -4.911300020E-04
  3.164913600E+02 -2.026570008E-03
  1.020072600E+02 -7.261010030E-03
  3.629587300E+01 -2.197722009E-02
  1.397141000E+01 -5.408428022E-02
  5.741156000E+00 -1.022402604E-01
  2.494268000E+00 -1.423595206E-01
  1.114202000E+00 -4.658690019E-02
  4.215490000E-01  3.799402916E-01
  1.696330000E-01  5.890463624E-01
  6.853500000E-02  1.749075107E-01
  2.398700000E-02 -1.142030005E-03
   p   9
  5.500000000E+01  1.229800005E-03
  1.336610100E+01  8.827380035E-03
  4.135394000E+00  3.843340015E-02
  1.481256000E+00  1.150031805E-01
  6.021360000E-01  2.733674011E-01
  2.556360000E-01  4.061972116E-01
  1.111510000E-01  3.014967912E-01
  4.764800000E-02  7.684809030E-02
  1.667700000E-02 -8.170000032E-06
 
   2
   s  14
  2.262859900E+04  8.443999941E-05
  3.372318100E+03  4.601499968E-04
  7.603504000E+02  2.285389984E-03
  2.117404800E+02  9.648129932E-03
  6.722346800E+01  3.494469975E-02
  2.337217700E+01  1.061099893E-01
  8.721373000E+00  2.458240383E-01
  3.468091000E+00  3.862428773E-01
  1.452144000E+00  3.105526078E-01
  6.086150000E-01  6.415933955E-02
  2.576860000E-01 -2.265049984E-03
  1.041760000E-01 -5.217499963E-04
  4.242700000E-02 -8.757499938E-04
  1.484900000E-02  1.242199991E-04
   s  14
  2.262859900E+04 -1.586999994E-05
  3.372318100E+03 -8.656999968E-05
  7.603504000E+02 -4.302199984E-04
  2.117404800E+02 -1.825079993E-03
  6.722346800E+01 -6.682749976E-03
  2.337217700E+01 -2.095119992E-02
  8.721373000E+00 -5.200308981E-02
  3.468091000E+00 -9.849176964E-02
  1.452144000E+00 -1.355800695E-01
  6.086150000E-01 -6.429875976E-02
  2.576860000E-01  3.125414989E-01
  1.041760000E-01  6.270468577E-01
  4.242700000E-02  2.110231492E-01
  1.484900000E-02 -4.104669985E-03
   p   9
  3.371018400E+01  1.069960000E-03
  8.057649500E+00  6.828550001E-03
  2.836471400E+00  2.119065000E-02
  1.099965700E+00  5.843696001E-02
  4.433964000E-01  2.020920800E-01
  1.822264000E-01  4.582953101E-01
  7.572410000E-02  3.691239601E-01
  3.168540000E-02  6.611471001E-02
  1.108990000E-02  1.405160000E-03
 
[MO]
Sym=     1a  
Ene=    -7.6517
Spin= Alpha
Occup=    1.00000
   1         1.00017485
   2         0.01971954
   3         0.00000000
   4         0.00000000
   5         0.00173699
   6        -0.00054772
   7        -0.00242156
   8         0.00000000
   9        -0.00000000
  10         0.00155579
Sym=     1a  
Ene=    -7.6206
Spin= Beta
Occup=    1.00000
   1         1.00003606
   2         0.01460282
   3         0.00000000
   4         0.00000000
   5         0.00158294
   6        -0.00022126
   7        -0.00115613
   8         0.00000000
   9        -0.00000000
  10         0.00050374
Sym=     2a  
Ene=    -4.7221
Spin= Alpha
Occup=    1.00000
   1        -0.00106714
   2         0.00054066
   3        -0.00000000
   4        -0.00000000
   5         0.00175476
   6         0.99970003
   7         0.00324544
   8         0.00000000
   9        -0.00000000
  10        -0.00190298
Sym=     2a  
Ene=    -4.7333
Spin= Beta
Occup=    1.00000
   1        -0.00068892
   2         0.00194498
   3        -0.00000000
   4        -0.00000000
   5         0.00183533
   6         0.99958301
   7         0.00265940
   8         0.00000000
   9        -0.00000000
  10         0.00024901
Sym=     3a  
Ene=    -0.6478
Spin= Alpha
Occup=    1.00000
   1        -0.05045925
   2         0.76515894
   3        -0.00000000
   4         0.00000000
   5         0.07972217
   6        -0.07395133
   7         0.20858736
   8         0.00000000
   9         0.00000000
  10        -0.17899846
Sym=     3a  
Ene=    -0.5295
Spin= Beta
Occup=    1.00000
   1        -0.05059660
   2         0.61478686
   3        -0.00000000
   4        -0.00000000
   5         0.30980263
   6        -0.09477197
   7         0.31328322
   8         0.00000000
   9         0.00000000
  10        -0.16277800
Sym=     4a  
Ene=    -0.3943
Spin= Alpha
Occup=    1.00000
   1        -0.03122375
   2        -0.42850634
   3         0.00000000
   4         0.00000000
   5         0.84545758
   6        -0.08784612
   7         0.22811085
   8         0.00000000
   9         0.00000000
  10        -0.17908317
Sym=     4a  
Ene=    -0.3039
Spin= Beta
Occup=    1.00000
   1         0.02680821
   2        -0.21341903
   3         0.00000000
   4         0.00000000
   5        -0.06746290
   6         0.02404504
   7         0.75714247
   8         0.00000000
   9         0.00000000
  10         0.64671276
Sym=     5a  
Ene=    -0.3338
Spin= Alpha
Occup=    1.00000
   1         0.00000000
   2         0.00000000
   3        -0.62114417
   4         0.58598389
   5        -0.00000000
   6         0.00000000
   7        -0.00000000
   8        -0.20035244
   9         0.18901136
  10         0.00000000
Sym=     5a  
Ene=     0.0182
Spin= Beta
Occup=    0.00000
   1         0.00000000
   2         0.00000000
   3         0.31818252
   4         0.33727415
   5         0.00000000
   6        -0.00000000
   7        -0.00000000
   8         0.49027397
   9         0.51969145
  10        -0.00000000
Sym=     6a  
Ene=     0.0063
Spin= Alpha
Occup=    0.00000
   1         0.00000000
   2         0.00000000
   3         0.45551805
   4         0.48285010
   5         0.00000000
   6        -0.00000000
   7        -0.00000000
   8         0.35807415
   9         0.37955936
  10         0.00000000
Sym=     6a  
Ene=     0.0435
Spin= Beta
Occup=    0.00000
   1         0.00000000
   2        -0.00000000
   3        -0.29403743
   4         0.27739325
   5         0.00000000
   6         0.00000000
   7         0.00000000
   8        -0.55453315
   9         0.52314344
  10         0.00000000
Sym=     7a  
Ene=     0.1044
Spin= Alpha
Occup=    0.00000
   1         0.00180319
   2        -0.19626789
   3         0.00000000
   4         0.00000000
   5        -0.34050359
   6         0.06174595
   7         0.91436022
   8        -0.00000000
   9        -0.00000000
  10         0.53027930
Sym=     7a  
Ene=     0.1531
Spin= Beta
Occup=    0.00000
   1         0.03995048
   2         0.70059082
   3        -0.00000000
   4         0.00000000
   5        -0.75810095
   6         0.05261545
   7        -0.07400358
   8         0.00000000
   9        -0.00000000
  10         0.36207367
Sym=     8a  
Ene=     0.1912
Spin= Alpha
Occup=    0.00000
   1         0.00000000
   2         0.00000000
   3        -0.50297101
   4         0.47450000
   5        -0.00000000
   6        -0.00000000
   7         0.00000000
   8         0.77373046
   9        -0.72993293
  10         0.00000000
Sym=     8a  
Ene=     0.2556
Spin= Beta
Occup=    0.00000
   1        -0.00000000
   2        -0.00000000
   3        -0.68358413
   4        -0.72460063
   5        -0.00000000
   6         0.00000000
   7         0.00000000
   8         0.57285147
   9         0.60722378
  10        -0.00000000
Sym=     9a  
Ene=     0.2439
Spin= Alpha
Occup=    0.00000
   1        -0.00000000
   2        -0.00000000
   3        -0.60085829
   4        -0.63691106
   5        -0.00000000
   6         0.00000000
   7         0.00000000
   8         0.66355880
   9         0.70337374
  10        -0.00000000
Sym=     9a  
Ene=     0.2886
Spin= Beta
Occup=    0.00000
   1         0.00000000
   2         0.00000000
   3        -0.74319709
   4         0.70112792
   5         0.00000000
   6        -0.00000000
   7        -0.00000000
   8         0.57558049
   9        -0.54299938
  10         0.00000000
Sym=    10a  
Ene=     0.5779
Spin= Alpha
Occup=    0.00000
   1         0.26358008
   2         1.74299051
   3        -0.00000000
   4        -0.00000000
   5         1.07286124
   6        -0.28237599
   7        -1.48684127
   8         0.00000000
   9         0.00000000
  10         1.52438062
Sym=    10a  
Ene=     0.5876
Spin= Beta
Occup=    0.00000
   1         0.26153837
   2         1.71214980
   3        -0.00000000
   4        -0.00000000
   5         1.14581078
   6        -0.29093029
   7        -1.57016406
   8         0.00000000
   9         0.00000000
  10         1.44679575
