   This run of MOLCAS is using the pymolcas driver

                             OPE
                             OPE          NMOL  CASOP  ENMOLC A   SO
                 OPE        NMOLC        AS  OP EN  MO LC     AS  OP
                OPENM       OL CA        SO  PE NM  OL CA     SOP EN
                OP EN      MO   LC       AS  OP ENMOL  CASO   PENMOL
                OP  EN     MO   LC       AS  OP EN     MO     LC ASO
               OP   E  NMOL  C  AS       OP  EN MO     LC     AS  OP
               OP  E   NMO   LC AS        OPEN  MO     LCASOP EN   M
               O  PEN   MO  LCA  SO
            OPE   NMO   L   CAS    OP
        OPENMOL  CASOP     ENMOL   CASOPE
     OPENMOLCA   SOPENMOLCASOPEN   MOLCASOPE
    OPENMOLCAS   OP           EN   MOL    CAS
    OPENMOLCAS       OP  ENM        O     LCA
    OPENMOLCAS    OPEN  MOLCASO     P  E  NMO
    OPENMOLCAS     OP               E  N  MOL
    OPENMOLCA   SO           PENM   O  L  CAS    OPEN    MO    LCAS
    OPENMOLCA   SOP           ENM   O  L  CAS   OP  EN  MOLC  AS   O
    OPENMOLCA   SOPE           NM      O  LCA   S      OP  EN MO
    OPENMOLC                AS         O  PEN   M      OL  CA  SOPE
    OPENMO        LCASOPE  NMOL        C  ASO   P      ENMOLC     AS
    OPE     NMO      LCA  SO     P     E   NM   OL  CA SO  PE N   MO
          OPENMOLCA            SOPE   NMO        LCAS  O    P  ENMO
     OPENMOLCASOPENMOLCASOPENMOLCASOPENMOLCA
        OPENMOLCASOPENMOLCASOPENMOLCASOPE
            OPENMOLCASOPENMOLCASOPENM
               OPENMOLCASOPENMOLCA        version: 1d1d16313-dirty
                   OPENMOLCASO
                       OPE                tag:

 OpenMolcas is free software; you can redistribute it and/or modify it
 under the terms of the GNU Lesser General Public License version 2.1.
 OpenMolcas is distributed in the hope that it will be useful, but it
 is provided "as is" and without any express or implied warranties.
 For more details see the full text of the license in the file
 LICENSE or in <http://www.gnu.org/licenses/>.

                 Copyright (C) The OpenMolcas Authors
           For the author list and the recommended citation,
                   consult the file CONTRIBUTORS.md

           *************************************************
           * pymolcas version py2.28                       *
           *   build c4a6d18ded8cb6cad61d2372a9abd97c      *
           *   (after the EMIL interpreter by V. Veryazov) *
           *************************************************

configuration info
------------------
C Compiler ID: IntelLLVM
C flags: -std=gnu99
Fortran Compiler ID: IntelLLVM
Fortran flags: -standard-semantics -fltconsistency -fpp -i8 -heap-arrays
Definitions: _MOLCAS_;_I8_;_LINUX_
Parallel: OFF (GA=OFF)


   --------------------------------------------------------------------------------
  |
  |              Project: ozone_143.75
  |       Submitted from: /home/grierjones/DDCASPT2/ozone/ANO-RCC-VDZP/ozone_143.75
  |         Scratch area: /tmp/ozone_143.75
  |      Save outputs to: /home/grierjones/DDCASPT2/ozone/ANO-RCC-VDZP/ozone_143.75
  |               Molcas: /home/grierjones/Test/build
  |
  | Scratch area is empty
  |
  |       MOLCAS_DRIVER = /usr/local/pymolcas
  | MOLCAS_KEEP_WORKDIR = NO
  |  MOLCAS_NEW_WORKDIR = YES
  |       MOLCAS_NPROCS = 1
  |        MOLCAS_PRINT = NORMAL
  |       MOLCAS_SOURCE = /home/grierjones/Test
  |    MOLCAS_STRUCTURE = 0
  |
   --------------------------------------------------------------------------------

++ ---------   Input file   ---------

&GATEWAY
coord=ozone_143.75.xyz
Basis = ANO-RCC-VDZP
Group = nosymm
Expert
End of Input

&SEWARD
End of Input

&SCF

>>> COPY $WorkDir/ozone_143.75.scf.h5 $CurrDir/

&RASSCF
Title= RASSCF
FileOrb
/home/grierjones/DDCASPT2/ozone/ANO-RCC-VDZP/ozone_143.50/ozone_143.50.RasOrb
NACTEL
4 0 0
Inactive
10
RAS2
3
Symmetry
1
Spin
1
orblisting
all
ITERation
300 200

>>> COPY $WorkDir/ozone_143.75.rasscf.h5 $CurrDir/

>>> COPY $WorkDir/GMJ_Fock_MO.csv $CurrDir/ozone_143.75.GMJ_Fock_MO.csv

>>> COPY $WorkDir/GMJ_PT2_Fock_MO.csv $CurrDir/ozone_143.75.GMJ_PT2_Fock_MO.csv

&MOTRA
Frozen=0
LUMORB

>>> COPY $WorkDir/GMJ_one_int_indx.csv $CurrDir/ozone_143.75.GMJ_one_int_indx.csv

>>> COPY $WorkDir/GMJ_one_int.csv $CurrDir/ozone_143.75.GMJ_one_int.csv

>>> COPY $WorkDir/GMJ_two_int_indx.csv $CurrDir/ozone_143.75.GMJ_two_int_indx.csv

>>> COPY $WorkDir/GMJ_two_int.csv $CurrDir/ozone_143.75.GMJ_two_int.csv

&CASPT2
Frozen
0
MAXITER
50

>>> FOREACH i IN (B,E,F,G,H)

  >>> FOREACH j IN (P,M)

    >>> IF (-FILE GMJ_e2_${i}_${j}.csv)

      >>> COPY $WorkDir/GMJ_RHS_${i}_${j}.csv $CurrDir/GMJ_RHS_${i}_${j}.csv

      >>> COPY $WorkDir/GMJ_IVECW_${i}_${j}.csv $CurrDir/GMJ_IVECW_${i}_${j}.csv

      >>> COPY $WorkDir/GMJ_IVECX_${i}_${j}.csv $CurrDir/GMJ_IVECX_${i}_${j}.csv

      >>> COPY $WorkDir/GMJ_IVECC2_${i}_${j}.csv $CurrDir/GMJ_IVECC2_${i}_${j}.csv

      >>> COPY $WorkDir/GMJ_e2_${i}_${j}.csv $CurrDir/GMJ_e2_${i}_${j}.csv

    >>> END IF

  >>> END FOREACH

>>> END FOREACH

>>> FOREACH i IN (A,C,D)

  >>> IF (-FILE GMJ_e2_$i.csv)

    >>> COPY $WorkDir/GMJ_RHS_$i.csv $CurrDir/GMJ_RHS_$i.csv

    >>> COPY $WorkDir/GMJ_IVECW_$i.csv $CurrDir/GMJ_IVECW_$i.csv

    >>> COPY $WorkDir/GMJ_IVECX_$i.csv $CurrDir/GMJ_IVECX_$i.csv

    >>> COPY $WorkDir/GMJ_IVECC2_$i.csv $CurrDir/GMJ_IVECC2_$i.csv

    >>> COPY $WorkDir/GMJ_e2_$i.csv $CurrDir/GMJ_e2_$i.csv

  >>> END IF

>>> END FOREACH

-- ----------------------------------

--- Start Module: gateway at Fri Jan 24 16:35:09 2025 ---
 
()()()()()()()()()()()()()()()()()()()()()()()()()()()()()()()()()()()()()()()()()()()()()()()()()()

                                              &GATEWAY

                                   only a single process is used
                       available to each process: 2.0 GB of memory, 1 thread?
()()()()()()()()()()()()()()()()()()()()()()()()()()()()()()()()()()()()()()()()()()()()()()()()()()
 
 ###############################################################################
 ###############################################################################
 ###                                                                         ###
 ###                                                                         ###
 ###                                                                         ###
 ###    WARNING: EXPERT option is ON!                                        ###
 ###                                                                         ###
 ###                                                                         ###
 ###############################################################################
 ###############################################################################
 
++    Symmetry information:
      ---------------------
 
                    Character Table for C1 
 
                             E  
                    a        1  x, y, xy, Rz, z, xz, Ry, yz, Rx, I
--
 
 
++    Basis set information:
      ----------------------
 
 
      Basis set label: O.ANO-RCC...3S2P1D.
 
      Electronic valence basis set:
      ------------------
      Associated Effective Charge   8.000000 au
      Associated Actual Charge      8.000000 au
      Nuclear Model: Point charge
 
      Shell  nPrim  nBasis  Cartesian Spherical Contaminant
         s      14       3        X                  
         p       9       2        X                  
         d       4       1                 X         
--
 
 
++    Molecular structure info:
      -------------------------
 
                    ************************************************ 
                    **** Cartesian Coordinates / Bohr, Angstrom **** 
                    ************************************************ 
 
     Center  Label                x              y              z                     x              y              z
        1      O1               0.751306       2.295235       0.000000              0.397574       1.214586       0.000000
        2      O2               0.000000       0.000000       0.000000              0.000000       0.000000       0.000000
        3      O3               0.751306      -2.295235       0.000000              0.397574      -1.214586       0.000000
 
                    *************************************** 
                    *    InterNuclear Distances / Bohr    * 
                    *************************************** 
 
               1 O1            2 O2            3 O3    
    1 O1       0.000000
    2 O2       2.415070        0.000000
    3 O3       4.590470        2.415070        0.000000
 
                    ******************************************* 
                    *    InterNuclear Distances / Angstrom    * 
                    ******************************************* 
 
               1 O1            2 O2            3 O3    
    1 O1       0.000000
    2 O2       1.278000        0.000000
    3 O3       2.429172        1.278000        0.000000
 
                    ************************************** 
                    *    Valence Bond Angles / Degree    * 
                    ************************************** 
                          Atom centers                 Phi
                      1 O1       2 O2       3 O3       143.75
--
 
 
            Nuclear Potential Energy             66.94245871 au
 
 ###############################################################################
 ###############################################################################
 ###                                                                         ###
 ###                                                                         ###
 ###    There were warnings during the execution                             ###
 ###    Please, check the output with care!                                  ###
 ###                                                                         ###
 ###                                                                         ###
 ###############################################################################
 ###############################################################################
--- Stop Module: gateway at Fri Jan 24 16:35:10 2025 /rc=_RC_ALL_IS_WELL_ ---
*** files: xmldump
    saved to directory /home/grierjones/DDCASPT2/ozone/ANO-RCC-VDZP/ozone_143.75

--- Start Module: seward at Fri Jan 24 16:35:10 2025 ---
 
()()()()()()()()()()()()()()()()()()()()()()()()()()()()()()()()()()()()()()()()()()()()()()()()()()

                                              &SEWARD

                                   only a single process is used
                       available to each process: 2.0 GB of memory, 1 thread?
()()()()()()()()()()()()()()()()()()()()()()()()()()()()()()()()()()()()()()()()()()()()()()()()()()
 
 ###############################################################################
 ###############################################################################
 ###                                                                         ###
 ###                                                                         ###
 ###                                                                         ###
 ###    WARNING: EXPERT option is ON!                                        ###
 ###                                                                         ###
 ###                                                                         ###
 ###############################################################################
 ###############################################################################
               SEWARD will generate:
                  Multipole Moment integrals up to order  2
                  Kinetic Energy integrals
                  Nuclear Attraction integrals (point charge)
                  One-Electron Hamiltonian integrals
                  Velocity integrals
                  Relativistic Douglas-Kroll-Hess integrals:
                    - Parametrization         : EXP
                    - DKH order of Hamiltonian: 2
                    - DKH order of Properties : 0
                         - multipole moment operators
                         - electric potential operators
                         - contact operators
                  Atomic mean-field integrals
                  Two-Electron Repulsion integrals
 
                   Integrals are discarded if absolute value <: 0.10E-13
                   Integral cutoff threshold is set to       <: 0.10E-15
 
            Nuclear Potential Energy             66.94245871 au
 
 
      Basis set specifications :
      Symmetry species         a  
      Basis functions           42
 
 
  Input file to MOLDEN was generated!
 
 ###############################################################################
 ###############################################################################
 ###                                                                         ###
 ###                                                                         ###
 ###    There were warnings during the execution                             ###
 ###    Please, check the output with care!                                  ###
 ###                                                                         ###
 ###                                                                         ###
 ###############################################################################
 ###############################################################################
forrtl: warning (525): IEEE_DIVIDE_BY_ZERO is signaling
forrtl: warning (526): IEEE_INVALID is signaling
forrtl: warning (528): IEEE_UNDERFLOW is signaling
--- Stop Module: seward at Fri Jan 24 16:35:11 2025 /rc=_RC_ALL_IS_WELL_ ---
*** files: ozone_143.75.GssOrb ozone_143.75.guessorb.h5 ozone_143.75.guessorb.molden xmldump
    saved to directory /home/grierjones/DDCASPT2/ozone/ANO-RCC-VDZP/ozone_143.75
--- Module seward spent 1 second ---

*** symbolic link created: INPORB -> ozone_143.75.GssOrb
--- Start Module: scf at Fri Jan 24 16:35:11 2025 ---
 
()()()()()()()()()()()()()()()()()()()()()()()()()()()()()()()()()()()()()()()()()()()()()()()()()()

                                                &SCF

                                   only a single process is used
                       available to each process: 2.0 GB of memory, 1 thread?
()()()()()()()()()()()()()()()()()()()()()()()()()()()()()()()()()()()()()()()()()()()()()()()()()()
 
++    Input section:
      --------------
 
      Header of the integral files:
      
       Integrals generated by seward 4.2.0  , Fri Jan 24 16:35:10 2025
 
 
      Cartesian coordinates in Angstrom:
      -----------------------------------------------------
      No.  Label        X            Y            Z        
      -----------------------------------------------------
       1   O1         0.39757400   1.21458600   0.00000000
       2   O2         0.00000000   0.00000000   0.00000000
       3   O3         0.39757400  -1.21458600   0.00000000
      -----------------------------------------------------
      Nuclear repulsion energy =   66.94245871
--
 
++    Orbital specifications:
      -----------------------
 
      Symmetry species               1
                                     a
      Frozen orbitals                0
      Occupied orbitals             12
      Secondary orbitals            30
      Deleted orbitals               0
      Total number of orbitals      42
      Number of basis functions     42
--
 
      Molecular charge                           0.000
 
++    Optimization specifications:
      ----------------------------
 
      SCF Algorithm: Conventional
      Minimized density differences are used
      Number of density matrices in core                5
      Maximum number of NDDO SCF iterations           400
      Maximum number of HF SCF iterations             400
      Threshold for SCF energy change            0.10E-08
      Threshold for density matrix               0.10E-03
      Threshold for Fock matrix                  0.15E-03
      Threshold for linear dependence            0.10E-08
      Threshold at which DIIS is turned on       0.15E+00
      Threshold at which QNR/C2DIIS is turned on 0.75E-01
      Threshold for Norm(delta) (QNR/C2DIIS)     0.20E-04
      DIIS extrapolation of the SCF procedure
      All orbitals punched on: SCFORB
--
 
      Input vectors read from INPORB
      Orbital file label: *Guess orbitals
 
 
++ Convergence information
                                   SCF        iterations: Energy and convergence statistics
 
Iter     Tot. SCF        One-elec.       Two-elec.     Energy      Max Dij or  Max Fij      DNorm      TNorm      AccCon     Time
         Energy          Energy          Energy        Change      Delta Norm                                                in Sec.
   1  -223.916131779  -437.600425122   146.741834636   0.00E+00    0.59E+00*   0.26E+00*    0.73E+01   0.75E+02   None         0.
   2  -224.132138894  -443.615777493   152.541179893  -0.22E+00*   0.26E+00*   0.17E+00*    0.23E+01   0.77E+02   EDIIS        0.
   3  -224.410428844  -441.085503024   149.732615474  -0.28E+00*   0.22E+00*   0.95E-01*    0.77E+00   0.76E+02   EDIIS        0.
   4  -224.413713843  -441.876180137   150.520007587  -0.33E-02*   0.21E-01*   0.48E-01*    0.22E+00   0.76E+02   EDIIS        0.
   5  -224.451853870  -441.440708397   150.046395820  -0.38E-01*   0.11E-01*   0.46E-02*    0.43E-01   0.76E+02   c2DIIS       0.
   6  -224.452100361  -441.468415240   150.073856172  -0.25E-03*   0.49E-02*   0.28E-02*    0.10E-01   0.76E+02   QNRc2DIIS    0.
   7  -224.452171810  -441.471317645   150.076687128  -0.71E-04*   0.11E-01*   0.23E-02*    0.41E-02   0.76E+02   QNRc2DIIS    0.
   8  -224.452222701  -441.464416759   150.069735351  -0.51E-04*   0.14E-02*   0.67E-03*    0.19E-02   0.76E+02   QNRc2DIIS    0.
   9  -224.452227885  -441.470877263   150.076190671  -0.52E-05*   0.75E-03*   0.21E-03*    0.95E-03   0.76E+02   QNRc2DIIS    0.
  10  -224.452228661  -441.468780998   150.074093630  -0.78E-06*   0.13E-03*   0.40E-04     0.81E-03   0.76E+02   QNRc2DIIS    0.
  11  -224.452228691  -441.470094707   150.075407309  -0.30E-07*   0.61E-04*   0.19E-04     0.14E-03   0.76E+02   QNRc2DIIS    0.
  12  -224.452228697  -441.469932226   150.075244823  -0.59E-08*   0.31E-04*   0.73E-05     0.32E-04   0.76E+02   QNRc2DIIS    0.
  13  -224.452228698  -441.469876851   150.075189446  -0.96E-09    0.60E-05    0.17E-05     0.14E-03   0.76E+02   QNRc2DIIS    0.
 
       Convergence after 13 Macro Iterations
--
 
 *****************************************************************************************************************************
 *                                                                                                                           *
 *                                             SCF/KS-DFT Program, Final results                                             *
 *                                                                                                                           *
 *                                                                                                                           *
 *                                                                                                                           *
 *                                                       Final Results                                                       *
 *                                                                                                                           *
 *****************************************************************************************************************************
 
::    Total SCF energy                               -224.4522286979
      One-electron energy                            -441.4698768508
      Two-electron energy                             150.0751894462
      Nuclear repulsion energy                         66.9424587066
      Kinetic energy (interpolated)                   225.4500255357
      Virial theorem                                    0.9955741995
      Total spin, S(S+1)                                0.0000000000
      Total spin, S                                     0.0000000000
      Max non-diagonal density matrix element           0.0000058142
      Max non-diagonal Fock matrix element              0.0000012218
 
 
      All orbitals with orbital energies smaller than  E(LUMO)+0.5 are printed
 
++    Molecular orbitals:
      -------------------
 
      Title: SCF orbitals

      Molecular orbitals for symmetry species 1: a  
 
          Orbital            1         2         3         4         5         6         7         8         9        10    
          Energy          -20.8913  -20.7314  -20.7314   -1.7313   -1.4655   -1.0790   -0.8357   -0.8053   -0.7702   -0.5985
          Occ. No.          2.0000    2.0000    2.0000    2.0000    2.0000    2.0000    2.0000    2.0000    2.0000    2.0000
 
        1 O1     1s         0.0021   -0.7072    0.7072   -0.0151    0.0104    0.0120   -0.0080   -0.0188   -0.0000    0.0057
        2 O1     2s        -0.0001   -0.0007    0.0005    0.3221   -0.5713    0.6299   -0.1708   -0.4058   -0.0000    0.0684
        3 O1     3s        -0.0001   -0.0001   -0.0001   -0.0229    0.0132    0.0157   -0.0151   -0.0267    0.0000    0.0071
        4 O1     2px        0.0001    0.0003   -0.0002   -0.0292    0.0437    0.0789    0.2677   -0.2608   -0.0000   -0.6328
        5 O1     3px        0.0003    0.0001    0.0001    0.0095   -0.0059   -0.0131   -0.0246    0.0157    0.0000   -0.0058
        6 O1     2py       -0.0000    0.0008   -0.0010   -0.1055    0.0872    0.1430   -0.2365   -0.3529   -0.0000    0.3221
        7 O1     3py        0.0001   -0.0005    0.0003    0.0247   -0.0176   -0.0214    0.0221    0.0288   -0.0000    0.0010
        8 O1     2pz        0.0000   -0.0000    0.0000    0.0000    0.0000   -0.0000    0.0000   -0.0000    0.3916   -0.0000
        9 O1     3pz        0.0000    0.0000    0.0000    0.0000    0.0000    0.0000   -0.0000    0.0000   -0.0243    0.0000
       10 O1     3d2-      -0.0000   -0.0000    0.0000    0.0084   -0.0104   -0.0088   -0.0110    0.0217    0.0000    0.0088
       11 O1     3d1-      -0.0000   -0.0000   -0.0000   -0.0000    0.0000    0.0000   -0.0000    0.0000   -0.0293    0.0000
       12 O1     3d0        0.0001    0.0001   -0.0001   -0.0091    0.0088    0.0054   -0.0070   -0.0159    0.0000    0.0050
       13 O1     3d1+      -0.0000    0.0000    0.0000   -0.0000    0.0000    0.0000   -0.0000    0.0000   -0.0092    0.0000
       14 O1     3d2+       0.0000   -0.0002    0.0001   -0.0165    0.0111    0.0094   -0.0224   -0.0211    0.0000    0.0160
       15 O2     1s         1.0001    0.0000   -0.0032   -0.0213   -0.0000   -0.0157   -0.0051   -0.0000   -0.0000    0.0000
       16 O2     2s         0.0004    0.0000   -0.0008    0.6648    0.0000   -0.6359   -0.0608   -0.0000   -0.0000   -0.0000
       17 O2     3s        -0.0004    0.0000   -0.0006   -0.0420    0.0000   -0.0092   -0.0074   -0.0000    0.0000    0.0000
       18 O2     2px        0.0007    0.0000   -0.0002    0.0812   -0.0000    0.1625    0.7190   -0.0000   -0.0000    0.0000
       19 O2     3px       -0.0009    0.0000   -0.0003   -0.0196    0.0000   -0.0186   -0.0585    0.0000    0.0000    0.0000
       20 O2     2py        0.0000    0.0009    0.0000   -0.0000   -0.3306   -0.0000    0.0000    0.5213    0.0000   -0.1299
       21 O2     3py        0.0000    0.0011    0.0000    0.0000    0.0788    0.0000   -0.0000   -0.0818   -0.0000    0.0045
       22 O2     2pz       -0.0000   -0.0000   -0.0000    0.0000    0.0000   -0.0000    0.0000   -0.0000    0.6787    0.0000
       23 O2     3pz       -0.0000    0.0000    0.0000    0.0000   -0.0000   -0.0000    0.0000   -0.0000   -0.0230    0.0000
       24 O2     3d2-       0.0000    0.0002    0.0000   -0.0000   -0.0300   -0.0000    0.0000    0.0200    0.0000   -0.0410
       25 O2     3d1-       0.0000   -0.0000   -0.0000   -0.0000    0.0000    0.0000    0.0000   -0.0000    0.0000   -0.0000
       26 O2     3d0       -0.0003   -0.0000    0.0003   -0.0178    0.0000   -0.0035   -0.0134    0.0000    0.0000    0.0000
       27 O2     3d1+       0.0000    0.0000   -0.0000   -0.0000    0.0000    0.0000    0.0000   -0.0000    0.0248    0.0000
       28 O2     3d2+      -0.0000   -0.0000    0.0003   -0.0233    0.0000   -0.0018    0.0166   -0.0000   -0.0000    0.0000
       29 O3     1s         0.0021    0.7072    0.7072   -0.0151   -0.0104    0.0120   -0.0080    0.0188    0.0000   -0.0057
       30 O3     2s        -0.0001    0.0007    0.0005    0.3221    0.5713    0.6299   -0.1708    0.4058    0.0000   -0.0684
       31 O3     3s        -0.0001    0.0001   -0.0001   -0.0229   -0.0132    0.0157   -0.0151    0.0267    0.0000   -0.0071
       32 O3     2px        0.0001   -0.0003   -0.0002   -0.0292   -0.0437    0.0789    0.2677    0.2608    0.0000    0.6328
       33 O3     3px        0.0003   -0.0001    0.0001    0.0095    0.0059   -0.0131   -0.0246   -0.0157    0.0000    0.0058
       34 O3     2py        0.0000    0.0008    0.0010    0.1055    0.0872   -0.1430    0.2365   -0.3529   -0.0000    0.3221
       35 O3     3py       -0.0001   -0.0005   -0.0003   -0.0247   -0.0176    0.0214   -0.0221    0.0288    0.0000    0.0010
       36 O3     2pz        0.0000   -0.0000   -0.0000    0.0000    0.0000   -0.0000    0.0000   -0.0000    0.3916    0.0000
       37 O3     3pz       -0.0000    0.0000   -0.0000   -0.0000   -0.0000    0.0000   -0.0000    0.0000   -0.0243   -0.0000
       38 O3     3d2-       0.0000   -0.0000   -0.0000   -0.0084   -0.0104    0.0088    0.0110    0.0217    0.0000    0.0088
       39 O3     3d1-       0.0000   -0.0000   -0.0000    0.0000    0.0000    0.0000    0.0000   -0.0000    0.0293    0.0000
       40 O3     3d0        0.0001   -0.0001   -0.0001   -0.0091   -0.0088    0.0054   -0.0070    0.0159    0.0000   -0.0050
       41 O3     3d1+      -0.0000   -0.0000    0.0000    0.0000    0.0000   -0.0000   -0.0000    0.0000   -0.0092   -0.0000
       42 O3     3d2+       0.0000    0.0002    0.0001   -0.0165   -0.0111    0.0094   -0.0224    0.0211    0.0000   -0.0160
 
          Orbital           11        12        13        14        15        16    
          Energy           -0.5140   -0.5062   -0.0431    0.1948    0.2862    0.4496
          Occ. No.          2.0000    2.0000    0.0000    0.0000    0.0000    0.0000
 
        1 O1     1s         0.0040    0.0000    0.0000    0.0377   -0.1520   -0.0353
        2 O1     2s         0.0189   -0.0000    0.0000    0.4084   -1.1229   -0.2258
        3 O1     3s         0.0186    0.0000    0.0000    0.0529   -0.3863   -0.1475
        4 O1     2px        0.6703    0.0000    0.0000   -0.0527    0.3076   -0.0511
        5 O1     3px        0.0248    0.0000    0.0000   -0.0218    0.2257    0.4125
        6 O1     2py        0.0239    0.0000    0.0000   -0.8173    0.5610    0.0960
        7 O1     3py       -0.0217   -0.0000   -0.0000   -0.2554    0.5873    0.2813
        8 O1     2pz        0.0000   -0.7064    0.6599   -0.0000    0.0000    0.0000
        9 O1     3pz        0.0000   -0.0409    0.1291    0.0000    0.0000   -0.0000
       10 O1     3d2-      -0.0069   -0.0000    0.0000    0.0069   -0.0172    0.0129
       11 O1     3d1-      -0.0000    0.0241    0.0104    0.0000    0.0000   -0.0000
       12 O1     3d0        0.0043    0.0000    0.0000    0.0013    0.0163    0.0135
       13 O1     3d1+      -0.0000    0.0069    0.0042    0.0000    0.0000   -0.0000
       14 O1     3d2+       0.0065    0.0000    0.0000    0.0119    0.0233    0.0426
       15 O2     1s         0.0194    0.0000    0.0000   -0.1353   -0.0000    0.0945
       16 O2     2s         0.2482    0.0000    0.0000   -1.1919   -0.0000    0.5618
       17 O2     3s         0.0354    0.0000    0.0000   -0.2788   -0.0000    0.2444
       18 O2     2px       -0.5928   -0.0000   -0.0000   -0.5414   -0.0000   -0.0291
       19 O2     3px       -0.0260   -0.0000   -0.0000   -0.1565   -0.0000    0.5480
       20 O2     2py        0.0000    0.0000   -0.0000   -0.0000    1.3055   -0.0000
       21 O2     3py        0.0000    0.0000   -0.0000   -0.0000    1.0140   -0.0000
       22 O2     2pz        0.0000   -0.0000   -0.8642   -0.0000    0.0000    0.0000
       23 O2     3pz        0.0000   -0.0000   -0.1467   -0.0000   -0.0000   -0.0000
       24 O2     3d2-      -0.0000    0.0000   -0.0000   -0.0000    0.0390    0.0000
       25 O2     3d1-       0.0000   -0.0541    0.0000   -0.0000   -0.0000    0.0000
       26 O2     3d0        0.0191    0.0000    0.0000   -0.0300    0.0000   -0.0518
       27 O2     3d1+       0.0000   -0.0000   -0.0018    0.0000    0.0000    0.0000
       28 O2     3d2+       0.0321    0.0000   -0.0000   -0.0474   -0.0000   -0.1097
       29 O3     1s         0.0040    0.0000   -0.0000    0.0377    0.1520   -0.0353
       30 O3     2s         0.0189    0.0000   -0.0000    0.4084    1.1229   -0.2258
       31 O3     3s         0.0186    0.0000    0.0000    0.0529    0.3863   -0.1475
       32 O3     2px        0.6703    0.0000    0.0000   -0.0527   -0.3076   -0.0511
       33 O3     3px        0.0248    0.0000   -0.0000   -0.0218   -0.2257    0.4125
       34 O3     2py       -0.0239   -0.0000    0.0000    0.8173    0.5610   -0.0960
       35 O3     3py        0.0217    0.0000   -0.0000    0.2554    0.5873   -0.2813
       36 O3     2pz       -0.0000    0.7064    0.6599    0.0000   -0.0000    0.0000
       37 O3     3pz       -0.0000    0.0409    0.1291    0.0000   -0.0000   -0.0000
       38 O3     3d2-       0.0069    0.0000    0.0000   -0.0069   -0.0172   -0.0129
       39 O3     3d1-      -0.0000    0.0241   -0.0104    0.0000    0.0000    0.0000
       40 O3     3d0        0.0043    0.0000   -0.0000    0.0013   -0.0163    0.0135
       41 O3     3d1+       0.0000   -0.0069    0.0042    0.0000   -0.0000   -0.0000
       42 O3     3d2+       0.0065    0.0000   -0.0000    0.0119   -0.0233    0.0426
--
 
 
++    Molecular charges:
      ------------------
 
      Mulliken charges per centre and basis function type
      ---------------------------------------------------
 
                O1      O2      O3    
      1s       2.0003  2.0001  2.0003
      2s       1.9285  1.7361  1.9285
      2px      1.9319  1.7340  1.9319
      2pz      1.4030  1.1484  1.4030
      2py      0.8769  1.0006  0.8769
      3s      -0.0096 -0.0187 -0.0096
      3px     -0.0173 -0.0310 -0.0173
      3pz     -0.0121 -0.0080 -0.0121
      3py     -0.0056  0.0237 -0.0056
      3d2+     0.0184  0.0319  0.0184
      3d1+     0.0013  0.0045  0.0013
      3d0      0.0056  0.0076  0.0056
      3d1-     0.0127  0.0453  0.0127
      3d2-     0.0103  0.0371  0.0103
      Total    8.1442  7.7117  8.1442
 
      N-E     -0.1442  0.2883 -0.1442
 
      Total electronic charge=   24.000000
 
      Total            charge=   -0.000000
--
 
 
  Input file to MOLDEN was generated!
 
 
++    Static properties:
      ------------------
 
 
      LoProp Charges per center
 

                   O1       O2       O3    
      Nuclear      8.0000   8.0000   8.0000
      Electronic  -8.1888  -7.6225  -8.1888
 
      Total       -0.1888   0.3775  -0.1888
--
 
 
++    Natural Bond Order analysis
      ---------------------------
      Based on LoProp computed density
      -------------------------------------------------------------------------------------
      Atom A       Atom B       Bond Order | Atom A       Atom B       Bond Order
        O1           O2             2.000  |   O2           O3             2.000
      -------------------------------------------------------------------------------------
      NBO located     12.000 core electrons.
      NBO located      3.963 lone pair electrons.
      NBO located      8.000 electrons involved in    2 bonds.
      The remaining    0.037 electrons are to be considered as diffuse
--
 
 
++    Molecular properties:
      ---------------------
 
      Charge (e):
                      =   -0.0000
      Dipole Moment (Debye):
      Origin of the operator (Ang)=    0.0000    0.0000    0.0000
                   X= -2.8510E-01               Y=  5.4996E-11               Z=  2.6264E-15           Total=  2.8510E-01
      Quadrupole Moment (Debye*Ang):
      Origin of the operator (Ang)=    0.2650    0.0000    0.0000
                  XX= -1.6443E+01              XY=  7.0840E-12              XZ=  8.9240E-14              YY= -1.7346E+01
                  YZ=  6.0830E-14              ZZ= -1.5179E+01
      In traceless form (Debye*Ang)
                  XX= -1.8066E-01              XY=  1.0626E-11              XZ=  1.3386E-13              YY= -1.5343E+00
                  YZ=  9.1244E-14              ZZ=  1.7149E+00
--
 
 
  Input file to MOLDEN was generated!
 
 ###############################################################################
 ###############################################################################
 ###                                                                         ###
 ###                                                                         ###
 ###    RunFile label nBas                                                   ###
 ###    was used       78 times                                              ###
 ###                                                                         ###
 ###                                                                         ###
 ###############################################################################
 ###############################################################################
forrtl: warning (528): IEEE_UNDERFLOW is signaling
--- Stop Module: scf at Fri Jan 24 16:35:11 2025 /rc=_RC_ALL_IS_WELL_ ---
*** files: ozone_143.75.LprOrb ozone_143.75.LoProp.molden ozone_143.75.scf.molden ozone_143.75.ScfOrb ozone_143.75.scf.h5 xmldump
    saved to directory /home/grierjones/DDCASPT2/ozone/ANO-RCC-VDZP/ozone_143.75

>>> COPY /tmp/ozone_143.75/ozone_143.75.scf.h5 /home/grierjones/DDCASPT2/ozone/ANO-RCC-VDZP/ozone_143.75/

*** symbolic link created: INPORB -> ozone_143.75.ScfOrb
--- Start Module: rasscf at Fri Jan 24 16:35:11 2025 ---
 
()()()()()()()()()()()()()()()()()()()()()()()()()()()()()()()()()()()()()()()()()()()()()()()()()()

                                              &RASSCF

                                   only a single process is used
                       available to each process: 2.0 GB of memory, 1 thread?
()()()()()()()()()()()()()()()()()()()()()()()()()()()()()()()()()()()()()()()()()()()()()()()()()()
 
 
 *************** WARNING ****************
 ###############################################################################
 ###############################################################################
 ###                                                                         ###
 ###                                                                         ###
 ###    Too many macro-iterations.                                           ###
 ###                                                                         ###
 ###                                                                         ###
 ###############################################################################
 ###############################################################################
 Too many macro-iterations requested.
 Reset to maximum, new MAXIT=     200
 ****************************************
 
 *************** WARNING ****************
 ###############################################################################
 ###############################################################################
 ###                                                                         ###
 ###                                                                         ###
 ###    Too many SX-iterations.                                              ###
 ###                                                                         ###
 ###                                                                         ###
 ###############################################################################
 ###############################################################################
 Too many SX-iterations requested.
 Reset to maximum, new ITMAX=     100
 ****************************************
 
      Header of the ONEINT file:
      --------------------------
      
      Integrals generated by seward 4.2.0  , Fri Jan 24 16:35:10 2025
 
 
      OrdInt status: non-squared
 
 
      Cartesian coordinates in Angstrom:
      -----------------------------------------------------
      No.  Label        X            Y            Z        
      -----------------------------------------------------
       1   O1         0.39757400   1.21458600   0.00000000
       2   O2         0.00000000   0.00000000   0.00000000
       3   O3         0.39757400  -1.21458600   0.00000000
      -----------------------------------------------------
      Nuclear repulsion energy =   66.94245871
 
++    Wave function specifications:
      -----------------------------
 
      Number of closed shell electrons          20
      Number of electrons in active shells       4
      Max number of holes in RAS1 space          0
      Max nr of electrons in RAS3 space          0
      Number of inactive orbitals               10
      Number of active orbitals                  3
      Number of secondary orbitals              29
      Spin quantum number                      0.0
      State symmetry                             1
--
 
++    Orbital specifications:
      -----------------------
 
      Symmetry species                           1
                                                 a
      Frozen orbitals                            0
      Inactive orbitals                         10
      Active orbitals                            3
      RAS1 orbitals                              0
      RAS2 orbitals                              3
      RAS3 orbitals                              0
      Secondary orbitals                        29
      Deleted orbitals                           0
      Number of basis functions                 42
--
 
++    CI expansion specifications:
      ----------------------------
 
      Number of CSFs                             6
      Number of determinants                     6
      Number of root(s) required                 1
      Root chosen for geometry opt.              1
      CI root used                               1
         
      highest root included in the CI            1
      max. size of the explicit Hamiltonian      6
--
 
++    Optimization specifications:
      ----------------------------
 
      RASSCF algorithm: Conventional
      Maximum number of macro iterations       200
      Maximum number of SX iterations          100
      Threshold for RASSCF energy            0.100E-07
      Threshold for max MO rotation          0.100E+00
      Threshold for max BLB element          0.100E-03
      Level shift parameter                  0.500E+00
      Make Quasi-Newton update
--
 
      The MO-coefficients are taken from the file:
      /home/grierjones/DDCASPT2/ozone/ANO-RCC-VDZP/ozone_143.50/ozone_143.50.RasOrb                                                   
      Title: RASSCF average (pseudo-natural) orbitals                                      
 
      Total molecular charge    0.00
 
      ************************************************************************************************************************
      *                                                                                                                      *
      *                                            Wave function control section                                             *
      *                                                                                                                      *
      ************************************************************************************************************************
 
 
                                         RASSCF iterations: Energy and convergence statistics
                                         ----------------------------------------------------
 
      Iter CI   SX   CI       RASSCF       Energy    max ROT     max BLB   max BLB  Level Ln srch  Step   QN   Walltime
          iter iter root      energy       change     param      element    value   shift minimum  type update hh:mm:ss
 Nr of preliminary CI iterations:   1
        1   1    3    1  -224.53863036    0.00E+00   0.60E-03    9  19 1 -0.15E-02*  0.19   0.00    SX    NO    0:00:00
        2   1    3    1  -224.53863550   -0.51E-05*  0.33E-03    7  14 1 -0.78E-03*  0.19   0.00    SX    NO    0:00:00
        3   1    3    1  -224.53863662   -0.11E-05*  0.22E-03    7  14 1 -0.54E-03*  0.19   0.00    SX    NO    0:00:00
        4   1    3    1  -224.53863701   -0.39E-06* -0.10E-03    7  14 1 -0.25E-03*  0.19   0.00    SX    NO    0:00:00
        5   1    3    1  -224.53863712   -0.11E-06* -0.16E-03    7  14 1 -0.21E-03*  0.19   2.50    LS   YES    0:00:00
        6   1    3    1  -224.53863717   -0.45E-07*  0.46E-04    8  19 1  0.16E-03*  0.19   0.80    QN   YES    0:00:00
        7   1    3    1  -224.53863720   -0.37E-07*  0.15E-04    8  19 1 -0.51E-04   0.19   0.86    QN   YES    0:00:00
        8   1    2    1  -224.53863720    0.20E-08   0.57E-05    8  19 1  0.67E-04   0.19   0.30    QN   YES    0:00:00
      Convergence after  8 iterations
 
  Dmat in MO in SXCTL bf call to SXHAM                                                                                    
  mat. size =     3x    3
 
        1.9899791658669992
        0.0000000000008860      1.6868936393225793
        0.0009723362188866      0.0000000000015776      0.3231271948104221
        9   1    2    1  -224.53863720   -0.18E-08   0.57E-05    8  19 1  0.30E-04   0.19   0.30    QN   YES    0:00:00
 
      ************************************************************************************************************************
                                                      Wave function printout:
                       occupation of active orbitals, and spin coupling of open shells (u,d: Spin up or down)
      ************************************************************************************************************************
 
      Note: transformation to natural orbitals
      has been made, which may change the order of the CSFs.
 
      printout of CI-coefficients larger than  0.05 for root  1
      energy=    -224.538637
      conf/sym  111     Coeff  Weight
             1  220  -0.91566 0.83844
             3  202   0.39567 0.15655
             6  022   0.07078 0.00501
 
      Natural orbitals and occupation numbers for root  1
      sym 1:   1.989980   1.686894   0.323127
 
      ************************************************************************************************************************
      *                                                                                                                      *
      *                                                    Final results                                                     *
      *                                                                                                                      *
      ************************************************************************************************************************
 
 
++    Wave function specifications:
      -----------------------------
 
      Number of closed shell electrons          20
      Number of electrons in active shells       4
      Max number of holes in RAS1 space          0
      Max nr of electrons in RAS3 space          0
      Number of inactive orbitals               10
      Number of active orbitals                  3
      Number of secondary orbitals              29
      Spin quantum number                      0.0
      State symmetry                             1
--
 
++    Orbital specifications:
      -----------------------
 
      Symmetry species                           1
                                                 a
      Frozen orbitals                            0
      Inactive orbitals                         10
      Active orbitals                            3
      RAS1 orbitals                              0
      RAS2 orbitals                              3
      RAS3 orbitals                              0
      Secondary orbitals                        29
      Deleted orbitals                           0
      Number of basis functions                 42
--
 
++    CI expansion specifications:
      ----------------------------
 
      Number of CSFs                             6
      Number of determinants                     6
      Number of root(s) required                 1
      CI root used                               1
      highest root included in the CI            1
      Root passed to geometry opt.               1
--
 
++    Final optimization conditions:
      ------------------------------
 
      Average CI energy                            -224.53863720
      RASSCF energy for state  1                   -224.53863720
      Super-CI energy                                -0.00000001
      RASSCF energy change                           -0.00000000
      Max change in MO coefficients               0.476E-05
      Max non-diagonal density matrix element     0.571E-05
      Maximum BLB matrix element                  0.299E-04
      (orbital pair   8,  19 in symmetry   1)
      Norm of electronic gradient            0.810E-04
--
 
 
      Final state energy(ies):
      ------------------------
 
::    RASSCF root number  1 Total energy:   -224.53863720
 
++    Molecular orbitals:
      -------------------
 
      Pseudonatural active orbitals and approximate occupation numbers
 
 
 
 
      Molecular orbitals for symmetry species 1: a  
 
 
      Orbital                1         2         3         4         5         6         7         8         9        10
      Energy          -20.7950  -20.7274  -20.7273   -1.6958   -1.4473   -1.0642   -0.7957   -0.7906   -0.5980   -0.4947
      Occ. No.          2.0000    2.0000    2.0000    2.0000    2.0000    2.0000    2.0000    2.0000    2.0000    2.0000
 
    1 O1     1s         0.0047   -0.7072    0.7072   -0.0149    0.0092    0.0130   -0.0067   -0.0177    0.0061    0.0036
    2 O1     2s         0.0000   -0.0007    0.0005    0.3425   -0.5896    0.6260   -0.1319   -0.3736    0.0707    0.0078
    3 O1     3s        -0.0001    0.0000   -0.0001   -0.0236    0.0120    0.0170   -0.0130   -0.0255    0.0076    0.0213
    4 O1     2px        0.0002    0.0003   -0.0002   -0.0295    0.0423    0.0813    0.3254   -0.2803   -0.6281    0.6484
    5 O1     3px        0.0004    0.0001    0.0001    0.0094   -0.0055   -0.0121   -0.0263    0.0155   -0.0061    0.0301
    6 O1     2py       -0.0000    0.0008   -0.0009   -0.1089    0.0854    0.1670   -0.2476   -0.3755    0.3324    0.0692
    7 O1     3py        0.0001   -0.0005    0.0003    0.0250   -0.0167   -0.0230    0.0185    0.0269    0.0017   -0.0231
    8 O1     2pz        0.0000    0.0000    0.0000    0.0000   -0.0000    0.0000   -0.0000    0.0000   -0.0000   -0.0000
    9 O1     3pz        0.0000    0.0000   -0.0000    0.0000    0.0000   -0.0000   -0.0000    0.0000    0.0000   -0.0000
   10 O1     3d2-      -0.0000   -0.0000    0.0000    0.0080   -0.0097   -0.0088   -0.0123    0.0212    0.0082   -0.0044
   11 O1     3d1-       0.0000   -0.0000    0.0000   -0.0000   -0.0000    0.0000   -0.0000    0.0000   -0.0000    0.0000
   12 O1     3d0        0.0001    0.0001   -0.0002   -0.0100    0.0094    0.0059   -0.0068   -0.0160    0.0055    0.0046
   13 O1     3d1+       0.0000    0.0000    0.0000   -0.0000    0.0000   -0.0000   -0.0000    0.0000    0.0000    0.0000
   14 O1     3d2+       0.0000   -0.0001    0.0001   -0.0168    0.0108    0.0110   -0.0217   -0.0214    0.0156    0.0090
   15 O2     1s         1.0000    0.0000   -0.0068   -0.0227   -0.0000   -0.0132   -0.0067    0.0000    0.0000    0.0233
   16 O2     2s         0.0005    0.0000   -0.0007    0.6370   -0.0000   -0.6372   -0.0947    0.0000    0.0000    0.3056
   17 O2     3s        -0.0006    0.0000   -0.0006   -0.0360    0.0000   -0.0139   -0.0088    0.0000    0.0000    0.0437
   18 O2     2px        0.0007    0.0000   -0.0002    0.0824   -0.0000    0.1176    0.6567   -0.0000   -0.0000   -0.6432
   19 O2     3px       -0.0011    0.0000   -0.0003   -0.0185    0.0000   -0.0129   -0.0426    0.0000   -0.0000   -0.0418
   20 O2     2py        0.0000    0.0008    0.0000   -0.0000   -0.2993   -0.0000    0.0000    0.4904   -0.1323    0.0000
   21 O2     3py        0.0000    0.0011    0.0000    0.0000    0.0752   -0.0000   -0.0000   -0.0752   -0.0003    0.0000
   22 O2     2pz       -0.0000    0.0000    0.0000    0.0000    0.0000    0.0000    0.0000    0.0000   -0.0000   -0.0000
   23 O2     3pz       -0.0000   -0.0000   -0.0000   -0.0000    0.0000   -0.0000    0.0000   -0.0000   -0.0000   -0.0000
   24 O2     3d2-       0.0000    0.0001    0.0000   -0.0000   -0.0299   -0.0000    0.0000    0.0225   -0.0397    0.0000
   25 O2     3d1-      -0.0000   -0.0000    0.0000   -0.0000   -0.0000    0.0000    0.0000    0.0000    0.0000   -0.0000
   26 O2     3d0       -0.0001   -0.0000    0.0003   -0.0173   -0.0000   -0.0033   -0.0142    0.0000    0.0000    0.0228
   27 O2     3d1+      -0.0000    0.0000    0.0000   -0.0000   -0.0000   -0.0000    0.0000    0.0000    0.0000   -0.0000
   28 O2     3d2+      -0.0000   -0.0000    0.0003   -0.0228    0.0000    0.0001    0.0190   -0.0000    0.0000    0.0290
   29 O3     1s         0.0047    0.7072    0.7072   -0.0149   -0.0092    0.0130   -0.0067    0.0177   -0.0061    0.0036
   30 O3     2s         0.0000    0.0007    0.0005    0.3425    0.5896    0.6260   -0.1319    0.3736   -0.0707    0.0078
   31 O3     3s        -0.0001   -0.0000   -0.0001   -0.0236   -0.0120    0.0170   -0.0130    0.0255   -0.0076    0.0213
   32 O3     2px        0.0002   -0.0003   -0.0002   -0.0295   -0.0423    0.0813    0.3254    0.2803    0.6281    0.6484
   33 O3     3px        0.0004   -0.0001    0.0001    0.0094    0.0055   -0.0121   -0.0263   -0.0155    0.0061    0.0301
   34 O3     2py        0.0000    0.0008    0.0009    0.1089    0.0854   -0.1670    0.2476   -0.3755    0.3324   -0.0692
   35 O3     3py       -0.0001   -0.0005   -0.0003   -0.0250   -0.0167    0.0230   -0.0185    0.0269    0.0017    0.0231
   36 O3     2pz        0.0000   -0.0000    0.0000    0.0000    0.0000   -0.0000    0.0000    0.0000    0.0000    0.0000
   37 O3     3pz        0.0000    0.0000   -0.0000    0.0000   -0.0000    0.0000   -0.0000   -0.0000    0.0000    0.0000
   38 O3     3d2-       0.0000   -0.0000   -0.0000   -0.0080   -0.0097    0.0088    0.0123    0.0212    0.0082    0.0044
   39 O3     3d1-       0.0000    0.0000   -0.0000    0.0000    0.0000    0.0000   -0.0000    0.0000    0.0000   -0.0000
   40 O3     3d0        0.0001   -0.0001   -0.0002   -0.0100   -0.0094    0.0059   -0.0068    0.0160   -0.0055    0.0046
   41 O3     3d1+      -0.0000    0.0000    0.0000    0.0000    0.0000    0.0000   -0.0000   -0.0000   -0.0000    0.0000
   42 O3     3d2+       0.0000    0.0001    0.0001   -0.0168   -0.0108    0.0110   -0.0217    0.0214   -0.0156    0.0090
 
 
      Orbital               11        12        13        14        15        16        17        18        19        20
      Energy            0.0000    0.0000    0.0000    0.2062    0.2902    0.4633    0.4645    0.5495    0.6108    0.6890
      Occ. No.          1.9900    1.6869    0.3231    0.0000    0.0000    0.0000    0.0000    0.0000    0.0000    0.0000
 
    1 O1     1s        -0.0000   -0.0000   -0.0000   -0.0403   -0.1534   -0.0331   -0.0000    0.0246   -0.0326    0.0046
    2 O1     2s         0.0000    0.0000   -0.0000   -0.4284   -1.1269   -0.2109   -0.0000    0.1655   -0.0858    0.0049
    3 O1     3s        -0.0000   -0.0000    0.0000   -0.0557   -0.3906   -0.1323   -0.0000    0.2087   -0.1147    0.0466
    4 O1     2px        0.0000   -0.0000   -0.0000    0.0321    0.2978   -0.0311   -0.0000   -0.1038   -0.1586   -0.0390
    5 O1     3px       -0.0000    0.0000    0.0000    0.0186    0.2315    0.4526    0.0000    0.1545   -0.1576   -0.8108
    6 O1     2py        0.0000   -0.0000    0.0000    0.8096    0.5379    0.0831    0.0000   -0.1494   -0.4089    0.0986
    7 O1     3py       -0.0000    0.0000   -0.0000    0.2613    0.5967    0.2587    0.0000   -0.7694    0.1659   -0.0808
    8 O1     2pz        0.2864   -0.7074    0.6840   -0.0000   -0.0000   -0.0000    0.0078   -0.0000    0.0000   -0.0000
    9 O1     3pz       -0.0297   -0.0085   -0.0511   -0.0000   -0.0000   -0.0000    0.4806    0.0000    0.0000   -0.0000
   10 O1     3d2-      -0.0000    0.0000   -0.0000   -0.0068   -0.0184    0.0128    0.0000   -0.0124   -0.0868   -0.0010
   11 O1     3d1-      -0.0281    0.0188    0.0063   -0.0000   -0.0000   -0.0000    0.0308    0.0000    0.0000   -0.0000
   12 O1     3d0        0.0000   -0.0000   -0.0000   -0.0019    0.0167    0.0139    0.0000    0.0035    0.0566   -0.0145
   13 O1     3d1+      -0.0083    0.0048    0.0015   -0.0000    0.0000   -0.0000    0.0124   -0.0000    0.0000   -0.0000
   14 O1     3d2+       0.0000   -0.0000    0.0000   -0.0140    0.0238    0.0444    0.0000   -0.0031    0.0574   -0.0124
   15 O2     1s         0.0000   -0.0000    0.0000    0.1354   -0.0000    0.0907    0.0000   -0.1446    0.0000   -0.0000
   16 O2     2s        -0.0000   -0.0000    0.0000    1.2065   -0.0000    0.5356    0.0000   -0.8296    0.0000   -0.0000
   17 O2     3s        -0.0000   -0.0000    0.0000    0.2943   -0.0000    0.2485    0.0000   -0.2845    0.0000    0.0000
   18 O2     2px       -0.0000    0.0000    0.0000    0.5902   -0.0000   -0.0864   -0.0000   -0.0982    0.0000   -0.0000
   19 O2     3px       -0.0000    0.0000    0.0000    0.1820   -0.0000    0.4830    0.0000   -0.1322    0.0000   -0.0000
   20 O2     2py       -0.0000    0.0000    0.0000    0.0000    1.2954   -0.0000    0.0000   -0.0000   -0.4436    0.1236
   21 O2     3py        0.0000    0.0000   -0.0000    0.0000    1.0348   -0.0000    0.0000   -0.0000    0.6671   -0.1125
   22 O2     2pz        0.7993   -0.0000   -0.6481    0.0000    0.0000    0.0000   -0.2534    0.0000   -0.0000    0.0000
   23 O2     3pz       -0.0123    0.0000   -0.0716    0.0000    0.0000   -0.0000    0.3559    0.0000   -0.0000    0.0000
   24 O2     3d2-       0.0000   -0.0000   -0.0000    0.0000    0.0447   -0.0000    0.0000    0.0000    0.0839   -0.0105
   25 O2     3d1-      -0.0000   -0.0433    0.0000    0.0000   -0.0000   -0.0000   -0.0000   -0.0000   -0.0000    0.0000
   26 O2     3d0       -0.0000   -0.0000   -0.0000    0.0270    0.0000   -0.0486   -0.0000    0.0976   -0.0000    0.0000
   27 O2     3d1+       0.0260   -0.0000   -0.0120    0.0000    0.0000    0.0000   -0.0266   -0.0000   -0.0000   -0.0000
   28 O2     3d2+      -0.0000   -0.0000    0.0000    0.0443   -0.0000   -0.1065   -0.0000    0.1028   -0.0000    0.0000
   29 O3     1s        -0.0000    0.0000   -0.0000   -0.0403    0.1534   -0.0331   -0.0000    0.0246    0.0326   -0.0046
   30 O3     2s        -0.0000    0.0000   -0.0000   -0.4284    1.1269   -0.2109   -0.0000    0.1655    0.0858   -0.0049
   31 O3     3s         0.0000    0.0000   -0.0000   -0.0557    0.3906   -0.1323   -0.0000    0.2087    0.1147   -0.0466
   32 O3     2px       -0.0000   -0.0000   -0.0000    0.0321   -0.2978   -0.0311   -0.0000   -0.1038    0.1586    0.0390
   33 O3     3px       -0.0000    0.0000    0.0000    0.0186   -0.2315    0.4526    0.0000    0.1545    0.1576    0.8108
   34 O3     2py       -0.0000   -0.0000   -0.0000   -0.8096    0.5379   -0.0831   -0.0000    0.1494   -0.4089    0.0986
   35 O3     3py       -0.0000   -0.0000    0.0000   -0.2613    0.5967   -0.2587   -0.0000    0.7694    0.1659   -0.0808
   36 O3     2pz        0.2864    0.7074    0.6840   -0.0000   -0.0000   -0.0000    0.0078   -0.0000    0.0000    0.0000
   37 O3     3pz       -0.0297    0.0085   -0.0511   -0.0000   -0.0000   -0.0000    0.4806    0.0000   -0.0000    0.0000
   38 O3     3d2-       0.0000   -0.0000    0.0000    0.0068   -0.0184   -0.0128   -0.0000    0.0124   -0.0868   -0.0010
   39 O3     3d1-       0.0281    0.0188   -0.0063    0.0000    0.0000    0.0000   -0.0308   -0.0000   -0.0000   -0.0000
   40 O3     3d0       -0.0000    0.0000    0.0000   -0.0019   -0.0167    0.0139    0.0000    0.0035   -0.0566    0.0145
   41 O3     3d1+      -0.0083   -0.0048    0.0015   -0.0000   -0.0000   -0.0000    0.0124   -0.0000    0.0000    0.0000
   42 O3     3d2+       0.0000    0.0000   -0.0000   -0.0140   -0.0238    0.0444    0.0000   -0.0031   -0.0574    0.0124
 
 
      Orbital               21        22        23        24        25        26        27        28        29        30
      Energy            0.6964    0.8523    0.9511    0.9806    1.0091    1.6910    1.7162    1.7200    1.7792    1.9621
      Occ. No.          0.0000    0.0000    0.0000    0.0000    0.0000    0.0000    0.0000    0.0000    0.0000    0.0000
 
    1 O1     1s        -0.0000   -0.0176   -0.0365   -0.0000    0.0895   -0.0000   -0.0078    0.0000   -0.1279   -0.0919
    2 O1     2s        -0.0000   -0.0957   -0.1961   -0.0000    0.5093   -0.0000   -0.0593    0.0000   -0.9318   -0.7060
    3 O1     3s        -0.0000    0.4634   -0.0354   -0.0000    0.0171    0.0000   -0.0570   -0.0000   -1.1867   -0.8418
    4 O1     2px       -0.0000    0.0007   -0.4192   -0.0000   -0.2263   -0.0000    0.0907   -0.0000    0.2477    0.0945
    5 O1     3px        0.0000    0.0758   -0.8332   -0.0000   -0.2627    0.0000    0.0470   -0.0000    0.1988    0.1824
    6 O1     2py       -0.0000   -0.0248    0.0659    0.0000    0.0970    0.0000    0.0212    0.0000    0.2841    0.4654
    7 O1     3py        0.0000    0.3119    0.0140    0.0000    0.6847    0.0000    0.0302    0.0000    0.2976    0.5062
    8 O1     2pz       -0.0957   -0.0000   -0.0000    0.4787   -0.0000   -0.1718    0.0000   -0.0784    0.0000    0.0000
    9 O1     3pz       -0.8389    0.0000   -0.0000    0.8824   -0.0000    0.0247   -0.0000   -0.0555    0.0000   -0.0000
   10 O1     3d2-      -0.0000   -0.0566   -0.0457    0.0000    0.0003    0.0000    0.2768   -0.0000    0.2212   -0.1651
   11 O1     3d1-      -0.0290    0.0000   -0.0000    0.0100    0.0000   -0.3854    0.0000   -0.2968   -0.0000    0.0000
   12 O1     3d0        0.0000    0.0441    0.0561   -0.0000   -0.0683    0.0000    0.3432   -0.0000   -0.1303    0.0769
   13 O1     3d1+      -0.0013    0.0000   -0.0000    0.0316   -0.0000   -0.2388    0.0000    0.3329    0.0000    0.0000
   14 O1     3d2+       0.0000    0.0517    0.0239   -0.0000   -0.1403   -0.0000   -0.0603   -0.0000    0.1628   -0.2116
   15 O2     1s         0.0000    0.0132   -0.0206   -0.0000    0.0000    0.0000    0.0178    0.0000    0.0000    0.2389
   16 O2     2s        -0.0000    0.0693   -0.0688   -0.0000    0.0000    0.0000    0.1311    0.0000    0.0000    1.6878
   17 O2     3s        -0.0000    0.5570   -0.0039   -0.0000    0.0000    0.0000    0.1447    0.0000    0.0000    1.6554
   18 O2     2px        0.0000   -0.0231    0.6214    0.0000    0.0000   -0.0000    0.0874   -0.0000    0.0000    0.1125
   19 O2     3px        0.0000   -0.0952    1.5340    0.0000    0.0000   -0.0000   -0.0778    0.0000    0.0000    0.1629
   20 O2     2py       -0.0000   -0.0000   -0.0000   -0.0000   -0.7381   -0.0000    0.0000    0.0000    0.9163   -0.0000
   21 O2     3py        0.0000   -0.0000   -0.0000   -0.0000   -1.1346   -0.0000    0.0000    0.0000    1.1035   -0.0000
   22 O2     2pz       -0.0000   -0.0000    0.0000   -0.6619    0.0000    0.0000   -0.0000   -0.0660   -0.0000    0.0000
   23 O2     3pz       -0.0000   -0.0000    0.0000   -1.6137    0.0000   -0.0000    0.0000    0.1229   -0.0000    0.0000
   24 O2     3d2-       0.0000   -0.0000   -0.0000    0.0000    0.1860   -0.0000   -0.0000   -0.0000   -0.2321    0.0000
   25 O2     3d1-       0.0742   -0.0000   -0.0000   -0.0000   -0.0000    0.5809   -0.0000    0.0000    0.0000   -0.0000
   26 O2     3d0       -0.0000    0.0477    0.0851    0.0000    0.0000    0.0000    0.5246   -0.0000    0.0000    0.1227
   27 O2     3d1+       0.0000   -0.0000   -0.0000    0.0510   -0.0000   -0.0000    0.0000    0.6430   -0.0000   -0.0000
   28 O2     3d2+       0.0000    0.0661    0.0415    0.0000    0.0000   -0.0000   -0.3665    0.0000    0.0000    0.2569
   29 O3     1s         0.0000   -0.0176   -0.0365   -0.0000   -0.0895   -0.0000   -0.0078   -0.0000    0.1279   -0.0919
   30 O3     2s         0.0000   -0.0957   -0.1961   -0.0000   -0.5093    0.0000   -0.0593   -0.0000    0.9318   -0.7060
   31 O3     3s         0.0000    0.4634   -0.0354    0.0000   -0.0171   -0.0000   -0.0570    0.0000    1.1867   -0.8418
   32 O3     2px       -0.0000    0.0007   -0.4192   -0.0000    0.2263   -0.0000    0.0907   -0.0000   -0.2477    0.0945
   33 O3     3px       -0.0000    0.0758   -0.8332    0.0000    0.2627    0.0000    0.0470    0.0000   -0.1988    0.1824
   34 O3     2py       -0.0000    0.0248   -0.0659    0.0000    0.0970   -0.0000   -0.0212   -0.0000    0.2841   -0.4654
   35 O3     3py        0.0000   -0.3119   -0.0140    0.0000    0.6847   -0.0000   -0.0302    0.0000    0.2976   -0.5062
   36 O3     2pz        0.0957    0.0000    0.0000    0.4787   -0.0000    0.1718   -0.0000   -0.0784    0.0000    0.0000
   37 O3     3pz        0.8389    0.0000   -0.0000    0.8824   -0.0000   -0.0247   -0.0000   -0.0555   -0.0000   -0.0000
   38 O3     3d2-      -0.0000    0.0566    0.0457   -0.0000    0.0003   -0.0000   -0.2768    0.0000    0.2212    0.1651
   39 O3     3d1-      -0.0290   -0.0000    0.0000   -0.0100   -0.0000   -0.3854    0.0000    0.2968   -0.0000   -0.0000
   40 O3     3d0       -0.0000    0.0441    0.0561    0.0000    0.0683    0.0000    0.3432   -0.0000    0.1303    0.0769
   41 O3     3d1+       0.0013   -0.0000   -0.0000    0.0316   -0.0000    0.2388    0.0000    0.3329   -0.0000   -0.0000
   42 O3     3d2+      -0.0000    0.0517    0.0239    0.0000    0.1403   -0.0000   -0.0603   -0.0000   -0.1628   -0.2116
 
 
      Orbital               31        32        33        34        35        36        37        38        39        40
      Energy            2.0723    2.1162    2.1810    2.3346    2.3370    2.6696    2.9036    2.9396    2.9409    3.5047
      Occ. No.          0.0000    0.0000    0.0000    0.0000    0.0000    0.0000    0.0000    0.0000    0.0000    0.0000
 
    1 O1     1s        -0.1581   -0.0000    0.1587    0.0818    0.0000    0.0467   -0.0000   -0.0989    0.0362   -0.0763
    2 O1     2s        -1.0571   -0.0000    1.0392    0.5544    0.0000    0.1995    0.0000   -0.7246    0.3914   -0.4953
    3 O1     3s        -0.8507   -0.0000    0.7297    0.3925    0.0000   -0.1017    0.0000   -0.5561    0.5019   -0.2275
    4 O1     2px        0.1826   -0.0000   -0.1932    0.0041   -0.0000    0.0914   -0.0000   -0.1374   -0.1740   -0.1482
    5 O1     3px        0.1963    0.0000   -0.2606    0.1564    0.0000    0.2364   -0.0000   -0.2304   -0.1468   -0.1508
    6 O1     2py        0.3471    0.0000   -0.3221   -0.3277   -0.0000   -0.0134    0.0000    0.5585   -0.3734    0.4068
    7 O1     3py       -0.0221    0.0000    0.1202   -0.2039   -0.0000    0.2052   -0.0000    0.4069   -0.4018    0.1203
    8 O1     2pz        0.0000    0.0032   -0.0000    0.0000   -0.0986   -0.0000   -0.3394   -0.0000    0.0000   -0.0000
    9 O1     3pz       -0.0000   -0.0463   -0.0000    0.0000   -0.1993    0.0000   -0.4216    0.0000    0.0000   -0.0000
   10 O1     3d2-       0.0119   -0.0000    0.4552   -0.1619   -0.0000   -0.4300    0.0000    0.3329    0.5361    0.2853
   11 O1     3d1-      -0.0000    0.3381    0.0000   -0.0000    0.2272    0.0000    0.7238    0.0000   -0.0000    0.0000
   12 O1     3d0        0.4568   -0.0000    0.3847    0.4935    0.0000    0.0991   -0.0000    0.3552   -0.4080    0.0979
   13 O1     3d1+      -0.0000   -0.6265   -0.0000   -0.0000    0.6423    0.0000   -0.0099    0.0000   -0.0000    0.0000
   14 O1     3d2+      -0.3497    0.0000    0.0568   -0.3314   -0.0000    0.4244   -0.0000    0.5654   -0.4085    0.5914
   15 O2     1s        -0.0000    0.0000    0.0000   -0.1032   -0.0000    0.1172    0.0000    0.2355    0.0000    0.0000
   16 O2     2s        -0.0000    0.0000    0.0000   -0.8443   -0.0000    0.5227    0.0000    1.6082    0.0000    0.0000
   17 O2     3s        -0.0000    0.0000    0.0000   -0.9490   -0.0000   -0.2506   -0.0000    1.0307    0.0000    0.0000
   18 O2     2px       -0.0000    0.0000    0.0000   -0.5105   -0.0000   -0.1562   -0.0000    0.9109    0.0000    0.0000
   19 O2     3px       -0.0000    0.0000    0.0000   -0.4798   -0.0000   -0.4182    0.0000    0.7171    0.0000    0.0000
   20 O2     2py        1.1538    0.0000   -1.1895   -0.0000    0.0000   -0.0000   -0.0000    0.0000   -0.7926    0.4735
   21 O2     3py        1.2589    0.0000   -1.2681   -0.0000    0.0000   -0.0000    0.0000   -0.0000    0.1444    0.1246
   22 O2     2pz       -0.0000    0.0000    0.0000   -0.0000    0.3971    0.0000    0.7412    0.0000   -0.0000   -0.0000
   23 O2     3pz       -0.0000    0.0000    0.0000   -0.0000    0.3113   -0.0000    0.7434    0.0000   -0.0000   -0.0000
   24 O2     3d2-       0.3281    0.0000   -0.3888    0.0000    0.0000   -0.0000    0.0000   -0.0000    0.2040    1.1076
   25 O2     3d1-       0.0000   -0.0474   -0.0000   -0.0000   -0.0000   -0.0000   -0.0000    0.0000    0.0000    0.0000
   26 O2     3d0        0.0000   -0.0000   -0.0000   -0.2755   -0.0000    0.5716    0.0000   -0.5022   -0.0000    0.0000
   27 O2     3d1+       0.0000   -0.0000   -0.0000    0.0000   -0.4492   -0.0000    0.7074    0.0000   -0.0000   -0.0000
   28 O2     3d2+      -0.0000   -0.0000   -0.0000    0.3126    0.0000    0.1743   -0.0000    0.3769    0.0000    0.0000
   29 O3     1s         0.1581    0.0000   -0.1587    0.0818    0.0000    0.0467   -0.0000   -0.0989   -0.0362    0.0763
   30 O3     2s         1.0571    0.0000   -1.0392    0.5544    0.0000    0.1995    0.0000   -0.7246   -0.3914    0.4953
   31 O3     3s         0.8507    0.0000   -0.7297    0.3925    0.0000   -0.1017   -0.0000   -0.5561   -0.5019    0.2275
   32 O3     2px       -0.1826   -0.0000    0.1932    0.0041    0.0000    0.0914   -0.0000   -0.1374    0.1740    0.1482
   33 O3     3px       -0.1963   -0.0000    0.2606    0.1564    0.0000    0.2364    0.0000   -0.2304    0.1468    0.1508
   34 O3     2py        0.3471    0.0000   -0.3221    0.3277    0.0000    0.0134   -0.0000   -0.5585   -0.3734    0.4068
   35 O3     3py       -0.0221   -0.0000    0.1202    0.2039    0.0000   -0.2052   -0.0000   -0.4069   -0.4018    0.1203
   36 O3     2pz        0.0000   -0.0032    0.0000    0.0000   -0.0986   -0.0000   -0.3394   -0.0000   -0.0000    0.0000
   37 O3     3pz       -0.0000    0.0463   -0.0000    0.0000   -0.1993    0.0000   -0.4216    0.0000    0.0000    0.0000
   38 O3     3d2-       0.0119   -0.0000    0.4552    0.1619    0.0000    0.4300    0.0000   -0.3329    0.5361    0.2853
   39 O3     3d1-      -0.0000    0.3381    0.0000    0.0000   -0.2272   -0.0000   -0.7238   -0.0000    0.0000    0.0000
   40 O3     3d0       -0.4568    0.0000   -0.3847    0.4935    0.0000    0.0991    0.0000    0.3552    0.4080   -0.0979
   41 O3     3d1+      -0.0000    0.6265    0.0000   -0.0000    0.6423    0.0000   -0.0099   -0.0000   -0.0000   -0.0000
   42 O3     3d2+       0.3497   -0.0000   -0.0568   -0.3314   -0.0000    0.4244    0.0000    0.5654    0.4085   -0.5914
 
 
      Orbital               41        42
      Energy            3.5084    4.1900
      Occ. No.          0.0000    0.0000
 
    1 O1     1s         0.0000    0.2002
    2 O1     2s         0.0000    1.3358
    3 O1     3s         0.0000    0.6944
    4 O1     2px        0.0000   -0.4956
    5 O1     3px        0.0000   -0.2363
    6 O1     2py       -0.0000   -0.9000
    7 O1     3py       -0.0000   -0.3885
    8 O1     2pz       -0.3189    0.0000
    9 O1     3pz       -0.2095   -0.0000
   10 O1     3d2-      -0.0000    0.5836
   11 O1     3d1-       0.6167    0.0000
   12 O1     3d0       -0.0000   -0.3251
   13 O1     3d1+       0.2823   -0.0000
   14 O1     3d2+      -0.0000   -0.2349
   15 O2     1s        -0.0000   -0.3752
   16 O2     2s         0.0000   -2.6326
   17 O2     3s        -0.0000   -1.6639
   18 O2     2px       -0.0000   -0.2507
   19 O2     3px       -0.0000    0.0343
   20 O2     2py       -0.0000   -0.0000
   21 O2     3py       -0.0000   -0.0000
   22 O2     2pz        0.0000   -0.0000
   23 O2     3pz        0.0000    0.0000
   24 O2     3d2-      -0.0000   -0.0000
   25 O2     3d1-       1.0773   -0.0000
   26 O2     3d0        0.0000    0.6251
   27 O2     3d1+       0.0000    0.0000
   28 O2     3d2+       0.0000    1.1558
   29 O3     1s        -0.0000    0.2002
   30 O3     2s        -0.0000    1.3358
   31 O3     3s        -0.0000    0.6944
   32 O3     2px       -0.0000   -0.4956
   33 O3     3px       -0.0000   -0.2363
   34 O3     2py       -0.0000    0.9000
   35 O3     3py       -0.0000    0.3885
   36 O3     2pz        0.3189    0.0000
   37 O3     3pz        0.2095   -0.0000
   38 O3     3d2-      -0.0000   -0.5836
   39 O3     3d1-       0.6167   -0.0000
   40 O3     3d0        0.0000   -0.3251
   41 O3     3d1+      -0.2823    0.0000
   42 O3     3d2+       0.0000   -0.2349
--
 
      Von Neumann Entropy (Root  1) =  0.63927
 

      Mulliken population analysis for root number:  1
      -----------------------------------------------
 
 
++    Molecular charges:
      ------------------
 
      Mulliken charges per centre and basis function type
      ---------------------------------------------------
 
                O1      O2      O3    
      1s       2.0003  2.0001  2.0003
      2s       1.9257  1.7294  1.9257
      2px      1.9428  1.6802  1.9428
      2pz      1.2114  1.5430  1.2114
      2py      0.9560  0.9184  0.9560
      3s      -0.0085 -0.0221 -0.0085
      3px     -0.0200 -0.0419 -0.0200
      3pz     -0.0097 -0.0089 -0.0097
      3py     -0.0055  0.0108 -0.0055
      3d2+     0.0180  0.0305  0.0180
      3d1+     0.0012  0.0035  0.0012
      3d0      0.0056  0.0088  0.0056
      3d1-     0.0135  0.0292  0.0135
      3d2-     0.0102  0.0365  0.0102
      Total    8.0412  7.9177  8.0412
 
      N-E     -0.0412  0.0823 -0.0412
 
      Total electronic charge=   24.000000
 
      Total            charge=   -0.000000
--
 
 

      Expectation values of various properties for root number:  1
      -----------------------------------------------------------
 
 
++    Molecular properties:
      ---------------------
 
      Charge (e):
                      =   -0.0000
      Dipole Moment (Debye):
      Origin of the operator (Ang)=    0.0000    0.0000    0.0000
                   X=  1.4083E-01               Y=  4.8020E-11               Z= -6.7508E-14           Total=  1.4083E-01
      Quadrupole Moment (Debye*Ang):
      Origin of the operator (Ang)=    0.2650    0.0000    0.0000
                  XX= -1.6509E+01              XY=  1.3689E-12              XZ= -6.8851E-13              YY= -1.6250E+01
                  YZ= -3.5350E-13              ZZ= -1.4699E+01
      In traceless form (Debye*Ang)
                  XX= -1.0345E+00              XY=  2.0534E-12              XZ= -1.0328E-12              YY= -6.4568E-01
                  YZ= -5.3026E-13              ZZ=  1.6802E+00
--
 

      LoProp population analysis for root number:  1
      -----------------------------------------------
 
 
++    LoProp analysis:
      ----------------
 
 
 
  Input file to MOLDEN was generated!
 
 
++    Static properties:
      ------------------
 
 
      LoProp Charges per center
 

                   O1       O2       O3    
      Nuclear      8.0000   8.0000   8.0000
      Electronic  -8.0707  -7.8585  -8.0707
 
      Total       -0.0707   0.1415  -0.0707
--
 
 
      Natural Bond Order analysis for root number:  1
 
++    Natural Bond Order analysis
      ---------------------------
      Based on LoProp computed density
      -------------------------------------------------------------------------------------
      Atom A       Atom B       Bond Order | Atom A       Atom B       Bond Order
        O1           O2             1.967  |   O2           O3             1.967
      -------------------------------------------------------------------------------------
      NBO located     12.000 core electrons.
      NBO located      3.966 lone pair electrons.
      NBO located      7.870 electrons involved in    2 bonds.
      The remaining    0.164 electrons are to be considered as diffuse
--
 
--
 
 
  Input file to MOLDEN was generated!
 
      Average orbitals are written to the RASORB file
      Natural orbitals for root   1 are written to the RASORB.1 file
      Spin density orbitals for root   1 are written to the SPDORB.1 file
 
forrtl: warning (525): IEEE_DIVIDE_BY_ZERO is signaling
forrtl: warning (526): IEEE_INVALID is signaling
forrtl: warning (528): IEEE_UNDERFLOW is signaling
--- Stop Module: rasscf at Fri Jan 24 16:35:12 2025 /rc=_RC_ALL_IS_WELL_ ---
*** files: ozone_143.75.LprOrb ozone_143.75.rasscf.molden ozone_143.75.LoProp.molden ozone_143.75.RasOrb ozone_143.75.RasOrb.1 ozone_143.75.rasscf.h5 ozone_143.75.SpdOrb.1 xmldump
    saved to directory /home/grierjones/DDCASPT2/ozone/ANO-RCC-VDZP/ozone_143.75

>>> COPY /tmp/ozone_143.75/ozone_143.75.rasscf.h5 /home/grierjones/DDCASPT2/ozone/ANO-RCC-VDZP/ozone_143.75/

>>> COPY /tmp/ozone_143.75/GMJ_Fock_MO.csv /home/grierjones/DDCASPT2/ozone/ANO-RCC-VDZP/ozone_143.75/ozone_143.75.GMJ_Fock_MO.csv

>>> COPY /tmp/ozone_143.75/GMJ_PT2_Fock_MO.csv /home/grierjones/DDCASPT2/ozone/ANO-RCC-VDZP/ozone_143.75/ozone_143.75.GMJ_PT2_Fock_MO.csv

*** symbolic link created: INPORB -> ozone_143.75.RasOrb
--- Start Module: motra at Fri Jan 24 16:35:12 2025 ---
 
()()()()()()()()()()()()()()()()()()()()()()()()()()()()()()()()()()()()()()()()()()()()()()()()()()

                                               &MOTRA

                                   only a single process is used
                       available to each process: 2.0 GB of memory, 1 thread?
()()()()()()()()()()()()()()()()()()()()()()()()()()()()()()()()()()()()()()()()()()()()()()()()()()
 
 
      *** WARNING: Default frozen orbitals is overwritten by user input.
      *** Default values:   3
 
      Header of the integral files:
      
       Integrals generated by seward 4.2.0  , Fri Jan 24 16:35:10 2025
 
 
      Header of MO coefficients source file:
      * RASSCF average (pseudo-natural) orbitals                                      
 
 
      Cartesian coordinates in Angstrom:
      -----------------------------------------------------
      No.  Label        X            Y            Z        
      -----------------------------------------------------
       1   O1         0.39757400   1.21458600   0.00000000
       2   O2         0.00000000   0.00000000   0.00000000
       3   O3         0.39757400  -1.21458600   0.00000000
      -----------------------------------------------------
      Nuclear repulsion energy =   66.94245871
 
      Orbital specifications:
      -----------------------
 
      Symmetry species:              1
      Number of basis functions:    42
      Frozen orbitals:               0
      Deleted orbitals:              0
      Number of orbitals used:      42

       SYMMETRY  BASIS FUNCTIONS       ORBITALS      INTEGRALS   CPU(SEC)  I/O(SEC)
 
        1 1 1 1   42  42  42  42    42  42  42  42      408156       0.00      0.00

       TOTAL CPU TIME(SEC)    0.31TOTAL I/O TIME(SEC)    0.77
 
--- Stop Module: motra at Fri Jan 24 16:35:13 2025 /rc=_RC_ALL_IS_WELL_ ---
*** files: xmldump
    saved to directory /home/grierjones/DDCASPT2/ozone/ANO-RCC-VDZP/ozone_143.75

>>> COPY /tmp/ozone_143.75/GMJ_one_int_indx.csv /home/grierjones/DDCASPT2/ozone/ANO-RCC-VDZP/ozone_143.75/ozone_143.75.GMJ_one_int_indx.csv

>>> COPY /tmp/ozone_143.75/GMJ_one_int.csv /home/grierjones/DDCASPT2/ozone/ANO-RCC-VDZP/ozone_143.75/ozone_143.75.GMJ_one_int.csv

>>> COPY /tmp/ozone_143.75/GMJ_two_int_indx.csv /home/grierjones/DDCASPT2/ozone/ANO-RCC-VDZP/ozone_143.75/ozone_143.75.GMJ_two_int_indx.csv

>>> COPY /tmp/ozone_143.75/GMJ_two_int.csv /home/grierjones/DDCASPT2/ozone/ANO-RCC-VDZP/ozone_143.75/ozone_143.75.GMJ_two_int.csv

*** symbolic link created: INPORB -> ozone_143.75.RasOrb
--- Start Module: caspt2 at Fri Jan 24 16:35:13 2025 ---
 
()()()()()()()()()()()()()()()()()()()()()()()()()()()()()()()()()()()()()()()()()()()()()()()()()()

                                              &CASPT2

                                   only a single process is used
                       available to each process: 2.0 GB of memory, 1 thread?
()()()()()()()()()()()()()()()()()()()()()()()()()()()()()()()()()()()()()()()()()()()()()()()()()()
 
 Cholesky algorithm in CASPT2 =    1
 
 ###############################################################################
 ###############################################################################
 ###                                                                         ###
 ###                                                                         ###
 ###    User changed nr of frozen orbitals.                                  ###
 ###                                                                         ###
 ###                                                                         ###
 ###############################################################################
 ###############################################################################
 
++    Wave function specifications:
      -----------------------------
 
      Number of closed shell electrons          20
      Number of electrons in active shells       4
      Max number of holes in RAS1 space          0
      Max number of electrons in RAS3 space      0
      Number of inactive orbitals               10
      Number of active orbitals                  3
      Number of secondary orbitals              29
      Spin quantum number                      0.0
      State symmetry                             1
      Number of CSFs                             6
      Number of root(s) available                1
      Root passed to geometry opt.               1
      A file JOBMIX will be created.
      This is a CASSCF or RASSCF reference function
--
 
++    Orbital specifications:
      -----------------------
 
      Symmetry species                           1
                                                 a
      Frozen orbitals                            0
      Inactive orbitals                         10
      Active orbitals                            3
      Secondary orbitals                        29
      Deleted orbitals                           0
      Number of basis functions                 42
--
 
      Type of Fock operator: STANDARD
      Type of 0-order Hamiltonian: STANDARD WITH DEFAULT IPEA
        "IP-EA" denominator shift =      0.25
      The input orbitals and the CI vector will be transformed.
 
--------------------------------------------------------------------------------
 Estimated memory requirements:
  POLY3 :                   250202
  RHS:                      279634
  SIGMA :                   302200
  PRPCTL:                        0
 Available workspace:    230396563
 
++ CASPT2 computation for group   1
 
********************************************************************************
 Multi-State initialization phase begins for group   1
--------------------------------------------------------------------------------
********************************************************************************
 Compute H0 matrices for state    1
--------------------------------------------------------------------------------
--------------------------------------------------------------------------------
 H0 matrices have been computed.
 
********************************************************************************
  CASPT2 EQUATION SOLUTION
--------------------------------------------------------------------------------
 
  Total nr of CASPT2 parameters:
   Before reduction:       86691
   After  reduction:       82880
 
 The contributions to the second order correlation energy in atomic units.
-----------------------------------------------------------------------------------------------------------------------------
  IT.      VJTU        VJTI        ATVX        AIVX        VJAI        BVAT        BJAT        BJAI        TOTAL       RNORM  
-----------------------------------------------------------------------------------------------------------------------------
   1    -0.000000   -0.001384   -0.013551   -0.097926   -0.017269   -0.016863   -0.123895   -0.270055   -0.540944    0.002156
   2    -0.000000   -0.001402   -0.013600   -0.098261   -0.017286   -0.016868   -0.123921   -0.270057   -0.541395    0.000171
   3    -0.000000   -0.001402   -0.013600   -0.098265   -0.017286   -0.016868   -0.123921   -0.270057   -0.541400    0.000023
   4    -0.000000   -0.001402   -0.013600   -0.098263   -0.017286   -0.016868   -0.123921   -0.270058   -0.541398    0.000003
-------------------------------------------------------------------------------------------------------------------
 
  FINAL CASPT2 RESULT:
 
  Correlation energy /Case, /Symm, and sums:
 VJTU     -0.00000000 -0.00000000
 VJTIP    -0.00140241 -0.00140241
 VJTIM     0.00000000  0.00000000
 ATVX     -0.01359972 -0.01359972
 AIVX     -0.09826288 -0.09826288
 VJAIP    -0.01204959 -0.01204959
 VJAIM    -0.00523622 -0.00523622
 BVATP    -0.01593717 -0.01593717
 BVATM    -0.00093115 -0.00093115
 BJATP    -0.04579277 -0.04579277
 BJATM    -0.07812834 -0.07812834
 BJAIP    -0.18158834 -0.18158834
 BJAIM    -0.08846919 -0.08846919
 Summed:  -0.54139777 -0.54139777
 
      Reference energy:        -224.5386372045
      E2 (Non-variational):      -0.5413977675
      E2 (Variational):          -0.5413977937
      Total energy:            -225.0800349982
      Residual norm:              0.0000002712
      Reference weight:           0.85381
 
      Contributions to the CASPT2 correlation energy
      Active & Virtual Only:         -0.0304680404
      One Inactive Excited:          -0.2221839856
      Two Inactive Excited:          -0.2887457414
 
 
++ Denominators, etc.
----------------------------------------------------------------------------------------------------
 Report on small energy denominators, large coefficients, and large energy contributions.
CASE  SYMM ACTIVE-MIX  NON-ACTIVE INDICES          DENOMINATOR     RHS VALUE       COEFFICIENT     CONTRIBUTION
ATVX     1  Mu1.0006  Se1.017                       1.88837258      0.06559997     -0.03542215     -0.00232369
ATVX     1  Mu1.0005  Se1.021                       1.83155523     -0.09932924      0.05318136     -0.00528246
ATVX     1  Mu1.0006  Se1.024                       2.40442193     -0.06127578      0.02556396     -0.00156645
AIVX     1  Mu1.0006  In1.004 Se1.014               2.67586166     -0.07494855      0.02794445     -0.00209440
AIVX     1  Mu1.0003  In1.005 Se1.014               2.06044912     -0.06445839      0.03087286     -0.00199001
AIVX     1  Mu1.0004  In1.007 Se1.014               1.61112788      0.06888515     -0.04322426     -0.00297751
AIVX     1  Mu1.0002  In1.008 Se1.014               1.31367738     -0.08036887      0.06061047     -0.00487119
AIVX     1  Mu1.0003  In1.008 Se1.014               1.40373462      0.03999699     -0.02826888     -0.00113067
AIVX     1  Mu1.0002  In1.009 Se1.014               1.12110751      0.06029348     -0.05305903     -0.00319911
AIVX     1  Mu1.0003  In1.009 Se1.014               1.21116475     -0.04043779      0.03306037     -0.00133689
AIVX     1  Mu1.0002  In1.008 Se1.016               1.57078675      0.04187310     -0.02602754     -0.00108985
AIVX     1  Mu1.0004  In1.010 Se1.016               1.56718669      0.05483869     -0.03496788     -0.00191759
AIVX     1  Mu1.0002  In1.009 Se1.018               1.46443416      0.06186829     -0.04115659     -0.00254629
AIVX     1  Mu1.0003  In1.009 Se1.018               1.55449140     -0.04320787      0.02709920     -0.00117090
AIVX     1  Mu1.0004  In1.008 Se1.019               2.01062094     -0.11607090      0.05817909     -0.00675290
AIVX     1  Mu1.0006  In1.008 Se1.019               2.17526096      0.06641437     -0.03067003     -0.00203693
AIVX     1  Mu1.0002  In1.010 Se1.019               1.42234617     -0.03744322      0.02612839     -0.00097833
AIVX     1  Mu1.0002  In1.010 Se1.020               1.50053971      0.07568299     -0.04912480     -0.00371791
AIVX     1  Mu1.0003  In1.010 Se1.020               1.59059695     -0.05032849      0.03071373     -0.00154578
BJAIP    1  Se1.014 In1.007 Se1.014 In1.007         2.00381380      0.05044690     -0.02517541     -0.00127002
BJAIP    1  Se1.014 In1.006 Se1.019 In1.008         2.67175396      0.07084842     -0.02651754     -0.00187873
BJAIP    1  Se1.014 In1.007 Se1.019 In1.008         2.40330687     -0.06320249      0.02629809     -0.00166210
BJAIP    1  Se1.014 In1.008 Se1.014 In1.008         1.99358751      0.05511912     -0.02764821     -0.00152394
BJAIP    1  Se1.019 In1.008 Se1.019 In1.008         2.80279993      0.10531128     -0.03757355     -0.00395692
BJAIP    1  Se1.014 In1.009 Se1.014 In1.009         1.60844777      0.04161256     -0.02587125     -0.00107657
BJAIM    1  Se1.014 In1.009 Se1.019 In1.010         1.98787997      0.05080501     -0.02555737     -0.00129844
--
 
   (Skipping property calculation,
    use PROP keyword to activate)
--
 
  Total CASPT2 energies:
::    CASPT2 Root  1     Total energy:   -225.08003500
 
  A NEW JOBIPH FILE NAMED 'JOBMIX' IS PREPARED.
********************************************************************************
forrtl: warning (528): IEEE_UNDERFLOW is signaling
--- Stop Module: caspt2 at Fri Jan 24 16:35:13 2025 /rc=_RC_ALL_IS_WELL_ ---
*** files: xmldump
    saved to directory /home/grierjones/DDCASPT2/ozone/ANO-RCC-VDZP/ozone_143.75

>>> EXPORT i = B

>>> EXPORT j = P

>>> IF (-FILE GMJ_e2_${i}_${j}.csv)

>>> COPY /tmp/ozone_143.75/GMJ_RHS_B_P.csv /home/grierjones/DDCASPT2/ozone/ANO-RCC-VDZP/ozone_143.75/GMJ_RHS_B_P.csv

>>> COPY /tmp/ozone_143.75/GMJ_IVECW_B_P.csv /home/grierjones/DDCASPT2/ozone/ANO-RCC-VDZP/ozone_143.75/GMJ_IVECW_B_P.csv

>>> COPY /tmp/ozone_143.75/GMJ_IVECX_B_P.csv /home/grierjones/DDCASPT2/ozone/ANO-RCC-VDZP/ozone_143.75/GMJ_IVECX_B_P.csv

>>> COPY /tmp/ozone_143.75/GMJ_IVECC2_B_P.csv /home/grierjones/DDCASPT2/ozone/ANO-RCC-VDZP/ozone_143.75/GMJ_IVECC2_B_P.csv

>>> COPY /tmp/ozone_143.75/GMJ_e2_B_P.csv /home/grierjones/DDCASPT2/ozone/ANO-RCC-VDZP/ozone_143.75/GMJ_e2_B_P.csv

>>> END FOREACH

>>> EXPORT j = M

>>> IF (-FILE GMJ_e2_${i}_${j}.csv)
(Skipped)

>>> END FOREACH

>>> END FOREACH

>>> EXPORT i = E

>>> EXPORT j = P

>>> IF (-FILE GMJ_e2_${i}_${j}.csv)

>>> COPY /tmp/ozone_143.75/GMJ_RHS_E_P.csv /home/grierjones/DDCASPT2/ozone/ANO-RCC-VDZP/ozone_143.75/GMJ_RHS_E_P.csv

>>> COPY /tmp/ozone_143.75/GMJ_IVECW_E_P.csv /home/grierjones/DDCASPT2/ozone/ANO-RCC-VDZP/ozone_143.75/GMJ_IVECW_E_P.csv

>>> COPY /tmp/ozone_143.75/GMJ_IVECX_E_P.csv /home/grierjones/DDCASPT2/ozone/ANO-RCC-VDZP/ozone_143.75/GMJ_IVECX_E_P.csv

>>> COPY /tmp/ozone_143.75/GMJ_IVECC2_E_P.csv /home/grierjones/DDCASPT2/ozone/ANO-RCC-VDZP/ozone_143.75/GMJ_IVECC2_E_P.csv

>>> COPY /tmp/ozone_143.75/GMJ_e2_E_P.csv /home/grierjones/DDCASPT2/ozone/ANO-RCC-VDZP/ozone_143.75/GMJ_e2_E_P.csv

>>> END FOREACH

>>> EXPORT j = M

>>> IF (-FILE GMJ_e2_${i}_${j}.csv)

>>> COPY /tmp/ozone_143.75/GMJ_RHS_E_M.csv /home/grierjones/DDCASPT2/ozone/ANO-RCC-VDZP/ozone_143.75/GMJ_RHS_E_M.csv

>>> COPY /tmp/ozone_143.75/GMJ_IVECW_E_M.csv /home/grierjones/DDCASPT2/ozone/ANO-RCC-VDZP/ozone_143.75/GMJ_IVECW_E_M.csv

>>> COPY /tmp/ozone_143.75/GMJ_IVECX_E_M.csv /home/grierjones/DDCASPT2/ozone/ANO-RCC-VDZP/ozone_143.75/GMJ_IVECX_E_M.csv

>>> COPY /tmp/ozone_143.75/GMJ_IVECC2_E_M.csv /home/grierjones/DDCASPT2/ozone/ANO-RCC-VDZP/ozone_143.75/GMJ_IVECC2_E_M.csv

>>> COPY /tmp/ozone_143.75/GMJ_e2_E_M.csv /home/grierjones/DDCASPT2/ozone/ANO-RCC-VDZP/ozone_143.75/GMJ_e2_E_M.csv

>>> END FOREACH

>>> END FOREACH

>>> EXPORT i = F

>>> EXPORT j = P

>>> IF (-FILE GMJ_e2_${i}_${j}.csv)

>>> COPY /tmp/ozone_143.75/GMJ_RHS_F_P.csv /home/grierjones/DDCASPT2/ozone/ANO-RCC-VDZP/ozone_143.75/GMJ_RHS_F_P.csv

>>> COPY /tmp/ozone_143.75/GMJ_IVECW_F_P.csv /home/grierjones/DDCASPT2/ozone/ANO-RCC-VDZP/ozone_143.75/GMJ_IVECW_F_P.csv

>>> COPY /tmp/ozone_143.75/GMJ_IVECX_F_P.csv /home/grierjones/DDCASPT2/ozone/ANO-RCC-VDZP/ozone_143.75/GMJ_IVECX_F_P.csv

>>> COPY /tmp/ozone_143.75/GMJ_IVECC2_F_P.csv /home/grierjones/DDCASPT2/ozone/ANO-RCC-VDZP/ozone_143.75/GMJ_IVECC2_F_P.csv

>>> COPY /tmp/ozone_143.75/GMJ_e2_F_P.csv /home/grierjones/DDCASPT2/ozone/ANO-RCC-VDZP/ozone_143.75/GMJ_e2_F_P.csv

>>> END FOREACH

>>> EXPORT j = M

>>> IF (-FILE GMJ_e2_${i}_${j}.csv)

>>> COPY /tmp/ozone_143.75/GMJ_RHS_F_M.csv /home/grierjones/DDCASPT2/ozone/ANO-RCC-VDZP/ozone_143.75/GMJ_RHS_F_M.csv

>>> COPY /tmp/ozone_143.75/GMJ_IVECW_F_M.csv /home/grierjones/DDCASPT2/ozone/ANO-RCC-VDZP/ozone_143.75/GMJ_IVECW_F_M.csv

>>> COPY /tmp/ozone_143.75/GMJ_IVECX_F_M.csv /home/grierjones/DDCASPT2/ozone/ANO-RCC-VDZP/ozone_143.75/GMJ_IVECX_F_M.csv

>>> COPY /tmp/ozone_143.75/GMJ_IVECC2_F_M.csv /home/grierjones/DDCASPT2/ozone/ANO-RCC-VDZP/ozone_143.75/GMJ_IVECC2_F_M.csv

>>> COPY /tmp/ozone_143.75/GMJ_e2_F_M.csv /home/grierjones/DDCASPT2/ozone/ANO-RCC-VDZP/ozone_143.75/GMJ_e2_F_M.csv

>>> END FOREACH

>>> END FOREACH

>>> EXPORT i = G

>>> EXPORT j = P

>>> IF (-FILE GMJ_e2_${i}_${j}.csv)

>>> COPY /tmp/ozone_143.75/GMJ_RHS_G_P.csv /home/grierjones/DDCASPT2/ozone/ANO-RCC-VDZP/ozone_143.75/GMJ_RHS_G_P.csv

>>> COPY /tmp/ozone_143.75/GMJ_IVECW_G_P.csv /home/grierjones/DDCASPT2/ozone/ANO-RCC-VDZP/ozone_143.75/GMJ_IVECW_G_P.csv

>>> COPY /tmp/ozone_143.75/GMJ_IVECX_G_P.csv /home/grierjones/DDCASPT2/ozone/ANO-RCC-VDZP/ozone_143.75/GMJ_IVECX_G_P.csv

>>> COPY /tmp/ozone_143.75/GMJ_IVECC2_G_P.csv /home/grierjones/DDCASPT2/ozone/ANO-RCC-VDZP/ozone_143.75/GMJ_IVECC2_G_P.csv

>>> COPY /tmp/ozone_143.75/GMJ_e2_G_P.csv /home/grierjones/DDCASPT2/ozone/ANO-RCC-VDZP/ozone_143.75/GMJ_e2_G_P.csv

>>> END FOREACH

>>> EXPORT j = M

>>> IF (-FILE GMJ_e2_${i}_${j}.csv)

>>> COPY /tmp/ozone_143.75/GMJ_RHS_G_M.csv /home/grierjones/DDCASPT2/ozone/ANO-RCC-VDZP/ozone_143.75/GMJ_RHS_G_M.csv

>>> COPY /tmp/ozone_143.75/GMJ_IVECW_G_M.csv /home/grierjones/DDCASPT2/ozone/ANO-RCC-VDZP/ozone_143.75/GMJ_IVECW_G_M.csv

>>> COPY /tmp/ozone_143.75/GMJ_IVECX_G_M.csv /home/grierjones/DDCASPT2/ozone/ANO-RCC-VDZP/ozone_143.75/GMJ_IVECX_G_M.csv

>>> COPY /tmp/ozone_143.75/GMJ_IVECC2_G_M.csv /home/grierjones/DDCASPT2/ozone/ANO-RCC-VDZP/ozone_143.75/GMJ_IVECC2_G_M.csv

>>> COPY /tmp/ozone_143.75/GMJ_e2_G_M.csv /home/grierjones/DDCASPT2/ozone/ANO-RCC-VDZP/ozone_143.75/GMJ_e2_G_M.csv

>>> END FOREACH

>>> END FOREACH

>>> EXPORT i = H

>>> EXPORT j = P

>>> IF (-FILE GMJ_e2_${i}_${j}.csv)

>>> COPY /tmp/ozone_143.75/GMJ_RHS_H_P.csv /home/grierjones/DDCASPT2/ozone/ANO-RCC-VDZP/ozone_143.75/GMJ_RHS_H_P.csv

>>> COPY /tmp/ozone_143.75/GMJ_IVECW_H_P.csv /home/grierjones/DDCASPT2/ozone/ANO-RCC-VDZP/ozone_143.75/GMJ_IVECW_H_P.csv

>>> COPY /tmp/ozone_143.75/GMJ_IVECX_H_P.csv /home/grierjones/DDCASPT2/ozone/ANO-RCC-VDZP/ozone_143.75/GMJ_IVECX_H_P.csv

>>> COPY /tmp/ozone_143.75/GMJ_IVECC2_H_P.csv /home/grierjones/DDCASPT2/ozone/ANO-RCC-VDZP/ozone_143.75/GMJ_IVECC2_H_P.csv

>>> COPY /tmp/ozone_143.75/GMJ_e2_H_P.csv /home/grierjones/DDCASPT2/ozone/ANO-RCC-VDZP/ozone_143.75/GMJ_e2_H_P.csv

>>> END FOREACH

>>> EXPORT j = M

>>> IF (-FILE GMJ_e2_${i}_${j}.csv)

>>> COPY /tmp/ozone_143.75/GMJ_RHS_H_M.csv /home/grierjones/DDCASPT2/ozone/ANO-RCC-VDZP/ozone_143.75/GMJ_RHS_H_M.csv

>>> COPY /tmp/ozone_143.75/GMJ_IVECW_H_M.csv /home/grierjones/DDCASPT2/ozone/ANO-RCC-VDZP/ozone_143.75/GMJ_IVECW_H_M.csv

>>> COPY /tmp/ozone_143.75/GMJ_IVECX_H_M.csv /home/grierjones/DDCASPT2/ozone/ANO-RCC-VDZP/ozone_143.75/GMJ_IVECX_H_M.csv

>>> COPY /tmp/ozone_143.75/GMJ_IVECC2_H_M.csv /home/grierjones/DDCASPT2/ozone/ANO-RCC-VDZP/ozone_143.75/GMJ_IVECC2_H_M.csv

>>> COPY /tmp/ozone_143.75/GMJ_e2_H_M.csv /home/grierjones/DDCASPT2/ozone/ANO-RCC-VDZP/ozone_143.75/GMJ_e2_H_M.csv

>>> END FOREACH

>>> END FOREACH

>>> EXPORT i = A

>>> IF (-FILE GMJ_e2_$i.csv)

>>> COPY /tmp/ozone_143.75/GMJ_RHS_A.csv /home/grierjones/DDCASPT2/ozone/ANO-RCC-VDZP/ozone_143.75/GMJ_RHS_A.csv

>>> COPY /tmp/ozone_143.75/GMJ_IVECW_A.csv /home/grierjones/DDCASPT2/ozone/ANO-RCC-VDZP/ozone_143.75/GMJ_IVECW_A.csv

>>> COPY /tmp/ozone_143.75/GMJ_IVECX_A.csv /home/grierjones/DDCASPT2/ozone/ANO-RCC-VDZP/ozone_143.75/GMJ_IVECX_A.csv

>>> COPY /tmp/ozone_143.75/GMJ_IVECC2_A.csv /home/grierjones/DDCASPT2/ozone/ANO-RCC-VDZP/ozone_143.75/GMJ_IVECC2_A.csv

>>> COPY /tmp/ozone_143.75/GMJ_e2_A.csv /home/grierjones/DDCASPT2/ozone/ANO-RCC-VDZP/ozone_143.75/GMJ_e2_A.csv

>>> END FOREACH

>>> EXPORT i = C

>>> IF (-FILE GMJ_e2_$i.csv)

>>> COPY /tmp/ozone_143.75/GMJ_RHS_C.csv /home/grierjones/DDCASPT2/ozone/ANO-RCC-VDZP/ozone_143.75/GMJ_RHS_C.csv

>>> COPY /tmp/ozone_143.75/GMJ_IVECW_C.csv /home/grierjones/DDCASPT2/ozone/ANO-RCC-VDZP/ozone_143.75/GMJ_IVECW_C.csv

>>> COPY /tmp/ozone_143.75/GMJ_IVECX_C.csv /home/grierjones/DDCASPT2/ozone/ANO-RCC-VDZP/ozone_143.75/GMJ_IVECX_C.csv

>>> COPY /tmp/ozone_143.75/GMJ_IVECC2_C.csv /home/grierjones/DDCASPT2/ozone/ANO-RCC-VDZP/ozone_143.75/GMJ_IVECC2_C.csv

>>> COPY /tmp/ozone_143.75/GMJ_e2_C.csv /home/grierjones/DDCASPT2/ozone/ANO-RCC-VDZP/ozone_143.75/GMJ_e2_C.csv

>>> END FOREACH

>>> EXPORT i = D

>>> IF (-FILE GMJ_e2_$i.csv)

>>> COPY /tmp/ozone_143.75/GMJ_RHS_D.csv /home/grierjones/DDCASPT2/ozone/ANO-RCC-VDZP/ozone_143.75/GMJ_RHS_D.csv

>>> COPY /tmp/ozone_143.75/GMJ_IVECW_D.csv /home/grierjones/DDCASPT2/ozone/ANO-RCC-VDZP/ozone_143.75/GMJ_IVECW_D.csv

>>> COPY /tmp/ozone_143.75/GMJ_IVECX_D.csv /home/grierjones/DDCASPT2/ozone/ANO-RCC-VDZP/ozone_143.75/GMJ_IVECX_D.csv

>>> COPY /tmp/ozone_143.75/GMJ_IVECC2_D.csv /home/grierjones/DDCASPT2/ozone/ANO-RCC-VDZP/ozone_143.75/GMJ_IVECC2_D.csv

>>> COPY /tmp/ozone_143.75/GMJ_e2_D.csv /home/grierjones/DDCASPT2/ozone/ANO-RCC-VDZP/ozone_143.75/GMJ_e2_D.csv

>>> END FOREACH

.########################.
.# Non-zero return code #.
.########################.

    Timing: Wall=3.57 User=2.56 System=0.99
********************************************
*** WorkDir at /tmp/ozone_143.75 cleaned ***
********************************************
