[Molden Format]
[N_Atoms]
                     2
[Atoms] (AU)
N1          1      7           0.00000000      0.00000000      0.00000000
N2          2      7           0.00000000      0.00000000      4.34637009
[Charge] (Mulliken)
  1.689556938799797E-009
 -1.689562267870315E-009
[GTO] (AU)
   1
   s  14
  7.476171500E+04  1.182599996E-04
  1.112365400E+04  5.172899983E-04
  2.512685700E+03  2.266659992E-03
  7.037772900E+02  9.145289970E-03
  2.254787900E+02  3.239342989E-02
  7.961581000E+01  9.770792967E-02
  3.023728300E+01  2.317036792E-01
  1.226362200E+01  3.768898887E-01
  5.265086000E+00  3.177420689E-01
  2.333471000E+00  8.211308973E-02
  9.018560000E-01  3.312089989E-03
  3.583360000E-01  3.720819988E-03
  1.410930000E-01  3.165419989E-03
  4.938300000E-02  4.595799985E-04
   s  14
  7.476171500E+04 -2.707000010E-05
  1.112365400E+04 -1.183700004E-04
  2.512685700E+03 -5.203800020E-04
  7.037772900E+02 -2.102930008E-03
  2.254787900E+02 -7.568200028E-03
  7.961581000E+01 -2.346767009E-02
  3.023728300E+01 -6.042901023E-02
  1.226362200E+01 -1.170549104E-01
  5.265086000E+00 -1.555321506E-01
  2.333471000E+00 -2.468935009E-02
  9.018560000E-01  3.625054514E-01
  3.583360000E-01  5.550845021E-01
  1.410930000E-01  2.148376908E-01
  4.938300000E-02  8.983850034E-03
   p   9
  1.266665700E+02  1.233630000E-03
  2.983738900E+01  9.493409996E-03
  9.394038000E+00  4.293961998E-02
  3.405104000E+00  1.362925399E-01
  1.350000000E+00  2.921362499E-01
  5.576960000E-01  3.887887598E-01
  2.324490000E-01  2.946801399E-01
  9.426400000E-02  8.012875997E-02
  3.299200000E-02  5.405199998E-04
 
   2
   s  14
  7.476171500E+04  1.182599996E-04
  1.112365400E+04  5.172899983E-04
  2.512685700E+03  2.266659992E-03
  7.037772900E+02  9.145289970E-03
  2.254787900E+02  3.239342989E-02
  7.961581000E+01  9.770792967E-02
  3.023728300E+01  2.317036792E-01
  1.226362200E+01  3.768898887E-01
  5.265086000E+00  3.177420689E-01
  2.333471000E+00  8.211308973E-02
  9.018560000E-01  3.312089989E-03
  3.583360000E-01  3.720819988E-03
  1.410930000E-01  3.165419989E-03
  4.938300000E-02  4.595799985E-04
   s  14
  7.476171500E+04 -2.707000010E-05
  1.112365400E+04 -1.183700004E-04
  2.512685700E+03 -5.203800020E-04
  7.037772900E+02 -2.102930008E-03
  2.254787900E+02 -7.568200028E-03
  7.961581000E+01 -2.346767009E-02
  3.023728300E+01 -6.042901023E-02
  1.226362200E+01 -1.170549104E-01
  5.265086000E+00 -1.555321506E-01
  2.333471000E+00 -2.468935009E-02
  9.018560000E-01  3.625054514E-01
  3.583360000E-01  5.550845021E-01
  1.410930000E-01  2.148376908E-01
  4.938300000E-02  8.983850034E-03
   p   9
  1.266665700E+02  1.233630000E-03
  2.983738900E+01  9.493409996E-03
  9.394038000E+00  4.293961998E-02
  3.405104000E+00  1.362925399E-01
  1.350000000E+00  2.921362499E-01
  5.576960000E-01  3.887887598E-01
  2.324490000E-01  2.946801399E-01
  9.426400000E-02  8.012875997E-02
  3.299200000E-02  5.405199998E-04
 
[MO]
Sym=     1a  
Ene=   -15.6250
Spin= Alpha
Occup=    1.00000
   1         0.70707017
   2        -0.00440451
   3         0.00000000
   4        -0.00000000
   5         0.00019471
   6         0.70707110
   7        -0.00440451
   8         0.00000000
   9         0.00000000
  10        -0.00019471
Sym=     1a  
Ene=   -15.6250
Spin= Beta
Occup=    1.00000
   1         0.70707017
   2        -0.00440451
   3         0.00000000
   4        -0.00000000
   5         0.00019471
   6         0.70707110
   7        -0.00440451
   8         0.00000000
   9         0.00000000
  10        -0.00019471
Sym=     2a  
Ene=   -15.6240
Spin= Alpha
Occup=    1.00000
   1        -0.70712217
   2         0.00396938
   3         0.00000000
   4        -0.00000000
   5        -0.00051967
   6         0.70712125
   7        -0.00396937
   8         0.00000000
   9         0.00000000
  10        -0.00051967
Sym=     2a  
Ene=   -15.6240
Spin= Beta
Occup=    1.00000
   1        -0.70712217
   2         0.00396938
   3         0.00000000
   4        -0.00000000
   5        -0.00051967
   6         0.70712125
   7        -0.00396937
   8         0.00000000
   9         0.00000000
  10        -0.00051967
Sym=     3a  
Ene=    -0.9894
Spin= Alpha
Occup=    1.00000
   1         0.00184414
   2         0.67954513
   3        -0.00000000
   4        -0.00000000
   5         0.03820252
   6         0.00184414
   7         0.67954513
   8        -0.00000000
   9         0.00000000
  10        -0.03820252
Sym=     3a  
Ene=    -0.9894
Spin= Beta
Occup=    1.00000
   1         0.00184414
   2         0.67954513
   3        -0.00000000
   4        -0.00000000
   5         0.03820252
   6         0.00184414
   7         0.67954513
   8        -0.00000000
   9         0.00000000
  10        -0.03820252
Sym=     4a  
Ene=    -0.9097
Spin= Alpha
Occup=    1.00000
   1        -0.00597811
   2        -0.72405837
   3        -0.00000000
   4        -0.00000000
   5         0.05349162
   6         0.00597811
   7         0.72405837
   8         0.00000000
   9        -0.00000000
  10         0.05349162
Sym=     4a  
Ene=    -0.9097
Spin= Beta
Occup=    1.00000
   1        -0.00597811
   2        -0.72405837
   3        -0.00000000
   4        -0.00000000
   5         0.05349162
   6         0.00597811
   7         0.72405837
   8         0.00000000
   9        -0.00000000
  10         0.05349162
Sym=     5a  
Ene=    -0.3572
Spin= Alpha
Occup=    1.00000
   1         0.00561378
   2         0.10668659
   3        -0.00000000
   4         0.00000000
   5        -0.66709247
   6         0.00561378
   7         0.10668659
   8         0.00000000
   9        -0.00000000
  10         0.66709247
Sym=     5a  
Ene=    -0.3572
Spin= Beta
Occup=    1.00000
   1         0.00561378
   2         0.10668659
   3        -0.00000000
   4         0.00000000
   5        -0.66709247
   6         0.00561378
   7         0.10668659
   8         0.00000000
   9        -0.00000000
  10         0.66709247
Sym=     6a  
Ene=    -0.3029
Spin= Alpha
Occup=    1.00000
   1        -0.00000000
   2        -0.00000000
   3         0.52015889
   4         0.45783203
   5        -0.00000000
   6        -0.00000000
   7         0.00000000
   8         0.52015890
   9         0.45783203
  10        -0.00000000
Sym=     6a  
Ene=    -0.3029
Spin= Beta
Occup=    1.00000
   1        -0.00000000
   2        -0.00000000
   3         0.52015889
   4         0.45783203
   5        -0.00000000
   6        -0.00000000
   7         0.00000000
   8         0.52015890
   9         0.45783203
  10        -0.00000000
Sym=     7a  
Ene=    -0.3029
Spin= Alpha
Occup=    1.00000
   1        -0.00000000
   2        -0.00000000
   3        -0.45783203
   4         0.52015889
   5        -0.00000000
   6         0.00000000
   7         0.00000000
   8        -0.45783203
   9         0.52015890
  10        -0.00000000
Sym=     7a  
Ene=    -0.3029
Spin= Beta
Occup=    1.00000
   1        -0.00000000
   2        -0.00000000
   3        -0.45783203
   4         0.52015889
   5        -0.00000000
   6         0.00000000
   7         0.00000000
   8        -0.45783203
   9         0.52015890
  10        -0.00000000
Sym=     8a  
Ene=    -0.0418
Spin= Alpha
Occup=    0.00000
   1         0.00000000
   2         0.00000000
   3        -0.55778571
   4        -0.45870154
   5        -0.00000000
   6         0.00000000
   7        -0.00000000
   8         0.55778571
   9         0.45870154
  10         0.00000000
Sym=     8a  
Ene=    -0.0418
Spin= Beta
Occup=    0.00000
   1         0.00000000
   2         0.00000000
   3        -0.55778571
   4        -0.45870154
   5        -0.00000000
   6         0.00000000
   7        -0.00000000
   8         0.55778571
   9         0.45870154
  10         0.00000000
Sym=     9a  
Ene=    -0.0418
Spin= Alpha
Occup=    0.00000
   1         0.00000000
   2         0.00000000
   3         0.45870154
   4        -0.55778571
   5        -0.00000000
   6         0.00000000
   7         0.00000000
   8        -0.45870154
   9         0.55778571
  10         0.00000000
Sym=     9a  
Ene=    -0.0418
Spin= Beta
Occup=    0.00000
   1         0.00000000
   2         0.00000000
   3         0.45870154
   4        -0.55778571
   5        -0.00000000
   6         0.00000000
   7         0.00000000
   8        -0.45870154
   9         0.55778571
  10         0.00000000
Sym=    10a  
Ene=     0.0444
Spin= Alpha
Occup=    0.00000
   1         0.00658119
   2         0.13956604
   3         0.00000000
   4         0.00000000
   5         0.76217192
   6        -0.00658119
   7        -0.13956604
   8         0.00000000
   9         0.00000000
  10         0.76217192
Sym=    10a  
Ene=     0.0444
Spin= Beta
Occup=    0.00000
   1         0.00658119
   2         0.13956604
   3         0.00000000
   4         0.00000000
   5         0.76217192
   6        -0.00658119
   7        -0.13956604
   8         0.00000000
   9         0.00000000
  10         0.76217192
