[Molden Format]
[N_Atoms]
                     2
[Atoms] (AU)
N1          1      7           0.00000000      0.00000000      0.00000000
N2          2      7           0.00000000      0.00000000      4.34637009
[Charge] (Mulliken)
 -1.506380723729883E-003
  1.506380723679257E-003
[GTO] (AU)
   1
   s  14
  7.476171500E+04  1.182599996E-04
  1.112365400E+04  5.172899983E-04
  2.512685700E+03  2.266659992E-03
  7.037772900E+02  9.145289970E-03
  2.254787900E+02  3.239342989E-02
  7.961581000E+01  9.770792967E-02
  3.023728300E+01  2.317036792E-01
  1.226362200E+01  3.768898887E-01
  5.265086000E+00  3.177420689E-01
  2.333471000E+00  8.211308973E-02
  9.018560000E-01  3.312089989E-03
  3.583360000E-01  3.720819988E-03
  1.410930000E-01  3.165419989E-03
  4.938300000E-02  4.595799985E-04
   s  14
  7.476171500E+04 -2.707000010E-05
  1.112365400E+04 -1.183700004E-04
  2.512685700E+03 -5.203800020E-04
  7.037772900E+02 -2.102930008E-03
  2.254787900E+02 -7.568200028E-03
  7.961581000E+01 -2.346767009E-02
  3.023728300E+01 -6.042901023E-02
  1.226362200E+01 -1.170549104E-01
  5.265086000E+00 -1.555321506E-01
  2.333471000E+00 -2.468935009E-02
  9.018560000E-01  3.625054514E-01
  3.583360000E-01  5.550845021E-01
  1.410930000E-01  2.148376908E-01
  4.938300000E-02  8.983850034E-03
   p   9
  1.266665700E+02  1.233630000E-03
  2.983738900E+01  9.493409996E-03
  9.394038000E+00  4.293961998E-02
  3.405104000E+00  1.362925399E-01
  1.350000000E+00  2.921362499E-01
  5.576960000E-01  3.887887598E-01
  2.324490000E-01  2.946801399E-01
  9.426400000E-02  8.012875997E-02
  3.299200000E-02  5.405199998E-04
 
   2
   s  14
  7.476171500E+04  1.182599996E-04
  1.112365400E+04  5.172899983E-04
  2.512685700E+03  2.266659992E-03
  7.037772900E+02  9.145289970E-03
  2.254787900E+02  3.239342989E-02
  7.961581000E+01  9.770792967E-02
  3.023728300E+01  2.317036792E-01
  1.226362200E+01  3.768898887E-01
  5.265086000E+00  3.177420689E-01
  2.333471000E+00  8.211308973E-02
  9.018560000E-01  3.312089989E-03
  3.583360000E-01  3.720819988E-03
  1.410930000E-01  3.165419989E-03
  4.938300000E-02  4.595799985E-04
   s  14
  7.476171500E+04 -2.707000010E-05
  1.112365400E+04 -1.183700004E-04
  2.512685700E+03 -5.203800020E-04
  7.037772900E+02 -2.102930008E-03
  2.254787900E+02 -7.568200028E-03
  7.961581000E+01 -2.346767009E-02
  3.023728300E+01 -6.042901023E-02
  1.226362200E+01 -1.170549104E-01
  5.265086000E+00 -1.555321506E-01
  2.333471000E+00 -2.468935009E-02
  9.018560000E-01  3.625054514E-01
  3.583360000E-01  5.550845021E-01
  1.410930000E-01  2.148376908E-01
  4.938300000E-02  8.983850034E-03
   p   9
  1.266665700E+02  1.233630000E-03
  2.983738900E+01  9.493409996E-03
  9.394038000E+00  4.293961998E-02
  3.405104000E+00  1.362925399E-01
  1.350000000E+00  2.921362499E-01
  5.576960000E-01  3.887887598E-01
  2.324490000E-01  2.946801399E-01
  9.426400000E-02  8.012875997E-02
  3.299200000E-02  5.405199998E-04
 
[MO]
Sym=     1a  
Ene=   -15.5930
Spin= Alpha
Occup=    2.00000
   1         0.99866648
   2        -0.00577397
   3        -0.00000000
   4        -0.00000000
   5         0.00053410
   6         0.05130076
   7        -0.00130284
   8         0.00000000
   9         0.00000000
  10         0.00015054
Sym=     2a  
Ene=   -15.5920
Spin= Alpha
Occup=    2.00000
   1        -0.05135329
   2         0.00064700
   3         0.00000000
   4         0.00000000
   5         0.00043323
   6         0.99849047
   7        -0.01926138
   8        -0.00000000
   9        -0.00000000
  10        -0.00212229
Sym=     3a  
Ene=    -0.9401
Spin= Alpha
Occup=    2.00000
   1        -0.00524372
   2        -0.98943605
   3        -0.00000000
   4        -0.00000000
   5        -0.00448413
   6         0.00271613
   7        -0.00942446
   8         0.00000000
   9         0.00000000
  10         0.06907769
Sym=     4a  
Ene=    -0.4349
Spin= Alpha
Occup=    2.00000
   1        -0.00000000
   2        -0.00000000
   3        -0.00285902
   4         0.04384673
   5         0.00000000
   6         0.00000000
   7         0.00000000
   8        -0.06488581
   9         0.99510853
  10        -0.00000000
Sym=     5a  
Ene=    -0.4344
Spin= Alpha
Occup=    2.00000
   1        -0.00000000
   2        -0.00000000
   3         0.99532002
   4         0.06489960
   5         0.00000000
   6        -0.00000000
   7         0.00000000
   8         0.04132696
   9         0.00269471
  10        -0.00000000
Sym=     6a  
Ene=    -0.3622
Spin= Alpha
Occup=    2.00000
   1         0.00612648
   2         0.13069765
   3         0.00000000
   4         0.00000000
   5        -0.66778536
   6         0.00440957
   7        -0.06761672
   8         0.00000000
   9         0.00000000
  10         0.65421504
Sym=     7a  
Ene=    -0.9112
Spin= Alpha
Occup=    1.96622
   1        -0.00216903
   2        -0.05342469
   3        -0.00000000
   4        -0.00000000
   5        -0.05713008
   6         0.01999468
   7         0.99715753
   8         0.00000000
   9         0.00000000
  10         0.12393282
Sym=     8a  
Ene=     0.0000
Spin= Alpha
Occup=    0.03378
   1        -0.00000000
   2        -0.00000000
   3        -0.08249014
   4        -0.00537875
   5        -0.00000000
   6         0.00000000
   7         0.00000000
   8         0.99787707
   9         0.06506633
  10        -0.00000000
Sym=     9a  
Ene=     0.0562
Spin= Alpha
Occup=    0.00000
   1         0.00650645
   2         0.13410607
   3        -0.00000000
   4        -0.00000000
   5         0.76224522
   6        -0.00650884
   7        -0.13259450
   8         0.00000000
   9         0.00000000
  10         0.76295910
Sym=    10a  
Ene=     0.1116
Spin= Alpha
Occup=    0.00000
   1         0.00000000
   2         0.00000000
   3         0.06505932
   4        -0.99776952
   5         0.00000000
   6        -0.00000000
   7        -0.00000000
   8        -0.00554262
   9         0.08500332
  10         0.00000000
