[Molden Format]
[N_Atoms]
                     2
[Atoms] (AU)
N1          1      7           0.00000000      0.00000000      0.00000000
N2          2      7           0.00000000      0.00000000      4.34637009
[Charge] (Mulliken)
  0.000000000000000E+000
  0.000000000000000E+000
[GTO] (AU)
   1
   s  14
  7.476171500E+04  1.182599996E-04
  1.112365400E+04  5.172899983E-04
  2.512685700E+03  2.266659992E-03
  7.037772900E+02  9.145289970E-03
  2.254787900E+02  3.239342989E-02
  7.961581000E+01  9.770792967E-02
  3.023728300E+01  2.317036792E-01
  1.226362200E+01  3.768898887E-01
  5.265086000E+00  3.177420689E-01
  2.333471000E+00  8.211308973E-02
  9.018560000E-01  3.312089989E-03
  3.583360000E-01  3.720819988E-03
  1.410930000E-01  3.165419989E-03
  4.938300000E-02  4.595799985E-04
   s  14
  7.476171500E+04 -2.707000010E-05
  1.112365400E+04 -1.183700004E-04
  2.512685700E+03 -5.203800020E-04
  7.037772900E+02 -2.102930008E-03
  2.254787900E+02 -7.568200028E-03
  7.961581000E+01 -2.346767009E-02
  3.023728300E+01 -6.042901023E-02
  1.226362200E+01 -1.170549104E-01
  5.265086000E+00 -1.555321506E-01
  2.333471000E+00 -2.468935009E-02
  9.018560000E-01  3.625054514E-01
  3.583360000E-01  5.550845021E-01
  1.410930000E-01  2.148376908E-01
  4.938300000E-02  8.983850034E-03
   p   9
  1.266665700E+02  1.233630000E-03
  2.983738900E+01  9.493409996E-03
  9.394038000E+00  4.293961998E-02
  3.405104000E+00  1.362925399E-01
  1.350000000E+00  2.921362499E-01
  5.576960000E-01  3.887887598E-01
  2.324490000E-01  2.946801399E-01
  9.426400000E-02  8.012875997E-02
  3.299200000E-02  5.405199998E-04
 
   2
   s  14
  7.476171500E+04  1.182599996E-04
  1.112365400E+04  5.172899983E-04
  2.512685700E+03  2.266659992E-03
  7.037772900E+02  9.145289970E-03
  2.254787900E+02  3.239342989E-02
  7.961581000E+01  9.770792967E-02
  3.023728300E+01  2.317036792E-01
  1.226362200E+01  3.768898887E-01
  5.265086000E+00  3.177420689E-01
  2.333471000E+00  8.211308973E-02
  9.018560000E-01  3.312089989E-03
  3.583360000E-01  3.720819988E-03
  1.410930000E-01  3.165419989E-03
  4.938300000E-02  4.595799985E-04
   s  14
  7.476171500E+04 -2.707000010E-05
  1.112365400E+04 -1.183700004E-04
  2.512685700E+03 -5.203800020E-04
  7.037772900E+02 -2.102930008E-03
  2.254787900E+02 -7.568200028E-03
  7.961581000E+01 -2.346767009E-02
  3.023728300E+01 -6.042901023E-02
  1.226362200E+01 -1.170549104E-01
  5.265086000E+00 -1.555321506E-01
  2.333471000E+00 -2.468935009E-02
  9.018560000E-01  3.625054514E-01
  3.583360000E-01  5.550845021E-01
  1.410930000E-01  2.148376908E-01
  4.938300000E-02  8.983850034E-03
   p   9
  1.266665700E+02  1.233630000E-03
  2.983738900E+01  9.493409996E-03
  9.394038000E+00  4.293961998E-02
  3.405104000E+00  1.362925399E-01
  1.350000000E+00  2.921362499E-01
  5.576960000E-01  3.887887598E-01
  2.324490000E-01  2.946801399E-01
  9.426400000E-02  8.012875997E-02
  3.299200000E-02  5.405199998E-04
 
[MO]
Sym=     1a  
Ene=   -15.6360
Spin= Alpha
Occup=    2.00000
   1         0.70706909
   2         0.00015960
   3         0.00000000
   4        -0.00000000
   5         0.00022335
   6         0.70706909
   7         0.00015960
   8        -0.00000000
   9         0.00000000
  10        -0.00022335
Sym=     2a  
Ene=   -15.6320
Spin= Alpha
Occup=    2.00000
   1        -0.70713962
   2         0.00015521
   3        -0.00000000
   4        -0.00000000
   5         0.00021993
   6         0.70713962
   7        -0.00015521
   8         0.00000000
   9        -0.00000000
  10         0.00021993
Sym=     3a  
Ene=    -1.0253
Spin= Alpha
Occup=    2.00000
   1        -0.00341433
   2         0.66464700
   3         0.00000000
   4        -0.00000000
   5         0.10786234
   6        -0.00341433
   7         0.66464700
   8        -0.00000000
   9        -0.00000000
  10        -0.10786234
Sym=     4a  
Ene=    -0.8977
Spin= Alpha
Occup=    2.00000
   1        -0.00165250
   2        -0.71186731
   3        -0.00000000
   4         0.00000000
   5         0.10931117
   6         0.00165250
   7         0.71186731
   8        -0.00000000
   9         0.00000000
  10         0.10931117
Sym=     5a  
Ene=    -0.6288
Spin= Alpha
Occup=    2.00000
   1         0.00504446
   2         0.17727759
   3        -0.00000000
   4        -0.00000000
   5        -0.65942210
   6         0.00504446
   7         0.17727759
   8        -0.00000000
   9        -0.00000000
  10         0.65942210
Sym=     6a  
Ene=    -0.5943
Spin= Alpha
Occup=    2.00000
   1        -0.00000000
   2         0.00000000
   3        -0.31928688
   4         0.61500515
   5         0.00000000
   6         0.00000000
   7        -0.00000000
   8        -0.31928688
   9         0.61500515
  10         0.00000000
Sym=     7a  
Ene=    -0.5943
Spin= Alpha
Occup=    2.00000
   1        -0.00000000
   2        -0.00000000
   3         0.61500515
   4         0.31928688
   5        -0.00000000
   6         0.00000000
   7         0.00000000
   8         0.61500515
   9         0.31928688
  10        -0.00000000
Sym=     8a  
Ene=    -0.5471
Spin= Alpha
Occup=    0.00000
   1        -0.00000000
   2         0.00000000
   3         0.11319888
   4        -0.71324471
   5        -0.00000000
   6         0.00000000
   7         0.00000000
   8        -0.11319888
   9         0.71324471
  10        -0.00000000
Sym=     9a  
Ene=    -0.5471
Spin= Alpha
Occup=    0.00000
   1        -0.00000000
   2         0.00000000
   3        -0.71324471
   4        -0.11319888
   5        -0.00000000
   6         0.00000000
   7         0.00000000
   8         0.71324471
   9         0.11319888
  10        -0.00000000
Sym=    10a  
Ene=    -0.4803
Spin= Alpha
Occup=    0.00000
   1         0.00714089
   2         0.19235351
   3         0.00000000
   4         0.00000000
   5         0.75618693
   6        -0.00714089
   7        -0.19235351
   8         0.00000000
   9         0.00000000
  10         0.75618693
