[Molden Format]
[N_Atoms]
                     2
[Atoms] (AU)
N1          1      7           0.00000000      0.00000000      0.00000000
N2          2      7           0.00000000      0.00000000      4.34637009
[Charge] (Mulliken)
   1.00006055790407     
  0.999939442095903     
[GTO] (AU)
   1
   s  14
  7.476171500E+04  1.182599996E-04
  1.112365400E+04  5.172899983E-04
  2.512685700E+03  2.266659992E-03
  7.037772900E+02  9.145289970E-03
  2.254787900E+02  3.239342989E-02
  7.961581000E+01  9.770792967E-02
  3.023728300E+01  2.317036792E-01
  1.226362200E+01  3.768898887E-01
  5.265086000E+00  3.177420689E-01
  2.333471000E+00  8.211308973E-02
  9.018560000E-01  3.312089989E-03
  3.583360000E-01  3.720819988E-03
  1.410930000E-01  3.165419989E-03
  4.938300000E-02  4.595799985E-04
   s  14
  7.476171500E+04 -2.707000010E-05
  1.112365400E+04 -1.183700004E-04
  2.512685700E+03 -5.203800020E-04
  7.037772900E+02 -2.102930008E-03
  2.254787900E+02 -7.568200028E-03
  7.961581000E+01 -2.346767009E-02
  3.023728300E+01 -6.042901023E-02
  1.226362200E+01 -1.170549104E-01
  5.265086000E+00 -1.555321506E-01
  2.333471000E+00 -2.468935009E-02
  9.018560000E-01  3.625054514E-01
  3.583360000E-01  5.550845021E-01
  1.410930000E-01  2.148376908E-01
  4.938300000E-02  8.983850034E-03
   p   9
  1.266665700E+02  1.233630000E-03
  2.983738900E+01  9.493409996E-03
  9.394038000E+00  4.293961998E-02
  3.405104000E+00  1.362925399E-01
  1.350000000E+00  2.921362499E-01
  5.576960000E-01  3.887887598E-01
  2.324490000E-01  2.946801399E-01
  9.426400000E-02  8.012875997E-02
  3.299200000E-02  5.405199998E-04
 
   2
   s  14
  7.476171500E+04  1.182599996E-04
  1.112365400E+04  5.172899983E-04
  2.512685700E+03  2.266659992E-03
  7.037772900E+02  9.145289970E-03
  2.254787900E+02  3.239342989E-02
  7.961581000E+01  9.770792967E-02
  3.023728300E+01  2.317036792E-01
  1.226362200E+01  3.768898887E-01
  5.265086000E+00  3.177420689E-01
  2.333471000E+00  8.211308973E-02
  9.018560000E-01  3.312089989E-03
  3.583360000E-01  3.720819988E-03
  1.410930000E-01  3.165419989E-03
  4.938300000E-02  4.595799985E-04
   s  14
  7.476171500E+04 -2.707000010E-05
  1.112365400E+04 -1.183700004E-04
  2.512685700E+03 -5.203800020E-04
  7.037772900E+02 -2.102930008E-03
  2.254787900E+02 -7.568200028E-03
  7.961581000E+01 -2.346767009E-02
  3.023728300E+01 -6.042901023E-02
  1.226362200E+01 -1.170549104E-01
  5.265086000E+00 -1.555321506E-01
  2.333471000E+00 -2.468935009E-02
  9.018560000E-01  3.625054514E-01
  3.583360000E-01  5.550845021E-01
  1.410930000E-01  2.148376908E-01
  4.938300000E-02  8.983850034E-03
   p   9
  1.266665700E+02  1.233630000E-03
  2.983738900E+01  9.493409996E-03
  9.394038000E+00  4.293961998E-02
  3.405104000E+00  1.362925399E-01
  1.350000000E+00  2.921362499E-01
  5.576960000E-01  3.887887598E-01
  2.324490000E-01  2.946801399E-01
  9.426400000E-02  8.012875997E-02
  3.299200000E-02  5.405199998E-04
 
[MO]
Sym=     1a  
Ene=   -16.7430
Spin= Alpha
Occup=    2.00000
   1        -0.00114544
   2        -0.00023290
   3         0.00000000
   4        -0.00000000
   5        -0.00020896
   6         0.99997278
   7        -0.00759446
   8         0.00000000
   9        -0.00000000
  10         0.00008357
Sym=     2a  
Ene=   -16.7390
Spin= Alpha
Occup=    2.00000
   1        -0.99979012
   2         0.02046787
   3        -0.00000000
   4         0.00000000
   5         0.00073071
   6        -0.00113728
   7        -0.00053334
   8        -0.00000000
   9         0.00000000
  10        -0.00030330
Sym=     3a  
Ene=    -1.7627
Spin= Alpha
Occup=    2.00000
   1         0.00319905
   2         0.01616490
   3        -0.00000000
   4         0.00000000
   5        -0.00917795
   6        -0.00760577
   7        -0.99823244
   8        -0.00000000
   9         0.00000000
  10         0.05821544
Sym=     4a  
Ene=    -1.2787
Spin= Alpha
Occup=    2.00000
   1         0.00000000
   2        -0.00000000
   3        -0.00685687
   4         0.02115441
   5        -0.00000000
   6         0.00000000
   7         0.00000000
   8        -0.30943485
   9         0.94969545
  10         0.00000001
Sym=     5a  
Ene=    -1.2769
Spin= Alpha
Occup=    2.00000
   1         0.00000000
   2         0.00000000
   3         0.94966549
   4         0.30943066
   5         0.00000000
   6        -0.00000000
   7        -0.00000000
   8         0.02159897
   9         0.00700136
  10        -0.00000000
Sym=     6a  
Ene=    -0.7521
Spin= Alpha
Occup=    0.03619
   1        -0.00032028
   2         0.04209229
   3         0.00000000
   4        -0.00000000
   5        -1.00770823
   6         0.00810831
   7         0.12190696
   8         0.00000000
   9        -0.00000000
  10        -0.02713791
Sym=     7a  
Ene=    -0.1935
Spin= Alpha
Occup=    1.96381
   1        -0.02063794
   2        -1.00028227
   3         0.00000000
   4        -0.00000000
   5        -0.05205703
   6         0.00355048
   7         0.06403331
   8         0.00000000
   9        -0.00000000
  10         0.00645691
Sym=     8a  
Ene=    -0.7338
Spin= Alpha
Occup=    0.00000
   1         0.00813036
   2         0.11798854
   3         0.00000002
   4        -0.00000005
   5         0.10940238
   6        -0.00095851
   7         0.03808472
   8         0.00000001
   9        -0.00000001
  10         1.01295222
Sym=     9a  
Ene=    -0.7329
Spin= Alpha
Occup=    0.00000
   1         0.00000000
   2         0.00000000
   3         0.06083298
   4         0.01987267
   5         0.00000000
   6        -0.00000000
   7         0.00000000
   8        -0.95136839
   9        -0.30998404
  10         0.00000000
Sym=    10a  
Ene=    -0.7311
Spin= Alpha
Occup=    0.00000
   1        -0.00000000
   2        -0.00000001
   3         0.30999232
   4        -0.95137673
   5        -0.00000000
   6         0.00000000
   7        -0.00000000
   8        -0.01972799
   9         0.06038935
  10        -0.00000005
