[Molden Format]
[N_Atoms]
                     2
[Atoms] (AU)
C1          1      6           0.00000000      0.00000000      0.00000000
C2          2      6           0.00000000      0.00000000      4.72431531
[Charge] (Mulliken)
  6.206146707654625E-011
 -6.207123703916295E-011
[GTO] (AU)
   1
   s  14
  5.055750100E+04  1.128874000E-04
  7.524785600E+03  5.295373000E-04
  1.694327600E+03  2.450038300E-03
  4.728227900E+02  1.005398470E-02
  1.517107500E+02  3.545398060E-02
  5.391874600E+01  1.044071086E-01
  2.065931100E+01  2.412894918E-01
  8.383976000E+00  3.834225483E-01
  3.577015000E+00  3.078514393E-01
  1.547118000E+00  6.872442990E-02
  6.130130000E-01  2.224445000E-04
  2.460680000E-01  1.976748900E-03
  9.908700000E-02  2.057859400E-03
  3.468000000E-02  4.182020000E-04
   s  14
  5.055750100E+04 -2.507420000E-05
  7.524785600E+03 -1.175945000E-04
  1.694327600E+03 -5.456275000E-04
  4.728227900E+02 -2.245077100E-03
  1.517107500E+02 -8.043471800E-03
  5.391874600E+01 -2.442588710E-02
  2.065931100E+01 -6.136791180E-02
  8.383976000E+00 -1.177767835E-01
  3.577015000E+00 -1.550487783E-01
  1.547118000E+00 -1.933316860E-02
  6.130130000E-01  3.996930678E-01
  2.460680000E-01  5.589420949E-01
  9.908700000E-02  1.711195023E-01
  3.468000000E-02  7.456244600E-03
   p   9
  8.333315500E+01  1.344656000E-03
  1.955761100E+01  1.023555500E-02
  6.080365000E+00  4.520067100E-02
  2.179317000E+00  1.410756198E-01
  8.651500000E-01  3.047388085E-01
  3.619440000E-01  3.995281011E-01
  1.547400000E-01  2.719163432E-01
  6.542900000E-02  5.857669330E-02
  2.290000000E-02 -1.263813000E-04
 
   2
   s  14
  5.055750100E+04  1.128874000E-04
  7.524785600E+03  5.295373000E-04
  1.694327600E+03  2.450038300E-03
  4.728227900E+02  1.005398470E-02
  1.517107500E+02  3.545398060E-02
  5.391874600E+01  1.044071086E-01
  2.065931100E+01  2.412894918E-01
  8.383976000E+00  3.834225483E-01
  3.577015000E+00  3.078514393E-01
  1.547118000E+00  6.872442990E-02
  6.130130000E-01  2.224445000E-04
  2.460680000E-01  1.976748900E-03
  9.908700000E-02  2.057859400E-03
  3.468000000E-02  4.182020000E-04
   s  14
  5.055750100E+04 -2.507420000E-05
  7.524785600E+03 -1.175945000E-04
  1.694327600E+03 -5.456275000E-04
  4.728227900E+02 -2.245077100E-03
  1.517107500E+02 -8.043471800E-03
  5.391874600E+01 -2.442588710E-02
  2.065931100E+01 -6.136791180E-02
  8.383976000E+00 -1.177767835E-01
  3.577015000E+00 -1.550487783E-01
  1.547118000E+00 -1.933316860E-02
  6.130130000E-01  3.996930678E-01
  2.460680000E-01  5.589420949E-01
  9.908700000E-02  1.711195023E-01
  3.468000000E-02  7.456244600E-03
   p   9
  8.333315500E+01  1.344656000E-03
  1.955761100E+01  1.023555500E-02
  6.080365000E+00  4.520067100E-02
  2.179317000E+00  1.410756198E-01
  8.651500000E-01  3.047388085E-01
  3.619440000E-01  3.995281011E-01
  1.547400000E-01  2.719163432E-01
  6.542900000E-02  5.857669330E-02
  2.290000000E-02 -1.263813000E-04
 
[MO]
Sym=     1a  
Ene=   -11.2840
Spin= Alpha
Occup=    1.00000
   1         0.70707387
   2        -0.00211727
   3         0.00000000
   4         0.00000000
   5         0.00036491
   6         0.70707406
   7        -0.00211727
   8         0.00000000
   9         0.00000000
  10        -0.00036491
Sym=     1a  
Ene=   -11.2840
Spin= Beta
Occup=    1.00000
   1         0.70707387
   2        -0.00211727
   3         0.00000000
   4         0.00000000
   5         0.00036491
   6         0.70707406
   7        -0.00211727
   8         0.00000000
   9         0.00000000
  10        -0.00036491
Sym=     2a  
Ene=   -11.2830
Spin= Alpha
Occup=    1.00000
   1        -0.70713970
   2         0.00160436
   3         0.00000000
   4         0.00000000
   5        -0.00066957
   6         0.70713950
   7        -0.00160436
   8        -0.00000000
   9         0.00000000
  10        -0.00066957
Sym=     2a  
Ene=   -11.2830
Spin= Beta
Occup=    1.00000
   1        -0.70713970
   2         0.00160436
   3         0.00000000
   4         0.00000000
   5        -0.00066957
   6         0.70713950
   7        -0.00160436
   8        -0.00000000
   9         0.00000000
  10        -0.00066957
Sym=     3a  
Ene=    -0.7366
Spin= Alpha
Occup=    1.00000
   1        -0.00139348
   2         0.66929287
   3        -0.00000000
   4         0.00000000
   5         0.05654893
   6        -0.00139348
   7         0.66929287
   8        -0.00000000
   9        -0.00000000
  10        -0.05654893
Sym=     3a  
Ene=    -0.7366
Spin= Beta
Occup=    1.00000
   1        -0.00139348
   2         0.66929287
   3        -0.00000000
   4         0.00000000
   5         0.05654893
   6        -0.00139348
   7         0.66929287
   8        -0.00000000
   9        -0.00000000
  10        -0.05654893
Sym=     4a  
Ene=    -0.6558
Spin= Alpha
Occup=    1.00000
   1        -0.00397978
   2        -0.72421198
   3         0.00000000
   4         0.00000000
   5         0.07658598
   6         0.00397978
   7         0.72421198
   8        -0.00000000
   9         0.00000000
  10         0.07658598
Sym=     4a  
Ene=    -0.6558
Spin= Beta
Occup=    1.00000
   1        -0.00397978
   2        -0.72421198
   3         0.00000000
   4         0.00000000
   5         0.07658598
   6         0.00397978
   7         0.72421198
   8        -0.00000000
   9         0.00000000
  10         0.07658598
Sym=     5a  
Ene=    -0.2755
Spin= Alpha
Occup=    1.00000
   1         0.00712737
   2         0.14078757
   3         0.00000000
   4        -0.00000000
   5        -0.65792928
   6         0.00712737
   7         0.14078757
   8        -0.00000000
   9         0.00000000
  10         0.65792928
Sym=     5a  
Ene=    -0.2755
Spin= Beta
Occup=    1.00000
   1         0.00712737
   2         0.14078757
   3         0.00000000
   4        -0.00000000
   5        -0.65792928
   6         0.00712737
   7         0.14078757
   8        -0.00000000
   9         0.00000000
  10         0.65792928
Sym=     6a  
Ene=    -0.2258
Spin= Alpha
Occup=    1.00000
   1         0.00000000
   2         0.00000000
   3        -0.36662107
   4         0.58254895
   5         0.00000000
   6        -0.00000000
   7        -0.00000000
   8        -0.36662107
   9         0.58254895
  10         0.00000000
Sym=     6a  
Ene=    -0.2258
Spin= Beta
Occup=    1.00000
   1         0.00000000
   2         0.00000000
   3        -0.36662107
   4         0.58254895
   5         0.00000000
   6        -0.00000000
   7        -0.00000000
   8        -0.36662107
   9         0.58254895
  10         0.00000000
Sym=     7a  
Ene=     0.0200
Spin= Alpha
Occup=    0.00000
   1        -0.00000000
   2        -0.00000000
   3         0.38750948
   4        -0.61573996
   5         0.00000000
   6        -0.00000000
   7        -0.00000000
   8        -0.38750948
   9         0.61573996
  10        -0.00000000
Sym=     7a  
Ene=     0.0200
Spin= Beta
Occup=    0.00000
   1        -0.00000000
   2        -0.00000000
   3         0.38750948
   4        -0.61573996
   5         0.00000000
   6        -0.00000000
   7        -0.00000000
   8        -0.38750948
   9         0.61573996
  10        -0.00000000
Sym=     8a  
Ene=     0.0957
Spin= Alpha
Occup=    0.00000
   1         0.00000000
   2         0.00000000
   3         0.58254895
   4         0.36662107
   5        -0.00000000
   6        -0.00000000
   7         0.00000000
   8         0.58254895
   9         0.36662107
  10         0.00000000
Sym=     8a  
Ene=     0.0957
Spin= Beta
Occup=    0.00000
   1         0.00000000
   2         0.00000000
   3         0.58254895
   4         0.36662107
   5        -0.00000000
   6        -0.00000000
   7         0.00000000
   8         0.58254895
   9         0.36662107
  10         0.00000000
Sym=     9a  
Ene=     0.1109
Spin= Alpha
Occup=    0.00000
   1         0.00885598
   2         0.18842436
   3         0.00000000
   4        -0.00000000
   5         0.77916412
   6        -0.00885598
   7        -0.18842436
   8         0.00000000
   9        -0.00000000
  10         0.77916412
Sym=     9a  
Ene=     0.1109
Spin= Beta
Occup=    0.00000
   1         0.00885598
   2         0.18842436
   3         0.00000000
   4        -0.00000000
   5         0.77916412
   6        -0.00885598
   7        -0.18842436
   8         0.00000000
   9        -0.00000000
  10         0.77916412
Sym=    10a  
Ene=     0.1461
Spin= Alpha
Occup=    0.00000
   1         0.00000000
   2         0.00000000
   3        -0.61573996
   4        -0.38750948
   5         0.00000000
   6        -0.00000000
   7        -0.00000000
   8         0.61573996
   9         0.38750948
  10         0.00000000
Sym=    10a  
Ene=     0.1461
Spin= Beta
Occup=    0.00000
   1         0.00000000
   2         0.00000000
   3        -0.61573996
   4        -0.38750948
   5         0.00000000
   6        -0.00000000
   7        -0.00000000
   8         0.61573996
   9         0.38750948
  10         0.00000000
