[Molden Format]
[N_Atoms]
                     2
[Atoms] (AU)
C1          1      6           0.00000000      0.00000000      0.00000000
C2          2      6           0.00000000      0.00000000      4.72431531
[Charge] (Mulliken)
  5.526769850661140E-006
 -5.526769895958239E-006
[GTO] (AU)
   1
   s  14
  5.055750100E+04  1.128874000E-04
  7.524785600E+03  5.295373000E-04
  1.694327600E+03  2.450038300E-03
  4.728227900E+02  1.005398470E-02
  1.517107500E+02  3.545398060E-02
  5.391874600E+01  1.044071086E-01
  2.065931100E+01  2.412894918E-01
  8.383976000E+00  3.834225483E-01
  3.577015000E+00  3.078514393E-01
  1.547118000E+00  6.872442990E-02
  6.130130000E-01  2.224445000E-04
  2.460680000E-01  1.976748900E-03
  9.908700000E-02  2.057859400E-03
  3.468000000E-02  4.182020000E-04
   s  14
  5.055750100E+04 -2.507420000E-05
  7.524785600E+03 -1.175945000E-04
  1.694327600E+03 -5.456275000E-04
  4.728227900E+02 -2.245077100E-03
  1.517107500E+02 -8.043471800E-03
  5.391874600E+01 -2.442588710E-02
  2.065931100E+01 -6.136791180E-02
  8.383976000E+00 -1.177767835E-01
  3.577015000E+00 -1.550487783E-01
  1.547118000E+00 -1.933316860E-02
  6.130130000E-01  3.996930678E-01
  2.460680000E-01  5.589420949E-01
  9.908700000E-02  1.711195023E-01
  3.468000000E-02  7.456244600E-03
   p   9
  8.333315500E+01  1.344656000E-03
  1.955761100E+01  1.023555500E-02
  6.080365000E+00  4.520067100E-02
  2.179317000E+00  1.410756198E-01
  8.651500000E-01  3.047388085E-01
  3.619440000E-01  3.995281011E-01
  1.547400000E-01  2.719163432E-01
  6.542900000E-02  5.857669330E-02
  2.290000000E-02 -1.263813000E-04
 
   2
   s  14
  5.055750100E+04  1.128874000E-04
  7.524785600E+03  5.295373000E-04
  1.694327600E+03  2.450038300E-03
  4.728227900E+02  1.005398470E-02
  1.517107500E+02  3.545398060E-02
  5.391874600E+01  1.044071086E-01
  2.065931100E+01  2.412894918E-01
  8.383976000E+00  3.834225483E-01
  3.577015000E+00  3.078514393E-01
  1.547118000E+00  6.872442990E-02
  6.130130000E-01  2.224445000E-04
  2.460680000E-01  1.976748900E-03
  9.908700000E-02  2.057859400E-03
  3.468000000E-02  4.182020000E-04
   s  14
  5.055750100E+04 -2.507420000E-05
  7.524785600E+03 -1.175945000E-04
  1.694327600E+03 -5.456275000E-04
  4.728227900E+02 -2.245077100E-03
  1.517107500E+02 -8.043471800E-03
  5.391874600E+01 -2.442588710E-02
  2.065931100E+01 -6.136791180E-02
  8.383976000E+00 -1.177767835E-01
  3.577015000E+00 -1.550487783E-01
  1.547118000E+00 -1.933316860E-02
  6.130130000E-01  3.996930678E-01
  2.460680000E-01  5.589420949E-01
  9.908700000E-02  1.711195023E-01
  3.468000000E-02  7.456244600E-03
   p   9
  8.333315500E+01  1.344656000E-03
  1.955761100E+01  1.023555500E-02
  6.080365000E+00  4.520067100E-02
  2.179317000E+00  1.410756198E-01
  8.651500000E-01  3.047388085E-01
  3.619440000E-01  3.995281011E-01
  1.547400000E-01  2.719163432E-01
  6.542900000E-02  5.857669330E-02
  2.290000000E-02 -1.263813000E-04
 
[MO]
Sym=     1a  
Ene=   -11.2800
Spin= Alpha
Occup=    2.00000
   1         0.72583609
   2        -0.00213599
   3         0.00000000
   4        -0.00000000
   5        -0.00009812
   6         0.68781052
   7        -0.00191502
   8         0.00000000
   9        -0.00000000
  10         0.00012294
Sym=     2a  
Ene=   -11.2780
Spin= Alpha
Occup=    2.00000
   1        -0.68776877
   2         0.01009303
   3        -0.00000000
   4        -0.00000000
   5        -0.00075728
   6         0.72579124
   7        -0.01037784
   8        -0.00000000
   9        -0.00000000
  10        -0.00074289
Sym=     3a  
Ene=    -0.7366
Spin= Alpha
Occup=    2.00000
   1        -0.00107306
   2         0.68230782
   3        -0.00000000
   4        -0.00000000
   5         0.03025900
   6        -0.00116744
   7         0.66623499
   8         0.00000000
   9         0.00000000
  10        -0.03099886
Sym=     4a  
Ene=    -0.2295
Spin= Alpha
Occup=    2.00000
   1        -0.00000000
   2         0.00000000
   3         0.67703876
   4         0.12402771
   5         0.00000000
   6        -0.00000000
   7        -0.00000000
   8         0.67705295
   9         0.12403030
  10         0.00000000
Sym=     5a  
Ene=    -0.2295
Spin= Alpha
Occup=    2.00000
   1        -0.00000000
   2         0.00000000
   3        -0.12402770
   4         0.67703873
   5         0.00000000
   6        -0.00000000
   7        -0.00000000
   8        -0.12403031
   9         0.67705298
  10        -0.00000000
Sym=     6a  
Ene=    -0.6554
Spin= Alpha
Occup=    1.98692
   1        -0.01256527
   2        -0.72577278
   3         0.00000000
   4         0.00000000
   5         0.03509139
   6         0.01285776
   7         0.74053510
   8        -0.00000000
   9         0.00000000
  10         0.03434788
Sym=     7a  
Ene=    -0.0000
Spin= Alpha
Occup=    0.01308
   1         0.00675949
   2         0.11588121
   3        -0.00000000
   4         0.00000000
   5        -0.65139123
   6         0.00657293
   7         0.11282447
   8         0.00000000
   9         0.00000000
  10         0.66782457
Sym=     8a  
Ene=     0.0157
Spin= Alpha
Occup=    0.00000
   1        -0.00000000
   2        -0.00000000
   3        -0.12110934
   4         0.71738539
   5         0.00000000
   6        -0.00000000
   7         0.00000000
   8         0.12110706
   9        -0.71737188
  10         0.00000000
Sym=     9a  
Ene=     0.0157
Spin= Alpha
Occup=    0.00000
   1         0.00000000
   2         0.00000000
   3         0.71738536
   4         0.12110934
   5        -0.00000000
   6        -0.00000000
   7         0.00000000
   8        -0.71737190
   9        -0.12110707
  10         0.00000000
Sym=    10a  
Ene=     0.2176
Spin= Alpha
Occup=    0.00000
   1        -0.00885351
   2        -0.14813137
   3         0.00000000
   4         0.00000000
   5        -0.78903316
   6         0.00899358
   7         0.15055180
   8         0.00000000
   9        -0.00000000
  10        -0.77517773
