[Molden Format]
[N_Atoms]
                     2
[Atoms] (AU)
C1          1      6           0.00000000      0.00000000      0.00000000
C2          2      6           0.00000000      0.00000000      4.72431531
[Charge] (Mulliken)
  0.000000000000000E+000
  0.000000000000000E+000
[GTO] (AU)
   1
   s  14
  5.055750100E+04  1.128874000E-04
  7.524785600E+03  5.295373000E-04
  1.694327600E+03  2.450038300E-03
  4.728227900E+02  1.005398470E-02
  1.517107500E+02  3.545398060E-02
  5.391874600E+01  1.044071086E-01
  2.065931100E+01  2.412894918E-01
  8.383976000E+00  3.834225483E-01
  3.577015000E+00  3.078514393E-01
  1.547118000E+00  6.872442990E-02
  6.130130000E-01  2.224445000E-04
  2.460680000E-01  1.976748900E-03
  9.908700000E-02  2.057859400E-03
  3.468000000E-02  4.182020000E-04
   s  14
  5.055750100E+04 -2.507420000E-05
  7.524785600E+03 -1.175945000E-04
  1.694327600E+03 -5.456275000E-04
  4.728227900E+02 -2.245077100E-03
  1.517107500E+02 -8.043471800E-03
  5.391874600E+01 -2.442588710E-02
  2.065931100E+01 -6.136791180E-02
  8.383976000E+00 -1.177767835E-01
  3.577015000E+00 -1.550487783E-01
  1.547118000E+00 -1.933316860E-02
  6.130130000E-01  3.996930678E-01
  2.460680000E-01  5.589420949E-01
  9.908700000E-02  1.711195023E-01
  3.468000000E-02  7.456244600E-03
   p   9
  8.333315500E+01  1.344656000E-03
  1.955761100E+01  1.023555500E-02
  6.080365000E+00  4.520067100E-02
  2.179317000E+00  1.410756198E-01
  8.651500000E-01  3.047388085E-01
  3.619440000E-01  3.995281011E-01
  1.547400000E-01  2.719163432E-01
  6.542900000E-02  5.857669330E-02
  2.290000000E-02 -1.263813000E-04
 
   2
   s  14
  5.055750100E+04  1.128874000E-04
  7.524785600E+03  5.295373000E-04
  1.694327600E+03  2.450038300E-03
  4.728227900E+02  1.005398470E-02
  1.517107500E+02  3.545398060E-02
  5.391874600E+01  1.044071086E-01
  2.065931100E+01  2.412894918E-01
  8.383976000E+00  3.834225483E-01
  3.577015000E+00  3.078514393E-01
  1.547118000E+00  6.872442990E-02
  6.130130000E-01  2.224445000E-04
  2.460680000E-01  1.976748900E-03
  9.908700000E-02  2.057859400E-03
  3.468000000E-02  4.182020000E-04
   s  14
  5.055750100E+04 -2.507420000E-05
  7.524785600E+03 -1.175945000E-04
  1.694327600E+03 -5.456275000E-04
  4.728227900E+02 -2.245077100E-03
  1.517107500E+02 -8.043471800E-03
  5.391874600E+01 -2.442588710E-02
  2.065931100E+01 -6.136791180E-02
  8.383976000E+00 -1.177767835E-01
  3.577015000E+00 -1.550487783E-01
  1.547118000E+00 -1.933316860E-02
  6.130130000E-01  3.996930678E-01
  2.460680000E-01  5.589420949E-01
  9.908700000E-02  1.711195023E-01
  3.468000000E-02  7.456244600E-03
   p   9
  8.333315500E+01  1.344656000E-03
  1.955761100E+01  1.023555500E-02
  6.080365000E+00  4.520067100E-02
  2.179317000E+00  1.410756198E-01
  8.651500000E-01  3.047388085E-01
  3.619440000E-01  3.995281011E-01
  1.547400000E-01  2.719163432E-01
  6.542900000E-02  5.857669330E-02
  2.290000000E-02 -1.263813000E-04
 
[MO]
Sym=     1a  
Ene=   -11.3290
Spin= Alpha
Occup=    2.00000
   1         0.70706778
   2         0.00020697
   3        -0.00000000
   4        -0.00000000
   5         0.00031084
   6         0.70706778
   7         0.00020697
   8        -0.00000000
   9        -0.00000000
  10        -0.00031084
Sym=     2a  
Ene=   -11.3270
Spin= Alpha
Occup=    2.00000
   1        -0.70713714
   2         0.00019917
   3         0.00000000
   4         0.00000000
   5         0.00030468
   6         0.70713714
   7        -0.00019917
   8         0.00000000
   9         0.00000000
  10         0.00030468
Sym=     3a  
Ene=    -0.7856
Spin= Alpha
Occup=    2.00000
   1        -0.00461397
   2         0.64671014
   3         0.00000000
   4         0.00000000
   5         0.13758664
   6        -0.00461397
   7         0.64671014
   8         0.00000000
   9         0.00000000
  10        -0.13758664
Sym=     4a  
Ene=    -0.6644
Spin= Alpha
Occup=    2.00000
   1        -0.00163074
   2        -0.70651087
   3        -0.00000000
   4        -0.00000000
   5         0.13963799
   6         0.00163074
   7         0.70651087
   8        -0.00000000
   9        -0.00000000
  10         0.13963799
Sym=     5a  
Ene=    -0.4862
Spin= Alpha
Occup=    2.00000
   1         0.00634044
   2         0.22258596
   3         0.00000000
   4        -0.00000000
   5        -0.64586274
   6         0.00634044
   7         0.22258596
   8         0.00000000
   9        -0.00000000
  10         0.64586274
Sym=     6a  
Ene=    -0.4595
Spin= Alpha
Occup=    1.00000
   1         0.00000000
   2         0.00000000
   3        -0.36662107
   4         0.58254895
   5         0.00000000
   6        -0.00000000
   7        -0.00000000
   8        -0.36662107
   9         0.58254895
  10         0.00000000
Sym=     7a  
Ene=    -0.4595
Spin= Alpha
Occup=    1.00000
   1        -0.00000000
   2        -0.00000000
   3         0.58254895
   4         0.36662107
   5        -0.00000000
   6         0.00000000
   7         0.00000000
   8         0.58254895
   9         0.36662107
  10        -0.00000000
Sym=     8a  
Ene=    -0.4113
Spin= Alpha
Occup=    0.00000
   1         0.00000000
   2         0.00000000
   3         0.42621459
   4        -0.58961039
   5         0.00000000
   6        -0.00000000
   7        -0.00000000
   8        -0.42621459
   9         0.58961039
  10         0.00000000
Sym=     9a  
Ene=    -0.4113
Spin= Alpha
Occup=    0.00000
   1         0.00000000
   2        -0.00000000
   3        -0.58961039
   4        -0.42621459
   5        -0.00000000
   6         0.00000000
   7         0.00000000
   8         0.58961039
   9         0.42621459
  10         0.00000000
Sym=    10a  
Ene=    -0.3450
Spin= Alpha
Occup=    0.00000
   1         0.00975135
   2         0.24664074
   3         0.00000000
   4        -0.00000000
   5         0.77036597
   6        -0.00975135
   7        -0.24664074
   8         0.00000000
   9        -0.00000000
  10         0.77036597
