[Molden Format]
[N_Atoms]
                     2
[Atoms] (AU)
C1          1      6           0.00000000      0.00000000      0.00000000
C2          2      6           0.00000000      0.00000000      4.72431531
[Charge] (Mulliken)
   1.00397903673090     
  0.996020963269083     
[GTO] (AU)
   1
   s  14
  5.055750100E+04  1.128874000E-04
  7.524785600E+03  5.295373000E-04
  1.694327600E+03  2.450038300E-03
  4.728227900E+02  1.005398470E-02
  1.517107500E+02  3.545398060E-02
  5.391874600E+01  1.044071086E-01
  2.065931100E+01  2.412894918E-01
  8.383976000E+00  3.834225483E-01
  3.577015000E+00  3.078514393E-01
  1.547118000E+00  6.872442990E-02
  6.130130000E-01  2.224445000E-04
  2.460680000E-01  1.976748900E-03
  9.908700000E-02  2.057859400E-03
  3.468000000E-02  4.182020000E-04
   s  14
  5.055750100E+04 -2.507420000E-05
  7.524785600E+03 -1.175945000E-04
  1.694327600E+03 -5.456275000E-04
  4.728227900E+02 -2.245077100E-03
  1.517107500E+02 -8.043471800E-03
  5.391874600E+01 -2.442588710E-02
  2.065931100E+01 -6.136791180E-02
  8.383976000E+00 -1.177767835E-01
  3.577015000E+00 -1.550487783E-01
  1.547118000E+00 -1.933316860E-02
  6.130130000E-01  3.996930678E-01
  2.460680000E-01  5.589420949E-01
  9.908700000E-02  1.711195023E-01
  3.468000000E-02  7.456244600E-03
   p   9
  8.333315500E+01  1.344656000E-03
  1.955761100E+01  1.023555500E-02
  6.080365000E+00  4.520067100E-02
  2.179317000E+00  1.410756198E-01
  8.651500000E-01  3.047388085E-01
  3.619440000E-01  3.995281011E-01
  1.547400000E-01  2.719163432E-01
  6.542900000E-02  5.857669330E-02
  2.290000000E-02 -1.263813000E-04
 
   2
   s  14
  5.055750100E+04  1.128874000E-04
  7.524785600E+03  5.295373000E-04
  1.694327600E+03  2.450038300E-03
  4.728227900E+02  1.005398470E-02
  1.517107500E+02  3.545398060E-02
  5.391874600E+01  1.044071086E-01
  2.065931100E+01  2.412894918E-01
  8.383976000E+00  3.834225483E-01
  3.577015000E+00  3.078514393E-01
  1.547118000E+00  6.872442990E-02
  6.130130000E-01  2.224445000E-04
  2.460680000E-01  1.976748900E-03
  9.908700000E-02  2.057859400E-03
  3.468000000E-02  4.182020000E-04
   s  14
  5.055750100E+04 -2.507420000E-05
  7.524785600E+03 -1.175945000E-04
  1.694327600E+03 -5.456275000E-04
  4.728227900E+02 -2.245077100E-03
  1.517107500E+02 -8.043471800E-03
  5.391874600E+01 -2.442588710E-02
  2.065931100E+01 -6.136791180E-02
  8.383976000E+00 -1.177767835E-01
  3.577015000E+00 -1.550487783E-01
  1.547118000E+00 -1.933316860E-02
  6.130130000E-01  3.996930678E-01
  2.460680000E-01  5.589420949E-01
  9.908700000E-02  1.711195023E-01
  3.468000000E-02  7.456244600E-03
   p   9
  8.333315500E+01  1.344656000E-03
  1.955761100E+01  1.023555500E-02
  6.080365000E+00  4.520067100E-02
  2.179317000E+00  1.410756198E-01
  8.651500000E-01  3.047388085E-01
  3.619440000E-01  3.995281011E-01
  1.547400000E-01  2.719163432E-01
  6.542900000E-02  5.857669330E-02
  2.290000000E-02 -1.263813000E-04
 
[MO]
Sym=     1a  
Ene=   -12.2540
Spin= Alpha
Occup=    2.00000
   1         0.99980446
   2        -0.01662969
   3        -0.00000000
   4         0.00000000
   5        -0.00085412
   6         0.01061934
   7         0.00092073
   8        -0.00000000
   9         0.00000000
  10         0.00032206
Sym=     2a  
Ene=   -12.2510
Spin= Alpha
Occup=    2.00000
   1        -0.01061969
   2        -0.00002853
   3        -0.00000000
   4         0.00000000
   5        -0.00011355
   6         0.99993515
   7        -0.00458863
   8        -0.00000000
   9         0.00000000
  10         0.00014268
Sym=     3a  
Ene=    -1.4060
Spin= Alpha
Occup=    2.00000
   1        -0.00433582
   2        -0.00447501
   3        -0.00000000
   4         0.00000000
   5         0.02523398
   6         0.00436054
   7         0.99421998
   8        -0.00000000
   9         0.00000000
  10        -0.06575965
Sym=     4a  
Ene=    -0.9374
Spin= Alpha
Occup=    2.00000
   1        -0.00000000
   2         0.00000000
   3        -0.26087771
   4         0.63477320
   5         0.00000003
   6        -0.00000000
   7        -0.00000001
   8        -0.26241328
   9         0.63850959
  10        -0.00000003
Sym=     5a  
Ene=    -0.6097
Spin= Alpha
Occup=    0.04842
   1        -0.00000000
   2         0.00000000
   3         0.92567415
   4         0.38043155
   5        -0.00000000
   6        -0.00000000
   7         0.00000000
   8        -0.01579885
   9        -0.00649298
  10         0.00000000
Sym=     6a  
Ene=    -0.0014
Spin= Alpha
Occup=    1.95158
   1        -0.01689278
   2        -0.99996510
   3        -0.00000000
   4         0.00000001
   5        -0.06097197
   6         0.00479000
   7         0.10066591
   8        -0.00000000
   9         0.00000001
  10         0.01534291
Sym=     7a  
Ene=    -0.7056
Spin= Alpha
Occup=    0.00000
   1        -0.00000000
   2        -0.00000000
   3         0.27727927
   4        -0.67468184
   5        -0.00000003
   6         0.00000000
   7         0.00000000
   8        -0.27582647
   9         0.67114686
  10        -0.00000003
Sym=     8a  
Ene=    -0.6625
Spin= Alpha
Occup=    0.00000
   1         0.00660938
   2         0.14065252
   3        -0.00000001
   4         0.00000003
   5        -0.66099341
   6         0.00671343
   7         0.14659588
   8        -0.00000001
   9         0.00000003
  10         0.65435464
Sym=     9a  
Ene=    -0.5966
Spin= Alpha
Occup=    0.00000
   1        -0.00000000
   2         0.00000000
   3        -0.03549615
   4        -0.01458813
   5        -0.00000000
   6         0.00000000
   7         0.00000000
   8         0.92621974
   9         0.38065577
  10         0.00000000
Sym=    10a  
Ene=    -0.5320
Spin= Alpha
Occup=    0.00000
   1        -0.00879919
   2        -0.08807933
   3        -0.00000001
   4         0.00000002
   5        -0.77959226
   6         0.00876979
   7         0.08745640
   8         0.00000001
   9        -0.00000002
  10        -0.78504242
