   This run of MOLCAS is using the pymolcas driver

                             OPE
                             OPE          NMOL  CASOP  ENMOLC A   SO
                 OPE        NMOLC        AS  OP EN  MO LC     AS  OP
                OPENM       OL CA        SO  PE NM  OL CA     SOP EN
                OP EN      MO   LC       AS  OP ENMOL  CASO   PENMOL
                OP  EN     MO   LC       AS  OP EN     MO     LC ASO
               OP   E  NMOL  C  AS       OP  EN MO     LC     AS  OP
               OP  E   NMO   LC AS        OPEN  MO     LCASOP EN   M
               O  PEN   MO  LCA  SO
            OPE   NMO   L   CAS    OP
        OPENMOL  CASOP     ENMOL   CASOPE
     OPENMOLCA   SOPENMOLCASOPEN   MOLCASOPE
    OPENMOLCAS   OP           EN   MOL    CAS
    OPENMOLCAS       OP  ENM        O     LCA
    OPENMOLCAS    OPEN  MOLCASO     P  E  NMO
    OPENMOLCAS     OP               E  N  MOL
    OPENMOLCA   SO           PENM   O  L  CAS    OPEN    MO    LCAS
    OPENMOLCA   SOP           ENM   O  L  CAS   OP  EN  MOLC  AS   O
    OPENMOLCA   SOPE           NM      O  LCA   S      OP  EN MO
    OPENMOLC                AS         O  PEN   M      OL  CA  SOPE
    OPENMO        LCASOPE  NMOL        C  ASO   P      ENMOLC     AS
    OPE     NMO      LCA  SO     P     E   NM   OL  CA SO  PE N   MO
          OPENMOLCA            SOPE   NMO        LCAS  O    P  ENMO
     OPENMOLCASOPENMOLCASOPENMOLCASOPENMOLCA
        OPENMOLCASOPENMOLCASOPENMOLCASOPE
            OPENMOLCASOPENMOLCASOPENM
               OPENMOLCASOPENMOLCA        version: f37762c57
                   OPENMOLCASO
                       OPE                tag:

 OpenMolcas is free software; you can redistribute it and/or modify it
 under the terms of the GNU Lesser General Public License version 2.1.
 OpenMolcas is distributed in the hope that it will be useful, but it
 is provided "as is" and without any express or implied warranties.
 For more details see the full text of the license in the file
 LICENSE or in <http://www.gnu.org/licenses/>.

                 Copyright (C) The OpenMolcas Authors
           For the author list and the recommended citation,
                   consult the file CONTRIBUTORS.md

           *************************************************
           * pymolcas version py2.28                       *
           *   build c4a6d18ded8cb6cad61d2372a9abd97c      *
           *   (after the EMIL interpreter by V. Veryazov) *
           *************************************************

configuration info
------------------
C Compiler ID: Intel
C flags: -std=gnu99 -gcc-sys
Fortran Compiler ID: IntelLLVM
Fortran flags: -standard-semantics -fltconsistency -fpp -i8 -heap-arrays
Definitions: _MOLCAS_;_I8_;_LINUX_
Parallel: OFF (GA=OFF)


   -------------------------------------------------------------------------------------------
  |
  |              Project: ozone_126.00
  |       Submitted from: /home/grierjones/DDCASPT2/ozone/multistate/ANO-RCC-VTZP/ozone_126.00
  |         Scratch area: /tmp/ozone_126.00
  |      Save outputs to: /home/grierjones/DDCASPT2/ozone/multistate/ANO-RCC-VTZP/ozone_126.00
  |               Molcas: /home/grierjones/Test/build
  |
  | Scratch area is empty
  |
  |       MOLCAS_DRIVER = /usr/local/pymolcas
  | MOLCAS_KEEP_WORKDIR = NO
  |  MOLCAS_NEW_WORKDIR = YES
  |       MOLCAS_NPROCS = 1
  |        MOLCAS_PRINT = NORMAL
  |       MOLCAS_SOURCE = /home/grierjones/Test
  |    MOLCAS_STRUCTURE = 0
  |
   -------------------------------------------------------------------------------------------

++ ---------   Input file   ---------

&GATEWAY
coord=ozone_126.00.xyz
Basis = ANO-RCC-VTZP
Group = nosymm
End of Input

&SEWARD
End of Input

&SCF
FileOrb
/home/grierjones/DDCASPT2/ozone/multistate/ANO-RCC-VTZP/ozone_125.75/ozone_125.75.ScfOrb

>>> COPY $WorkDir/ozone_126.00.scf.h5 $CurrDir/

&RASSCF
Title= RASSCF
FileOrb
/home/grierjones/DDCASPT2/ozone/multistate/ANO-RCC-VTZP/ozone_125.75/ozone_125.75.RasOrb
CIROOT
3 3 1
NACTEL
4 0 0
Inactive
10
RAS2
3
Symmetry
1
Spin
1
orblisting
all

>>> COPY $WorkDir/ozone_126.00.rasscf.h5 $CurrDir/

>>> COPY $WorkDir/GMJ_Fock_MO.csv $CurrDir/ozone_126.00.GMJ_Fock_MO.csv

&MOTRA
Frozen=0
LUMORB

>>> COPY $WorkDir/GMJ_one_int_indx.csv $CurrDir/ozone_126.00.GMJ_one_int_indx.csv

>>> COPY $WorkDir/GMJ_one_int.csv $CurrDir/ozone_126.00.GMJ_one_int.csv

>>> COPY $WorkDir/GMJ_two_int_indx.csv $CurrDir/ozone_126.00.GMJ_two_int_indx.csv

>>> COPY $WorkDir/GMJ_two_int.csv $CurrDir/ozone_126.00.GMJ_two_int.csv

&CASPT2
Frozen
0

MAXITER
50

>>> FOREACH k IN (1,2,3)

  >>> FOREACH i IN (B,E,F,G,H)

    >>> FOREACH j IN (P,M)

      >>> IF (-FILE GMJ_e2_${i}_${j}_${k}_.csv)

        >>> COPY $WorkDir/GMJ_RHS_${i}_${j}_${k}_.csv $CurrDir/GMJ_RHS_${i}_${j}_${k}_.csv

        >>> COPY $WorkDir/GMJ_IVECW_${i}_${j}_${k}_.csv $CurrDir/GMJ_IVECW_${i}_${j}_${k}_.csv

        >>> COPY $WorkDir/GMJ_IVECX_${i}_${j}_${k}_.csv $CurrDir/GMJ_IVECX_${i}_${j}_${k}_.csv

        >>> COPY $WorkDir/GMJ_IVECC2_${i}_${j}_${k}_.csv $CurrDir/GMJ_IVECC2_${i}_${j}_${k}_.csv

        >>> COPY $WorkDir/GMJ_e2_${i}_${j}_${k}_.csv $CurrDir/GMJ_e2_${i}_${j}_${k}_.csv

      >>> END IF

    >>> END FOREACH

  >>> END FOREACH

>>> END FOREACH

>>> FOREACH j IN (1,2,3)

  >>> FOREACH i IN (A,C,D)

    >>> IF (-FILE GMJ_e2_${i}_${j}_.csv)

      >>> COPY $WorkDir/GMJ_RHS_${i}_${j}_.csv $CurrDir/GMJ_RHS_${i}_${j}_.csv

      >>> COPY $WorkDir/GMJ_IVECW_${i}_${j}_.csv $CurrDir/GMJ_IVECW_${i}_${j}_.csv

      >>> COPY $WorkDir/GMJ_IVECX_${i}_${j}_.csv $CurrDir/GMJ_IVECX_${i}_${j}_.csv

      >>> COPY $WorkDir/GMJ_IVECC2_${i}_${j}_.csv $CurrDir/GMJ_IVECC2_${i}_${j}_.csv

      >>> COPY $WorkDir/GMJ_e2_${i}_${j}_.csv $CurrDir/GMJ_e2_${i}_${j}_.csv

    >>> END IF

  >>> END FOREACH

>>> END FOREACH

-- ----------------------------------

--- Start Module: gateway at Fri Apr 11 18:52:52 2025 ---
 
()()()()()()()()()()()()()()()()()()()()()()()()()()()()()()()()()()()()()()()()()()()()()()()()()()

                                              &GATEWAY

                                   only a single process is used
                       available to each process: 2.0 GB of memory, 1 thread?
()()()()()()()()()()()()()()()()()()()()()()()()()()()()()()()()()()()()()()()()()()()()()()()()()()
 
 
++    Symmetry information:
      ---------------------
 
                    Character Table for C1 
 
                             E  
                    a        1  x, y, xy, Rz, z, xz, Ry, yz, Rx, I
--
 
 
++    Basis set information:
      ----------------------
 
 
      Basis set label: O.ANO-RCC...4S3P2D1F.
 
      Electronic valence basis set:
      ------------------
      Associated Effective Charge   8.000000 au
      Associated Actual Charge      8.000000 au
      Nuclear Model: Point charge
 
      Shell  nPrim  nBasis  Cartesian Spherical Contaminant
         s      14       4        X                  
         p       9       3        X                  
         d       4       2                 X         
         f       3       1                 X         
--
 
 
++    Molecular structure info:
      -------------------------
 
                    ************************************************ 
                    **** Cartesian Coordinates / Bohr, Angstrom **** 
                    ************************************************ 
 
     Center  Label                x              y              z                     x              y              z
        1      O1               1.096419       2.151842       0.000000              0.580200       1.138706       0.000000
        2      O2               0.000000       0.000000       0.000000              0.000000       0.000000       0.000000
        3      O3               1.096419      -2.151842       0.000000              0.580200      -1.138706       0.000000
 
                    *************************************** 
                    *    InterNuclear Distances / Bohr    * 
                    *************************************** 
 
               1 O1            2 O2            3 O3    
    1 O1       0.000000
    2 O2       2.415070        0.000000
    3 O3       4.303685        2.415070        0.000000
 
                    ******************************************* 
                    *    InterNuclear Distances / Angstrom    * 
                    ******************************************* 
 
               1 O1            2 O2            3 O3    
    1 O1       0.000000
    2 O2       1.278000        0.000000
    3 O3       2.277412        1.278000        0.000000
 
                    ************************************** 
                    *    Valence Bond Angles / Degree    * 
                    ************************************** 
                          Atom centers                 Phi
                      1 O1       2 O2       3 O3       126.00
--
 
 
            Nuclear Potential Energy             67.87152123 au
 
--- Stop Module: gateway at Fri Apr 11 18:52:52 2025 /rc=_RC_ALL_IS_WELL_ ---
*** files: xmldump
    saved to directory /home/grierjones/DDCASPT2/ozone/multistate/ANO-RCC-VTZP/ozone_126.00

--- Start Module: seward at Fri Apr 11 18:52:52 2025 ---
 
()()()()()()()()()()()()()()()()()()()()()()()()()()()()()()()()()()()()()()()()()()()()()()()()()()

                                              &SEWARD

                                   only a single process is used
                       available to each process: 2.0 GB of memory, 1 thread?
()()()()()()()()()()()()()()()()()()()()()()()()()()()()()()()()()()()()()()()()()()()()()()()()()()
 
               SEWARD will generate:
                  Multipole Moment integrals up to order  2
                  Kinetic Energy integrals
                  Nuclear Attraction integrals (point charge)
                  One-Electron Hamiltonian integrals
                  Velocity integrals
                  Relativistic Douglas-Kroll-Hess integrals:
                    - Parametrization         : EXP
                    - DKH order of Hamiltonian: 2
                    - DKH order of Properties : 0
                         - multipole moment operators
                         - electric potential operators
                         - contact operators
                  Atomic mean-field integrals
                  Two-Electron Repulsion integrals
 
                   Integrals are discarded if absolute value <: 0.10E-13
                   Integral cutoff threshold is set to       <: 0.10E-15
 
            Nuclear Potential Energy             67.87152123 au
 
 
      Basis set specifications :
      Symmetry species         a  
      Basis functions           90
 
 
  Input file to MOLDEN was generated!
 
forrtl: warning (525): IEEE_DIVIDE_BY_ZERO is signaling
forrtl: warning (526): IEEE_INVALID is signaling
forrtl: warning (528): IEEE_UNDERFLOW is signaling
--- Stop Module: seward at Fri Apr 11 18:52:55 2025 /rc=_RC_ALL_IS_WELL_ ---
*** files: ozone_126.00.GssOrb ozone_126.00.guessorb.h5 ozone_126.00.guessorb.molden xmldump
    saved to directory /home/grierjones/DDCASPT2/ozone/multistate/ANO-RCC-VTZP/ozone_126.00
--- Module seward spent 2 seconds ---

*** symbolic link created: INPORB -> ozone_126.00.GssOrb
--- Start Module: scf at Fri Apr 11 18:52:55 2025 ---
 
()()()()()()()()()()()()()()()()()()()()()()()()()()()()()()()()()()()()()()()()()()()()()()()()()()

                                                &SCF

                                   only a single process is used
                       available to each process: 2.0 GB of memory, 1 thread?
()()()()()()()()()()()()()()()()()()()()()()()()()()()()()()()()()()()()()()()()()()()()()()()()()()
 
++    Input section:
      --------------
 
      Header of the integral files:
      
       Integrals generated by seward 4.2.0  , Fri Apr 11 18:52:52 2025
 
 
      Cartesian coordinates in Angstrom:
      -----------------------------------------------------
      No.  Label        X            Y            Z        
      -----------------------------------------------------
       1   O1         0.58020000   1.13870600   0.00000000
       2   O2         0.00000000   0.00000000   0.00000000
       3   O3         0.58020000  -1.13870600   0.00000000
      -----------------------------------------------------
      Nuclear repulsion energy =   67.87152123
--
 
++    Orbital specifications:
      -----------------------
 
      Symmetry species               1
                                     a
      Frozen orbitals                0
      Occupied orbitals             12
      Secondary orbitals            78
      Deleted orbitals               0
      Total number of orbitals      90
      Number of basis functions     90
--
 
      Molecular charge                           0.000
 
++    Optimization specifications:
      ----------------------------
 
      SCF Algorithm: Conventional
      Minimized density differences are used
      Number of density matrices in core                5
      Maximum number of NDDO SCF iterations           400
      Maximum number of HF SCF iterations             400
      Threshold for SCF energy change            0.10E-08
      Threshold for density matrix               0.10E-03
      Threshold for Fock matrix                  0.15E-03
      Threshold for linear dependence            0.10E-08
      Threshold at which DIIS is turned on       0.15E+00
      Threshold at which QNR/C2DIIS is turned on 0.75E-01
      Threshold for Norm(delta) (QNR/C2DIIS)     0.20E-04
      DIIS extrapolation of the SCF procedure
      All orbitals punched on: SCFORB
--
 
      Input vectors read from INPORB
      Orbital file label: * SCF orbitals
 
 
++ Convergence information
                                   SCF        iterations: Energy and convergence statistics
 
Iter     Tot. SCF        One-elec.       Two-elec.     Energy      Max Dij or  Max Fij      DNorm      TNorm      AccCon     Time
         Energy          Energy          Energy        Change      Delta Norm                                                in Sec.
   1  -224.508754304  -443.374414391   150.994138855   0.00E+00    0.11E-02*   0.59E-03*    0.75E+01   0.11E+03   None         0.
   2  -224.508759568  -443.374004210   150.993723410  -0.53E-05*   0.61E-03*   0.32E-03*    0.70E-02   0.11E+03   EDIIS        0.
   3  -224.508760628  -443.374728659   150.994446799  -0.11E-05*   0.45E-03*   0.31E-03*    0.12E-02   0.11E+03   c2DIIS       0.
   4  -224.508760962  -443.373779785   150.993497591  -0.33E-06*   0.31E-03*   0.14E-03     0.13E-02   0.11E+03   QNRc2DIIS    0.
   5  -224.508760970  -443.375212863   150.994930661  -0.78E-08*   0.16E-03*   0.16E-03*    0.54E-03   0.11E+03   QNRc2DIIS    0.
   6  -224.508761091  -443.374513041   150.994230717  -0.12E-06*   0.71E-04*   0.14E-04     0.49E-04   0.11E+03   QNRc2DIIS    0.
   7  -224.508761096  -443.374469325   150.994186997  -0.43E-08*   0.44E-05    0.93E-06     0.33E-04   0.11E+03   QNRc2DIIS    0.
   8  -224.508761096  -443.374498955   150.994216627  -0.64E-11    0.19E-05    0.14E-05     0.77E-03   0.11E+03   QNRc2DIIS    0.
 
       Convergence after  8 Macro Iterations
--
 
 *****************************************************************************************************************************
 *                                                                                                                           *
 *                                             SCF/KS-DFT Program, Final results                                             *
 *                                                                                                                           *
 *                                                                                                                           *
 *                                                                                                                           *
 *                                                       Final Results                                                       *
 *                                                                                                                           *
 *****************************************************************************************************************************
 
::    Total SCF energy                               -224.5087610958
      One-electron energy                            -443.3744989547
      Two-electron energy                             150.9942166266
      Nuclear repulsion energy                         67.8715212324
      Kinetic energy (interpolated)                   225.0296235621
      Virial theorem                                    0.9976853605
      Total spin, S(S+1)                                0.0000000000
      Total spin, S                                     0.0000000000
      Max non-diagonal density matrix element           0.0000029141
      Max non-diagonal Fock matrix element              0.0000007359
 
 
      All orbitals with orbital energies smaller than  E(LUMO)+0.5 are printed
 
++    Molecular orbitals:
      -------------------
 
      Title: SCF orbitals

      Molecular orbitals for symmetry species 1: a  
 
          Orbital            1         2         3         4         5         6         7         8         9        10    
          Energy          -20.9290  -20.7314  -20.7313   -1.7413   -1.4445   -1.0899   -0.8320   -0.8031   -0.7771   -0.5785
          Occ. No.          2.0000    2.0000    2.0000    2.0000    2.0000    2.0000    2.0000    2.0000    2.0000    2.0000
 
        1 O1     1s         0.0023   -0.6489    0.7594   -0.0132    0.0120    0.0107   -0.0109   -0.0230    0.0000    0.0070
        2 O1     2s         0.0033    0.0047   -0.0058    0.3369   -0.5683    0.6056   -0.2343   -0.4296    0.0000    0.0635
        3 O1     3s         0.0019    0.0034   -0.0041   -0.0092    0.0195    0.0180   -0.0208   -0.0512    0.0000    0.0177
        4 O1     4s         0.0003    0.0007   -0.0008   -0.0005    0.0040    0.0029   -0.0042   -0.0109   -0.0000    0.0041
        5 O1     2px       -0.0008   -0.0012    0.0012   -0.0464    0.0575    0.0997    0.1866   -0.3102   -0.0000   -0.5657
        6 O1     3px       -0.0006   -0.0012    0.0011    0.0119   -0.0080   -0.0167   -0.0101    0.0279   -0.0000   -0.0087
        7 O1     4px       -0.0000    0.0005   -0.0007    0.0024    0.0000    0.0007   -0.0005    0.0018   -0.0000    0.0040
        8 O1     2py       -0.0020   -0.0019    0.0026   -0.1115    0.0738    0.1039   -0.3230   -0.2827    0.0000    0.4447
        9 O1     3py       -0.0011   -0.0020    0.0026    0.0141   -0.0156   -0.0175    0.0313    0.0393    0.0000   -0.0045
       10 O1     4py        0.0005    0.0013   -0.0015    0.0011   -0.0036    0.0011    0.0038    0.0033    0.0000   -0.0032
       11 O1     2pz        0.0000    0.0000    0.0000    0.0000   -0.0000   -0.0000    0.0000    0.0000    0.3804   -0.0000
       12 O1     3pz       -0.0000   -0.0000   -0.0000   -0.0000    0.0000    0.0000   -0.0000   -0.0000   -0.0177   -0.0000
       13 O1     4pz       -0.0000   -0.0000   -0.0000    0.0000   -0.0000    0.0000   -0.0000   -0.0000   -0.0068    0.0000
       14 O1     3d2-       0.0003    0.0009   -0.0010    0.0147   -0.0141   -0.0119    0.0005    0.0266    0.0000    0.0015
       15 O1     4d2-       0.0001    0.0005   -0.0005    0.0015   -0.0017   -0.0008    0.0003    0.0023    0.0000    0.0009
       16 O1     3d1-       0.0000   -0.0000   -0.0000    0.0000    0.0000   -0.0000    0.0000    0.0000   -0.0285    0.0000
       17 O1     4d1-       0.0000   -0.0000   -0.0000    0.0000    0.0000    0.0000    0.0000    0.0000   -0.0045    0.0000
       18 O1     3d0       -0.0003   -0.0005    0.0006   -0.0104    0.0092    0.0042   -0.0088   -0.0146   -0.0000    0.0048
       19 O1     4d0       -0.0002   -0.0004    0.0004   -0.0004    0.0010   -0.0001   -0.0006   -0.0009   -0.0000    0.0005
       20 O1     3d1+       0.0000    0.0000    0.0000    0.0000    0.0000   -0.0000   -0.0000    0.0000   -0.0148    0.0000
       21 O1     4d1+      -0.0000   -0.0000   -0.0000   -0.0000   -0.0000   -0.0000    0.0000   -0.0000   -0.0029   -0.0000
       22 O1     3d2+      -0.0005   -0.0006    0.0008   -0.0141    0.0075    0.0043   -0.0260   -0.0110    0.0000    0.0181
       23 O1     4d2+      -0.0003   -0.0003    0.0004   -0.0019    0.0011    0.0008   -0.0024   -0.0006    0.0000    0.0030
       24 O1     4f3-       0.0001    0.0000   -0.0000    0.0019   -0.0002    0.0011    0.0072   -0.0009   -0.0000   -0.0056
       25 O1     4f2-      -0.0000   -0.0000   -0.0000    0.0000   -0.0000   -0.0000    0.0000    0.0000    0.0055   -0.0000
       26 O1     4f1-       0.0000    0.0001   -0.0002    0.0031   -0.0028   -0.0009    0.0022    0.0033    0.0000   -0.0009
       27 O1     4f0       -0.0000    0.0000    0.0000   -0.0000   -0.0000    0.0000    0.0000   -0.0000   -0.0038   -0.0000
       28 O1     4f1+       0.0000    0.0001   -0.0001    0.0014   -0.0015   -0.0008    0.0004    0.0016   -0.0000   -0.0012
       29 O1     4f2+       0.0000    0.0000    0.0000   -0.0000   -0.0000    0.0000   -0.0000   -0.0000   -0.0045    0.0000
       30 O1     4f3+       0.0000    0.0002   -0.0002    0.0054   -0.0053   -0.0027    0.0020    0.0070    0.0000   -0.0011
       31 O2     1s         0.9991   -0.0001   -0.0008   -0.0275    0.0000   -0.0168   -0.0078    0.0000   -0.0000    0.0000
       32 O2     2s        -0.0065    0.0009    0.0111    0.6200   -0.0000   -0.6601   -0.0841    0.0000   -0.0000    0.0000
       33 O2     3s        -0.0046    0.0005    0.0064   -0.0689    0.0000   -0.0158   -0.0141   -0.0000   -0.0000    0.0000
       34 O2     4s        -0.0010    0.0001    0.0010   -0.0124    0.0000   -0.0041   -0.0043   -0.0000    0.0000    0.0000
       35 O2     2px       -0.0012    0.0003    0.0034    0.0932   -0.0000    0.2222    0.6736    0.0000   -0.0000   -0.0000
       36 O2     3px       -0.0019    0.0002    0.0021   -0.0375    0.0000   -0.0301   -0.0710   -0.0000    0.0000    0.0000
       37 O2     4px        0.0016   -0.0001   -0.0007   -0.0030    0.0000    0.0011   -0.0092   -0.0000    0.0000   -0.0000
       38 O2     2py       -0.0000   -0.0059    0.0005   -0.0000   -0.3316    0.0000   -0.0000    0.5536   -0.0000   -0.1440
       39 O2     3py        0.0000   -0.0038    0.0003    0.0000    0.0637   -0.0000    0.0000   -0.0572   -0.0000   -0.0080
       40 O2     4py       -0.0000    0.0012   -0.0001   -0.0000   -0.0019   -0.0000    0.0000   -0.0092   -0.0000   -0.0006
       41 O2     2pz        0.0000    0.0000    0.0000    0.0000    0.0000   -0.0000    0.0000    0.0000    0.6811    0.0000
       42 O2     3pz        0.0000    0.0000    0.0000    0.0000    0.0000   -0.0000    0.0000    0.0000   -0.0465    0.0000
       43 O2     4pz        0.0000   -0.0000   -0.0000    0.0000    0.0000   -0.0000    0.0000    0.0000   -0.0164    0.0000
       44 O2     3d2-      -0.0000   -0.0014    0.0001   -0.0000   -0.0384    0.0000   -0.0000    0.0271   -0.0000   -0.0426
       45 O2     4d2-       0.0000   -0.0006    0.0001   -0.0000   -0.0042    0.0000   -0.0000    0.0025   -0.0000   -0.0075
       46 O2     3d1-       0.0000    0.0000    0.0000   -0.0000   -0.0000    0.0000    0.0000    0.0000   -0.0000   -0.0000
       47 O2     4d1-       0.0000    0.0000    0.0000   -0.0000   -0.0000    0.0000    0.0000    0.0000   -0.0000   -0.0000
       48 O2     3d0        0.0005   -0.0001   -0.0011   -0.0150    0.0000   -0.0061   -0.0142   -0.0000   -0.0000    0.0000
       49 O2     4d0        0.0006   -0.0000   -0.0006    0.0009   -0.0000   -0.0003   -0.0008   -0.0000   -0.0000    0.0000
       50 O2     3d1+       0.0000    0.0000   -0.0000   -0.0000   -0.0000    0.0000    0.0000    0.0000    0.0300    0.0000
       51 O2     4d1+       0.0000   -0.0000   -0.0000   -0.0000   -0.0000    0.0000    0.0000   -0.0000    0.0044    0.0000
       52 O2     3d2+       0.0005   -0.0001   -0.0010   -0.0144    0.0000   -0.0011    0.0191    0.0000   -0.0000    0.0000
       53 O2     4d2+       0.0002   -0.0000   -0.0005   -0.0015    0.0000   -0.0005    0.0018    0.0000   -0.0000    0.0000
       54 O2     4f3-       0.0000    0.0000   -0.0000    0.0000    0.0022   -0.0000    0.0000   -0.0051    0.0000   -0.0088
       55 O2     4f2-       0.0000   -0.0000    0.0000   -0.0000   -0.0000   -0.0000    0.0000    0.0000   -0.0000   -0.0000
       56 O2     4f1-      -0.0000    0.0001   -0.0000    0.0000    0.0052   -0.0000    0.0000   -0.0043   -0.0000    0.0011
       57 O2     4f0       -0.0000    0.0000    0.0000    0.0000    0.0000   -0.0000   -0.0000   -0.0000   -0.0061   -0.0000
       58 O2     4f1+       0.0001   -0.0000   -0.0001   -0.0028    0.0000   -0.0003   -0.0019   -0.0000   -0.0000   -0.0000
       59 O2     4f2+       0.0000   -0.0000    0.0000   -0.0000    0.0000    0.0000   -0.0000   -0.0000   -0.0064    0.0000
       60 O2     4f3+       0.0001   -0.0000   -0.0002   -0.0096    0.0000   -0.0011   -0.0054   -0.0000   -0.0000    0.0000
       61 O3     1s         0.0023    0.7595    0.6489   -0.0132   -0.0120    0.0107   -0.0109    0.0230   -0.0000   -0.0070
       62 O3     2s         0.0033   -0.0055   -0.0050    0.3369    0.5683    0.6056   -0.2343    0.4295   -0.0000   -0.0635
       63 O3     3s         0.0019   -0.0040   -0.0035   -0.0092   -0.0195    0.0180   -0.0208    0.0512   -0.0000   -0.0177
       64 O3     4s         0.0003   -0.0008   -0.0006   -0.0005   -0.0040    0.0029   -0.0042    0.0109   -0.0000   -0.0041
       65 O3     2px       -0.0008    0.0013    0.0010   -0.0464   -0.0575    0.0997    0.1866    0.3102   -0.0000    0.5658
       66 O3     3px       -0.0006    0.0014    0.0009    0.0119    0.0080   -0.0167   -0.0101   -0.0279    0.0000    0.0087
       67 O3     4px       -0.0000   -0.0006   -0.0006    0.0024   -0.0000    0.0007   -0.0005   -0.0018   -0.0000   -0.0040
       68 O3     2py        0.0020   -0.0023   -0.0023    0.1115    0.0738   -0.1039    0.3230   -0.2827   -0.0000    0.4447
       69 O3     3py        0.0011   -0.0023   -0.0022   -0.0141   -0.0156    0.0175   -0.0313    0.0393    0.0000   -0.0045
       70 O3     4py       -0.0005    0.0015    0.0013   -0.0011   -0.0036   -0.0011   -0.0038    0.0033   -0.0000   -0.0032
       71 O3     2pz       -0.0000    0.0000    0.0000   -0.0000   -0.0000   -0.0000    0.0000    0.0000    0.3804    0.0000
       72 O3     3pz       -0.0000    0.0000    0.0000   -0.0000   -0.0000   -0.0000   -0.0000    0.0000   -0.0177    0.0000
       73 O3     4pz       -0.0000   -0.0000   -0.0000    0.0000   -0.0000   -0.0000   -0.0000    0.0000   -0.0068   -0.0000
       74 O3     3d2-      -0.0003    0.0010    0.0009   -0.0147   -0.0141    0.0119   -0.0005    0.0266    0.0000    0.0015
       75 O3     4d2-      -0.0001    0.0005    0.0005   -0.0015   -0.0017    0.0008   -0.0003    0.0023    0.0000    0.0009
       76 O3     3d1-      -0.0000    0.0000    0.0000   -0.0000    0.0000   -0.0000    0.0000    0.0000    0.0285    0.0000
       77 O3     4d1-      -0.0000    0.0000    0.0000    0.0000   -0.0000    0.0000   -0.0000   -0.0000    0.0045    0.0000
       78 O3     3d0       -0.0003    0.0005    0.0005   -0.0104   -0.0092    0.0042   -0.0088    0.0146   -0.0000   -0.0048
       79 O3     4d0       -0.0002    0.0004    0.0004   -0.0004   -0.0010   -0.0001   -0.0006    0.0009   -0.0000   -0.0005
       80 O3     3d1+       0.0000    0.0000    0.0000    0.0000    0.0000    0.0000   -0.0000   -0.0000   -0.0148   -0.0000
       81 O3     4d1+      -0.0000    0.0000    0.0000    0.0000    0.0000   -0.0000    0.0000   -0.0000   -0.0029   -0.0000
       82 O3     3d2+      -0.0005    0.0008    0.0007   -0.0141   -0.0075    0.0043   -0.0260    0.0110    0.0000   -0.0181
       83 O3     4d2+      -0.0003    0.0004    0.0004   -0.0019   -0.0011    0.0008   -0.0024    0.0006    0.0000   -0.0030
       84 O3     4f3-      -0.0001    0.0000    0.0000   -0.0019   -0.0002   -0.0011   -0.0072   -0.0009    0.0000   -0.0056
       85 O3     4f2-      -0.0000   -0.0000   -0.0000    0.0000   -0.0000    0.0000   -0.0000   -0.0000   -0.0055   -0.0000
       86 O3     4f1-      -0.0000    0.0002    0.0001   -0.0031   -0.0028    0.0009   -0.0022    0.0033   -0.0000   -0.0009
       87 O3     4f0       -0.0000    0.0000    0.0000    0.0000   -0.0000    0.0000   -0.0000    0.0000   -0.0038   -0.0000
       88 O3     4f1+       0.0000   -0.0001   -0.0001    0.0014    0.0015   -0.0008    0.0004   -0.0016   -0.0000    0.0012
       89 O3     4f2+       0.0000   -0.0000   -0.0000   -0.0000   -0.0000    0.0000   -0.0000   -0.0000   -0.0045   -0.0000
       90 O3     4f3+       0.0000   -0.0002   -0.0002    0.0054    0.0053   -0.0027    0.0020   -0.0070   -0.0000    0.0011
 
          Orbital           11        12        13        14        15        16        17        18        19        20    
          Energy           -0.5402   -0.4945   -0.0464    0.1748    0.1827    0.2360    0.2602    0.3481    0.3634    0.3802
          Occ. No.          2.0000    2.0000    0.0000    0.0000    0.0000    0.0000    0.0000    0.0000    0.0000    0.0000
 
        1 O1     1s         0.0046    0.0000   -0.0000   -0.1987   -0.1320   -0.0000   -0.0072   -0.0197    0.0732    0.0000
        2 O1     2s         0.0275    0.0000   -0.0000   -1.4628   -0.9867   -0.0000    0.0456   -0.0464    0.4074    0.0000
        3 O1     3s         0.0173    0.0000   -0.0000   -0.8503   -0.5480   -0.0000   -0.1110   -0.0355    0.5752    0.0000
        4 O1     4s         0.0049    0.0000   -0.0000   -0.1915   -0.1147    0.0000   -0.0373   -0.0022    0.1631    0.0000
        5 O1     2px        0.6578    0.0000   -0.0000    0.4342    0.2119    0.0000   -0.1599   -0.2338    0.0103   -0.0000
        6 O1     3px        0.0103    0.0000    0.0000    0.4046    0.3075    0.0000    0.2437   -0.7620    0.2722   -0.0000
        7 O1     4px       -0.0047   -0.0000    0.0000    0.0412    0.0738    0.0000    0.1345   -0.3027    0.1427    0.0000
        8 O1     2py       -0.0699   -0.0000    0.0000    0.5512    0.8487    0.0000   -0.4125   -0.2736   -0.0754   -0.0000
        9 O1     3py       -0.0155   -0.0000   -0.0000    0.7111    0.6979   -0.0000   -0.2987   -0.1780   -0.6997   -0.0000
       10 O1     4py       -0.0009    0.0000   -0.0000    0.1120    0.0790    0.0000   -0.1156   -0.0362   -0.1662   -0.0000
       11 O1     2pz        0.0000   -0.7034    0.6680    0.0000    0.0000   -0.1521   -0.0000   -0.0000    0.0000   -0.1692
       12 O1     3pz        0.0000   -0.0334    0.1654    0.0000    0.0000    0.3264   -0.0000   -0.0000    0.0000   -0.9221
       13 O1     4pz        0.0000    0.0067    0.0257    0.0000    0.0000    0.1908   -0.0000   -0.0000    0.0000   -0.3706
       14 O1     3d2-      -0.0120   -0.0000    0.0000   -0.0756   -0.0458   -0.0000   -0.0067   -0.0004    0.0327    0.0000
       15 O1     4d2-      -0.0013   -0.0000    0.0000   -0.0486   -0.0307   -0.0000   -0.0020    0.0143    0.0197    0.0000
       16 O1     3d1-      -0.0000    0.0230    0.0086   -0.0000   -0.0000    0.0128    0.0000    0.0000    0.0000    0.0020
       17 O1     4d1-      -0.0000    0.0057    0.0002   -0.0000   -0.0000    0.0043    0.0000    0.0000    0.0000    0.0097
       18 O1     3d0        0.0052    0.0000   -0.0000    0.0526    0.0437    0.0000    0.0164   -0.0062   -0.0389   -0.0000
       19 O1     4d0        0.0003    0.0000   -0.0000    0.0341    0.0291    0.0000    0.0068   -0.0108   -0.0211   -0.0000
       20 O1     3d1+       0.0000    0.0113    0.0052   -0.0000    0.0000    0.0038   -0.0000   -0.0000   -0.0000    0.0151
       21 O1     4d1+      -0.0000    0.0027    0.0001    0.0000    0.0000   -0.0003    0.0000   -0.0000   -0.0000    0.0130
       22 O1     3d2+       0.0024   -0.0000    0.0000    0.0501    0.0509   -0.0000    0.0382    0.0023   -0.0998   -0.0000
       23 O1     4d2+      -0.0009   -0.0000    0.0000    0.0294    0.0368   -0.0000    0.0137   -0.0007   -0.0606   -0.0000
       24 O1     4f3-       0.0016    0.0000    0.0000   -0.0027   -0.0008    0.0000    0.0024   -0.0037    0.0107    0.0000
       25 O1     4f2-       0.0000   -0.0041    0.0000    0.0000   -0.0000    0.0020   -0.0000   -0.0000    0.0000   -0.0056
       26 O1     4f1-      -0.0015   -0.0000    0.0000   -0.0057   -0.0046   -0.0000   -0.0002    0.0052    0.0074    0.0000
       27 O1     4f0       -0.0000    0.0016    0.0015    0.0000    0.0000   -0.0016   -0.0000    0.0000   -0.0000    0.0059
       28 O1     4f1+       0.0003    0.0000    0.0000   -0.0018   -0.0028   -0.0000   -0.0006    0.0048    0.0018    0.0000
       29 O1     4f2+      -0.0000    0.0033   -0.0006   -0.0000   -0.0000   -0.0009    0.0000    0.0000   -0.0000    0.0026
       30 O1     4f3+      -0.0033   -0.0000    0.0000   -0.0089   -0.0052   -0.0000    0.0018    0.0090    0.0068    0.0000
       31 O2     1s         0.0212    0.0000   -0.0000   -0.0000    0.3148   -0.0000   -0.0447   -0.0000   -0.1836   -0.0000
       32 O2     2s         0.2575    0.0000   -0.0000   -0.0001    2.2954   -0.0000   -0.4492   -0.0000   -1.0622   -0.0000
       33 O2     3s         0.0515    0.0000   -0.0000   -0.0000    1.2430   -0.0000   -0.0660   -0.0000   -0.7117   -0.0000
       34 O2     4s         0.0127   -0.0000   -0.0000   -0.0000    0.2649   -0.0000   -0.0156   -0.0000   -0.1159   -0.0000
       35 O2     2px       -0.5070   -0.0000    0.0000   -0.0000    0.7556   -0.0000   -0.3432   -0.0000   -0.2662    0.0000
       36 O2     3px       -0.0067   -0.0000    0.0000   -0.0000    0.7693   -0.0000    0.2408   -0.0000   -0.8746   -0.0000
       37 O2     4px       -0.0018   -0.0000    0.0000   -0.0000    0.1288   -0.0000    0.1400   -0.0000   -0.1408    0.0000
       38 O2     2py        0.0000    0.0000    0.0000    1.3946    0.0000    0.0000   -0.0000   -0.1259   -0.0000   -0.0000
       39 O2     3py        0.0000   -0.0000    0.0000    1.3677    0.0000    0.0000   -0.0000    0.4583   -0.0000    0.0000
       40 O2     4py        0.0000   -0.0000    0.0000    0.1397    0.0000    0.0000   -0.0000    0.2176   -0.0000   -0.0000
       41 O2     2pz       -0.0000   -0.0000   -0.8644    0.0000   -0.0000    0.0107    0.0000    0.0000    0.0000   -0.0000
       42 O2     3pz       -0.0000    0.0000   -0.1862   -0.0000   -0.0000    0.3673    0.0000    0.0000   -0.0000   -0.0000
       43 O2     4pz       -0.0000    0.0000   -0.0213   -0.0000   -0.0000    0.2004    0.0000    0.0000   -0.0000   -0.0000
       44 O2     3d2-       0.0000   -0.0000    0.0000    0.1358    0.0000    0.0000   -0.0000    0.0854   -0.0000    0.0000
       45 O2     4d2-       0.0000   -0.0000    0.0000    0.0840    0.0000    0.0000   -0.0000    0.0632   -0.0000    0.0000
       46 O2     3d1-       0.0000   -0.0591    0.0000   -0.0000    0.0000    0.0000   -0.0000    0.0000   -0.0000    0.0993
       47 O2     4d1-       0.0000   -0.0139    0.0000   -0.0000    0.0000    0.0000    0.0000    0.0000   -0.0000    0.0596
       48 O2     3d0        0.0188    0.0000   -0.0000    0.0000   -0.0681    0.0000   -0.0576    0.0000    0.1602    0.0000
       49 O2     4d0        0.0022    0.0000    0.0000    0.0000   -0.0457    0.0000   -0.0284    0.0000    0.0816    0.0000
       50 O2     3d1+      -0.0000   -0.0000    0.0046    0.0000    0.0000   -0.0271   -0.0000   -0.0000   -0.0000    0.0000
       51 O2     4d1+      -0.0000   -0.0000    0.0011   -0.0000    0.0000   -0.0110   -0.0000   -0.0000   -0.0000   -0.0000
       52 O2     3d2+       0.0398    0.0000   -0.0000    0.0000   -0.0535   -0.0000   -0.0857    0.0000    0.0554    0.0000
       53 O2     4d2+       0.0083    0.0000   -0.0000    0.0000   -0.0312   -0.0000   -0.0354    0.0000    0.0052    0.0000
       54 O2     4f3-       0.0000    0.0000   -0.0000   -0.0071   -0.0000   -0.0000    0.0000    0.0021   -0.0000    0.0000
       55 O2     4f2-       0.0000   -0.0080    0.0000   -0.0000   -0.0000    0.0000    0.0000    0.0000   -0.0000    0.0069
       56 O2     4f1-      -0.0000    0.0000   -0.0000   -0.0087   -0.0000    0.0000    0.0000   -0.0115    0.0000   -0.0000
       57 O2     4f0        0.0000    0.0000   -0.0020    0.0000    0.0000   -0.0021   -0.0000   -0.0000   -0.0000    0.0000
       58 O2     4f1+      -0.0005    0.0000   -0.0000    0.0000   -0.0050    0.0000   -0.0050    0.0000    0.0109    0.0000
       59 O2     4f2+       0.0000    0.0000    0.0009    0.0000    0.0000   -0.0018   -0.0000   -0.0000   -0.0000    0.0000
       60 O2     4f3+       0.0053    0.0000   -0.0000    0.0000   -0.0108    0.0000   -0.0083    0.0000    0.0155    0.0000
       61 O3     1s         0.0046   -0.0000    0.0000    0.1987   -0.1319    0.0000   -0.0072    0.0197    0.0732    0.0000
       62 O3     2s         0.0275   -0.0000    0.0000    1.4629   -0.9866    0.0000    0.0456    0.0464    0.4074    0.0000
       63 O3     3s         0.0173   -0.0000    0.0000    0.8503   -0.5479    0.0000   -0.1110    0.0355    0.5752    0.0000
       64 O3     4s         0.0049   -0.0000    0.0000    0.1915   -0.1147    0.0000   -0.0373    0.0022    0.1631    0.0000
       65 O3     2px        0.6577    0.0000   -0.0000   -0.4342    0.2119   -0.0000   -0.1599    0.2338    0.0103   -0.0000
       66 O3     3px        0.0103    0.0000   -0.0000   -0.4046    0.3075    0.0000    0.2437    0.7620    0.2722   -0.0000
       67 O3     4px       -0.0047    0.0000   -0.0000   -0.0412    0.0738    0.0000    0.1345    0.3027    0.1427    0.0000
       68 O3     2py        0.0699   -0.0000    0.0000    0.5513   -0.8486    0.0000    0.4125   -0.2736    0.0755    0.0000
       69 O3     3py        0.0155   -0.0000    0.0000    0.7111   -0.6978    0.0000    0.2987   -0.1780    0.6997    0.0000
       70 O3     4py        0.0009    0.0000    0.0000    0.1120   -0.0790    0.0000    0.1156   -0.0362    0.1662    0.0000
       71 O3     2pz       -0.0000    0.7034    0.6680    0.0000    0.0000   -0.1521   -0.0000   -0.0000   -0.0000    0.1692
       72 O3     3pz        0.0000    0.0334    0.1654   -0.0000    0.0000    0.3264   -0.0000   -0.0000   -0.0000    0.9221
       73 O3     4pz        0.0000   -0.0067    0.0257   -0.0000    0.0000    0.1908   -0.0000    0.0000   -0.0000    0.3706
       74 O3     3d2-       0.0120    0.0000   -0.0000   -0.0757    0.0458   -0.0000    0.0067   -0.0004   -0.0327   -0.0000
       75 O3     4d2-       0.0013    0.0000   -0.0000   -0.0486    0.0307   -0.0000    0.0020    0.0143   -0.0197   -0.0000
       76 O3     3d1-      -0.0000    0.0230   -0.0086    0.0000    0.0000   -0.0128   -0.0000   -0.0000   -0.0000    0.0020
       77 O3     4d1-       0.0000    0.0057   -0.0002    0.0000    0.0000   -0.0043   -0.0000   -0.0000   -0.0000    0.0097
       78 O3     3d0        0.0052    0.0000   -0.0000   -0.0526    0.0437   -0.0000    0.0164    0.0062   -0.0389   -0.0000
       79 O3     4d0        0.0003    0.0000   -0.0000   -0.0341    0.0291   -0.0000    0.0068    0.0108   -0.0211   -0.0000
       80 O3     3d1+       0.0000   -0.0113    0.0052   -0.0000    0.0000    0.0038   -0.0000   -0.0000    0.0000   -0.0151
       81 O3     4d1+      -0.0000   -0.0027    0.0001   -0.0000    0.0000   -0.0003   -0.0000   -0.0000    0.0000   -0.0130
       82 O3     3d2+       0.0024    0.0000   -0.0000   -0.0501    0.0509   -0.0000    0.0382   -0.0023   -0.0998   -0.0000
       83 O3     4d2+      -0.0009    0.0000   -0.0000   -0.0294    0.0368   -0.0000    0.0137    0.0007   -0.0606   -0.0000
       84 O3     4f3-      -0.0016    0.0000   -0.0000   -0.0027    0.0008   -0.0000   -0.0024   -0.0037   -0.0107   -0.0000
       85 O3     4f2-       0.0000   -0.0041   -0.0000    0.0000    0.0000   -0.0020   -0.0000   -0.0000    0.0000   -0.0056
       86 O3     4f1-       0.0015    0.0000   -0.0000   -0.0057    0.0046   -0.0000    0.0002    0.0052   -0.0074   -0.0000
       87 O3     4f0        0.0000   -0.0016    0.0015   -0.0000    0.0000   -0.0016    0.0000    0.0000    0.0000   -0.0059
       88 O3     4f1+       0.0003   -0.0000   -0.0000    0.0018   -0.0028    0.0000   -0.0006   -0.0048    0.0018    0.0000
       89 O3     4f2+      -0.0000   -0.0033   -0.0006   -0.0000    0.0000   -0.0009    0.0000   -0.0000    0.0000   -0.0026
       90 O3     4f3+      -0.0033   -0.0000    0.0000    0.0089   -0.0052   -0.0000    0.0018   -0.0090    0.0068    0.0000
 
          Orbital           21    
          Energy            0.4223
          Occ. No.          0.0000
 
        1 O1     1s        -0.0044
        2 O1     2s        -0.0138
        3 O1     3s         0.1800
        4 O1     4s         0.0955
        5 O1     2px        0.3068
        6 O1     3px        0.7129
        7 O1     4px        0.1911
        8 O1     2py       -0.0704
        9 O1     3py        0.5157
       10 O1     4py        0.1783
       11 O1     2pz       -0.0000
       12 O1     3pz       -0.0000
       13 O1     4pz       -0.0000
       14 O1     3d2-      -0.1157
       15 O1     4d2-      -0.0791
       16 O1     3d1-      -0.0000
       17 O1     4d1-      -0.0000
       18 O1     3d0        0.0351
       19 O1     4d0        0.0245
       20 O1     3d1+       0.0000
       21 O1     4d1+       0.0000
       22 O1     3d2+       0.0309
       23 O1     4d2+       0.0168
       24 O1     4f3-       0.0035
       25 O1     4f2-      -0.0000
       26 O1     4f1-      -0.0061
       27 O1     4f0       -0.0000
       28 O1     4f1+      -0.0051
       29 O1     4f2+       0.0000
       30 O1     4f3+      -0.0138
       31 O2     1s         0.1183
       32 O2     2s         0.6165
       33 O2     3s         0.7595
       34 O2     4s         0.2047
       35 O2     2px       -0.5567
       36 O2     3px       -1.0353
       37 O2     4px       -0.3551
       38 O2     2py        0.0000
       39 O2     3py        0.0000
       40 O2     4py        0.0000
       41 O2     2pz       -0.0000
       42 O2     3pz       -0.0000
       43 O2     4pz       -0.0000
       44 O2     3d2-      -0.0000
       45 O2     4d2-      -0.0000
       46 O2     3d1-       0.0000
       47 O2     4d1-       0.0000
       48 O2     3d0       -0.0510
       49 O2     4d0       -0.0096
       50 O2     3d1+      -0.0000
       51 O2     4d1+      -0.0000
       52 O2     3d2+      -0.0843
       53 O2     4d2+      -0.0398
       54 O2     4f3-      -0.0000
       55 O2     4f2-       0.0000
       56 O2     4f1-       0.0000
       57 O2     4f0        0.0000
       58 O2     4f1+       0.0045
       59 O2     4f2+       0.0000
       60 O2     4f3+       0.0030
       61 O3     1s        -0.0044
       62 O3     2s        -0.0138
       63 O3     3s         0.1800
       64 O3     4s         0.0955
       65 O3     2px        0.3067
       66 O3     3px        0.7129
       67 O3     4px        0.1911
       68 O3     2py        0.0704
       69 O3     3py       -0.5157
       70 O3     4py       -0.1783
       71 O3     2pz        0.0000
       72 O3     3pz        0.0000
       73 O3     4pz        0.0000
       74 O3     3d2-       0.1157
       75 O3     4d2-       0.0791
       76 O3     3d1-       0.0000
       77 O3     4d1-       0.0000
       78 O3     3d0        0.0351
       79 O3     4d0        0.0245
       80 O3     3d1+      -0.0000
       81 O3     4d1+      -0.0000
       82 O3     3d2+       0.0309
       83 O3     4d2+       0.0168
       84 O3     4f3-      -0.0035
       85 O3     4f2-      -0.0000
       86 O3     4f1-       0.0061
       87 O3     4f0       -0.0000
       88 O3     4f1+      -0.0051
       89 O3     4f2+      -0.0000
       90 O3     4f3+      -0.0138
--
 
 
++    Molecular charges:
      ------------------
 
      Mulliken charges per centre and basis function type
      ---------------------------------------------------
 
                O1      O2      O3    
      1s       1.9979  1.9982  1.9979
      2s       1.9459  1.7052  1.9459
      2px      1.7881  1.5662  1.7881
      2pz      1.3744  1.1652  1.3744
      2py      1.0349  1.0405  1.0349
      3s      -0.0016 -0.0246 -0.0016
      3px     -0.0120 -0.0180 -0.0120
      3pz     -0.0101 -0.0139 -0.0101
      3py      0.0038  0.0032  0.0038
      4s       0.0044  0.0023  0.0044
      3d2+     0.0138  0.0380  0.0138
      3d1+     0.0033  0.0077  0.0033
      3d0      0.0057  0.0075  0.0057
      3d1-     0.0119  0.0479  0.0119
      3d2-     0.0147  0.0415  0.0147
      4px      0.0006  0.0016  0.0006
      4pz      0.0013  0.0017  0.0013
      4py      0.0027  0.0031  0.0027
      4d2+     0.0007  0.0068  0.0007
      4d1+     0.0006  0.0010  0.0006
      4d0     -0.0000 -0.0002 -0.0000
      4d1-     0.0014  0.0122  0.0014
      4d2-     0.0005  0.0048  0.0005
      4f3+     0.0028  0.0029  0.0028
      4f2+     0.0008  0.0013  0.0008
      4f1+     0.0003  0.0005  0.0003
      4f0      0.0009  0.0016  0.0009
      4f1-     0.0010  0.0012  0.0010
      4f2-     0.0014  0.0037  0.0014
      4f3-     0.0022  0.0069  0.0022
      Total    8.1920  7.6160  8.1920
 
      N-E     -0.1920  0.3840 -0.1920
 
      Total electronic charge=   24.000000
 
      Total            charge=   -0.000000
--
 
 
  Input file to MOLDEN was generated!
 
 
++    Static properties:
      ------------------
 
 
      LoProp Charges per center
 

                   O1       O2       O3    
      Nuclear      8.0000   8.0000   8.0000
      Electronic  -8.2059  -7.5882  -8.2059
 
      Total       -0.2059   0.4118  -0.2059
--
 
 
++    Natural Bond Order analysis
      ---------------------------
      Based on LoProp computed density
      -------------------------------------------------------------------------------------
      Atom A       Atom B       Bond Order | Atom A       Atom B       Bond Order
        O1           O2             1.997  |   O2           O3             1.997
      -------------------------------------------------------------------------------------
      NBO located     11.998 core electrons.
      NBO located      3.936 lone pair electrons.
      NBO located      7.988 electrons involved in    2 bonds.
      The remaining    0.078 electrons are to be considered as diffuse
--
 
 
++    Molecular properties:
      ---------------------
 
      Charge (e):
                      =   -0.0000
      Dipole Moment (Debye):
      Origin of the operator (Ang)=    0.0000    0.0000    0.0000
                   X= -6.2896E-01               Y=  2.0682E-06               Z=  1.4154E-13           Total=  6.2896E-01
      Quadrupole Moment (Debye*Ang):
      Origin of the operator (Ang)=    0.3868    0.0000    0.0000
                  XX= -1.5976E+01              XY=  4.2887E-07              XZ= -2.1775E-13              YY= -1.7215E+01
                  YZ=  2.0222E-13              ZZ= -1.4912E+01
      In traceless form (Debye*Ang)
                  XX=  8.7258E-02              XY=  6.4330E-07              XZ= -3.2662E-13              YY= -1.7707E+00
                  YZ=  3.0333E-13              ZZ=  1.6835E+00
--
 
 
  Input file to MOLDEN was generated!
 
 ###############################################################################
 ###############################################################################
 ###                                                                         ###
 ###                                                                         ###
 ###    RunFile label nBas                                                   ###
 ###    was used       78 times                                              ###
 ###                                                                         ###
 ###                                                                         ###
 ###############################################################################
 ###############################################################################
forrtl: warning (528): IEEE_UNDERFLOW is signaling
--- Stop Module: scf at Fri Apr 11 18:52:55 2025 /rc=_RC_ALL_IS_WELL_ ---
*** files: ozone_126.00.LprOrb ozone_126.00.LoProp.molden ozone_126.00.scf.molden ozone_126.00.ScfOrb ozone_126.00.scf.h5 xmldump
    saved to directory /home/grierjones/DDCASPT2/ozone/multistate/ANO-RCC-VTZP/ozone_126.00

>>> COPY /tmp/ozone_126.00/ozone_126.00.scf.h5 /home/grierjones/DDCASPT2/ozone/multistate/ANO-RCC-VTZP/ozone_126.00/

*** symbolic link created: INPORB -> ozone_126.00.ScfOrb
--- Start Module: rasscf at Fri Apr 11 18:52:56 2025 ---
 
()()()()()()()()()()()()()()()()()()()()()()()()()()()()()()()()()()()()()()()()()()()()()()()()()()

                                              &RASSCF

                                   only a single process is used
                       available to each process: 2.0 GB of memory, 1 thread?
()()()()()()()()()()()()()()()()()()()()()()()()()()()()()()()()()()()()()()()()()()()()()()()()()()
 
 
      Header of the ONEINT file:
      --------------------------
      
      Integrals generated by seward 4.2.0  , Fri Apr 11 18:52:52 2025
 
 
      OrdInt status: non-squared
 
 
      Cartesian coordinates in Angstrom:
      -----------------------------------------------------
      No.  Label        X            Y            Z        
      -----------------------------------------------------
       1   O1         0.58020000   1.13870600   0.00000000
       2   O2         0.00000000   0.00000000   0.00000000
       3   O3         0.58020000  -1.13870600   0.00000000
      -----------------------------------------------------
      Nuclear repulsion energy =   67.87152123
 
++    Wave function specifications:
      -----------------------------
 
      Number of closed shell electrons          20
      Number of electrons in active shells       4
      Max number of holes in RAS1 space          0
      Max nr of electrons in RAS3 space          0
      Number of inactive orbitals               10
      Number of active orbitals                  3
      Number of secondary orbitals              77
      Spin quantum number                      0.0
      State symmetry                             1
--
 
++    Orbital specifications:
      -----------------------
 
      Symmetry species                           1
                                                 a
      Frozen orbitals                            0
      Inactive orbitals                         10
      Active orbitals                            3
      RAS1 orbitals                              0
      RAS2 orbitals                              3
      RAS3 orbitals                              0
      Secondary orbitals                        77
      Deleted orbitals                           0
      Number of basis functions                 90
--
 
++    CI expansion specifications:
      ----------------------------
 
      Number of CSFs                             6
      Number of determinants                     6
      Number of root(s) required                 3
      Root chosen for geometry opt.              3
      CI roots used                              1     2     3
      weights                                0.333 0.333 0.333
      highest root included in the CI            3
      max. size of the explicit Hamiltonian      6
--
 
++    Optimization specifications:
      ----------------------------
 
      RASSCF algorithm: Conventional
      Maximum number of macro iterations       200
      Maximum number of SX iterations          100
      Threshold for RASSCF energy            0.100E-07
      Threshold for max MO rotation          0.100E+00
      Threshold for max BLB element          0.100E-03
      Level shift parameter                  0.500E+00
      Make Quasi-Newton update
--
 
      The MO-coefficients are taken from the file:
      /home/grierjones/DDCASPT2/ozone/multistate/ANO-RCC-VTZP/ozone_125.75/ozone_125.75.RasOrb                                        
      Title: RASSCF average (pseudo-natural) orbitals                                      
 
      Total molecular charge    0.00
 
      ************************************************************************************************************************
      *                                                                                                                      *
      *                                            Wave function control section                                             *
      *                                                                                                                      *
      ************************************************************************************************************************
 
 
                                         RASSCF iterations: Energy and convergence statistics
                                         ----------------------------------------------------
 
      Iter CI   SX   CI       RASSCF       Energy    max ROT     max BLB   max BLB  Level Ln srch  Step   QN   Walltime
          iter iter root      energy       change     param      element    value   shift minimum  type update hh:mm:ss
 Nr of preliminary CI iterations:   1
        1   1    4    0  -224.47196632    0.00E+00   0.88E-03   12  23 1  0.91E-03*  0.29   0.00    SX    NO    0:00:00
        2   1    4    0  -224.47197151   -0.52E-05*  0.58E-03   12  23 1  0.46E-03*  0.29   0.00    SX    NO    0:00:00
        3   1    4    0  -224.47197290   -0.14E-05*  0.41E-03   12  23 1  0.28E-03*  0.29   0.00    SX    NO    0:00:00
        4   1    4    0  -224.47197342   -0.52E-06*  0.28E-03    8  11 1  0.14E-03*  0.29   0.00    SX    NO    0:00:00
        5   1    4    0  -224.47197364   -0.22E-06*  0.42E-03    8  11 1  0.99E-04   0.29   2.50    LS   YES    0:00:00
        6   1    4    0  -224.47197377   -0.14E-06*  0.32E-03   10  37 1 -0.71E-04   0.29   1.08    QN   YES    0:00:00
        7   1    4    0  -224.47197384   -0.65E-07*  0.13E-03   12  23 1 -0.96E-04   0.29   0.84    QN   YES    0:00:00
        8   1    4    0  -224.47197387   -0.33E-07*  0.58E-03   12  23 1 -0.60E-04   0.29   2.50    QN   YES    0:00:00
        9   1    4    0  -224.47197393   -0.55E-07*  0.27E-03    9  23 1  0.61E-04   0.29   1.12    QN   YES    0:00:00
       10   1    4    0  -224.47197394   -0.17E-07*  0.56E-03   12  23 1  0.29E-04   0.29   1.52    QN   YES    0:00:00
       11   1    3    0  -224.47197397   -0.24E-07*  0.39E-03   12  23 1  0.32E-04   0.29   1.32    QN   YES    0:00:00
       12   1    3    0  -224.47197399   -0.18E-07* -0.39E-03   12  23 1  0.22E-04   0.29   1.75    QN   YES    0:00:00
       13   1    3    0  -224.47197400   -0.16E-07* -0.16E-03    9  23 1 -0.24E-04   0.29   1.24    QN   YES    0:00:00
       14   1    3    0  -224.47197401   -0.37E-08  -0.15E-03   10  37 1  0.17E-04   0.29   2.50    QN   YES    0:00:00
      Convergence after 14 iterations
 
  Dmat in MO in SXCTL bf call to SXHAM                                                                                    
  mat. size =     3x    3
 
        1.3150934263333394
       -0.0024426445322523      1.7263086479296692
       -0.0002036244927138     -0.0000755818230155      0.9585979257369921
       15   1    3    0  -224.47197401   -0.28E-08  -0.15E-03    8  17 1  0.89E-05   0.29   2.50    QN   YES    0:00:00
 
      ************************************************************************************************************************
                                                      Wave function printout:
                       occupation of active orbitals, and spin coupling of open shells (u,d: Spin up or down)
      ************************************************************************************************************************
 
      Note: transformation to natural orbitals
      has been made, which may change the order of the CSFs.
 
      printout of CI-coefficients larger than  0.05 for root  1
      energy=    -224.497257
      conf/sym  111     Coeff  Weight
             1  220   0.89824 0.80684
             3  202  -0.09600 0.00922
             4  u2d  -0.39628 0.15704
             5  ud2  -0.14393 0.02072
             6  022  -0.07679 0.00590
 
      printout of CI-coefficients larger than  0.05 for root  2
      energy=    -224.486100
      conf/sym  111     Coeff  Weight
             1  220  -0.21350 0.04558
             2  2ud   0.37660 0.14183
             3  202  -0.35605 0.12677
             4  u2d  -0.32512 0.10571
             5  ud2  -0.53429 0.28546
             6  022   0.54282 0.29465
 
      printout of CI-coefficients larger than  0.05 for root  3
      energy=    -224.432565
      conf/sym  111     Coeff  Weight
             1  220   0.37583 0.14125
             2  2ud   0.28718 0.08247
             3  202  -0.09354 0.00875
             4  u2d   0.80593 0.64953
             6  022   0.34237 0.11721
 
      Natural orbitals and occupation numbers for root  1
      sym 1:   1.895070   1.999299   0.105631
 
      Natural orbitals and occupation numbers for root  2
      sym 1:   0.789540   1.301985   1.908475
 
      Natural orbitals and occupation numbers for root  3
      sym 1:   1.790959   1.999995   0.209047
 
      ************************************************************************************************************************
      *                                                                                                                      *
      *                                                    Final results                                                     *
      *                                                                                                                      *
      ************************************************************************************************************************
 
 
++    Wave function specifications:
      -----------------------------
 
      Number of closed shell electrons          20
      Number of electrons in active shells       4
      Max number of holes in RAS1 space          0
      Max nr of electrons in RAS3 space          0
      Number of inactive orbitals               10
      Number of active orbitals                  3
      Number of secondary orbitals              77
      Spin quantum number                      0.0
      State symmetry                             1
--
 
++    Orbital specifications:
      -----------------------
 
      Symmetry species                           1
                                                 a
      Frozen orbitals                            0
      Inactive orbitals                         10
      Active orbitals                            3
      RAS1 orbitals                              0
      RAS2 orbitals                              3
      RAS3 orbitals                              0
      Secondary orbitals                        77
      Deleted orbitals                           0
      Number of basis functions                 90
--
 
++    CI expansion specifications:
      ----------------------------
 
      Number of CSFs                             6
      Number of determinants                     6
      Number of root(s) required                 3
      CI roots used                              1     2     3
      weights                                0.333 0.333 0.333
      highest root included in the CI            3
      Root passed to geometry opt.               3
--
 
++    Final optimization conditions:
      ------------------------------
 
      Average CI energy                            -224.47197401
      RASSCF energy for state  3                   -224.43256459
      Super-CI energy                                -0.00000000
      RASSCF energy change                           -0.00000000
      Max change in MO coefficients              -0.100E-03
      Max non-diagonal density matrix element    -0.147E-03
      Maximum BLB matrix element                  0.890E-05
      (orbital pair   8,  17 in symmetry   1)
      Norm of electronic gradient            0.168E+00
--
 
 
      Final state energy(ies):
      ------------------------
 
::    RASSCF root number  1 Total energy:   -224.49725709
::    RASSCF root number  2 Total energy:   -224.48610034
::    RASSCF root number  3 Total energy:   -224.43256459
 
++    Molecular orbitals:
      -------------------
 
      Pseudonatural active orbitals and approximate occupation numbers
 
 
 
 
      Molecular orbitals for symmetry species 1: a  
 
 
      Orbital                1         2         3         4         5         6         7         8         9        10
      Energy          -20.8312  -20.7417  -20.7324   -1.7101   -1.4317   -1.0736   -0.7874   -0.7780   -0.7737   -0.5534
      Occ. No.          2.0000    2.0000    2.0000    2.0000    2.0000    2.0000    2.0000    2.0000    2.0000    2.0000
 
    1 O1     1s         0.0040    0.9989    0.0023   -0.0133    0.0106    0.0130   -0.0003   -0.0138    0.0207   -0.0003
    2 O1     2s         0.0036   -0.0074   -0.0003    0.3605   -0.5878    0.6172   -0.0098   -0.2474    0.3489   -0.0029
    3 O1     3s         0.0021   -0.0053   -0.0001   -0.0118    0.0191    0.0213   -0.0001   -0.0298    0.0465    0.0006
    4 O1     4s         0.0003   -0.0010    0.0000   -0.0010    0.0041    0.0033   -0.0001   -0.0067    0.0100    0.0003
    5 O1     2px       -0.0008    0.0017   -0.0001   -0.0389    0.0438    0.0894    0.1123    0.0585    0.2010    0.2525
    6 O1     3px       -0.0006    0.0016   -0.0002    0.0120   -0.0067   -0.0167   -0.0083   -0.0037   -0.0264    0.0056
    7 O1     4px        0.0000   -0.0009   -0.0001    0.0021    0.0001    0.0001   -0.0009   -0.0009   -0.0019   -0.0020
    8 O1     2py       -0.0022    0.0032    0.0003   -0.1176    0.0765    0.1403   -0.0792   -0.4066    0.3305   -0.1118
    9 O1     3py       -0.0012    0.0032    0.0002    0.0157   -0.0152   -0.0221    0.0053    0.0358   -0.0328   -0.0031
   10 O1     4py        0.0005   -0.0020   -0.0000    0.0010   -0.0038    0.0011    0.0013    0.0063   -0.0035    0.0005
   11 O1     2pz        0.0000    0.0000   -0.0000    0.0015   -0.0037   -0.0045   -0.3770    0.0930    0.0325   -0.7112
   12 O1     3pz       -0.0000    0.0000   -0.0000   -0.0001    0.0001    0.0003    0.0265   -0.0082   -0.0057   -0.0112
   13 O1     4pz        0.0000   -0.0000   -0.0000   -0.0000    0.0000   -0.0000    0.0049   -0.0016   -0.0008    0.0064
   14 O1     3d2-       0.0003   -0.0012   -0.0000    0.0143   -0.0134   -0.0127   -0.0041    0.0048   -0.0251   -0.0032
   15 O1     4d2-       0.0001   -0.0007   -0.0000    0.0014   -0.0016   -0.0008   -0.0004    0.0001   -0.0022   -0.0006
   16 O1     3d1-      -0.0000    0.0000   -0.0000   -0.0000   -0.0001    0.0002    0.0235   -0.0080   -0.0043    0.0144
   17 O1     4d1-      -0.0000   -0.0000   -0.0000   -0.0000   -0.0001    0.0001    0.0029   -0.0011   -0.0005    0.0026
   18 O1     3d0       -0.0004    0.0009    0.0000   -0.0111    0.0085    0.0074   -0.0009   -0.0127    0.0144   -0.0001
   19 O1     4d0       -0.0002    0.0005   -0.0000   -0.0007    0.0011    0.0005   -0.0001   -0.0010    0.0011   -0.0002
   20 O1     3d1+      -0.0000   -0.0001   -0.0000   -0.0003    0.0006   -0.0005    0.0114   -0.0038   -0.0023    0.0063
   21 O1     4d1+       0.0000    0.0000   -0.0000   -0.0000    0.0002   -0.0002    0.0016   -0.0006   -0.0004    0.0008
   22 O1     3d2+      -0.0005    0.0009    0.0000   -0.0146    0.0080    0.0054   -0.0079   -0.0294    0.0093   -0.0033
   23 O1     4d2+      -0.0003    0.0005    0.0000   -0.0019    0.0011    0.0005   -0.0009   -0.0033    0.0006   -0.0007
   24 O1     4f3-       0.0001   -0.0000    0.0000    0.0017   -0.0002    0.0008    0.0023    0.0058    0.0013    0.0010
   25 O1     4f2-       0.0000    0.0000    0.0000   -0.0001    0.0000    0.0001   -0.0045    0.0010    0.0011   -0.0027
   26 O1     4f1-       0.0001   -0.0002    0.0000    0.0038   -0.0031   -0.0015    0.0006    0.0038   -0.0035    0.0005
   27 O1     4f0       -0.0000   -0.0000   -0.0000   -0.0000   -0.0000   -0.0000    0.0047   -0.0017   -0.0009    0.0030
   28 O1     4f1+       0.0000   -0.0001   -0.0000    0.0018   -0.0017   -0.0011   -0.0011    0.0002   -0.0024   -0.0013
   29 O1     4f2+      -0.0000    0.0000    0.0000   -0.0001    0.0001    0.0002    0.0035   -0.0012   -0.0003    0.0018
   30 O1     4f3+       0.0000   -0.0003    0.0000    0.0049   -0.0047   -0.0026   -0.0002    0.0030   -0.0055   -0.0001
   31 O2     1s         0.9990   -0.0023   -0.0019   -0.0281    0.0000   -0.0154   -0.0042   -0.0143   -0.0017    0.0045
   32 O2     2s        -0.0066    0.0078    0.0079    0.5988    0.0119   -0.6698   -0.0570   -0.1916   -0.0191    0.0566
   33 O2     3s        -0.0049    0.0045    0.0046   -0.0600   -0.0001   -0.0253   -0.0087   -0.0305   -0.0037    0.0114
   34 O2     4s        -0.0009    0.0007    0.0007   -0.0119    0.0000   -0.0047   -0.0023   -0.0077   -0.0010    0.0027
   35 O2     2px       -0.0013    0.0024    0.0024    0.0889   -0.0006    0.1596    0.2234    0.6647    0.1234   -0.0946
   36 O2     3px       -0.0020    0.0015    0.0015   -0.0355   -0.0004   -0.0191   -0.0185   -0.0471   -0.0096   -0.0027
   37 O2     4px        0.0017   -0.0005   -0.0005   -0.0036   -0.0001    0.0015   -0.0041   -0.0106   -0.0022    0.0001
   38 O2     2py       -0.0001    0.0041   -0.0042    0.0026   -0.3010   -0.0073   -0.0641    0.1233   -0.5298    0.0177
   39 O2     3py       -0.0001    0.0026   -0.0027   -0.0005    0.0593    0.0006    0.0068   -0.0119    0.0453    0.0029
   40 O2     4py        0.0001   -0.0008    0.0008   -0.0001   -0.0010    0.0001    0.0013   -0.0022    0.0095    0.0005
   41 O2     2pz        0.0000   -0.0000    0.0000    0.0015    0.0017    0.0008   -0.6536    0.2385    0.1555    0.1029
   42 O2     3pz        0.0000   -0.0000    0.0000   -0.0000   -0.0001   -0.0002    0.0443   -0.0141   -0.0089    0.0035
   43 O2     4pz       -0.0000    0.0000   -0.0000    0.0000   -0.0000    0.0000    0.0120   -0.0040   -0.0026   -0.0009
   44 O2     3d2-      -0.0000    0.0009   -0.0010    0.0003   -0.0365   -0.0002   -0.0040    0.0110   -0.0357    0.0107
   45 O2     4d2-      -0.0000    0.0004   -0.0005   -0.0000   -0.0037    0.0001   -0.0004    0.0016   -0.0041    0.0020
   46 O2     3d1-      -0.0000   -0.0000   -0.0000   -0.0002   -0.0001    0.0004   -0.0011    0.0003   -0.0016   -0.0423
   47 O2     4d1-       0.0000   -0.0000   -0.0000   -0.0001   -0.0000    0.0002   -0.0000    0.0002   -0.0003   -0.0080
   48 O2     3d0        0.0008   -0.0008   -0.0008   -0.0162    0.0004   -0.0051   -0.0055   -0.0173   -0.0024    0.0038
   49 O2     4d0        0.0005   -0.0004   -0.0004    0.0001    0.0001   -0.0002   -0.0004   -0.0014   -0.0001    0.0004
   50 O2     3d1+       0.0000    0.0000    0.0000    0.0003   -0.0003   -0.0003   -0.0237    0.0080    0.0050    0.0017
   51 O2     4d1+      -0.0000    0.0000    0.0000    0.0001   -0.0001   -0.0001   -0.0026    0.0009    0.0005    0.0003
   52 O2     3d2+       0.0005   -0.0007   -0.0007   -0.0141    0.0003    0.0017    0.0079    0.0160    0.0047    0.0055
   53 O2     4d2+       0.0003   -0.0003   -0.0003   -0.0013    0.0001    0.0008    0.0012    0.0025    0.0008    0.0010
   54 O2     4f3-       0.0000   -0.0000    0.0000    0.0000    0.0017    0.0001    0.0006   -0.0004    0.0026    0.0023
   55 O2     4f2-       0.0000    0.0000   -0.0000    0.0001    0.0000   -0.0000   -0.0002   -0.0001   -0.0002   -0.0066
   56 O2     4f1-       0.0000   -0.0001    0.0001   -0.0002    0.0066    0.0001    0.0008   -0.0015    0.0061   -0.0003
   57 O2     4f0       -0.0000   -0.0000   -0.0000   -0.0000    0.0000    0.0000    0.0076   -0.0025   -0.0016   -0.0004
   58 O2     4f1+       0.0001   -0.0001   -0.0001   -0.0036    0.0000   -0.0006   -0.0015   -0.0041   -0.0008    0.0002
   59 O2     4f2+      -0.0000    0.0000   -0.0000    0.0000    0.0000   -0.0001    0.0052   -0.0018   -0.0011   -0.0003
   60 O2     4f3+       0.0002   -0.0002   -0.0002   -0.0091   -0.0000   -0.0004   -0.0019   -0.0056   -0.0009    0.0011
   61 O3     1s         0.0036   -0.0024    0.9989   -0.0131   -0.0110    0.0124   -0.0057   -0.0033   -0.0246    0.0016
   62 O3     2s         0.0034   -0.0003   -0.0075    0.3492    0.5861    0.6161   -0.1082   -0.0654   -0.4270    0.0071
   63 O3     3s         0.0019   -0.0001   -0.0053   -0.0109   -0.0188    0.0208   -0.0122   -0.0063   -0.0543    0.0056
   64 O3     4s         0.0003    0.0000   -0.0010   -0.0009   -0.0040    0.0032   -0.0027   -0.0016   -0.0117    0.0016
   65 O3     2px       -0.0007   -0.0001    0.0017   -0.0411   -0.0373    0.0875    0.0320    0.1257   -0.1355   -0.0388
   66 O3     3px       -0.0006   -0.0002    0.0016    0.0118    0.0072   -0.0162   -0.0004   -0.0190    0.0232   -0.0010
   67 O3     4px        0.0000   -0.0001   -0.0009    0.0022   -0.0002    0.0002   -0.0004   -0.0010    0.0011    0.0005
   68 O3     2py        0.0021   -0.0003   -0.0032    0.1125    0.0801   -0.1299    0.1609    0.1969    0.4470   -0.1102
   69 O3     3py        0.0012   -0.0002   -0.0032   -0.0150   -0.0153    0.0209   -0.0145   -0.0179   -0.0423    0.0029
   70 O3     4py       -0.0005    0.0000    0.0020   -0.0009   -0.0038   -0.0012   -0.0024   -0.0036   -0.0053    0.0013
   71 O3     2pz       -0.0000   -0.0000   -0.0000   -0.0029    0.0004    0.0037   -0.3055    0.1018    0.0842    0.6286
   72 O3     3pz       -0.0000   -0.0000   -0.0000    0.0001    0.0002   -0.0002    0.0229   -0.0086   -0.0044    0.0080
   73 O3     4pz        0.0000    0.0000    0.0000    0.0000    0.0000    0.0000    0.0046   -0.0016   -0.0014   -0.0071
   74 O3     3d2-      -0.0003    0.0000    0.0013   -0.0140   -0.0133    0.0123   -0.0023    0.0063   -0.0245    0.0004
   75 O3     4d2-      -0.0001   -0.0000    0.0007   -0.0014   -0.0016    0.0008   -0.0001    0.0006   -0.0021   -0.0003
   76 O3     3d1-      -0.0000   -0.0000   -0.0000   -0.0002   -0.0001    0.0000   -0.0229    0.0079    0.0058    0.0187
   77 O3     4d1-      -0.0000   -0.0000   -0.0000   -0.0000   -0.0000    0.0000   -0.0031    0.0010    0.0008    0.0035
   78 O3     3d0       -0.0003    0.0000    0.0009   -0.0108   -0.0091    0.0063   -0.0049   -0.0048   -0.0175    0.0018
   79 O3     4d0       -0.0002   -0.0000    0.0005   -0.0006   -0.0012    0.0003   -0.0004   -0.0005   -0.0014    0.0001
   80 O3     3d1+      -0.0000    0.0000    0.0000    0.0000    0.0001    0.0003    0.0111   -0.0037   -0.0028   -0.0083
   81 O3     4d1+       0.0000    0.0000   -0.0000   -0.0000    0.0000    0.0001    0.0017   -0.0005   -0.0004   -0.0011
   82 O3     3d2+      -0.0005    0.0000    0.0009   -0.0141   -0.0081    0.0054   -0.0110   -0.0209   -0.0197    0.0055
   83 O3     4d2+      -0.0003    0.0000    0.0005   -0.0018   -0.0011    0.0006   -0.0012   -0.0023   -0.0019    0.0007
   84 O3     4f3-      -0.0001   -0.0000    0.0000   -0.0017   -0.0003   -0.0007   -0.0023   -0.0058   -0.0013    0.0012
   85 O3     4f2-       0.0000    0.0000    0.0000   -0.0000   -0.0000    0.0001    0.0043   -0.0015   -0.0012   -0.0033
   86 O3     4f1-      -0.0001   -0.0000    0.0002   -0.0035   -0.0031    0.0012   -0.0014   -0.0015   -0.0042    0.0007
   87 O3     4f0        0.0000    0.0000    0.0000   -0.0000   -0.0000    0.0000    0.0041   -0.0014   -0.0011   -0.0030
   88 O3     4f1+       0.0000   -0.0000   -0.0001    0.0017    0.0017   -0.0009    0.0002   -0.0008    0.0020   -0.0002
   89 O3     4f2+       0.0000    0.0000    0.0000    0.0000    0.0000   -0.0000    0.0034   -0.0013   -0.0009   -0.0024
   90 O3     4f3+       0.0000    0.0000   -0.0003    0.0049    0.0049   -0.0026    0.0013    0.0002    0.0065   -0.0007
 
 
      Orbital               11        12        13        14        15        16        17        18        19        20
      Energy            0.0000    0.0000    0.0000    0.1755    0.1870    0.2372    0.2659    0.3503    0.3718    0.3779
      Occ. No.          1.3151    1.7263    0.9586    0.0000    0.0000    0.0000    0.0000    0.0000    0.0000    0.0000
 
    1 O1     1s        -0.0022   -0.0005    0.0000   -0.2049   -0.1241   -0.0008   -0.0048   -0.0171    0.0751   -0.0012
    2 O1     2s        -0.0028    0.0434    0.0026   -1.5054   -0.9278   -0.0066   -0.1192   -0.0367    0.4153   -0.0072
    3 O1     3s        -0.0117   -0.0054   -0.0004   -0.8750   -0.5087   -0.0026    0.0449   -0.0262    0.5982   -0.0074
    4 O1     4s        -0.0038   -0.0021   -0.0001   -0.1962   -0.1047   -0.0005    0.0201   -0.0006    0.1684   -0.0018
    5 O1     2px       -0.8113    0.3309    0.0559    0.4409    0.1976    0.0035    0.1418   -0.2336    0.0014    0.0004
    6 O1     3px       -0.0068    0.0009   -0.0026    0.4356    0.3138   -0.0020   -0.2895   -0.7926    0.1947    0.0001
    7 O1     4px        0.0084   -0.0038   -0.0019    0.0502    0.0818   -0.0026   -0.1563   -0.3143    0.1163   -0.0020
    8 O1     2py        0.2011   -0.2905   -0.0305    0.5802    0.8112    0.0059    0.4329   -0.2397   -0.0552    0.0036
    9 O1     3py        0.0097   -0.0041    0.0008    0.7537    0.6668    0.0074    0.3775   -0.1474   -0.7163    0.0147
   10 O1     4py       -0.0008    0.0029    0.0006    0.1195    0.0731    0.0026    0.1316   -0.0257   -0.1663    0.0041
   11 O1     2pz       -0.1742    0.1039    0.6012   -0.0005    0.0037    0.0625    0.0019   -0.0003    0.0043   -0.1938
   12 O1     3pz        0.0029    0.0004    0.0416    0.0031    0.0005   -0.3965    0.0098    0.0015   -0.0074   -0.9301
   13 O1     4pz        0.0032   -0.0017    0.0025    0.0011    0.0003   -0.2073    0.0039   -0.0000   -0.0028   -0.3671
   14 O1     3d2-       0.0147   -0.0053   -0.0016   -0.0800   -0.0436   -0.0005    0.0052    0.0010    0.0394   -0.0010
   15 O1     4d2-       0.0021   -0.0015   -0.0003   -0.0516   -0.0297   -0.0003    0.0014    0.0148    0.0235   -0.0007
   16 O1     3d1-       0.0060   -0.0034    0.0091   -0.0002    0.0001   -0.0083    0.0002   -0.0000   -0.0004    0.0044
   17 O1     4d1-       0.0012   -0.0007    0.0017   -0.0002    0.0000   -0.0010    0.0000   -0.0001   -0.0003    0.0107
   18 O1     3d0       -0.0033   -0.0019    0.0002    0.0548    0.0422    0.0001   -0.0124   -0.0077   -0.0483    0.0007
   19 O1     4d0        0.0000   -0.0003    0.0001    0.0353    0.0284    0.0001   -0.0042   -0.0114   -0.0270    0.0004
   20 O1     3d1+       0.0023   -0.0018    0.0073    0.0002    0.0001   -0.0031    0.0001    0.0001    0.0008    0.0156
   21 O1     4d1+       0.0003   -0.0002    0.0018    0.0003    0.0000    0.0008    0.0000    0.0001    0.0008    0.0129
   22 O1     3d2+       0.0042   -0.0134   -0.0015    0.0536    0.0481   -0.0004   -0.0302    0.0032   -0.1089    0.0017
   23 O1     4d2+       0.0014   -0.0022   -0.0002    0.0323    0.0352   -0.0001   -0.0079    0.0003   -0.0641    0.0010
   24 O1     4f3-      -0.0018    0.0032   -0.0002   -0.0028    0.0002   -0.0000   -0.0031   -0.0045    0.0114   -0.0002
   25 O1     4f2-       0.0002    0.0002   -0.0014   -0.0000    0.0002   -0.0026    0.0003   -0.0002    0.0003   -0.0061
   26 O1     4f1-       0.0004    0.0011    0.0001   -0.0061   -0.0050   -0.0001   -0.0010    0.0055    0.0074   -0.0002
   27 O1     4f0        0.0026   -0.0012    0.0003   -0.0001    0.0000    0.0017   -0.0001   -0.0001    0.0001    0.0056
   28 O1     4f1+       0.0022   -0.0007   -0.0003   -0.0023   -0.0029    0.0001   -0.0000    0.0047    0.0024    0.0001
   29 O1     4f2+      -0.0009    0.0003    0.0006    0.0000    0.0001    0.0017    0.0002    0.0000    0.0001    0.0031
   30 O1     4f3+       0.0015    0.0008    0.0004   -0.0092   -0.0046   -0.0001   -0.0013    0.0089    0.0083   -0.0002
   31 O2     1s        -0.0204   -0.0075   -0.0004    0.0150    0.3164    0.0001    0.0681    0.0031   -0.1935    0.0038
   32 O2     2s        -0.2360   -0.0910   -0.0041    0.1090    2.3107    0.0028    0.6028    0.0196   -1.1044    0.0218
   33 O2     3s        -0.0544   -0.0198   -0.0008    0.0614    1.2707   -0.0015    0.1720    0.0162   -0.7787    0.0168
   34 O2     4s        -0.0130   -0.0047   -0.0002    0.0134    0.2713   -0.0003    0.0347    0.0038   -0.1331    0.0034
   35 O2     2px        0.3960    0.1369    0.0064    0.0356    0.7447    0.0056    0.4360    0.0066   -0.1946    0.0033
   36 O2     3px        0.0194    0.0091    0.0007    0.0308    0.7550   -0.0047   -0.0934    0.0177   -0.8342    0.0073
   37 O2     4px        0.0015    0.0008    0.0000    0.0040    0.1231   -0.0023   -0.1170    0.0045   -0.1381   -0.0000
   38 O2     2py       -0.0055   -0.0270   -0.0055    1.3803   -0.0613    0.0039   -0.0058   -0.1388    0.0184    0.0000
   39 O2     3py       -0.0050    0.0205    0.0024    1.3673   -0.0704    0.0085   -0.0096    0.3885    0.0086   -0.0013
   40 O2     4py       -0.0007    0.0031    0.0002    0.1364   -0.0086    0.0010   -0.0006    0.2047    0.0035   -0.0003
   41 O2     2pz       -0.0445    0.0247   -0.7693    0.0008   -0.0040    0.0988   -0.0045   -0.0003   -0.0099    0.0102
   42 O2     3pz       -0.0023    0.0038   -0.0793   -0.0004   -0.0010   -0.2675    0.0025   -0.0017   -0.0078    0.0241
   43 O2     4pz        0.0002    0.0001   -0.0021    0.0002   -0.0002   -0.1740    0.0025   -0.0003   -0.0016    0.0085
   44 O2     3d2-      -0.0111    0.0308    0.0016    0.1399   -0.0074    0.0017   -0.0002    0.0791   -0.0016   -0.0001
   45 O2     4d2-      -0.0020    0.0061    0.0004    0.0851   -0.0046    0.0009   -0.0002    0.0602   -0.0005   -0.0000
   46 O2     3d1-      -0.0105    0.0081   -0.0052   -0.0000   -0.0001    0.0003    0.0000    0.0001    0.0010    0.0930
   47 O2     4d1-      -0.0019    0.0015   -0.0013    0.0000   -0.0001    0.0003   -0.0001    0.0001    0.0006    0.0577
   48 O2     3d0       -0.0151   -0.0060   -0.0003   -0.0032   -0.0698    0.0011    0.0412   -0.0022    0.1629   -0.0025
   49 O2     4d0       -0.0016   -0.0007   -0.0001   -0.0020   -0.0455    0.0006    0.0203   -0.0013    0.0823   -0.0011
   50 O2     3d1+      -0.0012    0.0006    0.0006    0.0001    0.0001    0.0256   -0.0002    0.0004    0.0002   -0.0004
   51 O2     4d1+      -0.0002    0.0001    0.0007    0.0000    0.0000    0.0113   -0.0001    0.0002    0.0001    0.0000
   52 O2     3d2+      -0.0342   -0.0132    0.0005   -0.0026   -0.0587    0.0016    0.0803   -0.0009    0.0692   -0.0009
   53 O2     4d2+      -0.0059   -0.0023    0.0000   -0.0015   -0.0335    0.0007    0.0351   -0.0004    0.0120   -0.0002
   54 O2     4f3-      -0.0029    0.0089    0.0006   -0.0071    0.0003    0.0000    0.0002    0.0025   -0.0000   -0.0000
   55 O2     4f2-      -0.0017    0.0013   -0.0005   -0.0000   -0.0000    0.0001    0.0000    0.0000    0.0001    0.0062
   56 O2     4f1-       0.0000    0.0004    0.0003   -0.0093    0.0006   -0.0000    0.0000   -0.0102   -0.0001    0.0000
   57 O2     4f0        0.0004    0.0001    0.0005    0.0000    0.0000    0.0016    0.0000    0.0000    0.0001   -0.0002
   58 O2     4f1+      -0.0006    0.0000   -0.0002   -0.0002   -0.0056    0.0000    0.0026   -0.0002    0.0098   -0.0001
   59 O2     4f2+       0.0002   -0.0001    0.0012    0.0000    0.0000    0.0014   -0.0000   -0.0000    0.0001   -0.0002
   60 O2     4f3+      -0.0046   -0.0016   -0.0001   -0.0005   -0.0112    0.0002    0.0059   -0.0004    0.0164   -0.0003
   61 O3     1s        -0.0031   -0.0011   -0.0002    0.1925   -0.1432    0.0014   -0.0069    0.0134    0.0764   -0.0013
   62 O3     2s         0.0109   -0.0330   -0.0057    1.4133   -1.0658    0.0080   -0.1344    0.0142    0.4250   -0.0077
   63 O3     3s        -0.0146   -0.0041   -0.0012    0.8295   -0.5915    0.0078    0.0341    0.0118    0.5939   -0.0079
   64 O3     4s        -0.0047   -0.0011   -0.0003    0.1879   -0.1233    0.0020    0.0177   -0.0020    0.1666   -0.0019
[...]

>>> COPY /tmp/ozone_126.00/GMJ_IVECC2_E_P_2_.csv /home/grierjones/DDCASPT2/ozone/multistate/ANO-RCC-VTZP/ozone_126.00/GMJ_IVECC2_E_P_2_.csv

>>> COPY /tmp/ozone_126.00/GMJ_e2_E_P_2_.csv /home/grierjones/DDCASPT2/ozone/multistate/ANO-RCC-VTZP/ozone_126.00/GMJ_e2_E_P_2_.csv

>>> END FOREACH

>>> EXPORT j = M

>>> IF (-FILE GMJ_e2_${i}_${j}_${k}_.csv)

>>> COPY /tmp/ozone_126.00/GMJ_RHS_E_M_2_.csv /home/grierjones/DDCASPT2/ozone/multistate/ANO-RCC-VTZP/ozone_126.00/GMJ_RHS_E_M_2_.csv

>>> COPY /tmp/ozone_126.00/GMJ_IVECW_E_M_2_.csv /home/grierjones/DDCASPT2/ozone/multistate/ANO-RCC-VTZP/ozone_126.00/GMJ_IVECW_E_M_2_.csv

>>> COPY /tmp/ozone_126.00/GMJ_IVECX_E_M_2_.csv /home/grierjones/DDCASPT2/ozone/multistate/ANO-RCC-VTZP/ozone_126.00/GMJ_IVECX_E_M_2_.csv

>>> COPY /tmp/ozone_126.00/GMJ_IVECC2_E_M_2_.csv /home/grierjones/DDCASPT2/ozone/multistate/ANO-RCC-VTZP/ozone_126.00/GMJ_IVECC2_E_M_2_.csv

>>> COPY /tmp/ozone_126.00/GMJ_e2_E_M_2_.csv /home/grierjones/DDCASPT2/ozone/multistate/ANO-RCC-VTZP/ozone_126.00/GMJ_e2_E_M_2_.csv

>>> END FOREACH

>>> END FOREACH

>>> EXPORT i = F

>>> EXPORT j = P

>>> IF (-FILE GMJ_e2_${i}_${j}_${k}_.csv)

>>> COPY /tmp/ozone_126.00/GMJ_RHS_F_P_2_.csv /home/grierjones/DDCASPT2/ozone/multistate/ANO-RCC-VTZP/ozone_126.00/GMJ_RHS_F_P_2_.csv

>>> COPY /tmp/ozone_126.00/GMJ_IVECW_F_P_2_.csv /home/grierjones/DDCASPT2/ozone/multistate/ANO-RCC-VTZP/ozone_126.00/GMJ_IVECW_F_P_2_.csv

>>> COPY /tmp/ozone_126.00/GMJ_IVECX_F_P_2_.csv /home/grierjones/DDCASPT2/ozone/multistate/ANO-RCC-VTZP/ozone_126.00/GMJ_IVECX_F_P_2_.csv

>>> COPY /tmp/ozone_126.00/GMJ_IVECC2_F_P_2_.csv /home/grierjones/DDCASPT2/ozone/multistate/ANO-RCC-VTZP/ozone_126.00/GMJ_IVECC2_F_P_2_.csv

>>> COPY /tmp/ozone_126.00/GMJ_e2_F_P_2_.csv /home/grierjones/DDCASPT2/ozone/multistate/ANO-RCC-VTZP/ozone_126.00/GMJ_e2_F_P_2_.csv

>>> END FOREACH

>>> EXPORT j = M

>>> IF (-FILE GMJ_e2_${i}_${j}_${k}_.csv)

>>> COPY /tmp/ozone_126.00/GMJ_RHS_F_M_2_.csv /home/grierjones/DDCASPT2/ozone/multistate/ANO-RCC-VTZP/ozone_126.00/GMJ_RHS_F_M_2_.csv

>>> COPY /tmp/ozone_126.00/GMJ_IVECW_F_M_2_.csv /home/grierjones/DDCASPT2/ozone/multistate/ANO-RCC-VTZP/ozone_126.00/GMJ_IVECW_F_M_2_.csv

>>> COPY /tmp/ozone_126.00/GMJ_IVECX_F_M_2_.csv /home/grierjones/DDCASPT2/ozone/multistate/ANO-RCC-VTZP/ozone_126.00/GMJ_IVECX_F_M_2_.csv

>>> COPY /tmp/ozone_126.00/GMJ_IVECC2_F_M_2_.csv /home/grierjones/DDCASPT2/ozone/multistate/ANO-RCC-VTZP/ozone_126.00/GMJ_IVECC2_F_M_2_.csv

>>> COPY /tmp/ozone_126.00/GMJ_e2_F_M_2_.csv /home/grierjones/DDCASPT2/ozone/multistate/ANO-RCC-VTZP/ozone_126.00/GMJ_e2_F_M_2_.csv

>>> END FOREACH

>>> END FOREACH

>>> EXPORT i = G

>>> EXPORT j = P

>>> IF (-FILE GMJ_e2_${i}_${j}_${k}_.csv)

>>> COPY /tmp/ozone_126.00/GMJ_RHS_G_P_2_.csv /home/grierjones/DDCASPT2/ozone/multistate/ANO-RCC-VTZP/ozone_126.00/GMJ_RHS_G_P_2_.csv

>>> COPY /tmp/ozone_126.00/GMJ_IVECW_G_P_2_.csv /home/grierjones/DDCASPT2/ozone/multistate/ANO-RCC-VTZP/ozone_126.00/GMJ_IVECW_G_P_2_.csv

>>> COPY /tmp/ozone_126.00/GMJ_IVECX_G_P_2_.csv /home/grierjones/DDCASPT2/ozone/multistate/ANO-RCC-VTZP/ozone_126.00/GMJ_IVECX_G_P_2_.csv

>>> COPY /tmp/ozone_126.00/GMJ_IVECC2_G_P_2_.csv /home/grierjones/DDCASPT2/ozone/multistate/ANO-RCC-VTZP/ozone_126.00/GMJ_IVECC2_G_P_2_.csv

>>> COPY /tmp/ozone_126.00/GMJ_e2_G_P_2_.csv /home/grierjones/DDCASPT2/ozone/multistate/ANO-RCC-VTZP/ozone_126.00/GMJ_e2_G_P_2_.csv

>>> END FOREACH

>>> EXPORT j = M

>>> IF (-FILE GMJ_e2_${i}_${j}_${k}_.csv)

>>> COPY /tmp/ozone_126.00/GMJ_RHS_G_M_2_.csv /home/grierjones/DDCASPT2/ozone/multistate/ANO-RCC-VTZP/ozone_126.00/GMJ_RHS_G_M_2_.csv

>>> COPY /tmp/ozone_126.00/GMJ_IVECW_G_M_2_.csv /home/grierjones/DDCASPT2/ozone/multistate/ANO-RCC-VTZP/ozone_126.00/GMJ_IVECW_G_M_2_.csv

>>> COPY /tmp/ozone_126.00/GMJ_IVECX_G_M_2_.csv /home/grierjones/DDCASPT2/ozone/multistate/ANO-RCC-VTZP/ozone_126.00/GMJ_IVECX_G_M_2_.csv

>>> COPY /tmp/ozone_126.00/GMJ_IVECC2_G_M_2_.csv /home/grierjones/DDCASPT2/ozone/multistate/ANO-RCC-VTZP/ozone_126.00/GMJ_IVECC2_G_M_2_.csv

>>> COPY /tmp/ozone_126.00/GMJ_e2_G_M_2_.csv /home/grierjones/DDCASPT2/ozone/multistate/ANO-RCC-VTZP/ozone_126.00/GMJ_e2_G_M_2_.csv

>>> END FOREACH

>>> END FOREACH

>>> EXPORT i = H

>>> EXPORT j = P

>>> IF (-FILE GMJ_e2_${i}_${j}_${k}_.csv)

>>> COPY /tmp/ozone_126.00/GMJ_RHS_H_P_2_.csv /home/grierjones/DDCASPT2/ozone/multistate/ANO-RCC-VTZP/ozone_126.00/GMJ_RHS_H_P_2_.csv

>>> COPY /tmp/ozone_126.00/GMJ_IVECW_H_P_2_.csv /home/grierjones/DDCASPT2/ozone/multistate/ANO-RCC-VTZP/ozone_126.00/GMJ_IVECW_H_P_2_.csv

>>> COPY /tmp/ozone_126.00/GMJ_IVECX_H_P_2_.csv /home/grierjones/DDCASPT2/ozone/multistate/ANO-RCC-VTZP/ozone_126.00/GMJ_IVECX_H_P_2_.csv

>>> COPY /tmp/ozone_126.00/GMJ_IVECC2_H_P_2_.csv /home/grierjones/DDCASPT2/ozone/multistate/ANO-RCC-VTZP/ozone_126.00/GMJ_IVECC2_H_P_2_.csv

>>> COPY /tmp/ozone_126.00/GMJ_e2_H_P_2_.csv /home/grierjones/DDCASPT2/ozone/multistate/ANO-RCC-VTZP/ozone_126.00/GMJ_e2_H_P_2_.csv

>>> END FOREACH

>>> EXPORT j = M

>>> IF (-FILE GMJ_e2_${i}_${j}_${k}_.csv)

>>> COPY /tmp/ozone_126.00/GMJ_RHS_H_M_2_.csv /home/grierjones/DDCASPT2/ozone/multistate/ANO-RCC-VTZP/ozone_126.00/GMJ_RHS_H_M_2_.csv

>>> COPY /tmp/ozone_126.00/GMJ_IVECW_H_M_2_.csv /home/grierjones/DDCASPT2/ozone/multistate/ANO-RCC-VTZP/ozone_126.00/GMJ_IVECW_H_M_2_.csv

>>> COPY /tmp/ozone_126.00/GMJ_IVECX_H_M_2_.csv /home/grierjones/DDCASPT2/ozone/multistate/ANO-RCC-VTZP/ozone_126.00/GMJ_IVECX_H_M_2_.csv

>>> COPY /tmp/ozone_126.00/GMJ_IVECC2_H_M_2_.csv /home/grierjones/DDCASPT2/ozone/multistate/ANO-RCC-VTZP/ozone_126.00/GMJ_IVECC2_H_M_2_.csv

>>> COPY /tmp/ozone_126.00/GMJ_e2_H_M_2_.csv /home/grierjones/DDCASPT2/ozone/multistate/ANO-RCC-VTZP/ozone_126.00/GMJ_e2_H_M_2_.csv

>>> END FOREACH

>>> END FOREACH

>>> END FOREACH

>>> EXPORT k = 3

>>> EXPORT i = B

>>> EXPORT j = P

>>> IF (-FILE GMJ_e2_${i}_${j}_${k}_.csv)

>>> COPY /tmp/ozone_126.00/GMJ_RHS_B_P_3_.csv /home/grierjones/DDCASPT2/ozone/multistate/ANO-RCC-VTZP/ozone_126.00/GMJ_RHS_B_P_3_.csv

>>> COPY /tmp/ozone_126.00/GMJ_IVECW_B_P_3_.csv /home/grierjones/DDCASPT2/ozone/multistate/ANO-RCC-VTZP/ozone_126.00/GMJ_IVECW_B_P_3_.csv

>>> COPY /tmp/ozone_126.00/GMJ_IVECX_B_P_3_.csv /home/grierjones/DDCASPT2/ozone/multistate/ANO-RCC-VTZP/ozone_126.00/GMJ_IVECX_B_P_3_.csv

>>> COPY /tmp/ozone_126.00/GMJ_IVECC2_B_P_3_.csv /home/grierjones/DDCASPT2/ozone/multistate/ANO-RCC-VTZP/ozone_126.00/GMJ_IVECC2_B_P_3_.csv

>>> COPY /tmp/ozone_126.00/GMJ_e2_B_P_3_.csv /home/grierjones/DDCASPT2/ozone/multistate/ANO-RCC-VTZP/ozone_126.00/GMJ_e2_B_P_3_.csv

>>> END FOREACH

>>> EXPORT j = M

>>> IF (-FILE GMJ_e2_${i}_${j}_${k}_.csv)
(Skipped)

>>> END FOREACH

>>> END FOREACH

>>> EXPORT i = E

>>> EXPORT j = P

>>> IF (-FILE GMJ_e2_${i}_${j}_${k}_.csv)

>>> COPY /tmp/ozone_126.00/GMJ_RHS_E_P_3_.csv /home/grierjones/DDCASPT2/ozone/multistate/ANO-RCC-VTZP/ozone_126.00/GMJ_RHS_E_P_3_.csv

>>> COPY /tmp/ozone_126.00/GMJ_IVECW_E_P_3_.csv /home/grierjones/DDCASPT2/ozone/multistate/ANO-RCC-VTZP/ozone_126.00/GMJ_IVECW_E_P_3_.csv

>>> COPY /tmp/ozone_126.00/GMJ_IVECX_E_P_3_.csv /home/grierjones/DDCASPT2/ozone/multistate/ANO-RCC-VTZP/ozone_126.00/GMJ_IVECX_E_P_3_.csv

>>> COPY /tmp/ozone_126.00/GMJ_IVECC2_E_P_3_.csv /home/grierjones/DDCASPT2/ozone/multistate/ANO-RCC-VTZP/ozone_126.00/GMJ_IVECC2_E_P_3_.csv

>>> COPY /tmp/ozone_126.00/GMJ_e2_E_P_3_.csv /home/grierjones/DDCASPT2/ozone/multistate/ANO-RCC-VTZP/ozone_126.00/GMJ_e2_E_P_3_.csv

>>> END FOREACH

>>> EXPORT j = M

>>> IF (-FILE GMJ_e2_${i}_${j}_${k}_.csv)

>>> COPY /tmp/ozone_126.00/GMJ_RHS_E_M_3_.csv /home/grierjones/DDCASPT2/ozone/multistate/ANO-RCC-VTZP/ozone_126.00/GMJ_RHS_E_M_3_.csv

>>> COPY /tmp/ozone_126.00/GMJ_IVECW_E_M_3_.csv /home/grierjones/DDCASPT2/ozone/multistate/ANO-RCC-VTZP/ozone_126.00/GMJ_IVECW_E_M_3_.csv

>>> COPY /tmp/ozone_126.00/GMJ_IVECX_E_M_3_.csv /home/grierjones/DDCASPT2/ozone/multistate/ANO-RCC-VTZP/ozone_126.00/GMJ_IVECX_E_M_3_.csv

>>> COPY /tmp/ozone_126.00/GMJ_IVECC2_E_M_3_.csv /home/grierjones/DDCASPT2/ozone/multistate/ANO-RCC-VTZP/ozone_126.00/GMJ_IVECC2_E_M_3_.csv

>>> COPY /tmp/ozone_126.00/GMJ_e2_E_M_3_.csv /home/grierjones/DDCASPT2/ozone/multistate/ANO-RCC-VTZP/ozone_126.00/GMJ_e2_E_M_3_.csv

>>> END FOREACH

>>> END FOREACH

>>> EXPORT i = F

>>> EXPORT j = P

>>> IF (-FILE GMJ_e2_${i}_${j}_${k}_.csv)

>>> COPY /tmp/ozone_126.00/GMJ_RHS_F_P_3_.csv /home/grierjones/DDCASPT2/ozone/multistate/ANO-RCC-VTZP/ozone_126.00/GMJ_RHS_F_P_3_.csv

>>> COPY /tmp/ozone_126.00/GMJ_IVECW_F_P_3_.csv /home/grierjones/DDCASPT2/ozone/multistate/ANO-RCC-VTZP/ozone_126.00/GMJ_IVECW_F_P_3_.csv

>>> COPY /tmp/ozone_126.00/GMJ_IVECX_F_P_3_.csv /home/grierjones/DDCASPT2/ozone/multistate/ANO-RCC-VTZP/ozone_126.00/GMJ_IVECX_F_P_3_.csv

>>> COPY /tmp/ozone_126.00/GMJ_IVECC2_F_P_3_.csv /home/grierjones/DDCASPT2/ozone/multistate/ANO-RCC-VTZP/ozone_126.00/GMJ_IVECC2_F_P_3_.csv

>>> COPY /tmp/ozone_126.00/GMJ_e2_F_P_3_.csv /home/grierjones/DDCASPT2/ozone/multistate/ANO-RCC-VTZP/ozone_126.00/GMJ_e2_F_P_3_.csv

>>> END FOREACH

>>> EXPORT j = M

>>> IF (-FILE GMJ_e2_${i}_${j}_${k}_.csv)

>>> COPY /tmp/ozone_126.00/GMJ_RHS_F_M_3_.csv /home/grierjones/DDCASPT2/ozone/multistate/ANO-RCC-VTZP/ozone_126.00/GMJ_RHS_F_M_3_.csv

>>> COPY /tmp/ozone_126.00/GMJ_IVECW_F_M_3_.csv /home/grierjones/DDCASPT2/ozone/multistate/ANO-RCC-VTZP/ozone_126.00/GMJ_IVECW_F_M_3_.csv

>>> COPY /tmp/ozone_126.00/GMJ_IVECX_F_M_3_.csv /home/grierjones/DDCASPT2/ozone/multistate/ANO-RCC-VTZP/ozone_126.00/GMJ_IVECX_F_M_3_.csv

>>> COPY /tmp/ozone_126.00/GMJ_IVECC2_F_M_3_.csv /home/grierjones/DDCASPT2/ozone/multistate/ANO-RCC-VTZP/ozone_126.00/GMJ_IVECC2_F_M_3_.csv

>>> COPY /tmp/ozone_126.00/GMJ_e2_F_M_3_.csv /home/grierjones/DDCASPT2/ozone/multistate/ANO-RCC-VTZP/ozone_126.00/GMJ_e2_F_M_3_.csv

>>> END FOREACH

>>> END FOREACH

>>> EXPORT i = G

>>> EXPORT j = P

>>> IF (-FILE GMJ_e2_${i}_${j}_${k}_.csv)

>>> COPY /tmp/ozone_126.00/GMJ_RHS_G_P_3_.csv /home/grierjones/DDCASPT2/ozone/multistate/ANO-RCC-VTZP/ozone_126.00/GMJ_RHS_G_P_3_.csv

>>> COPY /tmp/ozone_126.00/GMJ_IVECW_G_P_3_.csv /home/grierjones/DDCASPT2/ozone/multistate/ANO-RCC-VTZP/ozone_126.00/GMJ_IVECW_G_P_3_.csv

>>> COPY /tmp/ozone_126.00/GMJ_IVECX_G_P_3_.csv /home/grierjones/DDCASPT2/ozone/multistate/ANO-RCC-VTZP/ozone_126.00/GMJ_IVECX_G_P_3_.csv

>>> COPY /tmp/ozone_126.00/GMJ_IVECC2_G_P_3_.csv /home/grierjones/DDCASPT2/ozone/multistate/ANO-RCC-VTZP/ozone_126.00/GMJ_IVECC2_G_P_3_.csv

>>> COPY /tmp/ozone_126.00/GMJ_e2_G_P_3_.csv /home/grierjones/DDCASPT2/ozone/multistate/ANO-RCC-VTZP/ozone_126.00/GMJ_e2_G_P_3_.csv

>>> END FOREACH

>>> EXPORT j = M

>>> IF (-FILE GMJ_e2_${i}_${j}_${k}_.csv)

>>> COPY /tmp/ozone_126.00/GMJ_RHS_G_M_3_.csv /home/grierjones/DDCASPT2/ozone/multistate/ANO-RCC-VTZP/ozone_126.00/GMJ_RHS_G_M_3_.csv

>>> COPY /tmp/ozone_126.00/GMJ_IVECW_G_M_3_.csv /home/grierjones/DDCASPT2/ozone/multistate/ANO-RCC-VTZP/ozone_126.00/GMJ_IVECW_G_M_3_.csv

>>> COPY /tmp/ozone_126.00/GMJ_IVECX_G_M_3_.csv /home/grierjones/DDCASPT2/ozone/multistate/ANO-RCC-VTZP/ozone_126.00/GMJ_IVECX_G_M_3_.csv

>>> COPY /tmp/ozone_126.00/GMJ_IVECC2_G_M_3_.csv /home/grierjones/DDCASPT2/ozone/multistate/ANO-RCC-VTZP/ozone_126.00/GMJ_IVECC2_G_M_3_.csv

>>> COPY /tmp/ozone_126.00/GMJ_e2_G_M_3_.csv /home/grierjones/DDCASPT2/ozone/multistate/ANO-RCC-VTZP/ozone_126.00/GMJ_e2_G_M_3_.csv

>>> END FOREACH

>>> END FOREACH

>>> EXPORT i = H

>>> EXPORT j = P

>>> IF (-FILE GMJ_e2_${i}_${j}_${k}_.csv)

>>> COPY /tmp/ozone_126.00/GMJ_RHS_H_P_3_.csv /home/grierjones/DDCASPT2/ozone/multistate/ANO-RCC-VTZP/ozone_126.00/GMJ_RHS_H_P_3_.csv

>>> COPY /tmp/ozone_126.00/GMJ_IVECW_H_P_3_.csv /home/grierjones/DDCASPT2/ozone/multistate/ANO-RCC-VTZP/ozone_126.00/GMJ_IVECW_H_P_3_.csv

>>> COPY /tmp/ozone_126.00/GMJ_IVECX_H_P_3_.csv /home/grierjones/DDCASPT2/ozone/multistate/ANO-RCC-VTZP/ozone_126.00/GMJ_IVECX_H_P_3_.csv

>>> COPY /tmp/ozone_126.00/GMJ_IVECC2_H_P_3_.csv /home/grierjones/DDCASPT2/ozone/multistate/ANO-RCC-VTZP/ozone_126.00/GMJ_IVECC2_H_P_3_.csv

>>> COPY /tmp/ozone_126.00/GMJ_e2_H_P_3_.csv /home/grierjones/DDCASPT2/ozone/multistate/ANO-RCC-VTZP/ozone_126.00/GMJ_e2_H_P_3_.csv

>>> END FOREACH

>>> EXPORT j = M

>>> IF (-FILE GMJ_e2_${i}_${j}_${k}_.csv)

>>> COPY /tmp/ozone_126.00/GMJ_RHS_H_M_3_.csv /home/grierjones/DDCASPT2/ozone/multistate/ANO-RCC-VTZP/ozone_126.00/GMJ_RHS_H_M_3_.csv

>>> COPY /tmp/ozone_126.00/GMJ_IVECW_H_M_3_.csv /home/grierjones/DDCASPT2/ozone/multistate/ANO-RCC-VTZP/ozone_126.00/GMJ_IVECW_H_M_3_.csv

>>> COPY /tmp/ozone_126.00/GMJ_IVECX_H_M_3_.csv /home/grierjones/DDCASPT2/ozone/multistate/ANO-RCC-VTZP/ozone_126.00/GMJ_IVECX_H_M_3_.csv

>>> COPY /tmp/ozone_126.00/GMJ_IVECC2_H_M_3_.csv /home/grierjones/DDCASPT2/ozone/multistate/ANO-RCC-VTZP/ozone_126.00/GMJ_IVECC2_H_M_3_.csv

>>> COPY /tmp/ozone_126.00/GMJ_e2_H_M_3_.csv /home/grierjones/DDCASPT2/ozone/multistate/ANO-RCC-VTZP/ozone_126.00/GMJ_e2_H_M_3_.csv

>>> END FOREACH

>>> END FOREACH

>>> END FOREACH

>>> EXPORT j = 1

>>> EXPORT i = A

>>> IF (-FILE GMJ_e2_${i}_${j}_.csv)

>>> COPY /tmp/ozone_126.00/GMJ_RHS_A_1_.csv /home/grierjones/DDCASPT2/ozone/multistate/ANO-RCC-VTZP/ozone_126.00/GMJ_RHS_A_1_.csv

>>> COPY /tmp/ozone_126.00/GMJ_IVECW_A_1_.csv /home/grierjones/DDCASPT2/ozone/multistate/ANO-RCC-VTZP/ozone_126.00/GMJ_IVECW_A_1_.csv

>>> COPY /tmp/ozone_126.00/GMJ_IVECX_A_1_.csv /home/grierjones/DDCASPT2/ozone/multistate/ANO-RCC-VTZP/ozone_126.00/GMJ_IVECX_A_1_.csv

>>> COPY /tmp/ozone_126.00/GMJ_IVECC2_A_1_.csv /home/grierjones/DDCASPT2/ozone/multistate/ANO-RCC-VTZP/ozone_126.00/GMJ_IVECC2_A_1_.csv

>>> COPY /tmp/ozone_126.00/GMJ_e2_A_1_.csv /home/grierjones/DDCASPT2/ozone/multistate/ANO-RCC-VTZP/ozone_126.00/GMJ_e2_A_1_.csv

>>> END FOREACH

>>> EXPORT i = C

>>> IF (-FILE GMJ_e2_${i}_${j}_.csv)

>>> COPY /tmp/ozone_126.00/GMJ_RHS_C_1_.csv /home/grierjones/DDCASPT2/ozone/multistate/ANO-RCC-VTZP/ozone_126.00/GMJ_RHS_C_1_.csv

>>> COPY /tmp/ozone_126.00/GMJ_IVECW_C_1_.csv /home/grierjones/DDCASPT2/ozone/multistate/ANO-RCC-VTZP/ozone_126.00/GMJ_IVECW_C_1_.csv

>>> COPY /tmp/ozone_126.00/GMJ_IVECX_C_1_.csv /home/grierjones/DDCASPT2/ozone/multistate/ANO-RCC-VTZP/ozone_126.00/GMJ_IVECX_C_1_.csv

>>> COPY /tmp/ozone_126.00/GMJ_IVECC2_C_1_.csv /home/grierjones/DDCASPT2/ozone/multistate/ANO-RCC-VTZP/ozone_126.00/GMJ_IVECC2_C_1_.csv

>>> COPY /tmp/ozone_126.00/GMJ_e2_C_1_.csv /home/grierjones/DDCASPT2/ozone/multistate/ANO-RCC-VTZP/ozone_126.00/GMJ_e2_C_1_.csv

>>> END FOREACH

>>> EXPORT i = D

>>> IF (-FILE GMJ_e2_${i}_${j}_.csv)

>>> COPY /tmp/ozone_126.00/GMJ_RHS_D_1_.csv /home/grierjones/DDCASPT2/ozone/multistate/ANO-RCC-VTZP/ozone_126.00/GMJ_RHS_D_1_.csv

>>> COPY /tmp/ozone_126.00/GMJ_IVECW_D_1_.csv /home/grierjones/DDCASPT2/ozone/multistate/ANO-RCC-VTZP/ozone_126.00/GMJ_IVECW_D_1_.csv

>>> COPY /tmp/ozone_126.00/GMJ_IVECX_D_1_.csv /home/grierjones/DDCASPT2/ozone/multistate/ANO-RCC-VTZP/ozone_126.00/GMJ_IVECX_D_1_.csv

>>> COPY /tmp/ozone_126.00/GMJ_IVECC2_D_1_.csv /home/grierjones/DDCASPT2/ozone/multistate/ANO-RCC-VTZP/ozone_126.00/GMJ_IVECC2_D_1_.csv

>>> COPY /tmp/ozone_126.00/GMJ_e2_D_1_.csv /home/grierjones/DDCASPT2/ozone/multistate/ANO-RCC-VTZP/ozone_126.00/GMJ_e2_D_1_.csv

>>> END FOREACH

>>> END FOREACH

>>> EXPORT j = 2

>>> EXPORT i = A

>>> IF (-FILE GMJ_e2_${i}_${j}_.csv)

>>> COPY /tmp/ozone_126.00/GMJ_RHS_A_2_.csv /home/grierjones/DDCASPT2/ozone/multistate/ANO-RCC-VTZP/ozone_126.00/GMJ_RHS_A_2_.csv

>>> COPY /tmp/ozone_126.00/GMJ_IVECW_A_2_.csv /home/grierjones/DDCASPT2/ozone/multistate/ANO-RCC-VTZP/ozone_126.00/GMJ_IVECW_A_2_.csv

>>> COPY /tmp/ozone_126.00/GMJ_IVECX_A_2_.csv /home/grierjones/DDCASPT2/ozone/multistate/ANO-RCC-VTZP/ozone_126.00/GMJ_IVECX_A_2_.csv

>>> COPY /tmp/ozone_126.00/GMJ_IVECC2_A_2_.csv /home/grierjones/DDCASPT2/ozone/multistate/ANO-RCC-VTZP/ozone_126.00/GMJ_IVECC2_A_2_.csv

>>> COPY /tmp/ozone_126.00/GMJ_e2_A_2_.csv /home/grierjones/DDCASPT2/ozone/multistate/ANO-RCC-VTZP/ozone_126.00/GMJ_e2_A_2_.csv

>>> END FOREACH

>>> EXPORT i = C

>>> IF (-FILE GMJ_e2_${i}_${j}_.csv)

>>> COPY /tmp/ozone_126.00/GMJ_RHS_C_2_.csv /home/grierjones/DDCASPT2/ozone/multistate/ANO-RCC-VTZP/ozone_126.00/GMJ_RHS_C_2_.csv

>>> COPY /tmp/ozone_126.00/GMJ_IVECW_C_2_.csv /home/grierjones/DDCASPT2/ozone/multistate/ANO-RCC-VTZP/ozone_126.00/GMJ_IVECW_C_2_.csv

>>> COPY /tmp/ozone_126.00/GMJ_IVECX_C_2_.csv /home/grierjones/DDCASPT2/ozone/multistate/ANO-RCC-VTZP/ozone_126.00/GMJ_IVECX_C_2_.csv

>>> COPY /tmp/ozone_126.00/GMJ_IVECC2_C_2_.csv /home/grierjones/DDCASPT2/ozone/multistate/ANO-RCC-VTZP/ozone_126.00/GMJ_IVECC2_C_2_.csv

>>> COPY /tmp/ozone_126.00/GMJ_e2_C_2_.csv /home/grierjones/DDCASPT2/ozone/multistate/ANO-RCC-VTZP/ozone_126.00/GMJ_e2_C_2_.csv

>>> END FOREACH

>>> EXPORT i = D

>>> IF (-FILE GMJ_e2_${i}_${j}_.csv)

>>> COPY /tmp/ozone_126.00/GMJ_RHS_D_2_.csv /home/grierjones/DDCASPT2/ozone/multistate/ANO-RCC-VTZP/ozone_126.00/GMJ_RHS_D_2_.csv

>>> COPY /tmp/ozone_126.00/GMJ_IVECW_D_2_.csv /home/grierjones/DDCASPT2/ozone/multistate/ANO-RCC-VTZP/ozone_126.00/GMJ_IVECW_D_2_.csv

>>> COPY /tmp/ozone_126.00/GMJ_IVECX_D_2_.csv /home/grierjones/DDCASPT2/ozone/multistate/ANO-RCC-VTZP/ozone_126.00/GMJ_IVECX_D_2_.csv

>>> COPY /tmp/ozone_126.00/GMJ_IVECC2_D_2_.csv /home/grierjones/DDCASPT2/ozone/multistate/ANO-RCC-VTZP/ozone_126.00/GMJ_IVECC2_D_2_.csv

>>> COPY /tmp/ozone_126.00/GMJ_e2_D_2_.csv /home/grierjones/DDCASPT2/ozone/multistate/ANO-RCC-VTZP/ozone_126.00/GMJ_e2_D_2_.csv

>>> END FOREACH

>>> END FOREACH

>>> EXPORT j = 3

>>> EXPORT i = A

>>> IF (-FILE GMJ_e2_${i}_${j}_.csv)

>>> COPY /tmp/ozone_126.00/GMJ_RHS_A_3_.csv /home/grierjones/DDCASPT2/ozone/multistate/ANO-RCC-VTZP/ozone_126.00/GMJ_RHS_A_3_.csv

>>> COPY /tmp/ozone_126.00/GMJ_IVECW_A_3_.csv /home/grierjones/DDCASPT2/ozone/multistate/ANO-RCC-VTZP/ozone_126.00/GMJ_IVECW_A_3_.csv

>>> COPY /tmp/ozone_126.00/GMJ_IVECX_A_3_.csv /home/grierjones/DDCASPT2/ozone/multistate/ANO-RCC-VTZP/ozone_126.00/GMJ_IVECX_A_3_.csv

>>> COPY /tmp/ozone_126.00/GMJ_IVECC2_A_3_.csv /home/grierjones/DDCASPT2/ozone/multistate/ANO-RCC-VTZP/ozone_126.00/GMJ_IVECC2_A_3_.csv

>>> COPY /tmp/ozone_126.00/GMJ_e2_A_3_.csv /home/grierjones/DDCASPT2/ozone/multistate/ANO-RCC-VTZP/ozone_126.00/GMJ_e2_A_3_.csv

>>> END FOREACH

>>> EXPORT i = C

>>> IF (-FILE GMJ_e2_${i}_${j}_.csv)

>>> COPY /tmp/ozone_126.00/GMJ_RHS_C_3_.csv /home/grierjones/DDCASPT2/ozone/multistate/ANO-RCC-VTZP/ozone_126.00/GMJ_RHS_C_3_.csv

>>> COPY /tmp/ozone_126.00/GMJ_IVECW_C_3_.csv /home/grierjones/DDCASPT2/ozone/multistate/ANO-RCC-VTZP/ozone_126.00/GMJ_IVECW_C_3_.csv

>>> COPY /tmp/ozone_126.00/GMJ_IVECX_C_3_.csv /home/grierjones/DDCASPT2/ozone/multistate/ANO-RCC-VTZP/ozone_126.00/GMJ_IVECX_C_3_.csv

>>> COPY /tmp/ozone_126.00/GMJ_IVECC2_C_3_.csv /home/grierjones/DDCASPT2/ozone/multistate/ANO-RCC-VTZP/ozone_126.00/GMJ_IVECC2_C_3_.csv

>>> COPY /tmp/ozone_126.00/GMJ_e2_C_3_.csv /home/grierjones/DDCASPT2/ozone/multistate/ANO-RCC-VTZP/ozone_126.00/GMJ_e2_C_3_.csv

>>> END FOREACH

>>> EXPORT i = D

>>> IF (-FILE GMJ_e2_${i}_${j}_.csv)

>>> COPY /tmp/ozone_126.00/GMJ_RHS_D_3_.csv /home/grierjones/DDCASPT2/ozone/multistate/ANO-RCC-VTZP/ozone_126.00/GMJ_RHS_D_3_.csv

>>> COPY /tmp/ozone_126.00/GMJ_IVECW_D_3_.csv /home/grierjones/DDCASPT2/ozone/multistate/ANO-RCC-VTZP/ozone_126.00/GMJ_IVECW_D_3_.csv

>>> COPY /tmp/ozone_126.00/GMJ_IVECX_D_3_.csv /home/grierjones/DDCASPT2/ozone/multistate/ANO-RCC-VTZP/ozone_126.00/GMJ_IVECX_D_3_.csv

>>> COPY /tmp/ozone_126.00/GMJ_IVECC2_D_3_.csv /home/grierjones/DDCASPT2/ozone/multistate/ANO-RCC-VTZP/ozone_126.00/GMJ_IVECC2_D_3_.csv

>>> COPY /tmp/ozone_126.00/GMJ_e2_D_3_.csv /home/grierjones/DDCASPT2/ozone/multistate/ANO-RCC-VTZP/ozone_126.00/GMJ_e2_D_3_.csv

>>> END FOREACH

>>> END FOREACH

.########################.
.# Non-zero return code #.
.########################.

    Timing: Wall=24.36 User=16.06 System=8.28
********************************************
*** WorkDir at /tmp/ozone_126.00 cleaned ***
********************************************
