[Molden Format]
[N_Atoms]
                     2
[Atoms] (AU)
LI1         1      3           0.00000000      0.00000000      0.00000000
LI2         2      3           0.00000000      0.00000000      2.64561657
[Charge] (Mulliken)
  5.928590951498336E-013
 -5.959677196187840E-013
[GTO] (AU)
   1
   s  14
  9.497934400E+03  9.668999974E-05
  1.416811200E+03  6.087099984E-04
  3.214599400E+02  3.101519992E-03
  9.112416300E+01  1.266904997E-02
  2.999989100E+01  4.248012989E-02
  1.101763100E+01  1.150183297E-01
  4.372801000E+00  2.398650094E-01
  1.831256000E+00  3.584300090E-01
  8.022610000E-01  3.048527792E-01
  3.626480000E-01  8.824261976E-02
  1.139950000E-01 -8.445899977E-04
  5.123700000E-02 -7.943959979E-03
  2.246800000E-02 -3.764419990E-03
  7.860000000E-03 -8.868999976E-05
   s  14
  9.497934400E+03 -1.244999993E-05
  1.416811200E+03 -7.838999954E-05
  3.214599400E+02 -4.007099976E-04
  9.112416300E+01 -1.645249990E-03
  2.999989100E+01 -5.634599967E-03
  1.101763100E+01 -1.590780991E-02
  4.372801000E+00 -3.612581979E-02
  1.831256000E+00 -6.459927962E-02
  8.022610000E-01 -1.008321794E-01
  3.626480000E-01 -9.757613942E-02
  1.139950000E-01  2.301215886E-01
  5.123700000E-02  6.102389764E-01
  2.246800000E-02  2.849406083E-01
  7.860000000E-03  4.026899976E-03
   p   9
  1.311950400E+01  1.524940000E-03
  3.077424200E+00  8.314830000E-03
  1.098800500E+00  1.933203000E-02
  4.357784000E-01  4.934293000E-02
  1.802432000E-01  1.623554000E-01
  7.613330000E-02  3.847505400E-01
  3.254650000E-02  4.336100400E-01
  1.401820000E-02  1.287005900E-01
  4.906400000E-03 -1.018520000E-03
 
   2
   s  14
  9.497934400E+03  9.668999974E-05
  1.416811200E+03  6.087099984E-04
  3.214599400E+02  3.101519992E-03
  9.112416300E+01  1.266904997E-02
  2.999989100E+01  4.248012989E-02
  1.101763100E+01  1.150183297E-01
  4.372801000E+00  2.398650094E-01
  1.831256000E+00  3.584300090E-01
  8.022610000E-01  3.048527792E-01
  3.626480000E-01  8.824261976E-02
  1.139950000E-01 -8.445899977E-04
  5.123700000E-02 -7.943959979E-03
  2.246800000E-02 -3.764419990E-03
  7.860000000E-03 -8.868999976E-05
   s  14
  9.497934400E+03 -1.244999993E-05
  1.416811200E+03 -7.838999954E-05
  3.214599400E+02 -4.007099976E-04
  9.112416300E+01 -1.645249990E-03
  2.999989100E+01 -5.634599967E-03
  1.101763100E+01 -1.590780991E-02
  4.372801000E+00 -3.612581979E-02
  1.831256000E+00 -6.459927962E-02
  8.022610000E-01 -1.008321794E-01
  3.626480000E-01 -9.757613942E-02
  1.139950000E-01  2.301215886E-01
  5.123700000E-02  6.102389764E-01
  2.246800000E-02  2.849406083E-01
  7.860000000E-03  4.026899976E-03
   p   9
  1.311950400E+01  1.524940000E-03
  3.077424200E+00  8.314830000E-03
  1.098800500E+00  1.933203000E-02
  4.357784000E-01  4.934293000E-02
  1.802432000E-01  1.623554000E-01
  7.613330000E-02  3.847505400E-01
  3.254650000E-02  4.336100400E-01
  1.401820000E-02  1.287005900E-01
  4.906400000E-03 -1.018520000E-03
 
[MO]
Sym=     1a  
Ene=    -2.6037
Spin= Alpha
Occup=    2.00000
   1         0.69645777
   2         0.00405256
   3        -0.00000000
   4         0.00000000
   5         0.00710590
   6         0.69645777
   7         0.00405256
   8         0.00000000
   9        -0.00000000
  10        -0.00710590
Sym=     2a  
Ene=    -2.5435
Spin= Alpha
Occup=    2.00000
   1        -0.71850623
   2        -0.01308166
   3        -0.00000000
   4         0.00000000
   5        -0.00236650
   6         0.71850623
   7         0.01308166
   8         0.00000000
   9        -0.00000000
  10        -0.00236650
Sym=     3a  
Ene=    -0.1927
Spin= Alpha
Occup=    1.80047
   1        -0.10987716
   2         0.50180989
   3        -0.00000000
   4         0.00000000
   5         0.10830099
   6        -0.10987716
   7         0.50180989
   8         0.00000000
   9         0.00000000
  10        -0.10830099
Sym=     4a  
Ene=    -0.0000
Spin= Alpha
Occup=    0.19953
   1        -0.00000000
   2        -0.00000000
   3         0.48435515
   4        -0.20114773
   5         0.00000000
   6         0.00000000
   7         0.00000000
   8         0.48435515
   9        -0.20114773
  10         0.00000000
Sym=     5a  
Ene=     0.0074
Spin= Alpha
Occup=    0.00000
   1         0.00000000
   2        -0.00000000
   3         0.20114773
   4         0.48435515
   5         0.00000000
   6        -0.00000000
   7         0.00000000
   8         0.20114773
   9         0.48435515
  10         0.00000000
Sym=     6a  
Ene=     0.0224
Spin= Alpha
Occup=    0.00000
   1         0.03560117
   2        -0.42904607
   3        -0.00000000
   4        -0.00000000
   5         0.44980209
   6        -0.03560117
   7         0.42904607
   8         0.00000000
   9        -0.00000000
  10         0.44980209
Sym=     7a  
Ene=     0.1223
Spin= Alpha
Occup=    0.00000
   1         0.21450118
   2         0.30208247
   3         0.00000000
   4        -0.00000000
   5        -1.17531899
   6         0.21450118
   7         0.30208247
   8        -0.00000000
   9         0.00000000
  10         1.17531899
Sym=     8a  
Ene=     0.1645
Spin= Alpha
Occup=    0.00000
   1         0.00000000
   2         0.00000000
   3        -1.52982110
   4         0.63531903
   5        -0.00000000
   6         0.00000000
   7        -0.00000000
   8         1.52982110
   9        -0.63531903
  10         0.00000000
Sym=     9a  
Ene=     0.1647
Spin= Alpha
Occup=    0.00000
   1         0.00000000
   2         0.00000000
   3        -0.63531903
   4        -1.52982110
   5        -0.00000000
   6         0.00000000
   7        -0.00000000
   8         0.63531903
   9         1.52982110
  10        -0.00000000
Sym=    10a  
Ene=     1.3353
Spin= Alpha
Occup=    0.00000
   1        -2.11088501
   2        -8.89618016
   3        -0.00000000
   4         0.00000000
   5        -2.83779683
   6         2.11088501
   7         8.89618016
   8         0.00000000
   9         0.00000000
  10        -2.83779683
