[Molden Format]
[N_Atoms]
                     2
[Atoms] (AU)
LI1         1      3           0.00000000      0.00000000      0.00000000
LI2         2      3           0.00000000      0.00000000      2.64561657
[Charge] (Mulliken)
 -5.062616992290714E-014
  4.751754545395670E-014
[GTO] (AU)
   1
   s  14
  9.497934400E+03  9.668999974E-05
  1.416811200E+03  6.087099984E-04
  3.214599400E+02  3.101519992E-03
  9.112416300E+01  1.266904997E-02
  2.999989100E+01  4.248012989E-02
  1.101763100E+01  1.150183297E-01
  4.372801000E+00  2.398650094E-01
  1.831256000E+00  3.584300090E-01
  8.022610000E-01  3.048527792E-01
  3.626480000E-01  8.824261976E-02
  1.139950000E-01 -8.445899977E-04
  5.123700000E-02 -7.943959979E-03
  2.246800000E-02 -3.764419990E-03
  7.860000000E-03 -8.868999976E-05
   s  14
  9.497934400E+03 -1.244999993E-05
  1.416811200E+03 -7.838999954E-05
  3.214599400E+02 -4.007099976E-04
  9.112416300E+01 -1.645249990E-03
  2.999989100E+01 -5.634599967E-03
  1.101763100E+01 -1.590780991E-02
  4.372801000E+00 -3.612581979E-02
  1.831256000E+00 -6.459927962E-02
  8.022610000E-01 -1.008321794E-01
  3.626480000E-01 -9.757613942E-02
  1.139950000E-01  2.301215886E-01
  5.123700000E-02  6.102389764E-01
  2.246800000E-02  2.849406083E-01
  7.860000000E-03  4.026899976E-03
   p   9
  1.311950400E+01  1.524940000E-03
  3.077424200E+00  8.314830000E-03
  1.098800500E+00  1.933203000E-02
  4.357784000E-01  4.934293000E-02
  1.802432000E-01  1.623554000E-01
  7.613330000E-02  3.847505400E-01
  3.254650000E-02  4.336100400E-01
  1.401820000E-02  1.287005900E-01
  4.906400000E-03 -1.018520000E-03
 
   2
   s  14
  9.497934400E+03  9.668999974E-05
  1.416811200E+03  6.087099984E-04
  3.214599400E+02  3.101519992E-03
  9.112416300E+01  1.266904997E-02
  2.999989100E+01  4.248012989E-02
  1.101763100E+01  1.150183297E-01
  4.372801000E+00  2.398650094E-01
  1.831256000E+00  3.584300090E-01
  8.022610000E-01  3.048527792E-01
  3.626480000E-01  8.824261976E-02
  1.139950000E-01 -8.445899977E-04
  5.123700000E-02 -7.943959979E-03
  2.246800000E-02 -3.764419990E-03
  7.860000000E-03 -8.868999976E-05
   s  14
  9.497934400E+03 -1.244999993E-05
  1.416811200E+03 -7.838999954E-05
  3.214599400E+02 -4.007099976E-04
  9.112416300E+01 -1.645249990E-03
  2.999989100E+01 -5.634599967E-03
  1.101763100E+01 -1.590780991E-02
  4.372801000E+00 -3.612581979E-02
  1.831256000E+00 -6.459927962E-02
  8.022610000E-01 -1.008321794E-01
  3.626480000E-01 -9.757613942E-02
  1.139950000E-01  2.301215886E-01
  5.123700000E-02  6.102389764E-01
  2.246800000E-02  2.849406083E-01
  7.860000000E-03  4.026899976E-03
   p   9
  1.311950400E+01  1.524940000E-03
  3.077424200E+00  8.314830000E-03
  1.098800500E+00  1.933203000E-02
  4.357784000E-01  4.934293000E-02
  1.802432000E-01  1.623554000E-01
  7.613330000E-02  3.847505400E-01
  3.254650000E-02  4.336100400E-01
  1.401820000E-02  1.287005900E-01
  4.906400000E-03 -1.018520000E-03
 
[MO]
Sym=     1a  
Ene=    -2.5971
Spin= Alpha
Occup=    1.00000
   1         0.69586677
   2         0.00666842
   3         0.00000000
   4         0.00000000
   5         0.00770876
   6         0.69586677
   7         0.00666842
   8        -0.00000000
   9        -0.00000000
  10        -0.00770876
Sym=     1a  
Ene=    -2.5971
Spin= Beta
Occup=    1.00000
   1         0.69586677
   2         0.00666842
   3         0.00000000
   4         0.00000000
   5         0.00770876
   6         0.69586677
   7         0.00666842
   8        -0.00000000
   9        -0.00000000
  10        -0.00770876
Sym=     2a  
Ene=    -2.5368
Spin= Alpha
Occup=    1.00000
   1        -0.71851065
   2        -0.01306381
   3         0.00000000
   4         0.00000000
   5        -0.00239776
   6         0.71851065
   7         0.01306381
   8         0.00000000
   9         0.00000000
  10        -0.00239776
Sym=     2a  
Ene=    -2.5368
Spin= Beta
Occup=    1.00000
   1        -0.71851065
   2        -0.01306381
   3         0.00000000
   4         0.00000000
   5        -0.00239776
   6         0.71851065
   7         0.01306381
   8         0.00000000
   9         0.00000000
  10        -0.00239776
Sym=     3a  
Ene=    -0.2076
Spin= Alpha
Occup=    1.00000
   1        -0.10991481
   2         0.50676485
   3         0.00000000
   4        -0.00000000
   5         0.08858644
   6        -0.10991481
   7         0.50676485
   8         0.00000000
   9         0.00000000
  10        -0.08858644
Sym=     3a  
Ene=    -0.2076
Spin= Beta
Occup=    1.00000
   1        -0.10991481
   2         0.50676485
   3         0.00000000
   4        -0.00000000
   5         0.08858644
   6        -0.10991481
   7         0.50676485
   8         0.00000000
   9         0.00000000
  10        -0.08858644
Sym=     4a  
Ene=     0.0080
Spin= Alpha
Occup=    0.00000
   1         0.00000000
   2        -0.00000000
   3         0.05217057
   4         0.52186066
   5         0.00000000
   6        -0.00000000
   7         0.00000000
   8         0.05217057
   9         0.52186066
  10         0.00000000
Sym=     4a  
Ene=     0.0080
Spin= Beta
Occup=    0.00000
   1         0.00000000
   2        -0.00000000
   3         0.05217057
   4         0.52186066
   5         0.00000000
   6        -0.00000000
   7         0.00000000
   8         0.05217057
   9         0.52186066
  10         0.00000000
Sym=     5a  
Ene=     0.0080
Spin= Alpha
Occup=    0.00000
   1        -0.00000000
   2        -0.00000000
   3         0.52186066
   4        -0.05217057
   5         0.00000000
   6        -0.00000000
   7         0.00000000
   8         0.52186066
   9        -0.05217057
  10        -0.00000000
Sym=     5a  
Ene=     0.0080
Spin= Beta
Occup=    0.00000
   1        -0.00000000
   2        -0.00000000
   3         0.52186066
   4        -0.05217057
   5         0.00000000
   6        -0.00000000
   7         0.00000000
   8         0.52186066
   9        -0.05217057
  10        -0.00000000
Sym=     6a  
Ene=     0.0226
Spin= Alpha
Occup=    0.00000
   1         0.03507017
   2        -0.43109396
   3        -0.00000000
   4        -0.00000000
   5         0.44914893
   6        -0.03507017
   7         0.43109396
   8        -0.00000000
   9        -0.00000000
  10         0.44914893
Sym=     6a  
Ene=     0.0226
Spin= Beta
Occup=    0.00000
   1         0.03507017
   2        -0.43109396
   3        -0.00000000
   4        -0.00000000
   5         0.44914893
   6        -0.03507017
   7         0.43109396
   8        -0.00000000
   9        -0.00000000
  10         0.44914893
Sym=     7a  
Ene=     0.1253
Spin= Alpha
Occup=    0.00000
   1         0.21639164
   2         0.29364660
   3         0.00000000
   4        -0.00000000
   5        -1.17696531
   6         0.21639164
   7         0.29364660
   8         0.00000000
   9        -0.00000000
  10         1.17696531
Sym=     7a  
Ene=     0.1253
Spin= Beta
Occup=    0.00000
   1         0.21639164
   2         0.29364660
   3         0.00000000
   4        -0.00000000
   5        -1.17696531
   6         0.21639164
   7         0.29364660
   8         0.00000000
   9        -0.00000000
  10         1.17696531
Sym=     8a  
Ene=     0.1677
Spin= Alpha
Occup=    0.00000
   1         0.00000000
   2         0.00000000
   3        -1.65235942
   4        -0.11700946
   5         0.00000000
   6        -0.00000000
   7        -0.00000000
   8         1.65235942
   9         0.11700946
  10        -0.00000000
Sym=     8a  
Ene=     0.1677
Spin= Beta
Occup=    0.00000
   1         0.00000000
   2         0.00000000
   3        -1.65235942
   4        -0.11700946
   5         0.00000000
   6        -0.00000000
   7        -0.00000000
   8         1.65235942
   9         0.11700946
  10        -0.00000000
Sym=     9a  
Ene=     0.1677
Spin= Alpha
Occup=    0.00000
   1        -0.00000000
   2        -0.00000000
   3         0.11700946
   4        -1.65235942
   5        -0.00000000
   6         0.00000000
   7        -0.00000000
   8        -0.11700946
   9         1.65235942
  10        -0.00000000
Sym=     9a  
Ene=     0.1677
Spin= Beta
Occup=    0.00000
   1        -0.00000000
   2        -0.00000000
   3         0.11700946
   4        -1.65235942
   5        -0.00000000
   6         0.00000000
   7        -0.00000000
   8        -0.11700946
   9         1.65235942
  10        -0.00000000
Sym=    10a  
Ene=     1.3388
Spin= Alpha
Occup=    0.00000
   1        -2.11089240
   2        -8.89608118
   3        -0.00000000
   4         0.00000000
   5        -2.83790026
   6         2.11089240
   7         8.89608118
   8         0.00000000
   9        -0.00000000
  10        -2.83790026
Sym=    10a  
Ene=     1.3388
Spin= Beta
Occup=    0.00000
   1        -2.11089240
   2        -8.89608118
   3        -0.00000000
   4         0.00000000
   5        -2.83790026
   6         2.11089240
   7         8.89608118
   8         0.00000000
   9        -0.00000000
  10        -2.83790026
