[Molden Format]
[N_Atoms]
                     2
[Atoms] (AU)
BE1         1      4           0.00000000      0.00000000      0.00000000
N2          2      7           0.00000000      0.00000000      2.64561657
[Charge] (Mulliken)
  0.295090960907810     
 -0.295090960907890     
[GTO] (AU)
   1
   s  14
  2.262859900E+04  8.443999941E-05
  3.372318100E+03  4.601499968E-04
  7.603504000E+02  2.285389984E-03
  2.117404800E+02  9.648129932E-03
  6.722346800E+01  3.494469975E-02
  2.337217700E+01  1.061099893E-01
  8.721373000E+00  2.458240383E-01
  3.468091000E+00  3.862428773E-01
  1.452144000E+00  3.105526078E-01
  6.086150000E-01  6.415933955E-02
  2.576860000E-01 -2.265049984E-03
  1.041760000E-01 -5.217499963E-04
  4.242700000E-02 -8.757499938E-04
  1.484900000E-02  1.242199991E-04
   s  14
  2.262859900E+04 -1.586999994E-05
  3.372318100E+03 -8.656999968E-05
  7.603504000E+02 -4.302199984E-04
  2.117404800E+02 -1.825079993E-03
  6.722346800E+01 -6.682749976E-03
  2.337217700E+01 -2.095119992E-02
  8.721373000E+00 -5.200308981E-02
  3.468091000E+00 -9.849176964E-02
  1.452144000E+00 -1.355800695E-01
  6.086150000E-01 -6.429875976E-02
  2.576860000E-01  3.125414989E-01
  1.041760000E-01  6.270468577E-01
  4.242700000E-02  2.110231492E-01
  1.484900000E-02 -4.104669985E-03
   p   9
  3.371018400E+01  1.069960000E-03
  8.057649500E+00  6.828550001E-03
  2.836471400E+00  2.119065000E-02
  1.099965700E+00  5.843696001E-02
  4.433964000E-01  2.020920800E-01
  1.822264000E-01  4.582953101E-01
  7.572410000E-02  3.691239601E-01
  3.168540000E-02  6.611471001E-02
  1.108990000E-02  1.405160000E-03
 
   2
   s  14
  7.476171500E+04  1.182599996E-04
  1.112365400E+04  5.172899983E-04
  2.512685700E+03  2.266659992E-03
  7.037772900E+02  9.145289970E-03
  2.254787900E+02  3.239342989E-02
  7.961581000E+01  9.770792967E-02
  3.023728300E+01  2.317036792E-01
  1.226362200E+01  3.768898887E-01
  5.265086000E+00  3.177420689E-01
  2.333471000E+00  8.211308973E-02
  9.018560000E-01  3.312089989E-03
  3.583360000E-01  3.720819988E-03
  1.410930000E-01  3.165419989E-03
  4.938300000E-02  4.595799985E-04
   s  14
  7.476171500E+04 -2.707000010E-05
  1.112365400E+04 -1.183700004E-04
  2.512685700E+03 -5.203800020E-04
  7.037772900E+02 -2.102930008E-03
  2.254787900E+02 -7.568200028E-03
  7.961581000E+01 -2.346767009E-02
  3.023728300E+01 -6.042901023E-02
  1.226362200E+01 -1.170549104E-01
  5.265086000E+00 -1.555321506E-01
  2.333471000E+00 -2.468935009E-02
  9.018560000E-01  3.625054514E-01
  3.583360000E-01  5.550845021E-01
  1.410930000E-01  2.148376908E-01
  4.938300000E-02  8.983850034E-03
   p   9
  1.266665700E+02  1.233630000E-03
  2.983738900E+01  9.493409996E-03
  9.394038000E+00  4.293961998E-02
  3.405104000E+00  1.362925399E-01
  1.350000000E+00  2.921362499E-01
  5.576960000E-01  3.887887598E-01
  2.324490000E-01  2.946801399E-01
  9.426400000E-02  8.012875997E-02
  3.299200000E-02  5.405199998E-04
 
[MO]
Sym=     1a  
Ene=   -15.5960
Spin= Alpha
Occup=    1.00000
   1        -0.00080643
   2        -0.00307699
   3        -0.00000000
   4        -0.00000000
   5        -0.00262071
   6         1.00041384
   7         0.00019227
   8        -0.00000000
   9        -0.00000000
  10        -0.00143421
Sym=     1a  
Ene=   -15.5210
Spin= Beta
Occup=    1.00000
   1        -0.00037017
   2        -0.00140211
   3        -0.00000000
   4        -0.00000000
   5        -0.00100357
   6         1.00014612
   7        -0.00617621
   8        -0.00000000
   9         0.00000000
  10        -0.00098907
Sym=     2a  
Ene=    -4.7413
Spin= Alpha
Occup=    1.00000
   1         0.99912581
   2         0.00212539
   3         0.00000000
   4         0.00000000
   5         0.00137888
   6        -0.00077398
   7         0.00386506
   8        -0.00000000
   9        -0.00000000
  10        -0.00472708
Sym=     2a  
Ene=    -4.7590
Spin= Beta
Occup=    1.00000
   1         0.99938565
   2         0.00295029
   3         0.00000000
   4         0.00000000
   5         0.00037362
   6        -0.00065834
   7         0.00350358
   8        -0.00000000
   9        -0.00000000
  10        -0.00288828
Sym=     3a  
Ene=    -1.1625
Spin= Alpha
Occup=    1.00000
   1        -0.08074053
   2         0.02138455
   3         0.00000000
   4        -0.00000000
   5         0.05089657
   6        -0.00316581
   7         0.96030487
   8         0.00000000
   9        -0.00000000
  10        -0.07778525
Sym=     3a  
Ene=    -0.8798
Spin= Beta
Occup=    1.00000
   1         0.08884922
   2        -0.13492064
   3        -0.00000000
   4         0.00000000
   5        -0.11862831
   6         0.01161440
   7        -0.83439597
   8        -0.00000000
   9        -0.00000000
  10         0.21382422
Sym=     4a  
Ene=    -0.6304
Spin= Alpha
Occup=    1.00000
   1        -0.10740719
   2         0.10140853
   3         0.00000000
   4         0.00000000
   5         0.13761661
   6        -0.01862916
   7        -0.20828820
   8         0.00000000
   9         0.00000000
  10        -0.94779906
Sym=     4a  
Ene=    -0.3565
Spin= Beta
Occup=    1.00000
   1         0.00000000
   2        -0.00000000
   3        -0.04429070
   4         0.50465690
   5         0.00000000
   6         0.00000000
   7         0.00000000
   8        -0.06247305
   9         0.71183014
  10         0.00000000
Sym=     5a  
Ene=    -0.5718
Spin= Alpha
Occup=    1.00000
   1         0.00000000
   2        -0.00000000
   3         0.12691245
   4         0.01113834
   5         0.00000000
   6         0.00000000
   7         0.00000000
   8         0.94809477
   9         0.08320858
  10         0.00000000
Sym=     5a  
Ene=    -0.3314
Spin= Beta
Occup=    1.00000
   1        -0.00723576
   2        -0.86595937
   3         0.00000000
   4        -0.00000000
   5         0.49149350
   6         0.00452858
   7         0.21022011
   8         0.00000000
   9        -0.00000000
  10         0.03817003
Sym=     6a  
Ene=    -0.5204
Spin= Alpha
Occup=    1.00000
   1         0.00000000
   2        -0.00000000
   3        -0.01294402
   4         0.14748663
   5        -0.00000000
   6         0.00000000
   7         0.00000000
   8        -0.08240316
   9         0.93891767
  10         0.00000000
Sym=     6a  
Ene=     0.0149
Spin= Beta
Occup=    0.00000
   1        -0.00000000
   2         0.00000000
   3         0.79773899
   4         0.07001276
   5        -0.00000000
   6         0.00000000
   7        -0.00000000
   8         0.39295388
   9         0.03448720
  10        -0.00000000
Sym=     7a  
Ene=     0.0887
Spin= Alpha
Occup=    0.00000
   1         0.03668189
   2         0.95008815
   3         0.00000000
   4         0.00000000
   5        -0.41827414
   6        -0.01486083
   7        -0.18631265
   8        -0.00000000
   9         0.00000000
  10         0.20350442
Sym=     7a  
Ene=     0.1396
Spin= Beta
Occup=    0.00000
   1         0.06140841
   2        -0.09139103
   3         0.00000000
   4        -0.00000000
   5        -0.47311139
   6         0.05127352
   7         0.57136623
   8         0.00000000
   9         0.00000000
  10         0.80039396
Sym=     8a  
Ene=     0.1885
Spin= Alpha
Occup=    0.00000
   1         0.00000000
   2         0.00000000
   3        -1.04433511
   4        -0.09165501
   5        -0.00000000
   6        -0.00000000
   7        -0.00000000
   8         0.45591545
   9         0.04001296
  10         0.00000000
Sym=     8a  
Ene=     0.1942
Spin= Beta
Occup=    0.00000
   1        -0.00000000
   2         0.00000000
   3         0.08101258
   4        -0.92307313
   5         0.00000000
   6        -0.00000000
   7        -0.00000000
   8        -0.06798398
   9         0.77462278
  10        -0.00000000
Sym=     9a  
Ene=     0.2107
Spin= Alpha
Occup=    0.00000
   1         0.00000000
   2         0.00000000
   3        -0.09141749
   4         1.04162867
   5         0.00000000
   6        -0.00000000
   7        -0.00000000
   8         0.04164641
   9        -0.47452734
  10         0.00000000
Sym=     9a  
Ene=     0.3252
Spin= Beta
Occup=    0.00000
   1         0.00000000
   2        -0.00000000
   3         0.68582439
   4         0.06019068
   5         0.00000000
   6        -0.00000000
   7         0.00000000
   8        -0.97587389
   9        -0.08564658
  10         0.00000000
Sym=    10a  
Ene=     0.4756
Spin= Alpha
Occup=    0.00000
   1         0.14538214
   2         0.88815057
   3         0.00000000
   4        -0.00000000
   5         1.28395690
   6        -0.16798198
   7        -1.14025250
   8        -0.00000000
   9         0.00000000
  10         0.55691205
Sym=    10a  
Ene=     0.5126
Spin= Beta
Occup=    0.00000
   1         0.16822770
   2         0.96217550
   3         0.00000000
   4        -0.00000000
   5         1.16857267
   6        -0.16293323
   7        -1.11065460
   8         0.00000000
   9        -0.00000000
  10         0.75375429
