   This run of MOLCAS is using the pymolcas driver

                             OPE
                             OPE          NMOL  CASOP  ENMOLC A   SO
                 OPE        NMOLC        AS  OP EN  MO LC     AS  OP
                OPENM       OL CA        SO  PE NM  OL CA     SOP EN
                OP EN      MO   LC       AS  OP ENMOL  CASO   PENMOL
                OP  EN     MO   LC       AS  OP EN     MO     LC ASO
               OP   E  NMOL  C  AS       OP  EN MO     LC     AS  OP
               OP  E   NMO   LC AS        OPEN  MO     LCASOP EN   M
               O  PEN   MO  LCA  SO
            OPE   NMO   L   CAS    OP
        OPENMOL  CASOP     ENMOL   CASOPE
     OPENMOLCA   SOPENMOLCASOPEN   MOLCASOPE
    OPENMOLCAS   OP           EN   MOL    CAS
    OPENMOLCAS       OP  ENM        O     LCA
    OPENMOLCAS    OPEN  MOLCASO     P  E  NMO
    OPENMOLCAS     OP               E  N  MOL
    OPENMOLCA   SO           PENM   O  L  CAS    OPEN    MO    LCAS
    OPENMOLCA   SOP           ENM   O  L  CAS   OP  EN  MOLC  AS   O
    OPENMOLCA   SOPE           NM      O  LCA   S      OP  EN MO
    OPENMOLC                AS         O  PEN   M      OL  CA  SOPE
    OPENMO        LCASOPE  NMOL        C  ASO   P      ENMOLC     AS
    OPE     NMO      LCA  SO     P     E   NM   OL  CA SO  PE N   MO
          OPENMOLCA            SOPE   NMO        LCAS  O    P  ENMO
     OPENMOLCASOPENMOLCASOPENMOLCASOPENMOLCA
        OPENMOLCASOPENMOLCASOPENMOLCASOPE
            OPENMOLCASOPENMOLCASOPENM
               OPENMOLCASOPENMOLCA        version: 24.02
                   OPENMOLCASO
                       OPE                tag: 126-g611b04c8f

 OpenMolcas is free software; you can redistribute it and/or modify it
 under the terms of the GNU Lesser General Public License version 2.1.
 OpenMolcas is distributed in the hope that it will be useful, but it
 is provided "as is" and without any express or implied warranties.
 For more details see the full text of the license in the file
 LICENSE or in <http://www.gnu.org/licenses/>.

                 Copyright (C) The OpenMolcas Authors
           For the author list and the recommended citation,
                   consult the file CONTRIBUTORS.md

           *************************************************
           * pymolcas version py2.28                       *
           *   build c4a6d18ded8cb6cad61d2372a9abd97c      *
           *   (after the EMIL interpreter by V. Veryazov) *
           *************************************************

configuration info
------------------
Host name: debian (Linux)
C Compiler ID: GNU
C flags: -std=gnu99
Fortran Compiler ID: Intel
Fortran flags: -fpp -i8 -heap-arrays
Definitions: _MOLCAS_;_I8_;_LINUX_
Parallel: OFF (GA=OFF)


   ------------------------------------------------------------------
  |
  |              Project: 1.40
  |       Submitted from: /home/grierjones/DDCASPT2/delta_ML/BeN/1.40
  |         Scratch area: /tmp/1.40
  |      Save outputs to: /home/grierjones/DDCASPT2/delta_ML/BeN/1.40
  |               Molcas: /usr/local
  |
  | Scratch area is empty
  |
  |       MOLCAS_DRIVER = /usr/local/pymolcas
  | MOLCAS_KEEP_WORKDIR = NO
  |  MOLCAS_NEW_WORKDIR = YES
  |       MOLCAS_NPROCS = 1
  |       MOLCAS_SOURCE = /usr/local
  |    MOLCAS_STRUCTURE = 0
  |
   ------------------------------------------------------------------

++ ---------   Input file   ---------

&GATEWAY
coord=1.40.xyz
Basis = ANO-RCC-MB
Group = nosymm
End of Input

&SEWARD
End of Input

&SCF
UHF

&MBPT2
Frozen
0

&RASSCF
Title= RASSCF
FileOrb
/home/grierjones/DDCASPT2/delta_ML/BeN/1.30/1.30.RasOrb

NACTEL
1 0 0
Inactive
5
RAS2
2
Symmetry
1
Spin
2
orblisting
all
ITERation
200 100
CIMX
200
SDAV
500

&CASPT2
Imaginary Shift
0.0
Frozen
0

-- ----------------------------------

--- Start Module: gateway at Thu Apr 25 13:44:43 2024 ---
 
()()()()()()()()()()()()()()()()()()()()()()()()()()()()()()()()()()()()()()()()()()()()()()()()()()

                                              &GATEWAY

                                   only a single process is used
                       available to each process: 2.0 GB of memory, 1 thread?
                                            pid: 102018
()()()()()()()()()()()()()()()()()()()()()()()()()()()()()()()()()()()()()()()()()()()()()()()()()()
 
 
++    Symmetry information:
      ---------------------
 
                    Character Table for C1 
 
                             E  
                    a        1  x, y, xy, Rz, z, xz, Ry, yz, Rx, I
--
 
 
++    Basis set information:
      ----------------------
 
 
      Basis set label: BE.ANO-RCC...2S1P.
 
      Electronic valence basis set:
      ------------------
      Associated Effective Charge   4.000000 au
      Associated Actual Charge      4.000000 au
      Nuclear Model: Point charge
 
      Shell  nPrim  nBasis  Cartesian Spherical Contaminant
         s      14       2        X                  
         p       9       1        X                  
 
 
      Basis set label: N.ANO-RCC...2S1P.
 
      Electronic valence basis set:
      ------------------
      Associated Effective Charge   7.000000 au
      Associated Actual Charge      7.000000 au
      Nuclear Model: Point charge
 
      Shell  nPrim  nBasis  Cartesian Spherical Contaminant
         s      14       2        X                  
         p       9       1        X                  
--
 
 
++    Molecular structure info:
      -------------------------
 
                    ************************************************ 
                    **** Cartesian Coordinates / Bohr, Angstrom **** 
                    ************************************************ 
 
     Center  Label                x              y              z                     x              y              z
        1      BE1              0.000000       0.000000       0.000000              0.000000       0.000000       0.000000
        2      N2               0.000000       0.000000       2.645617              0.000000       0.000000       1.400000
--
 
 
            Nuclear Potential Energy             10.58354422 au
 
--- Stop Module: gateway at Thu Apr 25 13:44:44 2024 /rc=_RC_ALL_IS_WELL_ ---
*** files: xmldump
    saved to directory /home/grierjones/DDCASPT2/delta_ML/BeN/1.40

--- Start Module: seward at Thu Apr 25 13:44:44 2024 ---
 
()()()()()()()()()()()()()()()()()()()()()()()()()()()()()()()()()()()()()()()()()()()()()()()()()()

                                              &SEWARD

                                   only a single process is used
                       available to each process: 2.0 GB of memory, 1 thread?
                                            pid: 102021
()()()()()()()()()()()()()()()()()()()()()()()()()()()()()()()()()()()()()()()()()()()()()()()()()()
 
               SEWARD will generate:
                  Multipole Moment integrals up to order  2
                  Kinetic Energy integrals
                  Nuclear Attraction integrals (point charge)
                  One-Electron Hamiltonian integrals
                  Velocity integrals
                  Relativistic Douglas-Kroll-Hess integrals:
                    - Parametrization         : EXP
                    - DKH order of Hamiltonian: 2
                    - DKH order of Properties : 0
                         - multipole moment operators
                         - electric potential operators
                         - contact operators
                  Orbital angular momentum around ( 0.0000  0.0000  1.6097 )
                  Velocity quadrupole around ( 0.0000  0.0000  1.6097 )
                  Atomic mean-field integrals
                  Two-Electron Repulsion integrals
 
                   Integrals are discarded if absolute value <: 1.00E-14
                   Integral cutoff threshold is set to       <: 1.00E-16
 
            Nuclear Potential Energy             10.58354422 au
 
 
      Basis set specifications :
      Symmetry species         a  
      Basis functions           10
 
 
      Input file to MOLDEN was generated!
 
--- Stop Module: seward at Thu Apr 25 13:44:44 2024 /rc=_RC_ALL_IS_WELL_ ---
*** files: 1.40.GssOrb 1.40.guessorb.h5 1.40.guessorb.molden xmldump
    saved to directory /home/grierjones/DDCASPT2/delta_ML/BeN/1.40

*** symbolic link created: INPORB -> 1.40.GssOrb
--- Start Module: scf at Thu Apr 25 13:44:44 2024 ---
 
()()()()()()()()()()()()()()()()()()()()()()()()()()()()()()()()()()()()()()()()()()()()()()()()()()

                                                &SCF

                                   only a single process is used
                       available to each process: 2.0 GB of memory, 1 thread?
                                            pid: 102024
()()()()()()()()()()()()()()()()()()()()()()()()()()()()()()()()()()()()()()()()()()()()()()()()()()
 
++    Input section:
      --------------
 
      Header of the integral files:
      
       Integrals generated by Gateway/Seward, Thu Apr 25 13:44:44 2024
 
 
      Cartesian coordinates in Angstrom:
      -----------------------------------------------------
      No.  Label        X            Y            Z        
      -----------------------------------------------------
       1   BE1        0.00000000   0.00000000   0.00000000
       2   N2         0.00000000   0.00000000   1.40000000
      -----------------------------------------------------
      Nuclear repulsion energy =   10.58354422
--
 
++    Orbital specifications:
      -----------------------
 
      Symmetry species               1
                                     a
      Frozen orbitals                0
      Occupied orbitals alpha        6
      Occupied orbitals beta         5
      Secondary orbitals alpha       4
      Secondary orbitals beta        5
      Deleted orbitals               0
      Total number of orbitals      10
      Number of basis functions     10
--
 
      Molecular charge                           0.000
 
++    Optimization specifications:
      ----------------------------
 
      SCF Algorithm: Conventional USCF
      D(i)-D(i-1) density differences are used
      Number of density matrices in core                 5
      Maximum number of NDDO SCF iterations            400
      Maximum number of HF SCF iterations              400
      Threshold for SCF energy change             1.00E-09
      Threshold for density matrix                1.00E-04
      Threshold for Fock matrix                   1.50E-04
      Threshold for linear dependence             1.00E-09
      Threshold at which DIIS is turned on        1.50E-01
      Maximum depth in the DIIS procedure                5
      Maximum depth in the BFGS Hessian update          30
      Threshold at which QNR/C2DIIS is turned on  7.50E-02
      Threshold for Norm(delta) (QNR/C2DIIS)      1.00E-03
      All orbitals punched on: UHFORB
--
 
      Input vectors read from INPORB
      Orbital file label: *Guess orbitals
 
 
++ Convergence information
                               UHF SCF        iterations: Energy and convergence statistics
 
Iter     Tot. SCF        One-elec.       Two-elec.     Energy      Max Dij or  Max Fij      DNorm      TNorm      AccCon     Time
         Energy          Energy          Energy        Change      Delta Norm                                                in Sec.
   1   -68.417519872  -117.900603654    38.899539563   0.00E+00    9.93E-01*   1.91E-01*    4.64E+00   2.02E+01   None         0.
   2   -67.551526546  -107.556052451    29.420981687   8.66E-01*   4.14E-01*   1.35E-01*    4.03E+00   1.74E+01   EDIIS        0.
   3   -68.842697852  -114.046205211    34.619963141  -1.29E+00*   3.09E-01*   6.34E-02*    1.79E+00   1.90E+01   EDIIS        0.
   4   -68.850056582  -115.206627521    35.773026721  -7.36E-03*   1.63E-01*   4.73E-02*    6.08E-01   1.94E+01   EDIIS        0.
   5   -68.861110755  -114.261943784    34.817288811  -1.11E-02*   2.18E-01*   4.77E-02*    3.50E-01   1.91E+01   EDIIS        0.
   6   -68.867260230  -114.890345437    35.439540989  -6.15E-03*   2.62E-01*   4.00E-02*    3.59E-01   1.93E+01   EDIIS        0.
   7   -68.875470156  -114.126949818    34.667935443  -8.21E-03*   1.66E-01*   4.27E-02*    3.99E-01   1.91E+01   EDIIS        0.
   8   -68.886519834  -114.651594416    35.181530364  -1.10E-02*   3.17E-01*   5.19E-02*    3.76E-01   1.92E+01   EDIIS        0.
   9   -68.900957929  -113.993203462    34.508701315  -1.44E-02*   1.61E-01*   4.43E-02*    4.51E-01   1.90E+01   EDIIS        0.
  10   -68.916777305  -114.248870526    34.748549004  -1.58E-02*   2.61E-01*   5.06E-02*    3.88E-01   1.91E+01   EDIIS        0.
  11   -68.929782154  -113.957367707    34.444041335  -1.30E-02*   1.65E-01*   3.33E-02*    3.93E-01   1.91E+01   EDIIS        0.
  12   -68.938121314  -114.015891409    34.494225877  -8.34E-03*   1.36E-01*   2.99E-02*    2.96E-01   1.91E+01   EDIIS        0.
  13   -68.942218084  -113.967467541    34.441705238  -4.10E-03*   3.64E-02*   6.12E-02*    2.21E-01   1.91E+01   c2DIIS       0.
  14   -68.944838960  -114.019125465    34.490742286  -2.62E-03*   3.39E-02*   6.62E-03*    1.15E-01   1.91E+01   QNRc2DIIS    0.
  15   -68.945070818  -113.961116830    34.432501794  -2.32E-04*   1.61E-02*   2.62E-03*    5.76E-02   1.91E+01   QNRc2DIIS    0.
  16   -68.945111231  -113.972282994    34.443627545  -4.04E-05*   1.30E-02*   1.34E-03*    2.32E-02   1.91E+01   QNRc2DIIS    0.
  17   -68.945123575  -113.983123070    34.454455277  -1.23E-05*   3.10E-03*   4.89E-04*    1.85E-02   1.91E+01   QNRc2DIIS    0.
  18   -68.945125075  -113.985058585    34.456389292  -1.50E-06*   8.17E-03*   4.15E-04*    4.07E-03   1.91E+01   QNRc2DIIS    0.
  19   -68.945127608  -113.986988991    34.458317165  -2.53E-06*   4.04E-04    9.22E-05     1.08E-02   1.91E+01   QNRc2DIIS    0.
  20   -68.945127632  -113.986947525    34.458275674  -2.46E-08*   3.04E-04    5.10E-05     6.21E-04   1.91E+01   QNRc2DIIS    0.
  21   -68.945127641  -113.987065301    34.458393442  -8.29E-09*   1.67E-05    5.79E-06     4.34E-04   1.91E+01   QNRc2DIIS    0.
  22   -68.945127641  -113.987081532    34.458409674  -6.35E-11    5.84E-06    1.47E-06     3.42E-05   1.91E+01   QNRc2DIIS    0.
 
       Convergence after  22 Macro Iterations
--
 
 *****************************************************************************************************************************
 *                                                                                                                           *
 *                                             SCF/KS-DFT Program, Final results                                             *
 *                                                                                                                           *
 *                                                                                                                           *
 *                                                                                                                           *
 *                                                       Final Results                                                       *
 *                                                                                                                           *
 *****************************************************************************************************************************
 
::    Total SCF energy                                -68.9451276408
      One-electron energy                            -113.9870815324
      Two-electron energy                              34.4584096735
      Nuclear repulsion energy                         10.5835442181
      Kinetic energy (interpolated)                    69.8263268234
      Virial theorem                                    0.9873801298
      Total spin, S(S+1)                                1.8292774424
      Total spin, S                                     0.9419699867
      Max non-diagonal density matrix element           0.0000034948
      Max non-diagonal Fock matrix element              0.0000009628
 
 
      All orbitals with orbital energies smaller than  E(LUMO)+0.5 are printed
 
++    Molecular orbitals:
      -------------------
 
      Title: UHF orbitals (alpha)

      Molecular orbitals for symmetry species 1: a  
 
          Orbital            1         2         3         4         5         6         7         8         9        10    
          Energy          -15.5960   -4.7413   -1.1625   -0.6304   -0.5718   -0.5204    0.0887    0.1885    0.2106    0.4756
          Occ. No.          1.0000    1.0000    1.0000    1.0000    1.0000    1.0000    0.0000    0.0000    0.0000    0.0000
 
        1 BE1    1s        -0.0008    0.9991   -0.0807   -0.1074    0.0000    0.0000    0.0367    0.0000    0.0000    0.1454
        2 BE1    2s        -0.0031    0.0021    0.0214    0.1014   -0.0000   -0.0000    0.9501    0.0000    0.0000    0.8882
        3 BE1    2px       -0.0000    0.0000    0.0000    0.0000    0.1269   -0.0129    0.0000   -1.0443   -0.0914    0.0000
        4 BE1    2py       -0.0000    0.0000   -0.0000    0.0000    0.0111    0.1475    0.0000   -0.0917    1.0416   -0.0000
        5 BE1    2pz       -0.0026    0.0014    0.0509    0.1376    0.0000   -0.0000   -0.4183   -0.0000    0.0000    1.2840
        6 N2     1s         1.0004   -0.0008   -0.0032   -0.0186    0.0000    0.0000   -0.0149   -0.0000   -0.0000   -0.1680
        7 N2     2s         0.0002    0.0039    0.9603   -0.2083    0.0000    0.0000   -0.1863   -0.0000   -0.0000   -1.1403
        8 N2     2px       -0.0000   -0.0000    0.0000    0.0000    0.9481   -0.0824   -0.0000    0.4559    0.0416   -0.0000
        9 N2     2py       -0.0000   -0.0000   -0.0000    0.0000    0.0832    0.9389    0.0000    0.0400   -0.4745    0.0000
       10 N2     2pz       -0.0014   -0.0047   -0.0778   -0.9478    0.0000    0.0000    0.2035    0.0000    0.0000    0.5569
--
 
 
      Input file to MOLDEN was generated!
 
 
++    Static properties:
      ------------------
 
 
      LoProp Charges per center
 

                   BE1      N2    
      Nuclear      4.0000   7.0000
      Electronic  -3.3793  -7.6207
 
      Total        0.6207  -0.6207
--
 
 
      All orbitals with orbital energies smaller than  E(LUMO)+0.5 are printed
 
++    Molecular orbitals:
      -------------------
 
      Title: UHF orbitals (beta)

      Molecular orbitals for symmetry species 1: a  
 
          Orbital            1         2         3         4         5         6         7         8         9        10    
          Energy          -15.5212   -4.7590   -0.8798   -0.3566   -0.3314    0.0149    0.1396    0.1942    0.3252    0.5126
          Occ. No.          1.0000    1.0000    1.0000    1.0000    1.0000    0.0000    0.0000    0.0000    0.0000    0.0000
 
        1 BE1    1s        -0.0004    0.9994    0.0888    0.0000   -0.0072   -0.0000    0.0614   -0.0000    0.0000    0.1682
        2 BE1    2s        -0.0014    0.0030   -0.1349   -0.0000   -0.8660    0.0000   -0.0914    0.0000   -0.0000    0.9622
        3 BE1    2px       -0.0000    0.0000   -0.0000   -0.0443    0.0000    0.7977    0.0000    0.0810    0.6858    0.0000
        4 BE1    2py       -0.0000    0.0000    0.0000    0.5047   -0.0000    0.0700   -0.0000   -0.9231    0.0602   -0.0000
        5 BE1    2pz       -0.0010    0.0004   -0.1186    0.0000    0.4915   -0.0000   -0.4731    0.0000    0.0000    1.1686
        6 N2     1s         1.0001   -0.0007    0.0116    0.0000    0.0045    0.0000    0.0513   -0.0000   -0.0000   -0.1629
        7 N2     2s        -0.0062    0.0035   -0.8344    0.0000    0.2102   -0.0000    0.5714   -0.0000    0.0000   -1.1107
        8 N2     2px       -0.0000   -0.0000   -0.0000   -0.0625    0.0000    0.3930    0.0000   -0.0680   -0.9759    0.0000
        9 N2     2py        0.0000   -0.0000   -0.0000    0.7118   -0.0000    0.0345    0.0000    0.7746   -0.0856   -0.0000
       10 N2     2pz       -0.0010   -0.0029    0.2138    0.0000    0.0382   -0.0000    0.8004   -0.0000    0.0000    0.7538
--
 
 
++    Molecular charges:
      ------------------
 
      Mulliken charges per centre and basis function type
      ---------------------------------------------------
 
                            BE1                     N2    
                     alpha        beta       alpha        beta
      1s           1.0001      0.9999      1.0004      1.0000
      2s           0.0366      0.7533      0.9730      0.8159
      2px          0.0553      0.0029      0.9447      0.0048
      2pz          0.0520      0.3680      0.9379      0.0629
      2py          0.0667      0.3702      0.9333      0.6222
      Total        1.2107      2.4942      4.7893      2.5058
      Total              3.7049                  7.2951
 
      Charge            0.2951                 -0.2951
 
      Total electronic charge=   11.000000
 
      Total            charge=   -0.000000
--
 
 
      Input file to MOLDEN was generated!
 
 
++    Static properties:
      ------------------
 
 
      LoProp Charges per center
 

                   BE1      N2    
      Nuclear      4.0000   7.0000
      Electronic  -3.3793  -7.6207
 
      Total        0.6207  -0.6207
--
 
 
++    Natural Bond Order analysis
      ---------------------------
      Based on LoProp computed density
      -------------------------------------------------------------------------------------
      Atom A       Atom B       Bond Order
      -------------------------------------------------------------------------------------
      NBO located      0.988 non-bonded electrons on atom BE1       
      The remaining    4.843 electrons are to be considered as diffuse
--
 
 
++    Molecular orbitals:
      -------------------
 
      Title: Natural orbitals

      Molecular orbitals for symmetry species 1: a  
 
          Orbital            1         2         3         4         5         6         7         8         9        10    
          Energy          -15.5459   -4.7501   -1.0238   -0.4180   -0.2505   -0.2079   -0.1168    0.1819    0.4846    0.1863
          Occ. No.          2.0000    2.0000    1.9985    1.9360    1.2182    1.0000    0.7818    0.0640    0.0015    0.0000
 
        1 BE1    1s         0.0022    0.9993    0.0945    0.0000   -0.0548   -0.0000   -0.0750    0.0000    0.1506   -0.0000
        2 BE1    2s        -0.0042    0.0020   -0.0654   -0.0000    0.6199    0.0000   -0.6202    0.0000    0.9638   -0.0000
        3 BE1    2px       -0.0000    0.0000   -0.0000   -0.0291   -0.0000    0.1269    0.0000    0.0876   -0.0000   -1.0443
        4 BE1    2py        0.0000    0.0000    0.0000    0.3314    0.0000    0.0111   -0.0000   -0.9985    0.0000   -0.0917
        5 BE1    2pz       -0.0048    0.0012   -0.1085   -0.0000   -0.2297    0.0000    0.4891    0.0000    1.2415    0.0000
        6 N2     1s         1.0001   -0.0007   -0.0206    0.0000   -0.0155   -0.0000   -0.0116   -0.0000   -0.1693   -0.0000
        7 N2     2s        -0.0292    0.0047   -0.8760    0.0000   -0.3478   -0.0000   -0.1643   -0.0000   -1.1765    0.0000
        8 N2     2px       -0.0000    0.0000   -0.0000   -0.0736   -0.0000    0.9481   -0.0000   -0.0557   -0.0000    0.4559
        9 N2     2py       -0.0000   -0.0000   -0.0000    0.8389    0.0000    0.0832    0.0000    0.6348   -0.0000    0.0400
       10 N2     2pz        0.0048   -0.0031    0.2277    0.0000   -0.6201   -0.0000   -0.6963    0.0000    0.5786   -0.0000
--
 
 
++    Molecular properties:
      ---------------------
 
      Charge (e):
                      =   -0.0000
      Dipole Moment (Debye):
      Origin of the operator (Ang)=    0.0000    0.0000    0.0000
                   X=  1.6651E-13               Y= -9.0495E-14               Z=  5.1355E-01           Total=  5.1355E-01
      Quadrupole Moment (Debye*Ang):
      Origin of the operator (Ang)=    0.0000    0.0000    0.8518
                  XX= -1.0572E+01              XY=  2.3079E-01              XZ= -3.3624E-13              YY= -1.3181E+01
                  YZ=  1.5215E-14              ZZ= -1.3847E+01
      In traceless form (Debye*Ang)
                  XX=  2.9424E+00              XY=  3.4618E-01              XZ= -5.0436E-13              YY= -9.7175E-01
                  YZ=  2.2822E-14              ZZ= -1.9706E+00
--
 
 
      Input file to MOLDEN was generated!
 
 ###############################################################################
 ###############################################################################
 ###                                                                         ###
 ###                                                                         ###
 ###    WARNING: RunFile label nBas                                          ###
 ###    was used       87 times                                              ###
 ###                                                                         ###
 ###                                                                         ###
 ###############################################################################
 ###############################################################################
--- Stop Module: scf at Thu Apr 25 13:44:45 2024 /rc=_RC_ALL_IS_WELL_ ---
*** files: 1.40.LprOrb 1.40.LoProp.molden 1.40.scf.molden 1.40.scf.h5 1.40.UhfOrb 1.40.UnaOrb xmldump
    saved to directory /home/grierjones/DDCASPT2/delta_ML/BeN/1.40

*** symbolic link created: INPORB -> 1.40.UnaOrb
--- Start Module: mbpt2 at Thu Apr 25 13:44:45 2024 ---
 
()()()()()()()()()()()()()()()()()()()()()()()()()()()()()()()()()()()()()()()()()()()()()()()()()()

                                               &MBPT2

                                   only a single process is used
                       available to each process: 2.0 GB of memory, 1 thread?
                                            pid: 102028
()()()()()()()()()()()()()()()()()()()()()()()()()()()()()()()()()()()()()()()()()()()()()()()()()()
 
 
 ###############################################################################
 ###############################################################################
 ###                                                                         ###
 ###                                                                         ###
 ###    WARNING: MP2 implementation intended for RHF references only         ###
 ###                                                                         ###
 ###                                                                         ###
 ###############################################################################
 ###############################################################################
MBPT2 WARNING: Reference function according to RunFile:UHF-SCF 
I'll assume you know what you're doing and continue
 
 
WARNING!
Default frozen orbitals as non valence orbitals is overwritten by user input.
Default values:   2
 
 
      Cartesian coordinates in Angstrom:
      -----------------------------------------------------
      No.  Label        X            Y            Z        
      -----------------------------------------------------
       1   BE1        0.00000000   0.00000000   0.00000000
       2   N2         0.00000000   0.00000000   1.40000000
      -----------------------------------------------------
      Nuclear repulsion energy =   10.58354422
 
      Contents of RUNFILE file:
      -------------------------
 
      Symmetry species                           1
                                                 a
      Number of basis functions                 10
      Frozen occupied orbitals                   0
      Active occupied orbitals                   6
      Active external orbitals                   4
      Deleted external orbitals                  0
 
 
      Energies of the active occupied orbitals
 
      symmetry species 1                   -15.596004     -4.741302     -1.162526     -0.630424     -0.571778
                                            -0.520385
 
 
      Energies of the active external orbitals
 
      symmetry species 1                     0.088717      0.188452      0.210648      0.475556
 
 
      ********************************************************************************************************
      *                                               Results                                                *
      ********************************************************************************************************
 
 Conventional algorithm used...

       SCF energy                           =      -68.9451276408 a.u.
       Second-order correlation energy      =       -0.0216589360 a.u.

       Total energy                         =      -68.9667865769 a.u.
       Reference weight ( Cref**2 )         =        0.98837
 
::    Total MBPT2 energy                              -68.9667865769
 
 
       Zeroth-order energy (E0)             =      -35.8612941173 a.u.
 
       Shanks-type energy S1(E)             =      -68.9668007656 a.u.
 
 


       Data processing and timing information:

       Section                                              time(sec)
                                                          CPU  Elapsed

      Input data processing                              0.02      0.04
      Transformation of integrals                        0.00      0.01
      MBPT2 calculations (BJAI)                          0.00      0.00
      Total MBPT2 calculations                           0.02      0.05
 
 
--- Stop Module: mbpt2 at Thu Apr 25 13:44:45 2024 /rc=_RC_ALL_IS_WELL_ ---
*** files: xmldump
    saved to directory /home/grierjones/DDCASPT2/delta_ML/BeN/1.40

*** symbolic link created: INPORB -> 1.40.UnaOrb
--- Start Module: rasscf at Thu Apr 25 13:44:45 2024 ---
 
()()()()()()()()()()()()()()()()()()()()()()()()()()()()()()()()()()()()()()()()()()()()()()()()()()

                                              &RASSCF

                                   only a single process is used
                       available to each process: 2.0 GB of memory, 1 thread?
                                            pid: 102031
()()()()()()()()()()()()()()()()()()()()()()()()()()()()()()()()()()()()()()()()()()()()()()()()()()
 
 
      Header of the ONEINT file:
      --------------------------
      
      Integrals generated by Gateway/Seward, Thu Apr 25 13:44:44 2024
 
 
      OrdInt status: non-squared
 
 
      Cartesian coordinates in Angstrom:
      -----------------------------------------------------
      No.  Label        X            Y            Z        
      -----------------------------------------------------
       1   BE1        0.00000000   0.00000000   0.00000000
       2   N2         0.00000000   0.00000000   1.40000000
      -----------------------------------------------------
      Nuclear repulsion energy =   10.58354422
 
++    Wave function specifications:
      -----------------------------
 
      Number of closed shell electrons          10
      Number of electrons in active shells       1
      Max number of holes in RAS1 space          0
      Max nr of electrons in RAS3 space          0
      Number of inactive orbitals                5
      Number of active orbitals                  2
      Number of secondary orbitals               3
      Spin quantum number                      0.5
      State symmetry                             1
--
 
++    Orbital specifications:
      -----------------------
 
      Symmetry species                           1
                                                 a
      Frozen orbitals                            0
      Inactive orbitals                          5
      Active orbitals                            2
      RAS1 orbitals                              0
      RAS2 orbitals                              2
      RAS3 orbitals                              0
      Secondary orbitals                         3
      Deleted orbitals                           0
      Number of basis functions                 10
--
 
++    CI expansion specifications:
      ----------------------------
 
      Number of CSFs                             2
      Number of determinants                     2
      Number of root(s) required                 1
      Root chosen for geometry opt.              1
      CI root used                               1
         
      highest root included in the CI            1
      max. size of the explicit Hamiltonian      2
--
 
++    Optimization specifications:
      ----------------------------
 
      RASSCF algorithm: Conventional
      Maximum number of macro iterations       200
      Maximum number of SX iterations          100
      Threshold for RASSCF energy            1.000E-08
      Threshold for max MO rotation          1.000E-01
      Threshold for max BLB element          1.000E-04
      Level shift parameter                  5.000E-01
      Make Quasi-Newton update
--
 
      The MO-coefficients are taken from the file:
      /home/grierjones/DDCASPT2/delta_ML/BeN/1.30/1.30.RasOrb                                                                                                                                                                                                         
      Title: RASSCF average (pseudo-natural) orbitals                                      
 
      Total molecular charge    0.00
 
      ************************************************************************************************************************
      *                                                                                                                      *
      *                                            Wave function control section                                             *
      *                                                                                                                      *
      ************************************************************************************************************************
 
 
                                         RASSCF iterations: Energy and convergence statistics
                                         ----------------------------------------------------
 
      Iter CI   SX   CI       RASSCF       Energy    max ROT     max BLB   max BLB  Level Ln srch  Step   QN   Walltime
          iter iter root      energy       change     param      element    value   shift minimum  type update hh:mm:ss
 Nr of preliminary CI iterations:   1
 ###############################################################################
 ###############################################################################
 ###                                                                         ###
 ###                                                                         ###
 ###    WARNING: Problems in orbital optimization.                           ###
 ###                                                                         ###
 ###                                                                         ###
 ###############################################################################
 ###############################################################################
  Warning: In symmetry  1, orbital p=   7 has diagonal density matrix element D(p,p) close to zero. D(p,p)=  2.403970E-29
        1   1    5    1   -68.86498772    0.00E+00  -1.40E-02    3  10 1 -3.22E-02*  0.50   0.00    SX    NO    0:00:00
 ###############################################################################
 ###############################################################################
 ###                                                                         ###
 ###                                                                         ###
 ###    WARNING: Problems in orbital optimization.                           ###
 ###                                                                         ###
 ###                                                                         ###
 ###############################################################################
 ###############################################################################
  Warning: In symmetry  1, orbital p=   7 has diagonal density matrix element D(p,p) close to zero. D(p,p)=  7.677416E-32
        2   1    4    1   -68.86624368   -1.26E-03*  5.46E-03    3   8 1 -7.88E-03*  0.50   0.00    SX    NO    0:00:00
 ###############################################################################
 ###############################################################################
 ###                                                                         ###
 ###                                                                         ###
 ###    WARNING: Problems in orbital optimization.                           ###
 ###                                                                         ###
 ###                                                                         ###
 ###############################################################################
 ###############################################################################
  Warning: In symmetry  1, orbital p=   7 has diagonal density matrix element D(p,p) close to zero. D(p,p)=  1.177458E-30
        3   1    4    1   -68.86644029   -1.97E-04* -4.47E-03    3   8 1 -4.71E-03*  0.50   0.00    SX    NO    0:00:00
 ###############################################################################
 ###############################################################################
 ###                                                                         ###
 ###                                                                         ###
 ###    WARNING: Problems in orbital optimization.                           ###
 ###                                                                         ###
 ###                                                                         ###
 ###############################################################################
 ###############################################################################
  Warning: In symmetry  1, orbital p=   7 has diagonal density matrix element D(p,p) close to zero. D(p,p)=  1.831303E-30
        4   1    4    1   -68.86650931   -6.90E-05* -3.22E-03    3   8 1 -2.83E-03*  0.50   0.00    SX    NO    0:00:00
 ###############################################################################
 ###############################################################################
 ###                                                                         ###
 ###                                                                         ###
 ###    WARNING: Problems in orbital optimization.                           ###
 ###                                                                         ###
 ###                                                                         ###
 ###############################################################################
 ###############################################################################
  Warning: In symmetry  1, orbital p=   7 has diagonal density matrix element D(p,p) close to zero. D(p,p)=  2.083523E-30
        5   1    4    1   -68.86653642   -2.71E-05* -4.77E-03    3   8 1 -1.77E-03*  0.50   2.50    LS   YES    0:00:00
 ###############################################################################
 ###############################################################################
 ###                                                                         ###
 ###                                                                         ###
 ###    WARNING: Problems in orbital optimization.                           ###
 ###                                                                         ###
 ###                                                                         ###
 ###############################################################################
 ###############################################################################
  Warning: In symmetry  1, orbital p=   7 has diagonal density matrix element D(p,p) close to zero. D(p,p)=  2.513305E-30
        6   1    4    1   -68.86655489   -1.85E-05*  1.79E-03    6   8 1  5.92E-04*  0.50   1.22    QN   YES    0:00:00
 ###############################################################################
 ###############################################################################
 ###                                                                         ###
 ###                                                                         ###
 ###    WARNING: Problems in orbital optimization.                           ###
 ###                                                                         ###
 ###                                                                         ###
 ###############################################################################
 ###############################################################################
  Warning: In symmetry  1, orbital p=   7 has diagonal density matrix element D(p,p) close to zero. D(p,p)=  2.076429E-30
        7   1    4    1   -68.86655666   -1.78E-06*  8.99E-04    3   6 1  4.51E-04*  0.50   1.47    QN   YES    0:00:00
 ###############################################################################
 ###############################################################################
 ###                                                                         ###
 ###                                                                         ###
 ###    WARNING: Problems in orbital optimization.                           ###
 ###                                                                         ###
 ###                                                                         ###
 ###############################################################################
 ###############################################################################
  Warning: In symmetry  1, orbital p=   7 has diagonal density matrix element D(p,p) close to zero. D(p,p)=  1.612608E-30
        8   1    3    1   -68.86655718   -5.16E-07* -2.64E-04    3   6 1  1.89E-04*  0.50   1.26    QN   YES    0:00:00
 ###############################################################################
 ###############################################################################
 ###                                                                         ###
 ###                                                                         ###
 ###    WARNING: Problems in orbital optimization.                           ###
 ###                                                                         ###
 ###                                                                         ###
 ###############################################################################
 ###############################################################################
  Warning: In symmetry  1, orbital p=   7 has diagonal density matrix element D(p,p) close to zero. D(p,p)=  1.456175E-30
        9   1    3    1   -68.86655724   -6.11E-08*  7.30E-05    3   6 1  4.33E-05   0.50   1.22    QN   YES    0:00:00
 ###############################################################################
 ###############################################################################
 ###                                                                         ###
 ###                                                                         ###
 ###    WARNING: Problems in orbital optimization.                           ###
 ###                                                                         ###
 ###                                                                         ###
 ###############################################################################
 ###############################################################################
  Warning: In symmetry  1, orbital p=   7 has diagonal density matrix element D(p,p) close to zero. D(p,p)=  1.429950E-30
       10   1    3    1   -68.86655724   -6.61E-09   3.55E-05    3  10 1 -2.66E-05   0.50   1.34    QN   YES    0:00:00
      Convergence after 10 iterations
       11   1    3    1   -68.86655725   -1.26E-09   3.55E-05    3  10 1 -9.89E-06   0.50   1.34    QN   YES    0:00:00
 
      ************************************************************************************************************************
                                                      Wave function printout:
                       occupation of active orbitals, and spin coupling of open shells (u,d: Spin up or down)
      ************************************************************************************************************************
 
      Note: transformation to natural orbitals
      has been made, which may change the order of the CSFs.
 
      printout of CI-coefficients larger than  0.05 for root  1
      energy=     -68.866557
      conf/sym  11     Coeff  Weight
             1  u0   1.00000 1.00000
 
      Natural orbitals and occupation numbers for root  1
      sym 1:   1.000000   0.000000
 
      ************************************************************************************************************************
      *                                                                                                                      *
      *                                                    Final results                                                     *
      *                                                                                                                      *
      ************************************************************************************************************************
 
 
++    Wave function specifications:
      -----------------------------
 
      Number of closed shell electrons          10
      Number of electrons in active shells       1
      Max number of holes in RAS1 space          0
      Max nr of electrons in RAS3 space          0
      Number of inactive orbitals                5
      Number of active orbitals                  2
      Number of secondary orbitals               3
      Spin quantum number                      0.5
      State symmetry                             1
--
 
++    Orbital specifications:
      -----------------------
 
      Symmetry species                           1
                                                 a
      Frozen orbitals                            0
      Inactive orbitals                          5
      Active orbitals                            2
      RAS1 orbitals                              0
      RAS2 orbitals                              2
      RAS3 orbitals                              0
      Secondary orbitals                         3
      Deleted orbitals                           0
      Number of basis functions                 10
--
 
++    CI expansion specifications:
      ----------------------------
 
      Number of CSFs                             2
      Number of determinants                     2
      Number of root(s) required                 1
      CI root used                               1
      highest root included in the CI            1
      Root passed to geometry opt.               1
--
 
++    Final optimization conditions:
      ------------------------------
 
      Average CI energy                             -68.86655725
      RASSCF energy for state  1                    -68.86655725
      Super-CI energy                                -0.00000000
      RASSCF energy change                           -0.00000000
      Max change in MO coefficients              -2.867E-05
      Max non-diagonal density matrix element     3.554E-05
      Maximum BLB matrix element                 -9.893E-06
      (orbital pair   3,  10 in symmetry   1)
      Norm of electronic gradient            1.349E-05
--
 
 
      Final state energy(ies):
      ------------------------
 
::    RASSCF root number  1 Total energy:    -68.86655725
 
++    Molecular orbitals:
      -------------------
 
      Pseudonatural active orbitals and approximate occupation numbers
 
 
 
 
      Molecular orbitals for symmetry species 1: a  
 
 
      Orbital                 1         2         3         4         5         6         7         8         9        10
      Energy           -15.4769   -4.7863   -0.9298   -0.3405   -0.3405   -0.1718   -0.0000   -0.0217    0.2108    0.5263
      Occ. No.           2.0000    2.0000    2.0000    2.0000    2.0000    1.0000    0.0000    0.0000    0.0000    0.0000
 
     1 BE1    1s        -0.0006    0.9993   -0.0868    0.0000   -0.0000    0.0825    0.0000    0.0245   -0.0000    0.1590
     2 BE1    2s        -0.0020    0.0026    0.1273   -0.0000    0.0000   -0.1955    0.0000    0.8115   -0.0000    0.9947
     3 BE1    2px        0.0000    0.0000   -0.0000    0.4514    0.0029   -0.0000   -0.9268    0.0000    0.2289    0.0000
     4 BE1    2py        0.0000    0.0000   -0.0000   -0.0029    0.4514    0.0000   -0.2289   -0.0000   -0.9268    0.0000
     5 BE1    2pz       -0.0017   -0.0024    0.1187    0.0000   -0.0000   -0.1313   -0.0000   -0.5963    0.0000    1.2075
     6 N2     1s         1.0003   -0.0004   -0.0133    0.0000   -0.0000    0.0252    0.0000    0.0091   -0.0000   -0.1680
     7 N2     2s        -0.0033    0.0049    0.8434    0.0000   -0.0000    0.4164   -0.0000   -0.0412   -0.0000   -1.1891
     8 N2     2px       -0.0000   -0.0000    0.0000    0.7589    0.0049   -0.0000    0.7130    0.0000   -0.1761   -0.0000
     9 N2     2py       -0.0000   -0.0000    0.0000   -0.0049    0.7589    0.0000    0.1761   -0.0000    0.7130   -0.0000
    10 N2     2pz       -0.0016   -0.0029   -0.1963    0.0000   -0.0000    0.8852    0.0000    0.2035   -0.0000    0.6264
--
 
      Von Neumann Entropy (Root   1) =  0.50000
 

      Mulliken population analysis for root number:  1
      -----------------------------------------------
 
 
++    Molecular charges:
      ------------------
 
      Mulliken charges per centre and basis function type
      ---------------------------------------------------
 
                BE1     N2    
      1s       1.9996  2.0004
      2s       0.1898  1.7290
      2px      0.6279  1.3721
      2pz      0.1487  0.9325
      2py      0.6279  1.3721
      Total    3.5940  7.4060
 
      N-E      0.4060 -0.4060
 
      Total electronic charge=   11.000000
 
      Total            charge=   -0.000000
--
 
 

      Expectation values of various properties for root number:  1
      -----------------------------------------------------------
 
 
++    Molecular properties:
      ---------------------
 
      Charge (e):
                      =   -0.0000
      Dipole Moment (Debye):
      Origin of the operator (Ang)=    0.0000    0.0000    0.0000
                   X=  1.8224E-12               Y= -4.4179E-13               Z= -4.3927E+00           Total=  4.3927E+00
      Quadrupole Moment (Debye*Ang):
      Origin of the operator (Ang)=    0.0000    0.0000    0.8518
                  XX= -1.2996E+01              XY=  4.6584E-14              XZ= -3.0040E-12              YY= -1.2996E+01
                  YZ=  6.8282E-13              ZZ= -4.6114E+00
      In traceless form (Debye*Ang)
                  XX= -4.1922E+00              XY=  6.9876E-14              XZ= -4.5059E-12              YY= -4.1922E+00
                  YZ=  1.0242E-12              ZZ=  8.3843E+00
--
 

      Mulliken spin population analysis for root number:  1
      ---------------------------------------------------
 
 
++    Molecular charges:
      ------------------
 
      Mulliken spin population per centre and basis function type
      ---------------------------------------------------
 
                BE1     N2    
      1s       0.0002  0.0000
      2s       0.0482  0.1092
      2px      0.0000  0.0000
      2pz      0.0040  0.8385
      2py      0.0000  0.0000
      Total    0.0523  0.9477
 
      Total electronic spin=    1.000000
--
 
 

      LoProp population analysis for root number:  1
      -----------------------------------------------
 
 
++    LoProp analysis:
      ----------------
 
 
 
      Input file to MOLDEN was generated!
 
 
++    Static properties:
      ------------------
 
 
      LoProp Charges per center
 

                   BE1      N2    
      Nuclear      4.0000   7.0000
      Electronic  -3.0015  -7.9985
 
      Total        0.9985  -0.9985
--
 
 
      Natural Bond Order analysis for root number:  1
 
++    Natural Bond Order analysis
      ---------------------------
      Based on LoProp computed density
      -------------------------------------------------------------------------------------
      Atom A       Atom B       Bond Order
      -------------------------------------------------------------------------------------
      NBO located      0.991 non-bonded electrons on atom BE1       
      The remaining    5.153 electrons are to be considered as diffuse
--
 
--
 
 
      Input file to MOLDEN was generated!
 
 
      Input file to MOLDEN was generated!
 
      Average orbitals are written to the RASORB file
      Natural orbitals for root   1 are written to the RASORB.1 file
      Spin density orbitals for root   1 are written to the SPDORB.1 file
 
--- Stop Module: rasscf at Thu Apr 25 13:44:46 2024 /rc=_RC_ALL_IS_WELL_ ---
*** files: 1.40.LprOrb 1.40.rasscf.molden.1 1.40.rasscf.molden 1.40.LoProp.molden 1.40.RasOrb.1 1.40.RasOrb 1.40.rasscf.h5 1.40.SpdOrb.1 xmldump
    saved to directory /home/grierjones/DDCASPT2/delta_ML/BeN/1.40

*** symbolic link created: INPORB -> 1.40.RasOrb
--- Start Module: caspt2 at Thu Apr 25 13:44:46 2024 ---
 
()()()()()()()()()()()()()()()()()()()()()()()()()()()()()()()()()()()()()()()()()()()()()()()()()()

                                              &CASPT2

                                   only a single process is used
                       available to each process: 2.0 GB of memory, 1 thread?
                                            pid: 102039
()()()()()()()()()()()()()()()()()()()()()()()()()()()()()()()()()()()()()()()()()()()()()()()()()()
 
 ###############################################################################
 ###############################################################################
 ###                                                                         ###
 ###                                                                         ###
 ###    WARNING: User changed nr of frozen orbitals.                         ###
 ###                                                                         ###
 ###                                                                         ###
 ###############################################################################
 ###############################################################################
 
++    Wave function specifications:
      -----------------------------
 
      Number of closed shell electrons          10
      Number of electrons in active shells       1
      Max number of holes in RAS1 space          0
      Max number of electrons in RAS3 space      0
      Number of inactive orbitals                5
      Number of active orbitals                  2
      Number of secondary orbitals               3
      Spin quantum number                      0.5
      State symmetry                             1
      Number of CSFs                             2
      Number of CASSCF root(s) available         1
      CASPT2 state passed to geometry opt.       1
      A file JOBMIX will be created
      This is a CASSCF or RASSCF reference function
--
 
++    Orbital specifications:
      -----------------------
 
      Symmetry species                           1
                                                 a
      Frozen orbitals                            0
      Inactive orbitals                          5
      Active orbitals                            2
      Secondary orbitals                         3
      Deleted orbitals                           0
      Number of basis functions                 10
--
 
++    CASPT2 specifications:
      ----------------------
 
      Type of calculation                        SS-CASPT2
      Fock operator                              state-specific
      IPEA shift                                 0.25
      Real shift                                 0.00
      Imaginary shift                            0.00
      The input orbitals will be transformed to quasi-canonical
--
 
--------------------------------------------------------------------------------
 Estimated memory requirements:
  POLY3 :                   250056
  RHS:                      250476
  SIGMA :                   250480
  PRPCTL:                        0
 Available workspace:    230392719
 
++ CASPT2 computation for group   1
 
********************************************************************************
 Multi-State initialization phase begins for group   1
--------------------------------------------------------------------------------
********************************************************************************
 Compute H0 matrices for state    1
--------------------------------------------------------------------------------
--------------------------------------------------------------------------------
 H0 matrices have been computed.
 
********************************************************************************
  CASPT2 EQUATION SOLUTION
--------------------------------------------------------------------------------
 
  Total nr of CASPT2 parameters:
   Before reduction:         620
   After  reduction:         438
 
 Variance of |WF0>:       0.1449139815
 
 The contributions to the second order correlation energy in atomic units.
-----------------------------------------------------------------------------------------------------------------------------
  IT.      VJTU        VJTI        ATVX        AIVX        VJAI        BVAT        BJAT        BJAI        TOTAL       RNORM  
-----------------------------------------------------------------------------------------------------------------------------
   1    -0.000599   -0.017276    0.000000   -0.004680   -0.047156    0.000000   -0.005523   -0.029780   -0.105013    0.000290
   2    -0.000600   -0.017275    0.000000   -0.004689   -0.047157    0.000000   -0.005531   -0.029787   -0.105039    0.000013
-----------------------------------------------------------------------------------------------------------------------------
 
  FINAL CASPT2 RESULT:
 
      Reference energy:         -68.8665572461
      E2 (Non-variational):      -0.1050380942
      E2 (Variational):          -0.1050380675
      Total energy:             -68.9715953136
      Residual norm:              0.0000007201
      Reference weight:           0.92138
 
      Contributions to the CASPT2 correlation energy
      Active & Virtual Only:          0.0000000020
      One Inactive Excited:          -0.0108197846
      Two Inactive Excited:          -0.0942183116
 
 
++ Denominators, etc.
--------------------------------------------------------------------------------------------------------------
 Report on small energy denominators, large coefficients, and large energy contributions.
CASE  SYMM ACTIVE-MIX  NON-ACTIVE INDICES          DENOMINATOR     RHS VALUE       COEFFICIENT     CONTRIBUTION
VJTIP    1  Mu1.0001  In1.004 In1.003               1.43431862      0.03918312     -0.02777028     -0.00108813
VJTIP    1  Mu1.0002  In1.004 In1.004               1.10271719      0.11809864     -0.10709784     -0.01264811
VJTIP    1  Mu1.0002  In1.005 In1.004               1.10271719      0.04453138     -0.04038332     -0.00179832
AIVX     1  Mu1.0002  In1.004 Se1.008               0.78482499      0.03045901     -0.04000482     -0.00121851
AIVX     1  Mu1.0004  In1.004 Se1.008               0.95149166      0.02854369     -0.02992206     -0.00085409
AIVX     1  Mu1.0002  In1.004 Se1.010               1.33278746      0.03805799     -0.02979624     -0.00113398
VJAIP    1  Mu1.0002  Se1.010 In1.004 In1.003       2.00741415     -0.09124037      0.04601016     -0.00419798
VJAIP    1  Mu1.0002  Se1.009 In1.004 In1.004       1.10271719     -0.04453138      0.04038331     -0.00179832
VJAIP    1  Mu1.0001  Se1.009 In1.005 In1.003       1.43431862      0.03918312     -0.02777749     -0.00108841
VJAIP    1  Mu1.0002  Se1.009 In1.005 In1.004       1.10271719      0.09700556     -0.08796957     -0.00853354
VJAIP    1  Mu1.0002  Se1.009 In1.005 In1.005       1.10271719      0.04453138     -0.04038331     -0.00179832
VJAIM    1  Mu1.0002  Se1.010 In1.004 In1.003       2.00741415      0.08925901     -0.04506741     -0.00402267
VJAIM    1  Mu1.0002  Se1.009 In1.005 In1.004       1.10271719      0.15955486     -0.14469244     -0.02308638
BJATP    1  Mu1.0001  In1.005 Se1.009 Se1.008       0.82649166      0.02854369     -0.03445823     -0.00098356
BJATM    1  Mu1.0001  In1.005 Se1.009 Se1.008       0.82649166     -0.03045901      0.03798136     -0.00115687
BJATM    1  Mu1.0001  In1.005 Se1.010 Se1.009       1.37445413      0.03805799     -0.02888970     -0.00109948
BJAIP    1  Se1.010 In1.003 Se1.010 In1.003         2.91211112      0.08011129     -0.02767847     -0.00221736
BJAIP    1  Se1.009 In1.003 Se1.010 In1.005         2.00741415     -0.09124037      0.04603349     -0.00420011
BJAIP    1  Se1.009 In1.004 Se1.009 In1.005         1.10271719     -0.04453138      0.04038332     -0.00179832
BJAIP    1  Se1.009 In1.005 Se1.009 In1.005         1.10271719      0.11809864     -0.10709784     -0.01264811
BJAIM    1  Se1.009 In1.003 Se1.009 In1.005         2.00741415      0.08925901     -0.04505570     -0.00402163
--
 
   (Skipping property calculation,
    use PROP keyword to activate)
--
 
  Total CASPT2 energies:
::    CASPT2 Root  1     Total energy:    -68.97159531
 
  A NEW JOBIPH FILE NAMED 'JOBMIX' IS PREPARED.
********************************************************************************
--- Stop Module: caspt2 at Thu Apr 25 13:44:46 2024 /rc=_RC_ALL_IS_WELL_ ---
*** files: xmldump
    saved to directory /home/grierjones/DDCASPT2/delta_ML/BeN/1.40

.##################.
.# Happy landing! #.
.##################.

    Timing: Wall=2.64 User=1.75 System=0.26
************************************
*** WorkDir at /tmp/1.40 removed ***
************************************
