[Molden Format]
[N_Atoms]
                     2
[Atoms] (AU)
B1          1      5           0.00000000      0.00000000      0.00000000
O2          2      8           0.00000000      0.00000000      2.45664396
[Charge] (Mulliken)
  0.529486745800838     
 -0.529486745800874     
[GTO] (AU)
   1
   s  14
  3.336021700E+04  1.039699991E-04
  4.972095200E+03  5.254399956E-04
  1.125641700E+03  2.509059979E-03
  3.164913600E+02  1.031887991E-02
  1.020072600E+02  3.636632969E-02
  3.629587300E+01  1.064607991E-01
  1.397141000E+01  2.403999880E-01
  5.741156000E+00  3.748581168E-01
  2.494268000E+00  3.100066974E-01
  1.114202000E+00  7.922455933E-02
  4.215490000E-01 -4.947589958E-03
  1.696330000E-01 -7.737119935E-03
  6.853500000E-02 -1.501079987E-03
  2.398700000E-02 -1.333299989E-04
   s  14
  3.336021700E+04 -2.030000008E-05
  4.972095200E+03 -1.025700004E-04
  1.125641700E+03 -4.911300020E-04
  3.164913600E+02 -2.026570008E-03
  1.020072600E+02 -7.261010030E-03
  3.629587300E+01 -2.197722009E-02
  1.397141000E+01 -5.408428022E-02
  5.741156000E+00 -1.022402604E-01
  2.494268000E+00 -1.423595206E-01
  1.114202000E+00 -4.658690019E-02
  4.215490000E-01  3.799402916E-01
  1.696330000E-01  5.890463624E-01
  6.853500000E-02  1.749075107E-01
  2.398700000E-02 -1.142030005E-03
   p   9
  5.500000000E+01  1.229800005E-03
  1.336610100E+01  8.827380035E-03
  4.135394000E+00  3.843340015E-02
  1.481256000E+00  1.150031805E-01
  6.021360000E-01  2.733674011E-01
  2.556360000E-01  4.061972116E-01
  1.111510000E-01  3.014967912E-01
  4.764800000E-02  7.684809030E-02
  1.667700000E-02 -8.170000032E-06
 
   2
   s  14
  1.053749500E+05  1.238600013E-04
  1.567924000E+04  5.120100053E-04
  3.534544700E+03  2.152910022E-03
  9.873651600E+02  8.528440089E-03
  3.159787500E+02  3.018049031E-02
  1.116542800E+02  9.099702095E-02
  4.269945100E+01  2.177936423E-01
  1.739559600E+01  3.686245738E-01
  7.438309000E+00  3.366707335E-01
  3.222862000E+00  9.657630101E-02
  1.253877000E+00  2.144520022E-03
  4.951550000E-01  1.194350012E-03
  1.916650000E-01  5.390200056E-04
  6.708300000E-02  2.103400022E-04
   s  14
  1.053749500E+05 -2.815000008E-05
  1.567924000E+04 -1.163000003E-04
  3.534544700E+03 -4.909200013E-04
  9.873651600E+02 -1.946160005E-03
  3.159787500E+02 -7.005300019E-03
  1.116542800E+02 -2.167814006E-02
  4.269945100E+01 -5.641213015E-02
  1.739559600E+01 -1.127053003E-01
  7.438309000E+00 -1.589119704E-01
  3.222862000E+00 -3.355083009E-02
  1.253877000E+00  3.531902810E-01
  4.951550000E-01  5.534199315E-01
  1.916650000E-01  2.301839106E-01
  6.708300000E-02  1.127267003E-02
   p   9
  2.000000000E+02  9.173000030E-04
  4.653336700E+01  7.377140024E-03
  1.462180900E+01  3.483515011E-02
  5.313064000E+00  1.144397004E-01
  2.102525000E+00  2.554966408E-01
  8.502230000E-01  3.722557412E-01
  3.375970000E-01  3.323314911E-01
  1.288920000E-01  1.400847905E-01
  4.511200000E-02  2.395784008E-02
 
[MO]
Sym=     1a  
Ene=   -20.6160
Spin= Alpha
Occup=    1.00000
   1        -0.00022831
   2        -0.00091861
   3         0.00000000
   4         0.00000000
   5        -0.00057648
   6         1.00008260
   7         0.00036981
   8         0.00000000
   9        -0.00000000
  10        -0.00177166
Sym=     1a  
Ene=   -20.6400
Spin= Beta
Occup=    1.00000
   1        -0.00033242
   2        -0.00135855
   3         0.00000000
   4         0.00000000
   5        -0.00104632
   6         1.00013660
   7         0.00190130
   8         0.00000000
   9        -0.00000000
  10        -0.00201224
Sym=     2a  
Ene=    -7.8439
Spin= Alpha
Occup=    1.00000
   1         0.99964718
   2         0.01529655
   3        -0.00000000
   4        -0.00000000
   5         0.00040811
   6        -0.00034400
   7         0.00109541
   8         0.00000000
   9         0.00000000
  10        -0.00190118
Sym=     2a  
Ene=    -7.8064
Spin= Beta
Occup=    1.00000
   1         0.99971839
   2         0.01353959
   3        -0.00000000
   4        -0.00000000
   5         0.00115266
   6        -0.00030621
   7         0.00084018
   8         0.00000000
   9         0.00000000
  10        -0.00155958
Sym=     3a  
Ene=    -1.3277
Spin= Alpha
Occup=    1.00000
   1        -0.06119536
   2         0.15830224
   3         0.00000000
   4         0.00000000
   5         0.13491448
   6        -0.01714066
   7         0.82152224
   8        -0.00000000
   9        -0.00000000
  10        -0.19770545
Sym=     3a  
Ene=    -1.3922
Spin= Beta
Occup=    1.00000
   1        -0.05987803
   2         0.08776234
   3         0.00000000
   4         0.00000000
   5         0.10694707
   6        -0.01293351
   7         0.88299963
   8        -0.00000000
   9        -0.00000000
  10        -0.17431525
Sym=     4a  
Ene=    -0.6767
Spin= Alpha
Occup=    1.00000
   1         0.04888411
   2        -0.56680897
   3        -0.00000000
   4        -0.00000000
   5         0.06250768
   6         0.02124238
   7         0.47318612
   8        -0.00000000
   9         0.00000000
  10         0.63542142
Sym=     4a  
Ene=    -0.6477
Spin= Beta
Occup=    1.00000
   1         0.06301416
   2        -0.26558868
   3         0.00000000
   4        -0.00000000
   5        -0.19384525
   6         0.02710987
   7         0.43862210
   8        -0.00000000
   9         0.00000000
  10         0.81827587
Sym=     5a  
Ene=    -0.5407
Spin= Alpha
Occup=    1.00000
   1         0.03745255
   2         0.65566832
   3         0.00000000
   4        -0.00000000
   5        -0.60700984
   6         0.01752777
   7         0.15406392
   8         0.00000000
   9        -0.00000000
  10         0.55907275
Sym=     5a  
Ene=    -0.5932
Spin= Beta
Occup=    1.00000
   1        -0.00000000
   2         0.00000000
   3        -0.04994688
   4         0.19674874
   5         0.00000000
   6        -0.00000000
   7        -0.00000000
   8        -0.22622984
   9         0.89115547
  10        -0.00000000
Sym=     6a  
Ene=    -0.4962
Spin= Alpha
Occup=    1.00000
   1         0.00000000
   2         0.00000000
   3        -0.23360161
   4         0.47999643
   5        -0.00000000
   6         0.00000000
   7         0.00000000
   8        -0.30578049
   9         0.62830707
  10         0.00000000
Sym=     6a  
Ene=    -0.5932
Spin= Beta
Occup=    1.00000
   1         0.00000000
   2         0.00000000
   3         0.19674874
   4         0.04994688
   5        -0.00000000
   6         0.00000000
   7         0.00000000
   8         0.89115547
   9         0.22622984
  10         0.00000000
Sym=     7a  
Ene=    -0.4962
Spin= Alpha
Occup=    1.00000
   1        -0.00000000
   2        -0.00000000
   3         0.47999643
   4         0.23360161
   5         0.00000000
   6        -0.00000000
   7        -0.00000000
   8         0.62830707
   9         0.30578049
  10        -0.00000000
Sym=     7a  
Ene=     0.0073
Spin= Beta
Occup=    0.00000
   1         0.02222317
   2         0.89632272
   3         0.00000000
   4        -0.00000000
   5        -0.49381150
   6        -0.00192332
   7        -0.09233264
   8        -0.00000000
   9        -0.00000000
  10         0.30766021
Sym=     8a  
Ene=     0.1203
Spin= Alpha
Occup=    0.00000
   1        -0.00000000
   2        -0.00000000
   3        -0.23518925
   4        -0.87264826
   5         0.00000000
   6         0.00000000
   7         0.00000000
   8         0.20382976
   9         0.75629174
  10        -0.00000000
Sym=     8a  
Ene=     0.1756
Spin= Beta
Occup=    0.00000
   1        -0.00000000
   2        -0.00000000
   3         0.24645229
   4        -0.99992588
   5        -0.00000000
   6         0.00000000
   7         0.00000000
   8        -0.12118992
   9         0.49170138
  10        -0.00000000
Sym=     9a  
Ene=     0.1203
Spin= Alpha
Occup=    0.00000
   1         0.00000000
   2         0.00000000
   3        -0.87264826
   4         0.23518925
   5        -0.00000000
   6         0.00000000
   7         0.00000000
   8         0.75629174
   9        -0.20382976
  10         0.00000000
Sym=     9a  
Ene=     0.1756
Spin= Beta
Occup=    0.00000
   1         0.00000000
   2         0.00000000
   3        -0.99992588
   4        -0.24645229
   5        -0.00000000
   6        -0.00000000
   7        -0.00000000
   8         0.49170138
   9         0.12118992
  10         0.00000000
Sym=    10a  
Ene=     0.5607
Spin= Alpha
Occup=    0.00000
   1         0.10675117
   2         0.91611630
   3         0.00000000
   4        -0.00000000
   5         1.12488548
   6        -0.12400212
   7        -0.99859769
   8         0.00000000
   9        -0.00000000
  10         0.77340354
Sym=    10a  
Ene=     0.6005
Spin= Beta
Occup=    0.00000
   1         0.10363667
   2         0.85668997
   3         0.00000000
   4        -0.00000000
   5         1.16750676
   6        -0.12415663
   7        -0.96908769
   8        -0.00000000
   9        -0.00000000
  10         0.74762790
