   This run of MOLCAS is using the pymolcas driver

                             OPE
                             OPE          NMOL  CASOP  ENMOLC A   SO
                 OPE        NMOLC        AS  OP EN  MO LC     AS  OP
                OPENM       OL CA        SO  PE NM  OL CA     SOP EN
                OP EN      MO   LC       AS  OP ENMOL  CASO   PENMOL
                OP  EN     MO   LC       AS  OP EN     MO     LC ASO
               OP   E  NMOL  C  AS       OP  EN MO     LC     AS  OP
               OP  E   NMO   LC AS        OPEN  MO     LCASOP EN   M
               O  PEN   MO  LCA  SO
            OPE   NMO   L   CAS    OP
        OPENMOL  CASOP     ENMOL   CASOPE
     OPENMOLCA   SOPENMOLCASOPEN   MOLCASOPE
    OPENMOLCAS   OP           EN   MOL    CAS
    OPENMOLCAS       OP  ENM        O     LCA
    OPENMOLCAS    OPEN  MOLCASO     P  E  NMO
    OPENMOLCAS     OP               E  N  MOL
    OPENMOLCA   SO           PENM   O  L  CAS    OPEN    MO    LCAS
    OPENMOLCA   SOP           ENM   O  L  CAS   OP  EN  MOLC  AS   O
    OPENMOLCA   SOPE           NM      O  LCA   S      OP  EN MO
    OPENMOLC                AS         O  PEN   M      OL  CA  SOPE
    OPENMO        LCASOPE  NMOL        C  ASO   P      ENMOLC     AS
    OPE     NMO      LCA  SO     P     E   NM   OL  CA SO  PE N   MO
          OPENMOLCA            SOPE   NMO        LCAS  O    P  ENMO
     OPENMOLCASOPENMOLCASOPENMOLCASOPENMOLCA
        OPENMOLCASOPENMOLCASOPENMOLCASOPE
            OPENMOLCASOPENMOLCASOPENM
               OPENMOLCASOPENMOLCA        version: ea724fe96-dirty
                   OPENMOLCASO
                       OPE                tag:

 OpenMolcas is free software; you can redistribute it and/or modify it
 under the terms of the GNU Lesser General Public License version 2.1.
 OpenMolcas is distributed in the hope that it will be useful, but it
 is provided "as is" and without any express or implied warranties.
 For more details see the full text of the license in the file
 LICENSE or in <http://www.gnu.org/licenses/>.

                 Copyright (C) The OpenMolcas Authors
           For the author list and the recommended citation,
                   consult the file CONTRIBUTORS.md

           *************************************************
           * pymolcas version py2.28                       *
           *   build c4a6d18ded8cb6cad61d2372a9abd97c      *
           *   (after the EMIL interpreter by V. Veryazov) *
           *************************************************

configuration info
------------------
C Compiler ID: Intel
C flags: -std=gnu99
Fortran Compiler ID: Intel
Fortran flags: -fpp -i8 -r8 -heap-arrays
Definitions: _MOLCAS_;_I8_;_LINUX_
Parallel: OFF (GA=OFF)


   -------------------------------------------------------------------------------
  |
  |              Project: 4.52
  |       Submitted from: /home/grierjones/DDCASPT2/iron_oxo_DDCASPT2/cluster/4.52
  |         Scratch area: /tmp/4.52
  |      Save outputs to: /home/grierjones/DDCASPT2/iron_oxo_DDCASPT2/cluster/4.52
  |               Molcas: /home/grierjones/Test/build
  |
  | Scratch area is empty
  |
  |       MOLCAS_DRIVER = /usr/local/pymolcas
  | MOLCAS_KEEP_WORKDIR = NO
  |  MOLCAS_NEW_WORKDIR = YES
  |       MOLCAS_NPROCS = 1
  |        MOLCAS_PRINT = NORMAL
  |       MOLCAS_SOURCE = /home/grierjones/Test/build
  |    MOLCAS_STRUCTURE = 0
  |
   -------------------------------------------------------------------------------

++ ---------   Input file   ---------

&GATEWAY
coord=4.52.xyz
Basis = ANO-RCC-VDZP
Group = nosymm
Expert
End of Input

&SEWARD
End of Input

&SCF
UHF
charge
2
spin
5

>>> COPY $WorkDir/4.52.scf.h5 $CurrDir/

&RASSCF
Title= RASSCF
FileOrb
/home/grierjones/DDCASPT2/iron_oxo_DDCASPT2/cluster/4.49/4.49.RasOrb
NACTEL
10 0 0
RAS2
14
Symmetry
1
Spin
5
charge
2
orblisting
all
ITERation
300 200

>>> COPY $WorkDir/4.52.rasscf.h5 $CurrDir/

>>> COPY $WorkDir/GMJ_Fock_MO.csv $CurrDir/4.52.GMJ_Fock_MO.csv

>>> COPY $WorkDir/GMJ_PT2_Fock_MO.csv $CurrDir/4.52.GMJ_PT2_Fock_MO.csv

&MOTRA
Frozen=0
LUMORB

>>> COPY $WorkDir/GMJ_one_int_indx.csv $CurrDir/4.52.GMJ_one_int_indx.csv

>>> COPY $WorkDir/GMJ_one_int.csv $CurrDir/4.52.GMJ_one_int.csv

>>> COPY $WorkDir/GMJ_two_int_indx.csv $CurrDir/4.52.GMJ_two_int_indx.csv

>>> COPY $WorkDir/GMJ_two_int.csv $CurrDir/4.52.GMJ_two_int.csv

&CASPT2
Frozen
0
MAXITER
50

>>> FOREACH i IN (B,E,F,G,H)

  >>> FOREACH j IN (P,M)

    >>> IF (-FILE GMJ_e2_${i}_${j}.csv)

      >>> COPY $WorkDir/GMJ_RHS_${i}_${j}.csv $CurrDir/GMJ_RHS_${i}_${j}.csv

      >>> COPY $WorkDir/GMJ_IVECW_${i}_${j}.csv $CurrDir/GMJ_IVECW_${i}_${j}.csv

      >>> COPY $WorkDir/GMJ_IVECX_${i}_${j}.csv $CurrDir/GMJ_IVECX_${i}_${j}.csv

      >>> COPY $WorkDir/GMJ_IVECC2_${i}_${j}.csv $CurrDir/GMJ_IVECC2_${i}_${j}.csv

      >>> COPY $WorkDir/GMJ_e2_${i}_${j}.csv $CurrDir/GMJ_e2_${i}_${j}.csv

    >>> END IF

  >>> END FOREACH

>>> END FOREACH

>>> FOREACH i IN (A,C,D)

  >>> IF (-FILE GMJ_e2_$i.csv)

    >>> COPY $WorkDir/GMJ_RHS_$i.csv $CurrDir/GMJ_RHS_$i.csv

    >>> COPY $WorkDir/GMJ_IVECW_$i.csv $CurrDir/GMJ_IVECW_$i.csv

    >>> COPY $WorkDir/GMJ_IVECX_$i.csv $CurrDir/GMJ_IVECX_$i.csv

    >>> COPY $WorkDir/GMJ_IVECC2_$i.csv $CurrDir/GMJ_IVECC2_$i.csv

    >>> COPY $WorkDir/GMJ_e2_$i.csv $CurrDir/GMJ_e2_$i.csv

  >>> END IF

>>> END FOREACH

-- ----------------------------------

--- Start Module: gateway at Wed Dec 18 02:37:15 2024 ---
 
()()()()()()()()()()()()()()()()()()()()()()()()()()()()()()()()()()()()()()()()()()()()()()()()()()

                                              &GATEWAY

                                   only a single process is used
                       available to each process: 2.0 GB of memory, 1 thread?
()()()()()()()()()()()()()()()()()()()()()()()()()()()()()()()()()()()()()()()()()()()()()()()()()()
 
 ###############################################################################
 ###############################################################################
 ###                                                                         ###
 ###                                                                         ###
 ###                                                                         ###
 ###    WARNING: EXPERT option is ON!                                        ###
 ###                                                                         ###
 ###                                                                         ###
 ###############################################################################
 ###############################################################################
 
++    Symmetry information:
      ---------------------
 
                    Character Table for C1 
 
                             E  
                    a        1  x, y, xy, Rz, z, xz, Ry, yz, Rx, I
--
 
 
++    Basis set information:
      ----------------------
 
 
      Basis set label: O.ANO-RCC...3S2P1D.
 
      Electronic valence basis set:
      ------------------
      Associated Effective Charge   8.000000 au
      Associated Actual Charge      8.000000 au
      Nuclear Model: Point charge
 
      Shell  nPrim  nBasis  Cartesian Spherical Contaminant
         s      14       3        X                  
         p       9       2        X                  
         d       4       1                 X         
 
 
      Basis set label: FE.ANO-RCC...5S4P2D1F.
 
      Electronic valence basis set:
      ------------------
      Associated Effective Charge  26.000000 au
      Associated Actual Charge     26.000000 au
      Nuclear Model: Point charge
 
      Shell  nPrim  nBasis  Cartesian Spherical Contaminant
         s      21       5        X                  
         p      15       4        X                  
         d      10       2                 X         
         f       6       1                 X         
--
 
 
++    Molecular structure info:
      -------------------------
 
                    ************************************************ 
                    **** Cartesian Coordinates / Bohr, Angstrom **** 
                    ************************************************ 
 
     Center  Label                x              y              z                     x              y              z
        1      O1               0.000000       0.000000       5.777989              0.000000       0.000000       3.057580
        2      FE2              0.000000       0.000000      -2.754427              0.000000       0.000000      -1.457580
--
 
 
            Nuclear Potential Energy             24.37762113 au
 
 ###############################################################################
 ###############################################################################
 ###                                                                         ###
 ###                                                                         ###
 ###    There were warnings during the execution                             ###
 ###    Please, check the output with care!                                  ###
 ###                                                                         ###
 ###                                                                         ###
 ###############################################################################
 ###############################################################################
--- Stop Module: gateway at Wed Dec 18 02:37:15 2024 /rc=_RC_ALL_IS_WELL_ ---
*** files: xmldump
    saved to directory /home/grierjones/DDCASPT2/iron_oxo_DDCASPT2/cluster/4.52

--- Start Module: seward at Wed Dec 18 02:37:15 2024 ---
 
()()()()()()()()()()()()()()()()()()()()()()()()()()()()()()()()()()()()()()()()()()()()()()()()()()

                                              &SEWARD

                                   only a single process is used
                       available to each process: 2.0 GB of memory, 1 thread?
()()()()()()()()()()()()()()()()()()()()()()()()()()()()()()()()()()()()()()()()()()()()()()()()()()
 
 ###############################################################################
 ###############################################################################
 ###                                                                         ###
 ###                                                                         ###
 ###                                                                         ###
 ###    WARNING: EXPERT option is ON!                                        ###
 ###                                                                         ###
 ###                                                                         ###
 ###############################################################################
 ###############################################################################
               SEWARD will generate:
                  Multipole Moment integrals up to order  2
                  Kinetic Energy integrals
                  Nuclear Attraction integrals (point charge)
                  One-Electron Hamiltonian integrals
                  Velocity integrals
                  Relativistic Douglas-Kroll-Hess integrals:
                    - Parametrization         : EXP
                    - DKH order of Hamiltonian: 2
                    - DKH order of Properties : 0
                         - multipole moment operators
                         - electric potential operators
                         - contact operators
                  Atomic mean-field integrals
                  Two-Electron Repulsion integrals
 
                   Integrals are discarded if absolute value <: 0.10E-13
                   Integral cutoff threshold is set to       <: 0.10E-15
 
            Nuclear Potential Energy             24.37762113 au
 
 
      Basis set specifications :
      Symmetry species         a  
      Basis functions           48
 
 
  Input file to MOLDEN was generated!
 
 ###############################################################################
 ###############################################################################
 ###                                                                         ###
 ###                                                                         ###
 ###    There were warnings during the execution                             ###
 ###    Please, check the output with care!                                  ###
 ###                                                                         ###
 ###                                                                         ###
 ###############################################################################
 ###############################################################################
--- Stop Module: seward at Wed Dec 18 02:37:16 2024 /rc=_RC_ALL_IS_WELL_ ---
*** files: 4.52.GssOrb 4.52.guessorb.h5 4.52.guessorb.molden xmldump
    saved to directory /home/grierjones/DDCASPT2/iron_oxo_DDCASPT2/cluster/4.52

*** symbolic link created: INPORB -> 4.52.GssOrb
--- Start Module: scf at Wed Dec 18 02:37:16 2024 ---
 
()()()()()()()()()()()()()()()()()()()()()()()()()()()()()()()()()()()()()()()()()()()()()()()()()()

                                                &SCF

                                   only a single process is used
                       available to each process: 2.0 GB of memory, 1 thread?
()()()()()()()()()()()()()()()()()()()()()()()()()()()()()()()()()()()()()()()()()()()()()()()()()()
 
 *** Possible bug in opening file
 *** isFreeUnit resets the unit number
++    Input section:
      --------------
 
      Header of the integral files:
      
       Integrals generated by seward 4.2.0  , Wed Dec 18 02:37:16 2024
 
 
      Cartesian coordinates in Angstrom:
      -----------------------------------------------------
      No.  Label        X            Y            Z        
      -----------------------------------------------------
       1   O1         0.00000000   0.00000000   3.05758000
       2   FE2        0.00000000   0.00000000  -1.45758000
      -----------------------------------------------------
      Nuclear repulsion energy =   24.37762113
--
 
++    Orbital specifications:
      -----------------------
 
      Symmetry species               1
                                     a
      Frozen orbitals                0
      Start temperature = 0.500
      End temperature   = 0.010
      Temperature Factor= 0.460
      Deleted orbitals               0
      Total number of orbitals      48
      Number of basis functions     48
--
 
      Molecular charge                           2.000
 
++    Optimization specifications:
      ----------------------------
 
      SCF Algorithm: Conventional USCF
      D(i)-D(i-1) density differences are used
      Number of density matrices in core                5
      Maximum number of NDDO SCF iterations           400
      Maximum number of HF SCF iterations             400
      Threshold for SCF energy change            0.10E-08
      Threshold for density matrix               0.10E-03
      Threshold for Fock matrix                  0.15E-03
      Threshold for linear dependence            0.10E-08
      Threshold at which DIIS is turned on       0.15E+00
      Threshold at which QNR/C2DIIS is turned on 0.75E-01
      Threshold for Norm(delta) (QNR/C2DIIS)     0.20E-04
      DIIS extrapolation of the SCF procedure
      All orbitals punched on: UHFORB
--
 
      Input vectors read from INPORB
      Orbital file label: *Guess orbitals
 
 
++ Convergence information
                               UHF SCF        iterations: Energy and convergence statistics
 
Iter     Tot. SCF        One-elec.       Two-elec.     Energy      Max Dij or  Max Fij      DNorm      TNorm      AccCon     Time
         Energy          Energy          Energy        Change      Delta Norm                                                in Sec.
 
 The total and one-electron energies are shifted by a value of      1000. a.u.
 
   1  -343.285778211  -881.978246598   514.314847257   0.00E+00    0.15E+00*   0.36E+00*    0.75E+01   0.18E+03   None         0.
   2  -343.467393193  -877.792321705   509.947307382  -0.18E+00*   0.12E+00*   0.17E+00*    0.10E+01   0.18E+03   EDIIS        0.
   3  -341.615832466  -925.853381687   559.859928092   0.19E+01*   0.62E-01*   0.18E+00*    0.18E+01   0.19E+03   EDIIS        0.
   4  -342.970144543  -866.573903394   499.226137721  -0.14E+01*   0.90E-01*   0.90E-01*    0.15E+01   0.17E+03   EDIIS        0.
   5  -344.071950265  -899.552447596   531.102876201  -0.11E+01*   0.45E-01*   0.48E-01*    0.84E+00   0.18E+03   EDIIS        0.
   6  -344.233475984  -872.311199565   503.700102452  -0.16E+00*   0.39E+00*   0.21E+00*    0.18E+01   0.18E+03   EDIIS        0.
   7  -342.454815102  -915.371776042   548.539339810   0.18E+01*   0.31E+00*   0.28E-01*    0.24E+01   0.19E+03   EDIIS        0.
   8  -345.214385624  -880.994387719   511.402380966  -0.28E+01*   0.45E+00*   0.14E+00*    0.19E+01   0.18E+03   EDIIS        0.
   9  -345.280502295  -883.208767667   513.550644243  -0.66E-01*   0.17E+00*   0.11E+00*    0.83E+00   0.18E+03   EDIIS        0.
  10  -345.295630482  -882.283123114   512.609871502  -0.15E-01*   0.17E+00*   0.22E-01*    0.35E+00   0.18E+03   EDIIS        0.
  11  -345.299946186  -882.389541630   512.711974315  -0.43E-02*   0.83E-01*   0.17E-01*    0.25E+00   0.18E+03   EDIIS        0.
 
       Fermi aufbau procedure completed!
      nOcc(alpha)=   18
      nOcc(beta) =   14
 
  12  -345.301384698  -882.324082397   512.645076569  -0.14E-02*   0.39E-01*   0.80E-02*    0.13E+00   0.18E+03   EDIIS        0.
  13  -345.301831949  -882.333495974   512.654042896  -0.45E-03*   0.20E-01*   0.56E-02*    0.69E-01   0.18E+03   EDIIS        0.
  14  -345.301977749  -882.328505956   512.648907077  -0.15E-03*   0.96E-02*   0.32E-02*    0.36E-01   0.18E+03   EDIIS        0.
  15  -345.302027151  -882.328997127   512.649348846  -0.49E-04*   0.46E-02*   0.20E-02*    0.20E-01   0.18E+03   EDIIS        0.
  16  -345.302044562  -882.328415608   512.648749917  -0.17E-04*   0.85E-03*   0.27E-02*    0.11E-01   0.18E+03   c2DIIS       0.
  17  -345.302054369  -882.328304893   512.648629394  -0.98E-05*   0.76E-03*   0.18E-03*    0.19E-02   0.18E+03   QNRc2DIIS    0.
  18  -345.302054510  -882.328137294   512.648461655  -0.14E-06*   0.11E-02*   0.11E-03     0.10E-02   0.18E+03   QNRc2DIIS    0.
  19  -345.302054590  -882.328283309   512.648607590  -0.80E-07*   0.13E-03*   0.97E-05     0.14E-02   0.18E+03   QNRc2DIIS    0.
  20  -345.302054590  -882.328044869   512.648369149  -0.69E-09    0.99E-05    0.39E-05     0.18E-03   0.18E+03   QNRc2DIIS    0.
 
       Convergence after 20 Macro Iterations
--
 
 *****************************************************************************************************************************
 *                                                                                                                           *
 *                                             SCF/KS-DFT Program, Final results                                             *
 *                                                                                                                           *
 *                                                                                                                           *
 *                                                                                                                           *
 *                                                       Final Results                                                       *
 *                                                                                                                           *
 *****************************************************************************************************************************
 
::    Total SCF energy                              -1345.3020545904
      One-electron energy                           -1882.3280448688
      Two-electron energy                             512.6483691489
      Nuclear repulsion energy                         24.3776211296
      Kinetic energy (interpolated)                  1399.7926481051
      Virial theorem                                    0.9610723820
      Total spin, S(S+1)                                8.0108285045
      Total spin, S                                     2.3741657058
      Max non-diagonal density matrix element           0.0000039211
      Max non-diagonal Fock matrix element              0.0000008986
 
 
      All orbitals with orbital energies smaller than  E(LUMO)+0.5 are printed
 
++    Molecular orbitals:
      -------------------
 
      Title: UHF orbitals (alpha)

      Molecular orbitals for symmetry species 1: a  
 
          Orbital            1         2         3         4         5         6         7         8         9        10    
          Energy         -264.6152  -33.4928  -28.5566  -28.5566  -28.5566  -20.8729   -5.4410   -3.9809   -3.9809   -3.9809
          Occ. No.          1.0000    1.0000    1.0000    1.0000    1.0000    1.0000    1.0000    1.0000    1.0000    1.0000
 
        1 O1     1s        -0.0000   -0.0000   -0.0000    0.0000    0.0000    1.0000   -0.0000   -0.0000    0.0000   -0.0000
        2 O1     2s        -0.0000   -0.0000   -0.0001    0.0000    0.0000   -0.0022   -0.0004   -0.0000    0.0000   -0.0002
        3 O1     3s        -0.0000   -0.0000   -0.0001    0.0000    0.0000    0.0004   -0.0005   -0.0000    0.0000   -0.0002
        4 O1     2px        0.0000    0.0000   -0.0000   -0.0000   -0.0000    0.0000   -0.0000   -0.0000   -0.0000    0.0000
        5 O1     3px       -0.0000   -0.0000   -0.0000   -0.0000   -0.0000   -0.0000    0.0000   -0.0000   -0.0001    0.0000
        6 O1     2py       -0.0000    0.0000   -0.0000    0.0000   -0.0000   -0.0000   -0.0000   -0.0000    0.0000   -0.0000
        7 O1     3py       -0.0000   -0.0000   -0.0000    0.0000   -0.0000   -0.0000   -0.0000   -0.0001    0.0000   -0.0000
        8 O1     2pz        0.0000    0.0000    0.0000   -0.0000   -0.0000   -0.0001    0.0002   -0.0000    0.0000    0.0001
        9 O1     3pz        0.0000    0.0000    0.0001   -0.0000   -0.0000    0.0000    0.0004   -0.0000    0.0000    0.0000
       10 O1     3d2-      -0.0000   -0.0000   -0.0000   -0.0000   -0.0000    0.0000   -0.0000   -0.0000   -0.0000   -0.0000
       11 O1     3d1-      -0.0000   -0.0000    0.0000   -0.0000    0.0000    0.0000   -0.0000    0.0000   -0.0000    0.0000
       12 O1     3d0        0.0000   -0.0000   -0.0000    0.0000    0.0000    0.0009    0.0000    0.0000    0.0000    0.0000
       13 O1     3d1+       0.0000    0.0000    0.0000    0.0000    0.0000   -0.0000    0.0000    0.0000    0.0000   -0.0000
       14 O1     3d2+       0.0000    0.0000    0.0000   -0.0000   -0.0000   -0.0000    0.0000    0.0000    0.0000    0.0000
       15 FE2    1s         1.0000   -0.0000   -0.0000    0.0000   -0.0000   -0.0000    0.0000    0.0000    0.0000    0.0000
       16 FE2    2s         0.0000    1.0000   -0.0000    0.0000    0.0000   -0.0000   -0.0035   -0.0000   -0.0000   -0.0000
       17 FE2    3s        -0.0000    0.0035    0.0000   -0.0000    0.0000   -0.0000    0.9999    0.0000    0.0000   -0.0001
       18 FE2    4s         0.0000   -0.0003    0.0000   -0.0000   -0.0000   -0.0000   -0.0076   -0.0000   -0.0000    0.0000
       19 FE2    5s        -0.0000    0.0004    0.0000   -0.0000   -0.0000   -0.0001    0.0083    0.0000   -0.0000    0.0000
       20 FE2    2px       -0.0000   -0.0000    0.0000    0.9978    0.0655   -0.0000   -0.0000   -0.0004   -0.0035   -0.0000
       21 FE2    3px       -0.0000    0.0000    0.0000    0.0035    0.0002   -0.0000   -0.0000    0.1103    0.9935    0.0000
       22 FE2    4px       -0.0000   -0.0000   -0.0000   -0.0006   -0.0000    0.0000    0.0000   -0.0021   -0.0191   -0.0000
       23 FE2    5px        0.0000    0.0000    0.0000    0.0015    0.0001   -0.0000    0.0000    0.0020    0.0181    0.0000
       24 FE2    2py        0.0000   -0.0000    0.0000   -0.0655    0.9978   -0.0000   -0.0000   -0.0035    0.0004    0.0000
       25 FE2    3py       -0.0000   -0.0000    0.0000   -0.0002    0.0035   -0.0000   -0.0000    0.9935   -0.1103   -0.0000
       26 FE2    4py        0.0000   -0.0000   -0.0000    0.0000   -0.0006    0.0000   -0.0000   -0.0191    0.0021    0.0000
       27 FE2    5py       -0.0000   -0.0000    0.0000   -0.0001    0.0015    0.0000   -0.0000    0.0181   -0.0020   -0.0000
       28 FE2    2pz        0.0000    0.0000    1.0000   -0.0000   -0.0000    0.0000   -0.0000   -0.0000    0.0000   -0.0035
       29 FE2    3pz       -0.0000    0.0000    0.0035   -0.0000   -0.0000   -0.0000    0.0001    0.0000   -0.0000    0.9996
       30 FE2    4pz        0.0000    0.0000   -0.0006    0.0000    0.0000   -0.0001    0.0001   -0.0000    0.0000   -0.0192
       31 FE2    5pz       -0.0000    0.0000    0.0015   -0.0000   -0.0000   -0.0001    0.0001    0.0000   -0.0000    0.0182
       32 FE2    3d2-      -0.0000   -0.0000    0.0000   -0.0000    0.0000   -0.0000    0.0000   -0.0000   -0.0000    0.0000
       33 FE2    4d2-       0.0000    0.0000   -0.0000    0.0000    0.0000    0.0000   -0.0000   -0.0000    0.0000   -0.0000
       34 FE2    3d1-       0.0000    0.0000    0.0000   -0.0000    0.0000    0.0000    0.0000    0.0001   -0.0000   -0.0000
       35 FE2    4d1-      -0.0000   -0.0000    0.0000   -0.0000    0.0000    0.0000   -0.0000   -0.0000    0.0000    0.0000
       36 FE2    3d0       -0.0000    0.0000    0.0000   -0.0000    0.0000   -0.0000   -0.0000    0.0000   -0.0000    0.0001
       37 FE2    4d0        0.0000    0.0000    0.0000   -0.0000   -0.0000   -0.0000    0.0001   -0.0000    0.0000   -0.0000
       38 FE2    3d1+       0.0000   -0.0000    0.0000    0.0000    0.0000    0.0000   -0.0000    0.0000    0.0001   -0.0000
       39 FE2    4d1+       0.0000   -0.0000    0.0000    0.0000    0.0000   -0.0000    0.0000   -0.0000   -0.0000   -0.0000
       40 FE2    3d2+      -0.0000   -0.0000    0.0000    0.0000    0.0000    0.0000   -0.0000    0.0000   -0.0000    0.0000
       41 FE2    4d2+       0.0000    0.0000   -0.0000   -0.0000   -0.0000   -0.0000    0.0000   -0.0000    0.0000   -0.0000
       42 FE2    4f3-       0.0000   -0.0000    0.0000   -0.0000    0.0000   -0.0000    0.0000    0.0000   -0.0000    0.0000
       43 FE2    4f2-       0.0000    0.0000    0.0000   -0.0000   -0.0000    0.0000    0.0000    0.0000    0.0000   -0.0000
       44 FE2    4f1-       0.0000   -0.0000    0.0000   -0.0000    0.0000   -0.0000    0.0000   -0.0000    0.0000    0.0000
       45 FE2    4f0       -0.0000    0.0000    0.0000   -0.0000   -0.0000   -0.0000    0.0000   -0.0000   -0.0000   -0.0000
       46 FE2    4f1+      -0.0000   -0.0000    0.0000    0.0000    0.0000    0.0000   -0.0000   -0.0000   -0.0000   -0.0000
       47 FE2    4f2+      -0.0000    0.0000   -0.0000   -0.0000    0.0000    0.0000   -0.0000   -0.0000   -0.0000   -0.0000
       48 FE2    4f3+      -0.0000   -0.0000    0.0000    0.0000    0.0000    0.0000   -0.0000    0.0000    0.0000   -0.0000
 
          Orbital           11        12        13        14        15        16        17        18        19        20    
          Energy           -1.6616   -1.6616   -1.6616   -1.6616   -1.6616   -1.3164   -0.9492   -0.7555   -0.4811   -0.4811
          Occ. No.          1.0000    1.0000    1.0000    1.0000    1.0000    1.0000    1.0000    1.0000    0.0000    0.0000
 
        1 O1     1s        -0.0000    0.0000    0.0001   -0.0000   -0.0000    0.0021    0.0008    0.0003   -0.0000    0.0000
        2 O1     2s        -0.0000    0.0000    0.0013   -0.0000   -0.0000    0.9991    0.0032    0.0236   -0.0000    0.0000
        3 O1     3s        -0.0000    0.0000    0.0010   -0.0000   -0.0000    0.0223    0.0073   -0.0132   -0.0000    0.0000
        4 O1     2px       -0.0000    0.0000    0.0000   -0.0001    0.0003   -0.0000    0.0000   -0.0000    0.0002   -0.0009
        5 O1     3px       -0.0000    0.0000   -0.0000   -0.0002    0.0006   -0.0000   -0.0000   -0.0000    0.0012   -0.0046
        6 O1     2py        0.0000    0.0000   -0.0000    0.0003    0.0001   -0.0000   -0.0000    0.0000   -0.0009   -0.0002
        7 O1     3py        0.0000    0.0000    0.0000    0.0006    0.0002   -0.0000   -0.0000    0.0000   -0.0046   -0.0012
        8 O1     2pz        0.0000   -0.0000   -0.0010    0.0000    0.0000   -0.0209   -0.0175    0.9953    0.0000   -0.0000
        9 O1     3pz        0.0000   -0.0000   -0.0008    0.0000    0.0000   -0.0080   -0.0042    0.0513    0.0000   -0.0000
       10 O1     3d2-       0.0000    0.0000    0.0000   -0.0000    0.0000    0.0000    0.0000    0.0000    0.0000    0.0000
       11 O1     3d1-      -0.0000   -0.0000   -0.0000   -0.0001   -0.0000    0.0000    0.0000   -0.0000   -0.0000   -0.0000
       12 O1     3d0       -0.0000    0.0000    0.0001   -0.0000   -0.0000    0.0299    0.0000   -0.0067   -0.0000    0.0000
       13 O1     3d1+       0.0000   -0.0000    0.0000    0.0000   -0.0001   -0.0000    0.0000    0.0000    0.0000   -0.0000
       14 O1     3d2+      -0.0000    0.0000   -0.0000   -0.0000    0.0000   -0.0000    0.0000   -0.0000    0.0000    0.0000
       15 FE2    1s         0.0000   -0.0000   -0.0000    0.0000   -0.0000   -0.0000   -0.0000    0.0000    0.0000   -0.0000
       16 FE2    2s         0.0000   -0.0000   -0.0000   -0.0000    0.0000   -0.0000    0.0004    0.0003    0.0000    0.0000
       17 FE2    3s        -0.0000    0.0000    0.0000   -0.0000    0.0000   -0.0001    0.0101    0.0019    0.0000   -0.0000
       18 FE2    4s         0.0000   -0.0000   -0.0003    0.0000    0.0000    0.0011    0.9274    0.0269    0.0000   -0.0000
       19 FE2    5s         0.0000   -0.0000   -0.0003    0.0000   -0.0000   -0.0011   -0.3720   -0.0152    0.0000   -0.0000
       20 FE2    2px        0.0000   -0.0000   -0.0000    0.0000   -0.0000    0.0000   -0.0000   -0.0000   -0.0001    0.0005
       21 FE2    3px        0.0000    0.0000    0.0000    0.0000   -0.0001    0.0000   -0.0000    0.0000   -0.0047    0.0180
       22 FE2    4px        0.0000   -0.0000    0.0000    0.0001   -0.0002    0.0000   -0.0000   -0.0000   -0.2516    0.9674
       23 FE2    5px        0.0000   -0.0000   -0.0000    0.0000   -0.0000    0.0000   -0.0000   -0.0000   -0.0082    0.0315
       24 FE2    2py        0.0000   -0.0000   -0.0000   -0.0000   -0.0000   -0.0000   -0.0000   -0.0000    0.0005    0.0001
       25 FE2    3py       -0.0000   -0.0000   -0.0000   -0.0001   -0.0000    0.0000    0.0000    0.0000    0.0180    0.0047
       26 FE2    4py       -0.0000   -0.0000   -0.0000   -0.0002   -0.0001    0.0000    0.0000    0.0000    0.9674    0.2516
       27 FE2    5py       -0.0000   -0.0000   -0.0000   -0.0000   -0.0000    0.0000   -0.0000   -0.0000    0.0315    0.0082
       28 FE2    2pz        0.0000   -0.0000   -0.0000    0.0000    0.0000   -0.0000   -0.0000    0.0000    0.0000   -0.0000
       29 FE2    3pz        0.0000   -0.0000   -0.0001    0.0000    0.0000   -0.0001   -0.0002    0.0004    0.0000   -0.0000
       30 FE2    4pz        0.0000   -0.0000   -0.0006    0.0000    0.0000    0.0008   -0.0081   -0.0343    0.0000   -0.0000
       31 FE2    5pz        0.0000   -0.0000   -0.0001    0.0000    0.0000   -0.0001   -0.0005   -0.0017    0.0000   -0.0000
       32 FE2    3d2-       0.9892    0.0543    0.0000   -0.0000    0.0000   -0.0000    0.0000    0.0000    0.0000   -0.0000
       33 FE2    4d2-      -0.1361   -0.0075   -0.0000    0.0000   -0.0000   -0.0000    0.0000    0.0000   -0.0000    0.0000
       34 FE2    3d1-       0.0000    0.0000    0.0000    0.9350    0.3274    0.0000   -0.0000   -0.0000    0.0001    0.0000
       35 FE2    4d1-      -0.0000   -0.0000   -0.0000   -0.1287   -0.0451    0.0000    0.0000    0.0000   -0.0008   -0.0002
       36 FE2    3d0       -0.0000    0.0000    0.9906   -0.0000   -0.0000   -0.0005   -0.0001    0.0009    0.0000   -0.0000
       37 FE2    4d0        0.0000   -0.0000   -0.1366    0.0000    0.0000    0.0005   -0.0011   -0.0053   -0.0000    0.0000
       38 FE2    3d1+      -0.0000    0.0000   -0.0000   -0.3274    0.9350    0.0000   -0.0000    0.0000   -0.0000    0.0001
       39 FE2    4d1+       0.0000   -0.0000    0.0000    0.0451   -0.1287    0.0000   -0.0000   -0.0000    0.0002   -0.0008
       40 FE2    3d2+      -0.0543    0.9892   -0.0000   -0.0000   -0.0000   -0.0000   -0.0000   -0.0000    0.0000   -0.0000
       41 FE2    4d2+       0.0075   -0.1361    0.0000    0.0000    0.0000   -0.0000   -0.0000    0.0000   -0.0000   -0.0000
       42 FE2    4f3-       0.0000   -0.0000    0.0000    0.0000   -0.0000    0.0000    0.0000   -0.0000    0.0000   -0.0000
       43 FE2    4f2-       0.0000    0.0000    0.0000   -0.0000    0.0000   -0.0000    0.0000   -0.0000   -0.0000    0.0000
       44 FE2    4f1-       0.0000    0.0000    0.0000    0.0000    0.0000    0.0000    0.0000    0.0000   -0.0000   -0.0000
       45 FE2    4f0       -0.0000    0.0000    0.0000   -0.0000   -0.0000    0.0000   -0.0000   -0.0002   -0.0000    0.0000
       46 FE2    4f1+      -0.0000    0.0000   -0.0000   -0.0000    0.0000    0.0000   -0.0000   -0.0000    0.0000   -0.0000
       47 FE2    4f2+      -0.0000    0.0000   -0.0000   -0.0000   -0.0000    0.0000    0.0000    0.0000   -0.0000   -0.0000
       48 FE2    4f3+       0.0000    0.0000   -0.0000    0.0000   -0.0000   -0.0000    0.0000    0.0000    0.0000   -0.0000
 
          Orbital           21        22        23        24    
          Energy           -0.4798   -0.2461   -0.1457   -0.1457
          Occ. No.          0.0000    0.0000    0.0000    0.0000
 
        1 O1     1s        -0.0025   -0.0065    0.0000   -0.0000
        2 O1     2s        -0.0360   -0.0782    0.0000   -0.0000
        3 O1     3s        -0.0128   -0.0196    0.0000   -0.0000
        4 O1     2px       -0.0000   -0.0000    0.2082    0.9221
        5 O1     3px       -0.0000   -0.0000    0.0714    0.3161
        6 O1     2py        0.0000    0.0000    0.9221   -0.2082
        7 O1     3py        0.0000    0.0000    0.3161   -0.0714
        8 O1     2pz        0.0865    0.0752   -0.0000    0.0000
        9 O1     3pz        0.0193    0.0196   -0.0000    0.0000
       10 O1     3d2-       0.0000    0.0000    0.0000   -0.0000
       11 O1     3d1-      -0.0000   -0.0000   -0.0063    0.0014
       12 O1     3d0       -0.0003   -0.0003    0.0000   -0.0000
       13 O1     3d1+       0.0000    0.0000   -0.0014   -0.0063
       14 O1     3d2+      -0.0000   -0.0000   -0.0000   -0.0000
       15 FE2    1s         0.0000    0.0000   -0.0000    0.0000
       16 FE2    2s         0.0001   -0.0001   -0.0000    0.0000
       17 FE2    3s         0.0004   -0.0044   -0.0000    0.0000
       18 FE2    4s         0.0099    0.3766   -0.0000    0.0000
       19 FE2    5s        -0.0019    0.9376   -0.0000    0.0000
       20 FE2    2px        0.0000   -0.0000   -0.0000   -0.0000
       21 FE2    3px        0.0000    0.0000   -0.0002   -0.0010
       22 FE2    4px        0.0000    0.0000   -0.0051   -0.0225
       23 FE2    5px        0.0000   -0.0000    0.0006    0.0027
       24 FE2    2py       -0.0000    0.0000   -0.0000    0.0000
       25 FE2    3py       -0.0000   -0.0000   -0.0010    0.0002
       26 FE2    4py       -0.0000   -0.0000   -0.0225    0.0051
       27 FE2    5py       -0.0000    0.0000    0.0027   -0.0006
       28 FE2    2pz        0.0005    0.0000   -0.0000    0.0000
       29 FE2    3pz        0.0189    0.0005   -0.0000    0.0000
       30 FE2    4pz        1.0038    0.0121   -0.0000    0.0000
       31 FE2    5pz        0.0327   -0.0009    0.0000   -0.0000
       32 FE2    3d2-      -0.0000    0.0000   -0.0000    0.0000
       33 FE2    4d2-      -0.0000   -0.0000   -0.0000   -0.0000
       34 FE2    3d1-       0.0000    0.0000    0.0021   -0.0005
       35 FE2    4d1-       0.0000    0.0000    0.0217   -0.0049
       36 FE2    3d0        0.0003   -0.0003    0.0000   -0.0000
       37 FE2    4d0       -0.0018   -0.0042    0.0000   -0.0000
       38 FE2    3d1+       0.0000   -0.0000    0.0005    0.0021
       39 FE2    4d1+      -0.0000   -0.0000    0.0049    0.0217
       40 FE2    3d2+       0.0000    0.0000    0.0000    0.0000
       41 FE2    4d2+       0.0000   -0.0000    0.0000    0.0000
       42 FE2    4f3-      -0.0000    0.0000   -0.0000    0.0000
       43 FE2    4f2-       0.0000    0.0000    0.0000   -0.0000
       44 FE2    4f1-       0.0000    0.0000    0.0003   -0.0001
       45 FE2    4f0       -0.0001   -0.0001    0.0000   -0.0000
       46 FE2    4f1+      -0.0000   -0.0000    0.0001    0.0003
       47 FE2    4f2+       0.0000   -0.0000    0.0000    0.0000
       48 FE2    4f3+       0.0000    0.0000    0.0000    0.0000
--
 
 
  Input file to MOLDEN was generated!
 
 
++    Static properties:
      ------------------
 
 
      LoProp Charges per center
 

                   O1       FE2   
      Nuclear      8.0000  26.0000
      Electronic  -7.9981 -24.0019
 
      Total        0.0019   1.9981
--
 
 
      All orbitals with orbital energies smaller than  E(LUMO)+0.5 are printed
 
++    Molecular orbitals:
      -------------------
 
      Title: UHF orbitals (beta)

      Molecular orbitals for symmetry species 1: a  
 
          Orbital            1         2         3         4         5         6         7         8         9        10    
          Energy         -264.6073  -33.3161  -28.3842  -28.3842  -28.3842  -20.9583   -4.9668   -3.4184   -3.4184   -3.4184
          Occ. No.          1.0000    1.0000    1.0000    1.0000    1.0000    1.0000    1.0000    1.0000    1.0000    1.0000
 
        1 O1     1s        -0.0000    0.0000    0.0000    0.0000    0.0000    1.0000   -0.0000    0.0000   -0.0000    0.0000
        2 O1     2s        -0.0000    0.0000    0.0000    0.0000    0.0000    0.0019   -0.0002    0.0000   -0.0000    0.0002
        3 O1     3s        -0.0000    0.0000    0.0000    0.0000    0.0001   -0.0017   -0.0002    0.0000   -0.0000    0.0002
        4 O1     2px        0.0000    0.0000    0.0000    0.0000   -0.0000    0.0000   -0.0000    0.0000    0.0000    0.0000
        5 O1     3px       -0.0000   -0.0000    0.0000    0.0000   -0.0000   -0.0000    0.0000    0.0000    0.0001    0.0000
        6 O1     2py       -0.0000    0.0000   -0.0000    0.0000   -0.0000    0.0000   -0.0000    0.0000   -0.0000   -0.0000
        7 O1     3py       -0.0000   -0.0000   -0.0000    0.0000   -0.0000   -0.0000   -0.0000    0.0001   -0.0000   -0.0000
        8 O1     2pz        0.0000   -0.0000   -0.0000   -0.0000   -0.0000   -0.0001    0.0001   -0.0000    0.0000   -0.0002
        9 O1     3pz        0.0000   -0.0000   -0.0000   -0.0000   -0.0001    0.0001    0.0001   -0.0000    0.0000   -0.0005
       10 O1     3d2-      -0.0000   -0.0000   -0.0000   -0.0000   -0.0000   -0.0000   -0.0000   -0.0000   -0.0000   -0.0000
       11 O1     3d1-      -0.0000   -0.0000    0.0000   -0.0000    0.0000   -0.0000   -0.0000   -0.0000    0.0000    0.0000
       12 O1     3d0        0.0000   -0.0000    0.0000    0.0000    0.0000   -0.0004    0.0000    0.0000    0.0000    0.0000
       13 O1     3d1+       0.0000    0.0000   -0.0000   -0.0000    0.0000    0.0000    0.0000   -0.0000   -0.0000   -0.0000
       14 O1     3d2+       0.0000    0.0000   -0.0000   -0.0000    0.0000    0.0000    0.0000    0.0000    0.0000    0.0000
       15 FE2    1s         1.0000   -0.0000   -0.0000   -0.0000   -0.0000    0.0000    0.0000    0.0000    0.0000   -0.0000
       16 FE2    2s         0.0000    1.0000   -0.0000   -0.0000   -0.0000    0.0000    0.0011   -0.0000   -0.0000   -0.0000
       17 FE2    3s        -0.0000   -0.0011    0.0000    0.0000   -0.0000    0.0000    1.0000   -0.0000    0.0000   -0.0002
       18 FE2    4s         0.0000    0.0002   -0.0000   -0.0000   -0.0000    0.0000   -0.0027   -0.0000    0.0000   -0.0001
       19 FE2    5s        -0.0000   -0.0002   -0.0000   -0.0000   -0.0000    0.0001    0.0033   -0.0000    0.0000   -0.0001
       20 FE2    2px       -0.0000   -0.0000    0.9977    0.0680   -0.0000   -0.0000   -0.0000    0.0004    0.0032    0.0000
       21 FE2    3px       -0.0000    0.0000   -0.0032   -0.0002    0.0000    0.0000    0.0000    0.1183    0.9929    0.0000
       22 FE2    4px       -0.0000   -0.0000    0.0004    0.0000   -0.0000    0.0000    0.0000   -0.0014   -0.0114   -0.0000
       23 FE2    5px        0.0000    0.0000   -0.0011   -0.0001    0.0000    0.0000    0.0000    0.0007    0.0055    0.0000
       24 FE2    2py        0.0000   -0.0000   -0.0680    0.9977   -0.0000   -0.0000   -0.0000    0.0032   -0.0004   -0.0000
       25 FE2    3py       -0.0000    0.0000    0.0002   -0.0032    0.0000   -0.0000   -0.0000    0.9929   -0.1183   -0.0000
       26 FE2    4py        0.0000   -0.0000   -0.0000    0.0004   -0.0000   -0.0000   -0.0000   -0.0114    0.0014    0.0000
       27 FE2    5py       -0.0000   -0.0000    0.0001   -0.0011    0.0000    0.0000   -0.0000    0.0055   -0.0007   -0.0000
       28 FE2    2pz        0.0000    0.0000    0.0000    0.0000    1.0000    0.0000   -0.0000    0.0000   -0.0000    0.0032
       29 FE2    3pz       -0.0000    0.0000   -0.0000   -0.0000   -0.0032    0.0000    0.0002    0.0000   -0.0000    0.9999
       30 FE2    4pz        0.0000   -0.0000    0.0000    0.0000    0.0004    0.0001    0.0000   -0.0000    0.0000   -0.0116
       31 FE2    5pz       -0.0000   -0.0000   -0.0000   -0.0000   -0.0011    0.0001    0.0000    0.0000   -0.0000    0.0055
       32 FE2    3d2-      -0.0000   -0.0000   -0.0000   -0.0000    0.0000   -0.0000    0.0000   -0.0000   -0.0000    0.0000
       33 FE2    4d2-       0.0000   -0.0000    0.0000    0.0000    0.0000    0.0000   -0.0000    0.0000   -0.0000   -0.0000
       34 FE2    3d1-       0.0000    0.0000   -0.0000    0.0000   -0.0000    0.0000    0.0000    0.0001   -0.0000   -0.0000
       35 FE2    4d1-      -0.0000   -0.0000    0.0000   -0.0000    0.0000   -0.0000   -0.0000   -0.0000    0.0000    0.0000
       36 FE2    3d0        0.0000   -0.0000   -0.0000    0.0000   -0.0000    0.0000   -0.0000    0.0000   -0.0000    0.0001
       37 FE2    4d0        0.0000   -0.0000   -0.0000   -0.0000   -0.0000    0.0000    0.0000   -0.0000    0.0000   -0.0001
       38 FE2    3d1+       0.0000   -0.0000    0.0000    0.0000   -0.0000    0.0000   -0.0000    0.0000    0.0001   -0.0000
       39 FE2    4d1+       0.0000   -0.0000   -0.0000   -0.0000    0.0000    0.0000    0.0000   -0.0000   -0.0000   -0.0000
       40 FE2    3d2+      -0.0000   -0.0000    0.0000    0.0000    0.0000    0.0000   -0.0000    0.0000   -0.0000    0.0000
       41 FE2    4d2+       0.0000    0.0000   -0.0000   -0.0000   -0.0000   -0.0000    0.0000   -0.0000    0.0000   -0.0000
       42 FE2    4f3-       0.0000   -0.0000   -0.0000    0.0000    0.0000   -0.0000    0.0000    0.0000   -0.0000    0.0000
       43 FE2    4f2-       0.0000    0.0000   -0.0000   -0.0000    0.0000    0.0000    0.0000    0.0000    0.0000   -0.0000
       44 FE2    4f1-       0.0000   -0.0000    0.0000   -0.0000    0.0000   -0.0000    0.0000   -0.0000    0.0000    0.0000
       45 FE2    4f0        0.0000   -0.0000   -0.0000   -0.0000   -0.0000    0.0000   -0.0000   -0.0000   -0.0000   -0.0000
       46 FE2    4f1+      -0.0000   -0.0000   -0.0000   -0.0000    0.0000    0.0000   -0.0000   -0.0000   -0.0000   -0.0000
       47 FE2    4f2+      -0.0000    0.0000   -0.0000    0.0000   -0.0000    0.0000   -0.0000   -0.0000   -0.0000    0.0000
       48 FE2    4f3+      -0.0000   -0.0000   -0.0000    0.0000    0.0000    0.0000   -0.0000    0.0000    0.0000   -0.0000
 
          Orbital           11        12        13        14        15        16        17        18        19        20    
          Energy           -1.6598   -0.9498   -0.9498   -0.8521   -0.5724   -0.5704   -0.5704   -0.5702   -0.5702   -0.5701
          Occ. No.          1.0000    1.0000    1.0000    1.0000    0.0000    0.0000    0.0000    0.0000    0.0000    0.0000
 
        1 O1     1s        -0.0019   -0.0000   -0.0000    0.0001    0.0000    0.0000   -0.0000   -0.0000   -0.0000   -0.0004
        2 O1     2s         0.9994    0.0000    0.0000    0.0171   -0.0023    0.0000   -0.0000   -0.0000   -0.0000   -0.0054
        3 O1     3s        -0.0287   -0.0000   -0.0000   -0.0126    0.0016    0.0000   -0.0000   -0.0000   -0.0000   -0.0018
        4 O1     2px        0.0000    0.1504    0.9874   -0.0000   -0.0000    0.0000    0.0000    0.0014   -0.0021   -0.0000
        5 O1     3px       -0.0000   -0.0074   -0.0485    0.0000   -0.0000    0.0000    0.0000    0.0008   -0.0013   -0.0000
        6 O1     2py       -0.0000    0.9874   -0.1504    0.0000    0.0000   -0.0000   -0.0000   -0.0021   -0.0014    0.0000
        7 O1     3py       -0.0000   -0.0485    0.0074   -0.0000    0.0000   -0.0000   -0.0000   -0.0013   -0.0008    0.0000
        8 O1     2pz       -0.0175   -0.0000    0.0000    0.9990    0.0248   -0.0000    0.0000    0.0000    0.0000    0.0192
        9 O1     3pz       -0.0040    0.0000   -0.0000   -0.0087   -0.0007   -0.0000    0.0000    0.0000    0.0000    0.0037
       10 O1     3d2-      -0.0000    0.0000    0.0000    0.0000    0.0000   -0.0000   -0.0000   -0.0000   -0.0000    0.0000
       11 O1     3d1-      -0.0000   -0.0060    0.0009   -0.0000    0.0000    0.0000   -0.0000    0.0000    0.0000    0.0000
       12 O1     3d0       -0.0207    0.0000   -0.0000   -0.0082    0.0002    0.0000    0.0000   -0.0000    0.0000    0.0000
       13 O1     3d1+       0.0000   -0.0009   -0.0060    0.0000    0.0000   -0.0000   -0.0000   -0.0000    0.0000    0.0000
       14 O1     3d2+       0.0000   -0.0000    0.0000   -0.0000   -0.0000    0.0000   -0.0000   -0.0000    0.0000    0.0000
       15 FE2    1s        -0.0000    0.0000   -0.0000    0.0000   -0.0000   -0.0000    0.0000    0.0000    0.0000    0.0000
       16 FE2    2s        -0.0000   -0.0000    0.0000    0.0002   -0.0002   -0.0000    0.0000   -0.0000    0.0000   -0.0000
       17 FE2    3s        -0.0001   -0.0000    0.0000    0.0009    0.0035    0.0000    0.0000    0.0000    0.0000    0.0005
       18 FE2    4s        -0.0007    0.0000   -0.0000   -0.0102    0.9613    0.0000    0.0000    0.0000    0.0000    0.1216
       19 FE2    5s        -0.0015   -0.0000    0.0000    0.0022   -0.2456   -0.0000   -0.0000   -0.0000   -0.0000   -0.0302
       20 FE2    2px        0.0000   -0.0000   -0.0000   -0.0000   -0.0000    0.0000   -0.0000    0.0000   -0.0000   -0.0000
       21 FE2    3px        0.0000   -0.0000   -0.0001    0.0000   -0.0000    0.0000    0.0000    0.0001   -0.0001    0.0000
       22 FE2    4px        0.0000   -0.0000   -0.0003   -0.0000   -0.0000    0.0000   -0.0000   -0.0002    0.0003    0.0000
       23 FE2    5px        0.0000   -0.0000   -0.0002    0.0000   -0.0000    0.0000   -0.0000    0.0000   -0.0000   -0.0000
       24 FE2    2py       -0.0000   -0.0000    0.0000   -0.0000   -0.0000    0.0000   -0.0000   -0.0000   -0.0000   -0.0000
       25 FE2    3py        0.0000   -0.0001    0.0000    0.0000    0.0000   -0.0000   -0.0000   -0.0001   -0.0001    0.0000
       26 FE2    4py        0.0000   -0.0003    0.0000    0.0000    0.0000   -0.0000   -0.0000    0.0003    0.0002    0.0000
       27 FE2    5py        0.0000   -0.0002    0.0000   -0.0000    0.0000   -0.0000   -0.0000   -0.0000   -0.0000    0.0000
       28 FE2    2pz       -0.0000    0.0000    0.0000    0.0000    0.0000   -0.0000   -0.0000    0.0000    0.0000    0.0000
       29 FE2    3pz       -0.0001    0.0000    0.0000    0.0006   -0.0000    0.0000   -0.0000   -0.0000    0.0000   -0.0001
       30 FE2    4pz       -0.0009    0.0000   -0.0000   -0.0074   -0.0021    0.0000   -0.0000    0.0000   -0.0000   -0.0004
       31 FE2    5pz       -0.0005    0.0000   -0.0000   -0.0007   -0.0004   -0.0000   -0.0000    0.0000   -0.0000   -0.0001
       32 FE2    3d2-       0.0000    0.0000   -0.0000    0.0000   -0.0000    0.9913    0.0368   -0.0000   -0.0000    0.0000
       33 FE2    4d2-      -0.0000   -0.0000   -0.0000    0.0000   -0.0000    0.1266    0.0047   -0.0000   -0.0000    0.0000
       34 FE2    3d1-       0.0000    0.0002   -0.0000    0.0000    0.0000    0.0000    0.0000    0.8250    0.5508   -0.0000
       35 FE2    4d1-       0.0000   -0.0000    0.0000   -0.0000    0.0000    0.0000    0.0000    0.1053    0.0703   -0.0000
       36 FE2    3d0       -0.0000   -0.0000    0.0000   -0.0066   -0.1237   -0.0000    0.0000    0.0000    0.0000    0.9844
       37 FE2    4d0       -0.0003    0.0000   -0.0000   -0.0025   -0.0164   -0.0000    0.0000    0.0000    0.0000    0.1255
       38 FE2    3d1+       0.0000    0.0000    0.0002   -0.0000    0.0000   -0.0000   -0.0000   -0.5508    0.8250   -0.0000
       39 FE2    4d1+       0.0000   -0.0000   -0.0000   -0.0000    0.0000   -0.0000   -0.0000   -0.0703    0.1053   -0.0000
       40 FE2    3d2+       0.0000    0.0000   -0.0000    0.0000    0.0000   -0.0368    0.9913   -0.0000    0.0000   -0.0000
       41 FE2    4d2+      -0.0000    0.0000    0.0000    0.0000    0.0000   -0.0047    0.1266   -0.0000    0.0000   -0.0000
       42 FE2    4f3-       0.0000   -0.0000   -0.0000   -0.0000    0.0000    0.0000   -0.0000    0.0000   -0.0000    0.0000
       43 FE2    4f2-      -0.0000    0.0000   -0.0000   -0.0000   -0.0000    0.0001    0.0000   -0.0000   -0.0000    0.0000
       44 FE2    4f1-       0.0000    0.0000   -0.0000    0.0000    0.0000    0.0000   -0.0000    0.0000    0.0000   -0.0000
       45 FE2    4f0        0.0000    0.0000   -0.0000   -0.0001   -0.0000   -0.0000    0.0000    0.0000    0.0000    0.0000
       46 FE2    4f1+       0.0000    0.0000    0.0000    0.0000   -0.0000   -0.0000   -0.0000   -0.0000    0.0000   -0.0000
       47 FE2    4f2+       0.0000    0.0000    0.0000    0.0000    0.0000   -0.0000    0.0001   -0.0000    0.0000    0.0000
       48 FE2    4f3+      -0.0000   -0.0000    0.0000   -0.0000    0.0000    0.0000    0.0000    0.0000   -0.0000   -0.0000
 
          Orbital           21        22        23        24    
          Energy           -0.3909   -0.3909   -0.3893   -0.2246
          Occ. No.          0.0000    0.0000    0.0000    0.0000
 
        1 O1     1s        -0.0000    0.0000   -0.0025   -0.0064
        2 O1     2s        -0.0000    0.0000   -0.0315   -0.0703
        3 O1     3s        -0.0000    0.0000   -0.0064   -0.0125
        4 O1     2px        0.0013   -0.0076   -0.0000   -0.0000
        5 O1     3px        0.0002   -0.0012   -0.0000   -0.0000
        6 O1     2py       -0.0076   -0.0013    0.0000    0.0000
        7 O1     3py       -0.0012   -0.0002    0.0000    0.0000
        8 O1     2pz        0.0000   -0.0000    0.0515    0.0593
        9 O1     3pz        0.0000   -0.0000    0.0033    0.0123
       10 O1     3d2-      -0.0000    0.0000    0.0000    0.0000
       11 O1     3d1-      -0.0003   -0.0001    0.0000    0.0000
       12 O1     3d0        0.0000   -0.0000    0.0011    0.0009
       13 O1     3d1+       0.0001   -0.0003   -0.0000   -0.0000
       14 O1     3d2+      -0.0000   -0.0000   -0.0000   -0.0000
       15 FE2    1s         0.0000    0.0000    0.0000    0.0000
       16 FE2    2s         0.0000    0.0000    0.0000    0.0002
       17 FE2    3s         0.0000   -0.0000    0.0001   -0.0022
       18 FE2    4s        -0.0000    0.0000    0.0018    0.2520
       19 FE2    5s         0.0000   -0.0000   -0.0062    0.9761
       20 FE2    2px        0.0001   -0.0003   -0.0000   -0.0000
       21 FE2    3px       -0.0019    0.0108    0.0000    0.0000
       22 FE2    4px       -0.1727    0.9824    0.0000    0.0000
       23 FE2    5px       -0.0125    0.0712    0.0000   -0.0000
       24 FE2    2py       -0.0003   -0.0001    0.0000    0.0000
       25 FE2    3py        0.0108    0.0019   -0.0000   -0.0000
       26 FE2    4py        0.9824    0.1727   -0.0000   -0.0000
       27 FE2    5py        0.0712    0.0125   -0.0000    0.0000
       28 FE2    2pz       -0.0000    0.0000   -0.0003    0.0000
       29 FE2    3pz        0.0000   -0.0000    0.0111    0.0003
       30 FE2    4pz        0.0000   -0.0000    0.9999    0.0151
       31 FE2    5pz        0.0000   -0.0000    0.0720    0.0002
       32 FE2    3d2-       0.0000   -0.0000   -0.0000   -0.0000
       33 FE2    4d2-       0.0000    0.0000   -0.0000   -0.0000
       34 FE2    3d1-      -0.0002   -0.0000   -0.0000   -0.0000
       35 FE2    4d1-      -0.0000   -0.0000    0.0000    0.0000
       36 FE2    3d0        0.0000   -0.0000    0.0018    0.0018
       37 FE2    4d0       -0.0000   -0.0000   -0.0009   -0.0021
       38 FE2    3d1+       0.0000   -0.0002    0.0000    0.0000
       39 FE2    4d1+       0.0000   -0.0000   -0.0000   -0.0000
       40 FE2    3d2+       0.0000    0.0000    0.0000    0.0000
       41 FE2    4d2+      -0.0000   -0.0000    0.0000    0.0000
       42 FE2    4f3-       0.0000   -0.0000   -0.0000    0.0000
       43 FE2    4f2-      -0.0000    0.0000   -0.0000    0.0000
       44 FE2    4f1-      -0.0000   -0.0000    0.0000    0.0000
       45 FE2    4f0       -0.0000    0.0000   -0.0001   -0.0000
       46 FE2    4f1+       0.0000   -0.0000   -0.0000   -0.0000
       47 FE2    4f2+      -0.0000   -0.0000    0.0000   -0.0000
       48 FE2    4f3+       0.0000   -0.0000    0.0000    0.0000
--
 
 
++    Molecular charges:
      ------------------
 
      Mulliken charges per centre and basis function type
      ---------------------------------------------------
 
                            O1                      FE2   
                     alpha        beta       alpha        beta
      1s           1.0000      1.0000      1.0000      1.0000
      2s           0.9986      0.9989      1.0000      1.0000
      2px          0.0000      0.9976      1.0000      1.0000
      2pz          0.9932      0.9989      1.0000      1.0000
      2py          0.0000      0.9976      1.0000      1.0000
      3s           0.0008      0.0010      1.0000      1.0000
      3px          0.0000      0.0024      0.9993      0.9998
      3pz          0.0033      0.0001      0.9993      0.9998
      3py          0.0000      0.0024      0.9993      0.9998
      4s           0.0000      0.0000      0.8614      0.0004
      3d2+        -0.0000      0.0000      0.9814      0.0000
      3d1+        -0.0000      0.0000      0.9814      0.0000
      3d0          0.0009      0.0005      0.9814      0.0001
      3d1-        -0.0000      0.0000      0.9814      0.0000
      3d2-        -0.0000      0.0000      0.9814      0.0000
      4px          0.0000      0.0000      0.0004      0.0001
      4pz          0.0000      0.0000      0.0034      0.0005
      4py          0.0000      0.0000      0.0004      0.0001
      5s           0.0000      0.0000      0.1385     -0.0002
      4d2+         0.0000      0.0000      0.0186      0.0000
      4d1+         0.0000      0.0000      0.0186     -0.0000
      4d0          0.0000      0.0000      0.0189      0.0001
      4d1-         0.0000      0.0000      0.0186     -0.0000
      4d2-         0.0000      0.0000      0.0186      0.0000
      5px          0.0000      0.0000      0.0003      0.0000
      5pz          0.0000      0.0000      0.0004      0.0000
      5py          0.0000      0.0000      0.0003      0.0000
      4f3+         0.0000      0.0000      0.0000      0.0000
      4f2+         0.0000      0.0000      0.0000      0.0000
      4f1+         0.0000      0.0000      0.0000      0.0000
      4f0          0.0000      0.0000      0.0000      0.0000
      4f1-         0.0000      0.0000      0.0000      0.0000
      4f2-         0.0000      0.0000      0.0000      0.0000
      4f3-         0.0000      0.0000      0.0000      0.0000
      Total        2.9968      4.9993     15.0032      9.0007
      Total              7.9961                 24.0039
 
      Charge            0.0039                  1.9961
 
      Total electronic charge=   32.000000
 
      Total            charge=    2.000000
--
 
 
  Input file to MOLDEN was generated!
 
 
++    Static properties:
      ------------------
 
 
      LoProp Charges per center
 

                   O1       FE2   
      Nuclear      8.0000  26.0000
      Electronic  -7.9981 -24.0019
 
      Total        0.0019   1.9981
--
 
 
++    Natural Bond Order analysis
      ---------------------------
      Based on LoProp computed density
      -------------------------------------------------------------------------------------
      Atom A       Atom B       Bond Order
      -------------------------------------------------------------------------------------
      NBO located     20.000 core electrons.
      NBO located      3.991 lone pair electrons.
      NBO located      1.000 non-bonded electrons on atom FE2       
      NBO located      1.000 non-bonded electrons on atom FE2       
      NBO located      1.000 non-bonded electrons on atom FE2       
      NBO located      1.000 non-bonded electrons on atom FE2       
      NBO located      1.000 non-bonded electrons on atom FE2       
      NBO located      1.000 non-bonded electrons on atom FE2       
      The remaining    2.009 electrons are to be considered as diffuse
--
 
 
++    Molecular orbitals:
      -------------------
 
      Title: Natural orbitals

      Molecular orbitals for symmetry species 1: a  
 
          Orbital            1         2         3         4         5         6         7         8         9        10    
          Energy         -264.6113  -33.0530  -27.5225  -27.7094  -27.7085  -20.9936   -5.6233   -4.4720   -4.4613   -4.4604
          Occ. No.          2.0000    2.0000    2.0000    2.0000    2.0000    2.0000    2.0000    1.9999    1.9999    1.9999
 
        1 O1     1s         0.0000    0.0075    0.1574   -0.0000    0.0000    0.9848   -0.0655   -0.0029    0.0000   -0.0000
        2 O1     2s        -0.0000   -0.0002   -0.0051    0.0000   -0.0000   -0.0334    0.0005   -0.0037   -0.0000    0.0000
        3 O1     3s        -0.0000    0.0000   -0.0001    0.0000   -0.0000   -0.0005   -0.0004    0.0006   -0.0000    0.0000
        4 O1     2px        0.0000    0.0000   -0.0000   -0.0000   -0.0000    0.0000   -0.0000    0.0000   -0.0000   -0.0000
        5 O1     3px       -0.0000   -0.0000   -0.0000   -0.0000   -0.0000    0.0000    0.0000    0.0000    0.0000    0.0000
        6 O1     2py       -0.0000    0.0000    0.0000    0.0000   -0.0000    0.0000    0.0000   -0.0000   -0.0000    0.0000
        7 O1     3py       -0.0000    0.0000    0.0000    0.0000   -0.0000    0.0000   -0.0000   -0.0000    0.0000   -0.0000
        8 O1     2pz        0.0000   -0.0000    0.0023   -0.0000   -0.0000   -0.0017    0.0055   -0.0461    0.0000   -0.0000
        9 O1     3pz        0.0000   -0.0000    0.0001   -0.0000    0.0000    0.0002    0.0003   -0.0012   -0.0000   -0.0000
       10 O1     3d2-      -0.0000   -0.0000   -0.0000   -0.0000   -0.0000   -0.0000   -0.0000   -0.0000   -0.0000   -0.0000
       11 O1     3d1-      -0.0000    0.0000    0.0000   -0.0000    0.0000    0.0000   -0.0000    0.0000    0.0000   -0.0000
       12 O1     3d0        0.0000   -0.0000    0.0000   -0.0000    0.0000    0.0002   -0.0000    0.0004    0.0000    0.0000
       13 O1     3d1+       0.0000   -0.0000   -0.0000    0.0000    0.0000   -0.0000    0.0000   -0.0000    0.0000    0.0000
       14 O1     3d2+       0.0000    0.0000   -0.0000   -0.0000   -0.0000    0.0000    0.0000    0.0000    0.0000    0.0000
       15 FE2    1s         1.0000   -0.0000    0.0000    0.0000    0.0000    0.0000    0.0000   -0.0000   -0.0000    0.0000
       16 FE2    2s         0.0000    0.9939    0.0024   -0.0000    0.0000   -0.0006    0.1106    0.0009   -0.0000   -0.0000
       17 FE2    3s        -0.0000   -0.1103    0.0116    0.0000    0.0000    0.0649    0.9917    0.0059   -0.0000   -0.0000
       18 FE2    4s         0.0000    0.0005   -0.0000   -0.0000   -0.0000   -0.0001   -0.0022    0.0004   -0.0000    0.0000
       19 FE2    5s        -0.0000   -0.0006    0.0001    0.0000    0.0000    0.0003    0.0046   -0.0000   -0.0000   -0.0000
       20 FE2    2px       -0.0000    0.0000    0.0000    0.9824    0.0644   -0.0000   -0.0000    0.0000    0.0280    0.1729
       21 FE2    3px        0.0000   -0.0000   -0.0000   -0.1747   -0.0115    0.0000    0.0000   -0.0000    0.1573    0.9717
       22 FE2    4px       -0.0000    0.0000    0.0000    0.0026    0.0002   -0.0000   -0.0000    0.0000   -0.0024   -0.0149
       23 FE2    5px        0.0000   -0.0000   -0.0000   -0.0019   -0.0001    0.0000    0.0000   -0.0000    0.0019    0.0115
       24 FE2    2py       -0.0000   -0.0000    0.0000   -0.0644    0.9824   -0.0000   -0.0000    0.0000    0.1730   -0.0280
       25 FE2    3py        0.0000    0.0000   -0.0000    0.0114   -0.1748    0.0000    0.0000    0.0000    0.9717   -0.1573
       26 FE2    4py       -0.0000   -0.0000    0.0000   -0.0002    0.0026   -0.0000   -0.0000   -0.0000   -0.0149    0.0024
       27 FE2    5py        0.0000    0.0000   -0.0000    0.0001   -0.0019    0.0000    0.0000    0.0000    0.0115   -0.0019
       28 FE2    2pz       -0.0000   -0.0023    0.9719   -0.0000   -0.0000   -0.1550   -0.0026    0.1772   -0.0000    0.0000
       29 FE2    3pz       -0.0000    0.0002   -0.1746    0.0000    0.0000    0.0302   -0.0056    0.9829   -0.0000    0.0000
       30 FE2    4pz        0.0000   -0.0000    0.0026   -0.0000   -0.0000   -0.0004    0.0000   -0.0142    0.0000   -0.0000
       31 FE2    5pz       -0.0000   -0.0000   -0.0019    0.0000    0.0000    0.0003   -0.0000    0.0117   -0.0000    0.0000
       32 FE2    3d2-      -0.0000   -0.0000   -0.0000    0.0000    0.0000    0.0000    0.0000    0.0000   -0.0000   -0.0000
       33 FE2    4d2-       0.0000    0.0000    0.0000   -0.0000    0.0000   -0.0000   -0.0000   -0.0000   -0.0000    0.0000
       34 FE2    3d1-       0.0000    0.0000   -0.0000    0.0000   -0.0000    0.0000    0.0000   -0.0000    0.0001   -0.0000
       35 FE2    4d1-      -0.0000   -0.0000    0.0000   -0.0000    0.0000   -0.0000   -0.0000   -0.0000   -0.0000    0.0000
       36 FE2    3d0        0.0000    0.0000   -0.0000    0.0000    0.0000    0.0000   -0.0001    0.0005   -0.0000    0.0000
       37 FE2    4d0        0.0000   -0.0000    0.0000   -0.0000    0.0000    0.0000    0.0000    0.0001    0.0000    0.0000
       38 FE2    3d1+      -0.0000   -0.0000   -0.0000   -0.0000   -0.0000    0.0000    0.0000   -0.0000    0.0000    0.0001
       39 FE2    4d1+      -0.0000    0.0000    0.0000    0.0000    0.0000   -0.0000    0.0000    0.0000   -0.0000   -0.0000
       40 FE2    3d2+      -0.0000   -0.0000    0.0000    0.0000   -0.0000    0.0000   -0.0000    0.0000    0.0000   -0.0000
       41 FE2    4d2+       0.0000    0.0000   -0.0000   -0.0000   -0.0000   -0.0000    0.0000   -0.0000   -0.0000    0.0000
       42 FE2    4f3-       0.0000    0.0000   -0.0000    0.0000    0.0000    0.0000    0.0000    0.0000    0.0000   -0.0000
       43 FE2    4f2-       0.0000   -0.0000    0.0000   -0.0000   -0.0000    0.0000   -0.0000   -0.0000    0.0000    0.0000
       44 FE2    4f1-       0.0000   -0.0000    0.0000   -0.0000    0.0000   -0.0000    0.0000    0.0000   -0.0000    0.0000
       45 FE2    4f0        0.0000    0.0000    0.0000   -0.0000   -0.0000   -0.0000   -0.0000   -0.0000   -0.0000   -0.0000
       46 FE2    4f1+      -0.0000    0.0000    0.0000    0.0000    0.0000   -0.0000   -0.0000   -0.0000   -0.0000   -0.0000
       47 FE2    4f2+      -0.0000    0.0000   -0.0000   -0.0000    0.0000    0.0000   -0.0000    0.0000   -0.0000   -0.0000
       48 FE2    4f3+      -0.0000    0.0000    0.0000   -0.0000   -0.0000   -0.0000   -0.0000   -0.0000    0.0000    0.0000
 
          Orbital           11        12        13        14        15        16        17        18        19        20    
          Energy           -0.8609   -1.4556   -0.7933   -0.7933   -1.0823   -1.0823   -1.0822   -0.7578   -0.7929   -0.7929
          Occ. No.          1.9980    1.9974    1.0004    1.0004    1.0000    1.0000    1.0000    1.0000    0.9996    0.9996
 
        1 O1     1s        -0.0112   -0.0318    0.0000   -0.0000   -0.0000   -0.0000   -0.0001   -0.0008   -0.0000   -0.0000
        2 O1     2s        -0.2865   -0.9576    0.0000   -0.0000   -0.0000   -0.0000   -0.0009   -0.0065   -0.0000   -0.0000
        3 O1     3s         0.0135   -0.0003    0.0000   -0.0000   -0.0000   -0.0000   -0.0009   -0.0069   -0.0000   -0.0000
        4 O1     2px        0.0000   -0.0000   -0.2328    0.6669    0.0000   -0.0000    0.0000    0.0000   -0.2328   -0.6667
        5 O1     3px        0.0000   -0.0000    0.0111   -0.0319   -0.0000   -0.0000    0.0000   -0.0000    0.0115    0.0328
        6 O1     2py       -0.0000    0.0000    0.6669    0.2328   -0.0000   -0.0000   -0.0000   -0.0000    0.6667   -0.2328
        7 O1     3py       -0.0000    0.0000   -0.0319   -0.0111    0.0000    0.0000   -0.0000    0.0000   -0.0328    0.0115
        8 O1     2pz       -0.9552    0.2850   -0.0000   -0.0000   -0.0000   -0.0000   -0.0084   -0.0205   -0.0000   -0.0000
        9 O1     3pz       -0.0187    0.0113   -0.0000    0.0000    0.0000    0.0000    0.0003    0.0023    0.0000    0.0000
       10 O1     3d2-      -0.0000   -0.0000    0.0000    0.0000    0.0000   -0.0000   -0.0000   -0.0000    0.0000   -0.0000
       11 O1     3d1-       0.0000   -0.0000   -0.0041   -0.0014    0.0000    0.0000    0.0000   -0.0000   -0.0040    0.0014
       12 O1     3d0        0.0060   -0.0065   -0.0000   -0.0000    0.0000    0.0000   -0.0000    0.0001    0.0000    0.0000
       13 O1     3d1+      -0.0000    0.0000    0.0014   -0.0041   -0.0000    0.0000   -0.0000    0.0000    0.0014    0.0040
       14 O1     3d2+       0.0000   -0.0000   -0.0000   -0.0000   -0.0000   -0.0000   -0.0000    0.0000   -0.0000    0.0000
       15 FE2    1s        -0.0000    0.0000   -0.0000    0.0000    0.0000    0.0000   -0.0000    0.0000    0.0000    0.0000
       16 FE2    2s         0.0003   -0.0002   -0.0000    0.0000    0.0000    0.0000   -0.0000    0.0003    0.0000    0.0000
       17 FE2    3s         0.0032   -0.0023    0.0000   -0.0000   -0.0000   -0.0000   -0.0000   -0.0038   -0.0000   -0.0000
       18 FE2    4s         0.0100   -0.0019    0.0000   -0.0000   -0.0000   -0.0000    0.0004   -0.9278   -0.0000   -0.0000
       19 FE2    5s        -0.0007    0.0011   -0.0000    0.0000    0.0000    0.0000    0.0003    0.3723    0.0000    0.0000
       20 FE2    2px        0.0000   -0.0000    0.0000   -0.0000   -0.0000    0.0000    0.0000    0.0000    0.0000    0.0000
       21 FE2    3px       -0.0000   -0.0000    0.0000   -0.0001   -0.0000    0.0000   -0.0000    0.0000   -0.0000   -0.0000
       22 FE2    4px        0.0000   -0.0000    0.0001   -0.0004    0.0000    0.0000   -0.0000    0.0000    0.0000    0.0001
       23 FE2    5px       -0.0000   -0.0000    0.0000   -0.0001   -0.0000    0.0000   -0.0000    0.0000    0.0000    0.0001
       24 FE2    2py        0.0000   -0.0000   -0.0000   -0.0000    0.0000    0.0000    0.0000   -0.0000   -0.0000    0.0000
       25 FE2    3py       -0.0000   -0.0000   -0.0001   -0.0000    0.0000   -0.0000    0.0000   -0.0000    0.0000   -0.0000
       26 FE2    4py       -0.0000    0.0000   -0.0004   -0.0001   -0.0000    0.0000    0.0000   -0.0000   -0.0001    0.0000
       27 FE2    5py        0.0000   -0.0000   -0.0001   -0.0000    0.0000   -0.0000    0.0000   -0.0000   -0.0001    0.0000
       28 FE2    2pz       -0.0057    0.0012    0.0000   -0.0000   -0.0000   -0.0000    0.0000   -0.0000   -0.0000   -0.0000
       29 FE2    3pz       -0.0455    0.0098   -0.0000    0.0000    0.0000    0.0000    0.0001    0.0001    0.0000    0.0000
       30 FE2    4pz        0.0197   -0.0053   -0.0000    0.0000    0.0000    0.0000    0.0009    0.0091    0.0000    0.0000
       31 FE2    5pz        0.0007    0.0001   -0.0000    0.0000    0.0000    0.0000    0.0001    0.0005    0.0000    0.0000
       32 FE2    3d2-      -0.0000    0.0000    0.0000   -0.0000    0.9892   -0.0543   -0.0000   -0.0000   -0.0000    0.0000
       33 FE2    4d2-       0.0000    0.0000   -0.0000    0.0000   -0.1361    0.0075    0.0000    0.0000    0.0000   -0.0000
       34 FE2    3d1-      -0.0000    0.0000    0.6614    0.2309   -0.0000    0.0000   -0.0000    0.0000   -0.6613    0.2310
       35 FE2    4d1-      -0.0000   -0.0000   -0.0911   -0.0318    0.0000   -0.0000    0.0000   -0.0000    0.0911   -0.0318
       36 FE2    3d0        0.0081   -0.0023   -0.0000    0.0000    0.0000    0.0000   -0.9906    0.0001    0.0000    0.0000
       37 FE2    4d0        0.0031   -0.0010    0.0000   -0.0000    0.0000   -0.0000    0.1366    0.0013   -0.0000   -0.0000
       38 FE2    3d1+       0.0000   -0.0000   -0.2309    0.6614    0.0000   -0.0000    0.0000   -0.0000    0.2310    0.6613
       39 FE2    4d1+       0.0000   -0.0000    0.0318   -0.0911   -0.0000    0.0000   -0.0000    0.0000   -0.0318   -0.0911
       40 FE2    3d2+       0.0000   -0.0000    0.0000   -0.0000   -0.0543   -0.9892   -0.0000    0.0000   -0.0000   -0.0000
       41 FE2    4d2+      -0.0000    0.0000   -0.0000    0.0000    0.0075    0.1361    0.0000   -0.0000    0.0000    0.0000
       42 FE2    4f3-       0.0000   -0.0000    0.0000   -0.0000   -0.0000    0.0000   -0.0000   -0.0000   -0.0000    0.0000
       43 FE2    4f2-       0.0000   -0.0000    0.0000   -0.0000    0.0000   -0.0000   -0.0000   -0.0000    0.0000   -0.0000
       44 FE2    4f1-      -0.0000   -0.0000    0.0000    0.0000   -0.0000    0.0000   -0.0000    0.0000   -0.0000    0.0000
       45 FE2    4f0        0.0001   -0.0001   -0.0000    0.0000    0.0000    0.0000   -0.0000    0.0000    0.0000    0.0000
       46 FE2    4f1+      -0.0000   -0.0000   -0.0000    0.0000   -0.0000   -0.0000    0.0000   -0.0000    0.0000    0.0000
       47 FE2    4f2+      -0.0000   -0.0000   -0.0000    0.0000   -0.0000   -0.0000   -0.0000    0.0000   -0.0000   -0.0000
       48 FE2    4f3+       0.0000    0.0000    0.0000    0.0000    0.0000   -0.0000    0.0000   -0.0000   -0.0000   -0.0000
 
          Orbital           21        22        23        24        25        26        27        28        29        30    
          Energy            1.1579    0.2942    0.9496    0.9496    1.0340   -0.2041    0.8676   -0.0362   -0.0362    0.5385
          Occ. No.          0.0026    0.0020    0.0001    0.0001    0.0001    0.0000    0.0000    0.0000    0.0000    0.0000
 
        1 O1     1s        -0.0002    0.0010   -0.0000    0.0000   -0.0024    0.0066   -0.0035   -0.0000    0.0000   -0.0029
        2 O1     2s        -0.0072    0.0172   -0.0000    0.0000   -0.0276    0.0745   -0.0412   -0.0000    0.0000   -0.0357
        3 O1     3s         0.6654    0.2079   -0.0000    0.0000   -0.0416    0.1467   -0.6325    0.0000   -0.0000    0.3528
        4 O1     2px       -0.0000    0.0000    0.0009   -0.0051    0.0000    0.0000   -0.0000    0.0037   -0.0141   -0.0000
        5 O1     3px        0.0000   -0.0000    0.0031   -0.0167    0.0000    0.0000   -0.0000    0.0192   -0.0734   -0.0000
        6 O1     2py        0.0000   -0.0000   -0.0051   -0.0009   -0.0000   -0.0000   -0.0000   -0.0141   -0.0037    0.0000
        7 O1     3py       -0.0000    0.0000   -0.0167   -0.0031   -0.0000   -0.0000    0.0000   -0.0734   -0.0192    0.0000
        8 O1     2pz        0.0305   -0.0406    0.0000   -0.0000    0.0140   -0.0624    0.0457    0.0000   -0.0000    0.0538
        9 O1     3pz       -0.2514    0.8296    0.0000    0.0000   -0.1382   -0.1969    0.3204   -0.0000   -0.0000    0.4337
       10 O1     3d2-       0.0000    0.0000   -0.0000    0.0000   -0.0000    0.0000   -0.0000   -0.0000   -0.0000    0.0000
       11 O1     3d1-       0.0000    0.0000    0.0015    0.0003   -0.0000    0.0000    0.0000    0.0112    0.0029   -0.0000
       12 O1     3d0        0.6735    0.2397    0.0000    0.0000   -0.0165    0.0178    0.5248   -0.0000    0.0000   -0.4433
       13 O1     3d1+      -0.0000   -0.0000   -0.0003    0.0015    0.0000   -0.0000   -0.0000   -0.0029    0.0112    0.0000
       14 O1     3d2+      -0.0000   -0.0000    0.0000   -0.0000    0.0000   -0.0000    0.0000    0.0000   -0.0000   -0.0000
       15 FE2    1s        -0.0001    0.0002    0.0000    0.0000   -0.0000   -0.0001    0.0001   -0.0000   -0.0000    0.0001
       16 FE2    2s        -0.0006    0.0018    0.0000   -0.0000   -0.0003   -0.0004    0.0008   -0.0000   -0.0000    0.0009
       17 FE2    3s        -0.0035    0.0095    0.0000    0.0000   -0.0016    0.0010    0.0041   -0.0000   -0.0000    0.0047
       18 FE2    4s        -0.0190    0.0472    0.0000   -0.0000   -0.0061   -0.3985    0.0473   -0.0000   -0.0000    0.0595
       19 FE2    5s         0.0272   -0.0401    0.0000   -0.0000    0.0229   -0.9524    0.0335   -0.0000   -0.0000    0.0452
       20 FE2    2px       -0.0000    0.0000    0.0000   -0.0002   -0.0000   -0.0000    0.0000    0.0000   -0.0000    0.0000
       21 FE2    3px       -0.0000    0.0000    0.0033   -0.0177   -0.0000   -0.0000   -0.0000   -0.0018    0.0069    0.0000
       22 FE2    4px        0.0000   -0.0000    0.0935   -0.5067   -0.0000    0.0000   -0.0000   -0.2167    0.8304    0.0000
       23 FE2    5px        0.0000    0.0000   -0.1555    0.8428    0.0000    0.0000   -0.0000   -0.1307    0.5009    0.0000
       24 FE2    2py        0.0000   -0.0000   -0.0002   -0.0000    0.0000    0.0000   -0.0000   -0.0000   -0.0000   -0.0000
       25 FE2    3py       -0.0000    0.0000   -0.0177   -0.0033    0.0000   -0.0000   -0.0000    0.0069    0.0018    0.0000
       26 FE2    4py       -0.0000    0.0000   -0.5067   -0.0935    0.0000   -0.0000   -0.0000    0.8304    0.2167    0.0000
       27 FE2    5py       -0.0000   -0.0000    0.8428    0.1555   -0.0000   -0.0000   -0.0000    0.5009    0.1307    0.0000
       28 FE2    2pz       -0.0001    0.0002   -0.0000    0.0000   -0.0002   -0.0001    0.0001   -0.0000   -0.0000    0.0001
       29 FE2    3pz       -0.0006   -0.0000   -0.0000    0.0000   -0.0181   -0.0014    0.0068    0.0000   -0.0000    0.0081
       30 FE2    4pz        0.1050   -0.3517   -0.0000    0.0000   -0.4448    0.0136    0.5268    0.0000   -0.0000    0.6560
       31 FE2    5pz        0.0061   -0.0001    0.0000   -0.0000    0.8799    0.0097    0.3203    0.0000   -0.0000    0.3917
       32 FE2    3d2-      -0.0000    0.0000   -0.0000    0.0000   -0.0000    0.0000   -0.0000   -0.0000    0.0000    0.0000
       33 FE2    4d2-      -0.0000   -0.0000   -0.0000    0.0000   -0.0000    0.0000   -0.0000   -0.0000    0.0000    0.0000
       34 FE2    3d1-      -0.0000   -0.0000   -0.0001   -0.0000    0.0000   -0.0000   -0.0000    0.0020    0.0005    0.0000
       35 FE2    4d1-      -0.0000    0.0000   -0.0005   -0.0001   -0.0000   -0.0000   -0.0000    0.0124    0.0032    0.0000
       36 FE2    3d0       -0.0008    0.0032    0.0000    0.0000   -0.0003   -0.0041    0.0236    0.0000    0.0000   -0.0057
       37 FE2    4d0        0.0120   -0.0112   -0.0000    0.0000    0.0059   -0.0183    0.1519    0.0000    0.0000   -0.0632
       38 FE2    3d1+       0.0000    0.0000    0.0000   -0.0001   -0.0000   -0.0000    0.0000   -0.0005    0.0020    0.0000
       39 FE2    4d1+       0.0000   -0.0000    0.0001   -0.0005   -0.0000    0.0000    0.0000   -0.0032    0.0124    0.0000
       40 FE2    3d2+       0.0000   -0.0000   -0.0000   -0.0000   -0.0000    0.0000   -0.0000   -0.0000    0.0000    0.0000
       41 FE2    4d2+      -0.0000    0.0000   -0.0000   -0.0000   -0.0000    0.0000   -0.0000   -0.0000    0.0000    0.0000
       42 FE2    4f3-      -0.0000   -0.0000   -0.0000    0.0000   -0.0000    0.0000   -0.0000    0.0000   -0.0000    0.0000
       43 FE2    4f2-       0.0000    0.0000    0.0000   -0.0000   -0.0000   -0.0000   -0.0000   -0.0000    0.0000    0.0000
       44 FE2    4f1-      -0.0000    0.0000   -0.0000   -0.0000   -0.0000   -0.0000   -0.0000    0.0007    0.0002   -0.0000
       45 FE2    4f0        0.0005   -0.0008   -0.0000    0.0000    0.0001   -0.0016    0.0086    0.0000    0.0000   -0.0016
       46 FE2    4f1+       0.0000   -0.0000    0.0000   -0.0000    0.0000   -0.0000    0.0000   -0.0002    0.0007    0.0000
       47 FE2    4f2+       0.0000    0.0000    0.0000    0.0000   -0.0000   -0.0000   -0.0000    0.0000    0.0000    0.0000
       48 FE2    4f3+       0.0000    0.0000   -0.0000    0.0000    0.0000    0.0000    0.0000   -0.0000    0.0000   -0.0000
 
          Orbital           31        32        33        34        35        36        37        38        39        40    
          Energy            0.3835    0.3362    0.2894    0.3424    0.2833    0.2702    0.2704    3.0379    1.8889    1.8772
          Occ. No.          0.0000    0.0000    0.0000    0.0000    0.0000    0.0000    0.0000    0.0000    0.0000    0.0000
 
        1 O1     1s         0.0017    0.0000    0.0000   -0.0000   -0.0000    0.0000   -0.0000   -0.0002   -0.0000   -0.0000
        2 O1     2s         0.0227    0.0000    0.0000   -0.0000   -0.0000    0.0000   -0.0000   -0.0029   -0.0000   -0.0000
        3 O1     3s        -0.0571   -0.0000   -0.0000    0.0000    0.0000   -0.0000    0.0000    0.0062    0.0000    0.0000
        4 O1     2px       -0.0000   -0.0052    0.0013   -0.0460   -0.0172   -0.0000   -0.0001   -0.0000   -0.0035    0.0051
        5 O1     3px       -0.0000   -0.1126    0.0377   -0.9765   -0.1695    0.0003   -0.0020   -0.0000   -0.0294    0.0233
        6 O1     2py        0.0000   -0.0449   -0.0202    0.0042    0.0002    0.0000    0.0001    0.0000    0.0074    0.0034
        7 O1     3py        0.0000   -0.9648   -0.2356    0.1019   -0.0051   -0.0003    0.0005    0.0000    0.0418    0.0147
        8 O1     2pz       -0.0371   -0.0000   -0.0000    0.0000    0.0000   -0.0000    0.0000    0.0039    0.0000    0.0000
        9 O1     3pz       -0.1064   -0.0000   -0.0000    0.0000    0.0000   -0.0000    0.0000    0.0104    0.0000    0.0000
       10 O1     3d2-       0.0000   -0.0001   -0.0001    0.0004   -0.0003   -0.0031    0.0040   -0.0000    0.2144   -0.5275
       11 O1     3d1-      -0.0000    0.0388    0.0221   -0.0185   -0.0058    0.0004    0.0102   -0.0000    0.8873    0.4446
       12 O1     3d0        0.1308    0.0000    0.0000   -0.0000   -0.0000    0.0000   -0.0000   -0.0140   -0.0000   -0.0000
       13 O1     3d1+       0.0000   -0.0020   -0.0046    0.0446    0.0169   -0.0003   -0.0031    0.0000   -0.3345    0.6566
       14 O1     3d2+      -0.0000    0.0001    0.0001   -0.0006    0.0012    0.0020   -0.0019    0.0000    0.2031   -0.3036
       15 FE2    1s        -0.0000   -0.0000   -0.0000    0.0000    0.0000   -0.0000    0.0000    0.0000    0.0000    0.0000
       16 FE2    2s        -0.0002   -0.0000   -0.0000    0.0000    0.0000   -0.0000    0.0000    0.0000    0.0000    0.0000
       17 FE2    3s        -0.0012   -0.0000   -0.0000    0.0000    0.0000   -0.0000    0.0000    0.0001    0.0000    0.0000
       18 FE2    4s        -0.0130   -0.0000   -0.0000    0.0000    0.0000   -0.0000    0.0000    0.0015    0.0000    0.0000
       19 FE2    5s        -0.0076   -0.0000   -0.0000    0.0000    0.0000   -0.0000    0.0000    0.0012    0.0000    0.0000
       20 FE2    2px        0.0000    0.0000   -0.0000    0.0001    0.0000   -0.0000    0.0000    0.0000    0.0000   -0.0000
       21 FE2    3px        0.0000    0.0001   -0.0000    0.0011    0.0001   -0.0000    0.0000    0.0000    0.0000   -0.0000
       22 FE2    4px       -0.0000   -0.0006   -0.0001   -0.0070   -0.0098   -0.0000   -0.0000   -0.0000    0.0009   -0.0022
       23 FE2    5px       -0.0000   -0.0003   -0.0000   -0.0036   -0.0041   -0.0000   -0.0000   -0.0000    0.0002   -0.0006
[...]
 ATVX     -0.01839720 -0.01839720
 AIVX     -0.17101636 -0.17101636
 VJAIP    -0.01462370 -0.01462370
 VJAIM    -0.00319301 -0.00319301
 BVATP    -0.02134328 -0.02134328
 BVATM    -0.05451018 -0.05451018
 BJATP    -0.01258773 -0.01258773
 BJATM    -0.00906036 -0.00906036
 BJAIP    -0.03166981 -0.03166981
 BJAIM    -0.01463546 -0.01463546
 Summed:  -0.38168395 -0.38168395
 
      Reference energy:       -1345.4479339017
      E2 (Non-variational):      -0.3816839540
      E2 (Variational):          -0.3816839767
      Total energy:           -1345.8296178784
      Residual norm:              0.0000005263
      Reference weight:           0.93824
 
      Contributions to the CASPT2 correlation energy
      Active & Virtual Only:         -0.0942506603
      One Inactive Excited:          -0.1943369384
      Two Inactive Excited:          -0.0930963552
 
 
++ Denominators, etc.
----------------------------------------------------------------------------------------------------
 Report on small energy denominators, large coefficients, and large energy contributions.
CASE  SYMM ACTIVE-MIX  NON-ACTIVE INDICES          DENOMINATOR     RHS VALUE       COEFFICIENT     CONTRIBUTION
VJTU     1  Mu1.0001  In1.011                       0.29654391      0.00000000      0.00000000      0.00000000
VJTU     1  Mu1.0002  In1.011                       0.29654992      0.00000000      0.00000000      0.00000000
VJTU     1  Mu1.0003  In1.011                       0.29680482      0.00000065      0.00000173      0.00000000
VJTU     1  Mu1.0004  In1.011                       0.29681295     -0.00000148     -0.00000390      0.00000000
ATVX     1  Mu1.0001  Se1.026                      -0.21301973     -0.00000000     -0.00000000      0.00000000
ATVX     1  Mu1.0002  Se1.026                      -0.19548073     -0.00000000      0.00000000     -0.00000000
ATVX     1  Mu1.0003  Se1.026                      -0.19547465      0.00000000      0.00000000      0.00000000
ATVX     1  Mu1.0004  Se1.026                      -0.15755758     -0.00000000     -0.00000000      0.00000000
ATVX     1  Mu1.0005  Se1.026                      -0.09549330      0.00000000      0.00000000      0.00000000
ATVX     1  Mu1.0006  Se1.026                      -0.09549326     -0.00000000     -0.00000000      0.00000000
ATVX     1  Mu1.0007  Se1.026                       0.16839602      0.00000000     -0.00000000     -0.00000000
ATVX     1  Mu1.0008  Se1.026                       0.16839602     -0.00000000     -0.00000000      0.00000000
ATVX     1  Mu1.0009  Se1.026                       0.17981217     -0.00000000     -0.00000000      0.00000000
ATVX     1  Mu1.0010  Se1.026                       0.17981218      0.00000000     -0.00000000     -0.00000000
ATVX     1  Mu1.0011  Se1.026                       0.18415900     -0.00000221      0.00006346     -0.00000000
ATVX     1  Mu1.0012  Se1.026                       0.18417329     -0.00000982      0.00028163     -0.00000000
ATVX     1  Mu1.0013  Se1.026                       0.18748407     -0.00000000      0.00000001     -0.00000000
ATVX     1  Mu1.0014  Se1.026                       0.18749118     -0.00000000      0.00000001     -0.00000000
ATVX     1  Mu1.0015  Se1.026                       0.19534613      0.00000375     -0.00003340     -0.00000000
ATVX     1  Mu1.0016  Se1.026                       0.19548265      0.00000009     -0.00000080     -0.00000000
ATVX     1  Mu1.0017  Se1.026                       0.20140081      0.00000098      0.00000282      0.00000000
ATVX     1  Mu1.0018  Se1.026                       0.20141882      0.00000017      0.00000049      0.00000000
ATVX     1  Mu1.0019  Se1.026                       0.20244362      0.00000000     -0.00000000     -0.00000000
ATVX     1  Mu1.0020  Se1.026                       0.20245109     -0.00000000      0.00000000     -0.00000000
ATVX     1  Mu1.0021  Se1.026                       0.20479727      0.00000000     -0.00000000     -0.00000000
ATVX     1  Mu1.0022  Se1.026                       0.20479739      0.00000000     -0.00000000     -0.00000000
ATVX     1  Mu1.0023  Se1.026                       0.21409935      0.00000000     -0.00000000     -0.00000000
ATVX     1  Mu1.0024  Se1.026                       0.21424318      0.00000000      0.00000000      0.00000000
ATVX     1  Mu1.0025  Se1.026                       0.21746417     -0.00000000      0.00000000     -0.00000000
ATVX     1  Mu1.0026  Se1.026                       0.21747690     -0.00000000      0.00000000     -0.00000000
ATVX     1  Mu1.0027  Se1.026                       0.21768971      0.00000000     -0.00000000     -0.00000000
ATVX     1  Mu1.0028  Se1.026                       0.22651192      0.00000000     -0.00000000     -0.00000000
ATVX     1  Mu1.0029  Se1.026                       0.22651193     -0.00000000      0.00000000     -0.00000000
ATVX     1  Mu1.0030  Se1.026                       0.23778618     -0.00000000     -0.00000000      0.00000000
ATVX     1  Mu1.0031  Se1.026                       0.23779786      0.00000000     -0.00000000     -0.00000000
ATVX     1  Mu1.0032  Se1.026                       0.25038630     -0.00000000     -0.00000000      0.00000000
ATVX     1  Mu1.0033  Se1.026                       0.25040010      0.00000000     -0.00000000     -0.00000000
ATVX     1  Mu1.0034  Se1.026                       0.25096180     -0.00000687      0.00001972     -0.00000000
ATVX     1  Mu1.0035  Se1.026                       0.25096806     -0.00000546      0.00001568     -0.00000000
ATVX     1  Mu1.0036  Se1.026                       0.25452576      0.00000000     -0.00000000     -0.00000000
ATVX     1  Mu1.0037  Se1.026                       0.25453215      0.00000000     -0.00000000     -0.00000000
ATVX     1  Mu1.0038  Se1.026                       0.25693966     -0.00000000      0.00000000     -0.00000000
ATVX     1  Mu1.0039  Se1.026                       0.25700811      0.00000000     -0.00000000     -0.00000000
ATVX     1  Mu1.0040  Se1.026                       0.26617371     -0.00099816      0.00363857     -0.00000363
ATVX     1  Mu1.0041  Se1.026                       0.27581972      0.00000069     -0.00000285     -0.00000000
ATVX     1  Mu1.0042  Se1.026                       0.27597876      0.00000001     -0.00000005     -0.00000000
ATVX     1  Mu1.0043  Se1.026                       0.28868846     -0.00000000      0.00000000     -0.00000000
ATVX     1  Mu1.0044  Se1.026                       0.28868847      0.00000000     -0.00000000     -0.00000000
ATVX     1  Mu1.0001  Se1.027                      -0.05339855      0.00000000     -0.00000000     -0.00000000
ATVX     1  Mu1.0002  Se1.027                      -0.03585956     -0.00000000      0.00000000     -0.00000000
ATVX     1  Mu1.0003  Se1.027                      -0.03585348     -0.00000085      0.00003278     -0.00000000
ATVX     1  Mu1.0004  Se1.027                       0.00206360     -0.00000000     -0.00000000      0.00000000
ATVX     1  Mu1.0005  Se1.027                       0.06412787      0.00001244      0.00024898      0.00000000
ATVX     1  Mu1.0006  Se1.027                       0.06412791     -0.00003413     -0.00068322      0.00000002
ATVX     1  Mu1.0001  Se1.028                      -0.05339723     -0.00000000     -0.00000000      0.00000000
ATVX     1  Mu1.0002  Se1.028                      -0.03585823     -0.00000085      0.00003277     -0.00000000
ATVX     1  Mu1.0003  Se1.028                      -0.03585215      0.00000000     -0.00000000     -0.00000000
ATVX     1  Mu1.0004  Se1.028                       0.00206492      0.00000000     -0.00000000     -0.00000000
ATVX     1  Mu1.0005  Se1.028                       0.06412919     -0.00003413     -0.00068320      0.00000002
ATVX     1  Mu1.0006  Se1.028                       0.06412924     -0.00001244     -0.00024898      0.00000000
ATVX     1  Mu1.0001  Se1.029                      -0.03644452      0.00000000      0.00000000      0.00000000
ATVX     1  Mu1.0002  Se1.029                      -0.01890553      0.00000000     -0.00000000     -0.00000000
ATVX     1  Mu1.0003  Se1.029                      -0.01889945     -0.00000000     -0.00000000      0.00000000
ATVX     1  Mu1.0004  Se1.029                       0.01901763      0.00000000     -0.00000000     -0.00000000
ATVX     1  Mu1.0005  Se1.029                       0.08108190     -0.00000000      0.00000000     -0.00000000
ATVX     1  Mu1.0006  Se1.029                       0.08108194      0.00000000     -0.00000000     -0.00000000
ATVX     1  Mu1.0001  Se1.030                       0.12489953     -0.00000000      0.00000000     -0.00000000
ATVX     1  Mu1.0002  Se1.030                       0.14243852      0.00000000     -0.00000000     -0.00000000
ATVX     1  Mu1.0003  Se1.030                       0.14244460      0.00000000     -0.00000000     -0.00000000
ATVX     1  Mu1.0004  Se1.030                       0.18036168     -0.00000000      0.00000000     -0.00000000
ATVX     1  Mu1.0005  Se1.030                       0.24242595      0.00000000     -0.00000000     -0.00000000
ATVX     1  Mu1.0006  Se1.030                       0.24242599     -0.00000000      0.00000000     -0.00000000
ATVX     1  Mu1.0214  Se1.031                       2.19262526      0.06531459     -0.03103973     -0.00202735
ATVX     1  Mu1.0274  Se1.031                       2.29025272      0.06346617     -0.02812031     -0.00178469
ATVX     1  Mu1.0215  Se1.032                       2.19262530      0.06531457     -0.03103972     -0.00202735
ATVX     1  Mu1.0275  Se1.032                       2.29025277      0.06346617     -0.02812031     -0.00178469
AIVX     1  Mu1.0169  In1.009 Se1.034               6.56458349     -0.17844913      0.02718382     -0.00485093
AIVX     1  Mu1.0169  In1.010 Se1.035               6.56458572     -0.17845060      0.02718404     -0.00485101
AIVX     1  Mu1.0027  In1.011 Se1.037               3.47386908      0.11870611     -0.03278203     -0.00389143
AIVX     1  Mu1.0057  In1.011 Se1.038               3.72381512      0.14788260     -0.03818275     -0.00564656
AIVX     1  Mu1.0031  In1.011 Se1.041               3.52298539     -0.10021018      0.02723352     -0.00272908
BVATM    1  Mu1.0001  Se1.032 Se1.031               1.96829482      0.07147254     -0.03660936     -0.00261656
BVATM    1  Mu1.0001  Se1.038 Se1.037               5.01116559     -0.12967053      0.02587633     -0.00335540
BJATP    1  Mu1.0002  In1.011 Se1.033 Se1.031       2.96471005      0.08220709     -0.02759145     -0.00226821
BJATP    1  Mu1.0001  In1.011 Se1.033 Se1.032       2.96471008     -0.08220710      0.02759145     -0.00226821
BJATM    1  Mu1.0002  In1.011 Se1.033 Se1.031       2.96471005     -0.07788044      0.02814617     -0.00219204
BJATM    1  Mu1.0001  In1.011 Se1.033 Se1.032       2.96471008      0.07788044     -0.02814617     -0.00219204
BJAIP    1  Se1.033 In1.011 Se1.033 In1.011         3.96108124      0.12052728     -0.03253092     -0.00392086
--
 
   (Skipping property calculation,
    use PROP keyword to activate)
--
 
  Total CASPT2 energies:
::    CASPT2 Root  1     Total energy:  -1345.82961788
 
  A NEW JOBIPH FILE NAMED 'JOBMIX' IS PREPARED.
********************************************************************************
--- Stop Module: caspt2 at Wed Dec 18 02:44:16 2024 /rc=_RC_ALL_IS_WELL_ ---
*** files: xmldump
    saved to directory /home/grierjones/DDCASPT2/iron_oxo_DDCASPT2/cluster/4.52
--- Module caspt2 spent 5 minutes 38 seconds ---

>>> EXPORT i = B

>>> EXPORT j = P

>>> IF (-FILE GMJ_e2_${i}_${j}.csv)

>>> COPY /tmp/4.52/GMJ_RHS_B_P.csv /home/grierjones/DDCASPT2/iron_oxo_DDCASPT2/cluster/4.52/GMJ_RHS_B_P.csv

>>> COPY /tmp/4.52/GMJ_IVECW_B_P.csv /home/grierjones/DDCASPT2/iron_oxo_DDCASPT2/cluster/4.52/GMJ_IVECW_B_P.csv

>>> COPY /tmp/4.52/GMJ_IVECX_B_P.csv /home/grierjones/DDCASPT2/iron_oxo_DDCASPT2/cluster/4.52/GMJ_IVECX_B_P.csv

>>> COPY /tmp/4.52/GMJ_IVECC2_B_P.csv /home/grierjones/DDCASPT2/iron_oxo_DDCASPT2/cluster/4.52/GMJ_IVECC2_B_P.csv

>>> COPY /tmp/4.52/GMJ_e2_B_P.csv /home/grierjones/DDCASPT2/iron_oxo_DDCASPT2/cluster/4.52/GMJ_e2_B_P.csv

>>> END FOREACH

>>> EXPORT j = M

>>> IF (-FILE GMJ_e2_${i}_${j}.csv)

>>> COPY /tmp/4.52/GMJ_RHS_B_M.csv /home/grierjones/DDCASPT2/iron_oxo_DDCASPT2/cluster/4.52/GMJ_RHS_B_M.csv

>>> COPY /tmp/4.52/GMJ_IVECW_B_M.csv /home/grierjones/DDCASPT2/iron_oxo_DDCASPT2/cluster/4.52/GMJ_IVECW_B_M.csv

>>> COPY /tmp/4.52/GMJ_IVECX_B_M.csv /home/grierjones/DDCASPT2/iron_oxo_DDCASPT2/cluster/4.52/GMJ_IVECX_B_M.csv

>>> COPY /tmp/4.52/GMJ_IVECC2_B_M.csv /home/grierjones/DDCASPT2/iron_oxo_DDCASPT2/cluster/4.52/GMJ_IVECC2_B_M.csv

>>> COPY /tmp/4.52/GMJ_e2_B_M.csv /home/grierjones/DDCASPT2/iron_oxo_DDCASPT2/cluster/4.52/GMJ_e2_B_M.csv

>>> END FOREACH

>>> END FOREACH

>>> EXPORT i = E

>>> EXPORT j = P

>>> IF (-FILE GMJ_e2_${i}_${j}.csv)

>>> COPY /tmp/4.52/GMJ_RHS_E_P.csv /home/grierjones/DDCASPT2/iron_oxo_DDCASPT2/cluster/4.52/GMJ_RHS_E_P.csv

>>> COPY /tmp/4.52/GMJ_IVECW_E_P.csv /home/grierjones/DDCASPT2/iron_oxo_DDCASPT2/cluster/4.52/GMJ_IVECW_E_P.csv

>>> COPY /tmp/4.52/GMJ_IVECX_E_P.csv /home/grierjones/DDCASPT2/iron_oxo_DDCASPT2/cluster/4.52/GMJ_IVECX_E_P.csv

>>> COPY /tmp/4.52/GMJ_IVECC2_E_P.csv /home/grierjones/DDCASPT2/iron_oxo_DDCASPT2/cluster/4.52/GMJ_IVECC2_E_P.csv

>>> COPY /tmp/4.52/GMJ_e2_E_P.csv /home/grierjones/DDCASPT2/iron_oxo_DDCASPT2/cluster/4.52/GMJ_e2_E_P.csv

>>> END FOREACH

>>> EXPORT j = M

>>> IF (-FILE GMJ_e2_${i}_${j}.csv)

>>> COPY /tmp/4.52/GMJ_RHS_E_M.csv /home/grierjones/DDCASPT2/iron_oxo_DDCASPT2/cluster/4.52/GMJ_RHS_E_M.csv

>>> COPY /tmp/4.52/GMJ_IVECW_E_M.csv /home/grierjones/DDCASPT2/iron_oxo_DDCASPT2/cluster/4.52/GMJ_IVECW_E_M.csv

>>> COPY /tmp/4.52/GMJ_IVECX_E_M.csv /home/grierjones/DDCASPT2/iron_oxo_DDCASPT2/cluster/4.52/GMJ_IVECX_E_M.csv

>>> COPY /tmp/4.52/GMJ_IVECC2_E_M.csv /home/grierjones/DDCASPT2/iron_oxo_DDCASPT2/cluster/4.52/GMJ_IVECC2_E_M.csv

>>> COPY /tmp/4.52/GMJ_e2_E_M.csv /home/grierjones/DDCASPT2/iron_oxo_DDCASPT2/cluster/4.52/GMJ_e2_E_M.csv

>>> END FOREACH

>>> END FOREACH

>>> EXPORT i = F

>>> EXPORT j = P

>>> IF (-FILE GMJ_e2_${i}_${j}.csv)

>>> COPY /tmp/4.52/GMJ_RHS_F_P.csv /home/grierjones/DDCASPT2/iron_oxo_DDCASPT2/cluster/4.52/GMJ_RHS_F_P.csv

>>> COPY /tmp/4.52/GMJ_IVECW_F_P.csv /home/grierjones/DDCASPT2/iron_oxo_DDCASPT2/cluster/4.52/GMJ_IVECW_F_P.csv

>>> COPY /tmp/4.52/GMJ_IVECX_F_P.csv /home/grierjones/DDCASPT2/iron_oxo_DDCASPT2/cluster/4.52/GMJ_IVECX_F_P.csv

>>> COPY /tmp/4.52/GMJ_IVECC2_F_P.csv /home/grierjones/DDCASPT2/iron_oxo_DDCASPT2/cluster/4.52/GMJ_IVECC2_F_P.csv

>>> COPY /tmp/4.52/GMJ_e2_F_P.csv /home/grierjones/DDCASPT2/iron_oxo_DDCASPT2/cluster/4.52/GMJ_e2_F_P.csv

>>> END FOREACH

>>> EXPORT j = M

>>> IF (-FILE GMJ_e2_${i}_${j}.csv)

>>> COPY /tmp/4.52/GMJ_RHS_F_M.csv /home/grierjones/DDCASPT2/iron_oxo_DDCASPT2/cluster/4.52/GMJ_RHS_F_M.csv

>>> COPY /tmp/4.52/GMJ_IVECW_F_M.csv /home/grierjones/DDCASPT2/iron_oxo_DDCASPT2/cluster/4.52/GMJ_IVECW_F_M.csv

>>> COPY /tmp/4.52/GMJ_IVECX_F_M.csv /home/grierjones/DDCASPT2/iron_oxo_DDCASPT2/cluster/4.52/GMJ_IVECX_F_M.csv

>>> COPY /tmp/4.52/GMJ_IVECC2_F_M.csv /home/grierjones/DDCASPT2/iron_oxo_DDCASPT2/cluster/4.52/GMJ_IVECC2_F_M.csv

>>> COPY /tmp/4.52/GMJ_e2_F_M.csv /home/grierjones/DDCASPT2/iron_oxo_DDCASPT2/cluster/4.52/GMJ_e2_F_M.csv

>>> END FOREACH

>>> END FOREACH

>>> EXPORT i = G

>>> EXPORT j = P

>>> IF (-FILE GMJ_e2_${i}_${j}.csv)

>>> COPY /tmp/4.52/GMJ_RHS_G_P.csv /home/grierjones/DDCASPT2/iron_oxo_DDCASPT2/cluster/4.52/GMJ_RHS_G_P.csv

>>> COPY /tmp/4.52/GMJ_IVECW_G_P.csv /home/grierjones/DDCASPT2/iron_oxo_DDCASPT2/cluster/4.52/GMJ_IVECW_G_P.csv

>>> COPY /tmp/4.52/GMJ_IVECX_G_P.csv /home/grierjones/DDCASPT2/iron_oxo_DDCASPT2/cluster/4.52/GMJ_IVECX_G_P.csv

>>> COPY /tmp/4.52/GMJ_IVECC2_G_P.csv /home/grierjones/DDCASPT2/iron_oxo_DDCASPT2/cluster/4.52/GMJ_IVECC2_G_P.csv

>>> COPY /tmp/4.52/GMJ_e2_G_P.csv /home/grierjones/DDCASPT2/iron_oxo_DDCASPT2/cluster/4.52/GMJ_e2_G_P.csv

>>> END FOREACH

>>> EXPORT j = M

>>> IF (-FILE GMJ_e2_${i}_${j}.csv)

>>> COPY /tmp/4.52/GMJ_RHS_G_M.csv /home/grierjones/DDCASPT2/iron_oxo_DDCASPT2/cluster/4.52/GMJ_RHS_G_M.csv

>>> COPY /tmp/4.52/GMJ_IVECW_G_M.csv /home/grierjones/DDCASPT2/iron_oxo_DDCASPT2/cluster/4.52/GMJ_IVECW_G_M.csv

>>> COPY /tmp/4.52/GMJ_IVECX_G_M.csv /home/grierjones/DDCASPT2/iron_oxo_DDCASPT2/cluster/4.52/GMJ_IVECX_G_M.csv

>>> COPY /tmp/4.52/GMJ_IVECC2_G_M.csv /home/grierjones/DDCASPT2/iron_oxo_DDCASPT2/cluster/4.52/GMJ_IVECC2_G_M.csv

>>> COPY /tmp/4.52/GMJ_e2_G_M.csv /home/grierjones/DDCASPT2/iron_oxo_DDCASPT2/cluster/4.52/GMJ_e2_G_M.csv

>>> END FOREACH

>>> END FOREACH

>>> EXPORT i = H

>>> EXPORT j = P

>>> IF (-FILE GMJ_e2_${i}_${j}.csv)

>>> COPY /tmp/4.52/GMJ_RHS_H_P.csv /home/grierjones/DDCASPT2/iron_oxo_DDCASPT2/cluster/4.52/GMJ_RHS_H_P.csv

>>> COPY /tmp/4.52/GMJ_IVECW_H_P.csv /home/grierjones/DDCASPT2/iron_oxo_DDCASPT2/cluster/4.52/GMJ_IVECW_H_P.csv

>>> COPY /tmp/4.52/GMJ_IVECX_H_P.csv /home/grierjones/DDCASPT2/iron_oxo_DDCASPT2/cluster/4.52/GMJ_IVECX_H_P.csv

>>> COPY /tmp/4.52/GMJ_IVECC2_H_P.csv /home/grierjones/DDCASPT2/iron_oxo_DDCASPT2/cluster/4.52/GMJ_IVECC2_H_P.csv

>>> COPY /tmp/4.52/GMJ_e2_H_P.csv /home/grierjones/DDCASPT2/iron_oxo_DDCASPT2/cluster/4.52/GMJ_e2_H_P.csv

>>> END FOREACH

>>> EXPORT j = M

>>> IF (-FILE GMJ_e2_${i}_${j}.csv)

>>> COPY /tmp/4.52/GMJ_RHS_H_M.csv /home/grierjones/DDCASPT2/iron_oxo_DDCASPT2/cluster/4.52/GMJ_RHS_H_M.csv

>>> COPY /tmp/4.52/GMJ_IVECW_H_M.csv /home/grierjones/DDCASPT2/iron_oxo_DDCASPT2/cluster/4.52/GMJ_IVECW_H_M.csv

>>> COPY /tmp/4.52/GMJ_IVECX_H_M.csv /home/grierjones/DDCASPT2/iron_oxo_DDCASPT2/cluster/4.52/GMJ_IVECX_H_M.csv

>>> COPY /tmp/4.52/GMJ_IVECC2_H_M.csv /home/grierjones/DDCASPT2/iron_oxo_DDCASPT2/cluster/4.52/GMJ_IVECC2_H_M.csv

>>> COPY /tmp/4.52/GMJ_e2_H_M.csv /home/grierjones/DDCASPT2/iron_oxo_DDCASPT2/cluster/4.52/GMJ_e2_H_M.csv

>>> END FOREACH

>>> END FOREACH

>>> EXPORT i = A

>>> IF (-FILE GMJ_e2_$i.csv)

>>> COPY /tmp/4.52/GMJ_RHS_A.csv /home/grierjones/DDCASPT2/iron_oxo_DDCASPT2/cluster/4.52/GMJ_RHS_A.csv

>>> COPY /tmp/4.52/GMJ_IVECW_A.csv /home/grierjones/DDCASPT2/iron_oxo_DDCASPT2/cluster/4.52/GMJ_IVECW_A.csv

>>> COPY /tmp/4.52/GMJ_IVECX_A.csv /home/grierjones/DDCASPT2/iron_oxo_DDCASPT2/cluster/4.52/GMJ_IVECX_A.csv

>>> COPY /tmp/4.52/GMJ_IVECC2_A.csv /home/grierjones/DDCASPT2/iron_oxo_DDCASPT2/cluster/4.52/GMJ_IVECC2_A.csv

>>> COPY /tmp/4.52/GMJ_e2_A.csv /home/grierjones/DDCASPT2/iron_oxo_DDCASPT2/cluster/4.52/GMJ_e2_A.csv

>>> END FOREACH

>>> EXPORT i = C

>>> IF (-FILE GMJ_e2_$i.csv)

>>> COPY /tmp/4.52/GMJ_RHS_C.csv /home/grierjones/DDCASPT2/iron_oxo_DDCASPT2/cluster/4.52/GMJ_RHS_C.csv

>>> COPY /tmp/4.52/GMJ_IVECW_C.csv /home/grierjones/DDCASPT2/iron_oxo_DDCASPT2/cluster/4.52/GMJ_IVECW_C.csv

>>> COPY /tmp/4.52/GMJ_IVECX_C.csv /home/grierjones/DDCASPT2/iron_oxo_DDCASPT2/cluster/4.52/GMJ_IVECX_C.csv

>>> COPY /tmp/4.52/GMJ_IVECC2_C.csv /home/grierjones/DDCASPT2/iron_oxo_DDCASPT2/cluster/4.52/GMJ_IVECC2_C.csv

>>> COPY /tmp/4.52/GMJ_e2_C.csv /home/grierjones/DDCASPT2/iron_oxo_DDCASPT2/cluster/4.52/GMJ_e2_C.csv

>>> END FOREACH

>>> EXPORT i = D

>>> IF (-FILE GMJ_e2_$i.csv)

>>> COPY /tmp/4.52/GMJ_RHS_D.csv /home/grierjones/DDCASPT2/iron_oxo_DDCASPT2/cluster/4.52/GMJ_RHS_D.csv

>>> COPY /tmp/4.52/GMJ_IVECW_D.csv /home/grierjones/DDCASPT2/iron_oxo_DDCASPT2/cluster/4.52/GMJ_IVECW_D.csv

>>> COPY /tmp/4.52/GMJ_IVECX_D.csv /home/grierjones/DDCASPT2/iron_oxo_DDCASPT2/cluster/4.52/GMJ_IVECX_D.csv

>>> COPY /tmp/4.52/GMJ_IVECC2_D.csv /home/grierjones/DDCASPT2/iron_oxo_DDCASPT2/cluster/4.52/GMJ_IVECC2_D.csv

>>> COPY /tmp/4.52/GMJ_e2_D.csv /home/grierjones/DDCASPT2/iron_oxo_DDCASPT2/cluster/4.52/GMJ_e2_D.csv

>>> END FOREACH

.########################.
.# Non-zero return code #.
.########################.

    Timing: Wall=420.55 User=417.09 System=3.34
************************************
*** WorkDir at /tmp/4.52 cleaned ***
************************************
