[Molden Format]
[N_Atoms]
                     2
[Atoms] (AU)
O1          1      8           0.00000000      0.00000000      0.00000000
O2          2      8           0.00000000      0.00000000      1.70075351
[Charge] (Mulliken)
   1.00000000000037     
  0.999999999999618     
[GTO] (AU)
   1
   s  14
  1.053749500E+05  1.238600013E-04
  1.567924000E+04  5.120100053E-04
  3.534544700E+03  2.152910022E-03
  9.873651600E+02  8.528440089E-03
  3.159787500E+02  3.018049031E-02
  1.116542800E+02  9.099702095E-02
  4.269945100E+01  2.177936423E-01
  1.739559600E+01  3.686245738E-01
  7.438309000E+00  3.366707335E-01
  3.222862000E+00  9.657630101E-02
  1.253877000E+00  2.144520022E-03
  4.951550000E-01  1.194350012E-03
  1.916650000E-01  5.390200056E-04
  6.708300000E-02  2.103400022E-04
   s  14
  1.053749500E+05 -2.815000008E-05
  1.567924000E+04 -1.163000003E-04
  3.534544700E+03 -4.909200013E-04
  9.873651600E+02 -1.946160005E-03
  3.159787500E+02 -7.005300019E-03
  1.116542800E+02 -2.167814006E-02
  4.269945100E+01 -5.641213015E-02
  1.739559600E+01 -1.127053003E-01
  7.438309000E+00 -1.589119704E-01
  3.222862000E+00 -3.355083009E-02
  1.253877000E+00  3.531902810E-01
  4.951550000E-01  5.534199315E-01
  1.916650000E-01  2.301839106E-01
  6.708300000E-02  1.127267003E-02
   p   9
  2.000000000E+02  9.173000030E-04
  4.653336700E+01  7.377140024E-03
  1.462180900E+01  3.483515011E-02
  5.313064000E+00  1.144397004E-01
  2.102525000E+00  2.554966408E-01
  8.502230000E-01  3.722557412E-01
  3.375970000E-01  3.323314911E-01
  1.288920000E-01  1.400847905E-01
  4.511200000E-02  2.395784008E-02
 
   2
   s  14
  1.053749500E+05  1.238600013E-04
  1.567924000E+04  5.120100053E-04
  3.534544700E+03  2.152910022E-03
  9.873651600E+02  8.528440089E-03
  3.159787500E+02  3.018049031E-02
  1.116542800E+02  9.099702095E-02
  4.269945100E+01  2.177936423E-01
  1.739559600E+01  3.686245738E-01
  7.438309000E+00  3.366707335E-01
  3.222862000E+00  9.657630101E-02
  1.253877000E+00  2.144520022E-03
  4.951550000E-01  1.194350012E-03
  1.916650000E-01  5.390200056E-04
  6.708300000E-02  2.103400022E-04
   s  14
  1.053749500E+05 -2.815000008E-05
  1.567924000E+04 -1.163000003E-04
  3.534544700E+03 -4.909200013E-04
  9.873651600E+02 -1.946160005E-03
  3.159787500E+02 -7.005300019E-03
  1.116542800E+02 -2.167814006E-02
  4.269945100E+01 -5.641213015E-02
  1.739559600E+01 -1.127053003E-01
  7.438309000E+00 -1.589119704E-01
  3.222862000E+00 -3.355083009E-02
  1.253877000E+00  3.531902810E-01
  4.951550000E-01  5.534199315E-01
  1.916650000E-01  2.301839106E-01
  6.708300000E-02  1.127267003E-02
   p   9
  2.000000000E+02  9.173000030E-04
  4.653336700E+01  7.377140024E-03
  1.462180900E+01  3.483515011E-02
  5.313064000E+00  1.144397004E-01
  2.102525000E+00  2.554966408E-01
  8.502230000E-01  3.722557412E-01
  3.375970000E-01  3.323314911E-01
  1.288920000E-01  1.400847905E-01
  4.511200000E-02  2.395784008E-02
 
[MO]
Sym=     1a  
Ene=   -22.7210
Spin= Alpha
Occup=    2.00000
   1         0.70666445
   2        -0.00173147
   3        -0.00000000
   4        -0.00000000
   5         0.00311133
   6         0.70666446
   7        -0.00173147
   8        -0.00000000
   9        -0.00000000
  10        -0.00311133
Sym=     2a  
Ene=   -22.7120
Spin= Alpha
Occup=    2.00000
   1        -0.70725583
   2         0.00949163
   3        -0.00000000
   4         0.00000000
   5        -0.00594122
   6         0.70725583
   7        -0.00949163
   8        -0.00000000
   9         0.00000000
  10        -0.00594122
Sym=     3a  
Ene=    -3.4975
Spin= Alpha
Occup=    2.00000
   1         0.06516422
   2        -0.40047373
   3        -0.00000000
   4        -0.00000000
   5        -0.33820169
   6         0.06516422
   7        -0.40047373
   8         0.00000000
   9        -0.00000000
  10         0.33820169
Sym=     4a  
Ene=    -2.1210
Spin= Alpha
Occup=    2.00000
   1        -0.00000000
   2        -0.00000000
   3         0.31996708
   4         0.50707615
   5         0.00000000
   6        -0.00000000
   7         0.00000000
   8         0.31996708
   9         0.50707615
  10        -0.00000000
Sym=     5a  
Ene=    -2.1205
Spin= Alpha
Occup=    2.00000
   1        -0.00000000
   2        -0.00000000
   3         0.50707615
   4        -0.31996708
   5         0.00000000
   6        -0.00000000
   7        -0.00000000
   8         0.50707615
   9        -0.31996708
  10        -0.00000000
Sym=     6a  
Ene=    -2.0546
Spin= Alpha
Occup=    2.00000
   1         0.04170461
   2         0.47692511
   3         0.00000000
   4        -0.00000000
   5        -0.62286962
   6         0.04170461
   7         0.47692511
   8         0.00000000
   9        -0.00000000
  10         0.62286962
Sym=     7a  
Ene=    -2.2325
Spin= Alpha
Occup=    1.98770
   1        -0.04132093
   2        -0.79030228
   3         0.00000000
   4        -0.00000000
   5         0.19721486
   6         0.04132093
   7         0.79030228
   8        -0.00000000
   9        -0.00000000
  10         0.19721486
Sym=     8a  
Ene=    -0.0000
Spin= Alpha
Occup=    0.01230
   1        -0.00000000
   2        -0.00000000
   3        -0.48345718
   4        -0.76617135
   5         0.00000000
   6         0.00000000
   7         0.00000000
   8         0.48345718
   9         0.76617135
  10         0.00000000
Sym=     9a  
Ene=    -1.1401
Spin= Alpha
Occup=    0.00000
   1         0.00000000
   2         0.00000000
   3        -0.76617135
   4         0.48345718
   5         0.00000000
   6        -0.00000000
   7        -0.00000000
   8         0.76617135
   9        -0.48345718
  10         0.00000000
Sym=    10a  
Ene=    -0.1107
Spin= Alpha
Occup=    0.00000
   1         0.22154321
   2         1.33858368
   3         0.00000000
   4        -0.00000000
   5         1.19680723
   6        -0.22154321
   7        -1.33858368
   8        -0.00000000
   9         0.00000000
  10         1.19680723
