[Molden Format]
[N_Atoms]
                     2
[Atoms] (AU)
O1          1      8           0.00000000      0.00000000      0.00000000
O2          2      8           0.00000000      0.00000000      1.70075351
[Charge] (Mulliken)
  1.412203687323199E-013
 -1.652011860642233E-013
[GTO] (AU)
   1
   s  14
  1.053749500E+05  1.238600013E-04
  1.567924000E+04  5.120100053E-04
  3.534544700E+03  2.152910022E-03
  9.873651600E+02  8.528440089E-03
  3.159787500E+02  3.018049031E-02
  1.116542800E+02  9.099702095E-02
  4.269945100E+01  2.177936423E-01
  1.739559600E+01  3.686245738E-01
  7.438309000E+00  3.366707335E-01
  3.222862000E+00  9.657630101E-02
  1.253877000E+00  2.144520022E-03
  4.951550000E-01  1.194350012E-03
  1.916650000E-01  5.390200056E-04
  6.708300000E-02  2.103400022E-04
   s  14
  1.053749500E+05 -2.815000008E-05
  1.567924000E+04 -1.163000003E-04
  3.534544700E+03 -4.909200013E-04
  9.873651600E+02 -1.946160005E-03
  3.159787500E+02 -7.005300019E-03
  1.116542800E+02 -2.167814006E-02
  4.269945100E+01 -5.641213015E-02
  1.739559600E+01 -1.127053003E-01
  7.438309000E+00 -1.589119704E-01
  3.222862000E+00 -3.355083009E-02
  1.253877000E+00  3.531902810E-01
  4.951550000E-01  5.534199315E-01
  1.916650000E-01  2.301839106E-01
  6.708300000E-02  1.127267003E-02
   p   9
  2.000000000E+02  9.173000030E-04
  4.653336700E+01  7.377140024E-03
  1.462180900E+01  3.483515011E-02
  5.313064000E+00  1.144397004E-01
  2.102525000E+00  2.554966408E-01
  8.502230000E-01  3.722557412E-01
  3.375970000E-01  3.323314911E-01
  1.288920000E-01  1.400847905E-01
  4.511200000E-02  2.395784008E-02
 
   2
   s  14
  1.053749500E+05  1.238600013E-04
  1.567924000E+04  5.120100053E-04
  3.534544700E+03  2.152910022E-03
  9.873651600E+02  8.528440089E-03
  3.159787500E+02  3.018049031E-02
  1.116542800E+02  9.099702095E-02
  4.269945100E+01  2.177936423E-01
  1.739559600E+01  3.686245738E-01
  7.438309000E+00  3.366707335E-01
  3.222862000E+00  9.657630101E-02
  1.253877000E+00  2.144520022E-03
  4.951550000E-01  1.194350012E-03
  1.916650000E-01  5.390200056E-04
  6.708300000E-02  2.103400022E-04
   s  14
  1.053749500E+05 -2.815000008E-05
  1.567924000E+04 -1.163000003E-04
  3.534544700E+03 -4.909200013E-04
  9.873651600E+02 -1.946160005E-03
  3.159787500E+02 -7.005300019E-03
  1.116542800E+02 -2.167814006E-02
  4.269945100E+01 -5.641213015E-02
  1.739559600E+01 -1.127053003E-01
  7.438309000E+00 -1.589119704E-01
  3.222862000E+00 -3.355083009E-02
  1.253877000E+00  3.531902810E-01
  4.951550000E-01  5.534199315E-01
  1.916650000E-01  2.301839106E-01
  6.708300000E-02  1.127267003E-02
   p   9
  2.000000000E+02  9.173000030E-04
  4.653336700E+01  7.377140024E-03
  1.462180900E+01  3.483515011E-02
  5.313064000E+00  1.144397004E-01
  2.102525000E+00  2.554966408E-01
  8.502230000E-01  3.722557412E-01
  3.375970000E-01  3.323314911E-01
  1.288920000E-01  1.400847905E-01
  4.511200000E-02  2.395784008E-02
 
[MO]
Sym=     1a  
Ene=   -21.0060
Spin= Alpha
Occup=    2.00000
   1         0.70660076
   2        -0.00039901
   3        -0.00000000
   4        -0.00000000
   5         0.00290554
   6         0.70660076
   7        -0.00039901
   8        -0.00000000
   9        -0.00000000
  10        -0.00290554
Sym=     2a  
Ene=   -21.0020
Spin= Alpha
Occup=    2.00000
   1        -0.70808504
   2        -0.00442889
   3        -0.00000000
   4        -0.00000000
   5        -0.00435763
   6         0.70808504
   7         0.00442889
   8        -0.00000000
   9         0.00000000
  10        -0.00435763
Sym=     3a  
Ene=    -2.1664
Spin= Alpha
Occup=    2.00000
   1         0.06407463
   2        -0.42614861
   3        -0.00000000
   4        -0.00000000
   5        -0.30335839
   6         0.06407463
   7        -0.42614861
   8         0.00000000
   9        -0.00000000
  10         0.30335839
Sym=     4a  
Ene=    -1.0850
Spin= Alpha
Occup=    2.00000
   1        -0.01862751
   2        -0.71846595
   3        -0.00000000
   4         0.00000000
   5         0.26029300
   6         0.01862751
   7         0.71846595
   8        -0.00000000
   9        -0.00000000
  10         0.26029300
Sym=     5a  
Ene=    -0.9972
Spin= Alpha
Occup=    2.00000
   1        -0.00000000
   2        -0.00000000
   3         0.54665228
   4        -0.24632588
   5         0.00000000
   6        -0.00000000
   7        -0.00000000
   8         0.54665228
   9        -0.24632588
  10        -0.00000000
Sym=     6a  
Ene=    -0.9972
Spin= Alpha
Occup=    2.00000
   1        -0.00000000
   2         0.00000000
   3        -0.24632588
   4        -0.54665228
   5        -0.00000000
   6         0.00000000
   7        -0.00000000
   8        -0.24632588
   9        -0.54665228
  10        -0.00000000
Sym=     7a  
Ene=    -0.8749
Spin= Alpha
Occup=    2.00000
   1         0.04438590
   2         0.45413320
   3         0.00000000
   4        -0.00000000
   5        -0.64056371
   6         0.04438590
   7         0.45413320
   8         0.00000000
   9        -0.00000000
  10         0.64056371
Sym=     8a  
Ene=    -0.1685
Spin= Alpha
Occup=    1.00000
   1        -0.00000000
   2        -0.00000000
   3         0.48345718
   4         0.76617135
   5         0.00000000
   6         0.00000000
   7        -0.00000000
   8        -0.48345718
   9        -0.76617135
  10        -0.00000000
Sym=     9a  
Ene=     0.0000
Spin= Alpha
Occup=    1.00000
   1         0.00000000
   2         0.00000000
   3         0.76617135
   4        -0.48345718
   5         0.00000000
   6        -0.00000000
   7        -0.00000000
   8        -0.76617135
   9         0.48345718
  10         0.00000000
Sym=    10a  
Ene=     1.2387
Spin= Alpha
Occup=    0.00000
   1         0.22196443
   2         1.37849959
   3        -0.00000000
   4         0.00000000
   5         1.18469621
   6        -0.22196443
   7        -1.37849959
   8        -0.00000000
   9        -0.00000000
  10         1.18469621
