[Molden Format]
[N_Atoms]
                     2
[Atoms] (AU)
O1          1      8           0.00000000      0.00000000      0.00000000
O2          2      8           0.00000000      0.00000000      1.70075351
[Charge] (Mulliken)
  2.877698079828406E-013
 -2.966515921798418E-013
[GTO] (AU)
   1
   s  14
  1.053749500E+05  1.238600013E-04
  1.567924000E+04  5.120100053E-04
  3.534544700E+03  2.152910022E-03
  9.873651600E+02  8.528440089E-03
  3.159787500E+02  3.018049031E-02
  1.116542800E+02  9.099702095E-02
  4.269945100E+01  2.177936423E-01
  1.739559600E+01  3.686245738E-01
  7.438309000E+00  3.366707335E-01
  3.222862000E+00  9.657630101E-02
  1.253877000E+00  2.144520022E-03
  4.951550000E-01  1.194350012E-03
  1.916650000E-01  5.390200056E-04
  6.708300000E-02  2.103400022E-04
   s  14
  1.053749500E+05 -2.815000008E-05
  1.567924000E+04 -1.163000003E-04
  3.534544700E+03 -4.909200013E-04
  9.873651600E+02 -1.946160005E-03
  3.159787500E+02 -7.005300019E-03
  1.116542800E+02 -2.167814006E-02
  4.269945100E+01 -5.641213015E-02
  1.739559600E+01 -1.127053003E-01
  7.438309000E+00 -1.589119704E-01
  3.222862000E+00 -3.355083009E-02
  1.253877000E+00  3.531902810E-01
  4.951550000E-01  5.534199315E-01
  1.916650000E-01  2.301839106E-01
  6.708300000E-02  1.127267003E-02
   p   9
  2.000000000E+02  9.173000030E-04
  4.653336700E+01  7.377140024E-03
  1.462180900E+01  3.483515011E-02
  5.313064000E+00  1.144397004E-01
  2.102525000E+00  2.554966408E-01
  8.502230000E-01  3.722557412E-01
  3.375970000E-01  3.323314911E-01
  1.288920000E-01  1.400847905E-01
  4.511200000E-02  2.395784008E-02
 
   2
   s  14
  1.053749500E+05  1.238600013E-04
  1.567924000E+04  5.120100053E-04
  3.534544700E+03  2.152910022E-03
  9.873651600E+02  8.528440089E-03
  3.159787500E+02  3.018049031E-02
  1.116542800E+02  9.099702095E-02
  4.269945100E+01  2.177936423E-01
  1.739559600E+01  3.686245738E-01
  7.438309000E+00  3.366707335E-01
  3.222862000E+00  9.657630101E-02
  1.253877000E+00  2.144520022E-03
  4.951550000E-01  1.194350012E-03
  1.916650000E-01  5.390200056E-04
  6.708300000E-02  2.103400022E-04
   s  14
  1.053749500E+05 -2.815000008E-05
  1.567924000E+04 -1.163000003E-04
  3.534544700E+03 -4.909200013E-04
  9.873651600E+02 -1.946160005E-03
  3.159787500E+02 -7.005300019E-03
  1.116542800E+02 -2.167814006E-02
  4.269945100E+01 -5.641213015E-02
  1.739559600E+01 -1.127053003E-01
  7.438309000E+00 -1.589119704E-01
  3.222862000E+00 -3.355083009E-02
  1.253877000E+00  3.531902810E-01
  4.951550000E-01  5.534199315E-01
  1.916650000E-01  2.301839106E-01
  6.708300000E-02  1.127267003E-02
   p   9
  2.000000000E+02  9.173000030E-04
  4.653336700E+01  7.377140024E-03
  1.462180900E+01  3.483515011E-02
  5.313064000E+00  1.144397004E-01
  2.102525000E+00  2.554966408E-01
  8.502230000E-01  3.722557412E-01
  3.375970000E-01  3.323314911E-01
  1.288920000E-01  1.400847905E-01
  4.511200000E-02  2.395784008E-02
 
[MO]
Sym=     1a  
Ene=   -21.0060
Spin= Alpha
Occup=    1.00000
   1         0.70660076
   2        -0.00039902
   3        -0.00000000
   4        -0.00000000
   5         0.00290554
   6         0.70660076
   7        -0.00039901
   8        -0.00000000
   9         0.00000000
  10        -0.00290554
Sym=     1a  
Ene=   -21.0060
Spin= Beta
Occup=    1.00000
   1         0.70660076
   2        -0.00039902
   3        -0.00000000
   4        -0.00000000
   5         0.00290554
   6         0.70660076
   7        -0.00039901
   8        -0.00000000
   9         0.00000000
  10        -0.00290554
Sym=     2a  
Ene=   -21.0020
Spin= Alpha
Occup=    1.00000
   1        -0.70808504
   2        -0.00442889
   3        -0.00000000
   4        -0.00000000
   5        -0.00435762
   6         0.70808504
   7         0.00442889
   8        -0.00000000
   9         0.00000000
  10        -0.00435762
Sym=     2a  
Ene=   -21.0020
Spin= Beta
Occup=    1.00000
   1        -0.70808504
   2        -0.00442889
   3        -0.00000000
   4        -0.00000000
   5        -0.00435762
   6         0.70808504
   7         0.00442889
   8        -0.00000000
   9         0.00000000
  10        -0.00435762
Sym=     3a  
Ene=    -2.1664
Spin= Alpha
Occup=    1.00000
   1        -0.06407462
   2         0.42614862
   3         0.00000000
   4         0.00000000
   5         0.30335837
   6        -0.06407462
   7         0.42614862
   8         0.00000000
   9         0.00000000
  10        -0.30335837
Sym=     3a  
Ene=    -2.1664
Spin= Beta
Occup=    1.00000
   1        -0.06407462
   2         0.42614862
   3         0.00000000
   4         0.00000000
   5         0.30335837
   6        -0.06407462
   7         0.42614862
   8         0.00000000
   9         0.00000000
  10        -0.30335837
Sym=     4a  
Ene=    -1.0850
Spin= Alpha
Occup=    1.00000
   1        -0.01862752
   2        -0.71846600
   3        -0.00000000
   4        -0.00000000
   5         0.26029296
   6         0.01862752
   7         0.71846600
   8        -0.00000000
   9        -0.00000000
  10         0.26029296
Sym=     4a  
Ene=    -1.0850
Spin= Beta
Occup=    1.00000
   1        -0.01862752
   2        -0.71846600
   3        -0.00000000
   4        -0.00000000
   5         0.26029296
   6         0.01862752
   7         0.71846600
   8        -0.00000000
   9        -0.00000000
  10         0.26029296
Sym=     5a  
Ene=    -1.0372
Spin= Alpha
Occup=    1.00000
   1        -0.00000000
   2        -0.00000000
   3         0.29632633
   4         0.52124453
   5         0.00000000
   6         0.00000000
   7         0.00000000
   8         0.29632633
   9         0.52124453
  10         0.00000000
Sym=     5a  
Ene=    -1.0372
Spin= Beta
Occup=    1.00000
   1        -0.00000000
   2        -0.00000000
   3         0.29632633
   4         0.52124453
   5         0.00000000
   6         0.00000000
   7         0.00000000
   8         0.29632633
   9         0.52124453
  10         0.00000000
Sym=     6a  
Ene=    -0.9572
Spin= Alpha
Occup=    1.00000
   1        -0.00000000
   2        -0.00000000
   3         0.52124453
   4        -0.29632633
   5         0.00000000
   6        -0.00000000
   7        -0.00000000
   8         0.52124453
   9        -0.29632633
  10        -0.00000000
Sym=     6a  
Ene=    -0.9572
Spin= Beta
Occup=    1.00000
   1        -0.00000000
   2        -0.00000000
   3         0.52124453
   4        -0.29632633
   5         0.00000000
   6        -0.00000000
   7        -0.00000000
   8         0.52124453
   9        -0.29632633
  10        -0.00000000
Sym=     7a  
Ene=    -0.8749
Spin= Alpha
Occup=    1.00000
   1         0.04438590
   2         0.45413319
   3         0.00000000
   4        -0.00000000
   5        -0.64056372
   6         0.04438590
   7         0.45413319
   8         0.00000000
   9        -0.00000000
  10         0.64056372
Sym=     7a  
Ene=    -0.8749
Spin= Beta
Occup=    1.00000
   1         0.04438590
   2         0.45413319
   3         0.00000000
   4        -0.00000000
   5        -0.64056372
   6         0.04438590
   7         0.45413319
   8         0.00000000
   9        -0.00000000
  10         0.64056372
Sym=     8a  
Ene=    -0.4508
Spin= Alpha
Occup=    1.00000
   1         0.00000000
   2         0.00000000
   3        -0.44773698
   4        -0.78757919
   5        -0.00000000
   6        -0.00000000
   7         0.00000000
   8         0.44773698
   9         0.78757919
  10         0.00000000
Sym=     8a  
Ene=    -0.4508
Spin= Beta
Occup=    1.00000
   1         0.00000000
   2         0.00000000
   3        -0.44773698
   4        -0.78757919
   5        -0.00000000
   6        -0.00000000
   7         0.00000000
   8         0.44773698
   9         0.78757919
  10         0.00000000
Sym=     9a  
Ene=     0.1138
Spin= Alpha
Occup=    0.00000
   1         0.00000000
   2         0.00000000
   3        -0.78757919
   4         0.44773698
   5         0.00000000
   6        -0.00000000
   7        -0.00000000
   8         0.78757919
   9        -0.44773698
  10         0.00000000
Sym=     9a  
Ene=     0.1138
Spin= Beta
Occup=    0.00000
   1         0.00000000
   2         0.00000000
   3        -0.78757919
   4         0.44773698
   5         0.00000000
   6        -0.00000000
   7        -0.00000000
   8         0.78757919
   9        -0.44773698
  10         0.00000000
Sym=    10a  
Ene=     1.2387
Spin= Alpha
Occup=    0.00000
   1         0.22196444
   2         1.37849957
   3         0.00000000
   4         0.00000000
   5         1.18469622
   6        -0.22196444
   7        -1.37849957
   8        -0.00000000
   9         0.00000000
  10         1.18469622
Sym=    10a  
Ene=     1.2387
Spin= Beta
Occup=    0.00000
   1         0.22196444
   2         1.37849957
   3         0.00000000
   4         0.00000000
   5         1.18469622
   6        -0.22196444
   7        -1.37849957
   8        -0.00000000
   9         0.00000000
  10         1.18469622
