[Molden Format]
[N_Atoms]
                     2
[Atoms] (AU)
LI1         1      3           0.00000000      0.00000000      0.00000000
O2          2      8           0.00000000      0.00000000      4.34637009
[Charge] (Mulliken)
  0.156837611445539     
 -0.156837611445566     
[GTO] (AU)
   1
   s  14
  9.497934400E+03  9.668999974E-05
  1.416811200E+03  6.087099984E-04
  3.214599400E+02  3.101519992E-03
  9.112416300E+01  1.266904997E-02
  2.999989100E+01  4.248012989E-02
  1.101763100E+01  1.150183297E-01
  4.372801000E+00  2.398650094E-01
  1.831256000E+00  3.584300090E-01
  8.022610000E-01  3.048527792E-01
  3.626480000E-01  8.824261976E-02
  1.139950000E-01 -8.445899977E-04
  5.123700000E-02 -7.943959979E-03
  2.246800000E-02 -3.764419990E-03
  7.860000000E-03 -8.868999976E-05
   s  14
  9.497934400E+03 -1.244999993E-05
  1.416811200E+03 -7.838999954E-05
  3.214599400E+02 -4.007099976E-04
  9.112416300E+01 -1.645249990E-03
  2.999989100E+01 -5.634599967E-03
  1.101763100E+01 -1.590780991E-02
  4.372801000E+00 -3.612581979E-02
  1.831256000E+00 -6.459927962E-02
  8.022610000E-01 -1.008321794E-01
  3.626480000E-01 -9.757613942E-02
  1.139950000E-01  2.301215886E-01
  5.123700000E-02  6.102389764E-01
  2.246800000E-02  2.849406083E-01
  7.860000000E-03  4.026899976E-03
   p   9
  1.311950400E+01  1.524940000E-03
  3.077424200E+00  8.314830000E-03
  1.098800500E+00  1.933203000E-02
  4.357784000E-01  4.934293000E-02
  1.802432000E-01  1.623554000E-01
  7.613330000E-02  3.847505400E-01
  3.254650000E-02  4.336100400E-01
  1.401820000E-02  1.287005900E-01
  4.906400000E-03 -1.018520000E-03
 
   2
   s  14
  1.053749500E+05  1.238600013E-04
  1.567924000E+04  5.120100053E-04
  3.534544700E+03  2.152910022E-03
  9.873651600E+02  8.528440089E-03
  3.159787500E+02  3.018049031E-02
  1.116542800E+02  9.099702095E-02
  4.269945100E+01  2.177936423E-01
  1.739559600E+01  3.686245738E-01
  7.438309000E+00  3.366707335E-01
  3.222862000E+00  9.657630101E-02
  1.253877000E+00  2.144520022E-03
  4.951550000E-01  1.194350012E-03
  1.916650000E-01  5.390200056E-04
  6.708300000E-02  2.103400022E-04
   s  14
  1.053749500E+05 -2.815000008E-05
  1.567924000E+04 -1.163000003E-04
  3.534544700E+03 -4.909200013E-04
  9.873651600E+02 -1.946160005E-03
  3.159787500E+02 -7.005300019E-03
  1.116542800E+02 -2.167814006E-02
  4.269945100E+01 -5.641213015E-02
  1.739559600E+01 -1.127053003E-01
  7.438309000E+00 -1.589119704E-01
  3.222862000E+00 -3.355083009E-02
  1.253877000E+00  3.531902810E-01
  4.951550000E-01  5.534199315E-01
  1.916650000E-01  2.301839106E-01
  6.708300000E-02  1.127267003E-02
   p   9
  2.000000000E+02  9.173000030E-04
  4.653336700E+01  7.377140024E-03
  1.462180900E+01  3.483515011E-02
  5.313064000E+00  1.144397004E-01
  2.102525000E+00  2.554966408E-01
  8.502230000E-01  3.722557412E-01
  3.375970000E-01  3.323314911E-01
  1.288920000E-01  1.400847905E-01
  4.511200000E-02  2.395784008E-02
 
[MO]
Sym=     1a  
Ene=   -20.6660
Spin= Alpha
Occup=    1.00000
   1        -0.00005533
   2        -0.00050588
   3        -0.00000000
   4        -0.00000000
   5        -0.00064501
   6         1.00003155
   7         0.00200951
   8         0.00000000
   9         0.00000000
  10        -0.00033317
Sym=     1a  
Ene=   -20.6000
Spin= Beta
Occup=    1.00000
   1        -0.00002547
   2        -0.00007227
   3         0.00000000
   4         0.00000000
   5        -0.00007184
   6         1.00000236
   7        -0.00178047
   8        -0.00000000
   9        -0.00000000
  10        -0.00018525
Sym=     2a  
Ene=    -2.4829
Spin= Alpha
Occup=    1.00000
   1         0.99984712
   2         0.01291607
   3         0.00000000
   4         0.00000000
   5        -0.00003400
   6        -0.00005747
   7         0.00183586
   8        -0.00000000
   9         0.00000000
  10        -0.00150412
Sym=     2a  
Ene=    -2.4951
Spin= Beta
Occup=    1.00000
   1         0.99990745
   2         0.01186020
   3        -0.00000000
   4         0.00000000
   5        -0.00010670
   6        -0.00002341
   7         0.00120117
   8        -0.00000000
   9        -0.00000000
  10        -0.00032422
Sym=     3a  
Ene=    -1.3744
Spin= Alpha
Occup=    1.00000
   1        -0.01215446
   2        -0.00864762
   3        -0.00000000
   4         0.00000000
   5        -0.00813480
   6        -0.00123461
   7         1.00400727
   8        -0.00000000
   9        -0.00000000
  10        -0.03424796
Sym=     3a  
Ene=    -1.0855
Spin= Beta
Occup=    1.00000
   1        -0.01057570
   2         0.02041203
   3        -0.00000000
   4        -0.00000000
   5         0.01682297
   6         0.00079827
   7         0.98964977
   8         0.00000000
   9         0.00000000
  10        -0.00799029
Sym=     4a  
Ene=    -0.6635
Spin= Alpha
Occup=    1.00000
   1         0.00000000
   2         0.00000000
   3        -0.01044714
   4         0.00617886
   5        -0.00000000
   6         0.00000000
   7         0.00000000
   8         0.86213270
   9        -0.50989986
  10         0.00000000
Sym=     4a  
Ene=    -0.5081
Spin= Beta
Occup=    1.00000
   1        -0.00000000
   2         0.00000000
   3         0.01483533
   4         0.02508339
   5         0.00000000
   6        -0.00000000
   7        -0.00000000
   8         0.50677068
   9         0.85684192
  10        -0.00000000
Sym=     5a  
Ene=    -0.6596
Spin= Alpha
Occup=    1.00000
   1         0.03406254
   2         0.00580660
   3         0.00000000
   4        -0.00000000
   5        -0.01696469
   6         0.00061616
   7         0.03628534
   8        -0.00000000
   9         0.00000000
  10         0.99884520
Sym=     5a  
Ene=    -0.1998
Spin= Beta
Occup=    1.00000
   1        -0.02058659
   2         0.90757490
   3        -0.00000000
   4        -0.00000000
   5        -0.05354886
   6        -0.01718948
   7        -0.20028534
   8        -0.00000000
   9        -0.00000000
  10        -0.34895323
Sym=     6a  
Ene=    -0.5837
Spin= Alpha
Occup=    1.00000
   1        -0.00000000
   2         0.00000000
   3         0.00028130
   4         0.00047562
   5         0.00000000
   6        -0.00000000
   7        -0.00000000
   8         0.50902842
   9         0.86065929
  10        -0.00000000
Sym=     6a  
Ene=     0.0286
Spin= Beta
Occup=    0.00000
   1        -0.01450360
   2        -0.23232251
   3        -0.00000000
   4        -0.00000000
   5         0.77134272
   6        -0.02236384
   7        -0.21859646
   8        -0.00000000
   9        -0.00000000
  10        -0.58074236
Sym=     7a  
Ene=     0.0413
Spin= Alpha
Occup=    0.00000
   1        -0.00867550
   2         0.95320436
   3         0.00000000
   4         0.00000000
   5        -0.33166348
   6        -0.00808455
   7        -0.09255597
   8        -0.00000000
   9        -0.00000000
  10         0.08531282
Sym=     7a  
Ene=     0.0299
Spin= Beta
Occup=    0.00000
   1        -0.00000000
   2        -0.00000000
   3         0.80910470
   4        -0.47853697
   5         0.00000000
   6        -0.00000000
   7        -0.00000000
   8         0.20112070
   9        -0.11895085
  10        -0.00000000
Sym=     8a  
Ene=     0.0841
Spin= Alpha
Occup=    0.00000
   1         0.00000000
   2        -0.00000000
   3         0.86929579
   4        -0.51413639
   5         0.00000000
   6        -0.00000000
   7         0.00000000
   8        -0.11185489
   9         0.06615547
  10         0.00000000
Sym=     8a  
Ene=     0.0491
Spin= Beta
Occup=    0.00000
   1         0.00000000
   2        -0.00000000
   3        -0.51395946
   4        -0.86899662
   5        -0.00000000
   6         0.00000000
   7         0.00000000
   8         0.08693612
   9         0.14699057
  10         0.00000000
Sym=     9a  
Ene=     0.0870
Spin= Alpha
Occup=    0.00000
   1         0.00000000
   2        -0.00000000
   3         0.51417344
   4         0.86935843
   5         0.00000000
   6        -0.00000000
   7        -0.00000000
   8        -0.07255669
   9        -0.12267800
  10         0.00000000
Sym=     9a  
Ene=     0.1862
Spin= Beta
Occup=    0.00000
   1         0.02314360
   2         0.45067120
   3        -0.00000000
   4         0.00000000
   5         0.74232048
   6        -0.03538086
   7        -0.35337029
   8         0.00000000
   9        -0.00000000
  10         0.76043204
Sym=    10a  
Ene=     0.1339
Spin= Alpha
Occup=    0.00000
   1         0.00436227
   2         0.41527542
   3        -0.00000000
   4        -0.00000000
   5         1.01921771
   6        -0.04384536
   7        -0.41744369
   8         0.00000000
   9         0.00000000
  10         0.17665111
Sym=    10a  
Ene=     0.1900
Spin= Beta
Occup=    0.00000
   1        -0.00000000
   2        -0.00000000
   3        -0.31801557
   4         0.18808716
   5        -0.00000000
   6         0.00000000
   7         0.00000000
   8         0.84577466
   9        -0.50022505
  10        -0.00000000
