   This run of MOLCAS is using the pymolcas driver

                             OPE
                             OPE          NMOL  CASOP  ENMOLC A   SO
                 OPE        NMOLC        AS  OP EN  MO LC     AS  OP
                OPENM       OL CA        SO  PE NM  OL CA     SOP EN
                OP EN      MO   LC       AS  OP ENMOL  CASO   PENMOL
                OP  EN     MO   LC       AS  OP EN     MO     LC ASO
               OP   E  NMOL  C  AS       OP  EN MO     LC     AS  OP
               OP  E   NMO   LC AS        OPEN  MO     LCASOP EN   M
               O  PEN   MO  LCA  SO
            OPE   NMO   L   CAS    OP
        OPENMOL  CASOP     ENMOL   CASOPE
     OPENMOLCA   SOPENMOLCASOPEN   MOLCASOPE
    OPENMOLCAS   OP           EN   MOL    CAS
    OPENMOLCAS       OP  ENM        O     LCA
    OPENMOLCAS    OPEN  MOLCASO     P  E  NMO
    OPENMOLCAS     OP               E  N  MOL
    OPENMOLCA   SO           PENM   O  L  CAS    OPEN    MO    LCAS
    OPENMOLCA   SOP           ENM   O  L  CAS   OP  EN  MOLC  AS   O
    OPENMOLCA   SOPE           NM      O  LCA   S      OP  EN MO
    OPENMOLC                AS         O  PEN   M      OL  CA  SOPE
    OPENMO        LCASOPE  NMOL        C  ASO   P      ENMOLC     AS
    OPE     NMO      LCA  SO     P     E   NM   OL  CA SO  PE N   MO
          OPENMOLCA            SOPE   NMO        LCAS  O    P  ENMO
     OPENMOLCASOPENMOLCASOPENMOLCASOPENMOLCA
        OPENMOLCASOPENMOLCASOPENMOLCASOPE
            OPENMOLCASOPENMOLCASOPENM
               OPENMOLCASOPENMOLCA        version: 44d3b5344-dirty
                   OPENMOLCASO
                       OPE                tag:

 OpenMolcas is free software; you can redistribute it and/or modify it
 under the terms of the GNU Lesser General Public License version 2.1.
 OpenMolcas is distributed in the hope that it will be useful, but it
 is provided "as is" and without any express or implied warranties.
 For more details see the full text of the license in the file
 LICENSE or in <http://www.gnu.org/licenses/>.

                 Copyright (C) The OpenMolcas Authors
           For the author list and the recommended citation,
                   consult the file CONTRIBUTORS.md

           *************************************************
           * pymolcas version py2.28                       *
           *   build c4a6d18ded8cb6cad61d2372a9abd97c      *
           *   (after the EMIL interpreter by V. Veryazov) *
           *************************************************

configuration info
------------------
C Compiler ID: GNU
C flags: -std=gnu99
Fortran Compiler ID: Intel
Fortran flags: -fpp -i8 -r8 -heap-arrays
Definitions: _MOLCAS_;_I8_;_LINUX_
Parallel: OFF (GA=OFF)


   ----------------------------------------------------------------
  |
  |              Project: O3_173
  |       Submitted from: /home/grierjones/DDCASPT2/ozone/O3/O3_173
  |         Scratch area: /tmp/O3_173
  |      Save outputs to: /home/grierjones/DDCASPT2/ozone/O3/O3_173
  |               Molcas: /home/grierjones/Test/build
  |
  | Scratch area is empty
  |
  |       MOLCAS_DRIVER = /usr/local/pymolcas
  | MOLCAS_KEEP_WORKDIR = NO
  |  MOLCAS_NEW_WORKDIR = YES
  |       MOLCAS_NPROCS = 1
  |       MOLCAS_SOURCE = /home/grierjones/Test/build
  |    MOLCAS_STRUCTURE = 0
  |
   ----------------------------------------------------------------

++ ---------   Input file   ---------

&GATEWAY
coord=O3_173.xyz
Basis = ANO-RCC-VDZP
Group = nosymm
Expert
End of Input

&SEWARD
End of Input

&MOTRA
Frozen=0

>>> COPY $WorkDir/GMJ_one_int_indx.csv $CurrDir/O3_173.GMJ_one_int_indx.csv

>>> COPY $WorkDir/GMJ_one_int.csv $CurrDir/O3_173.GMJ_one_int.csv

>>> COPY $WorkDir/GMJ_two_int_indx.csv $CurrDir/O3_173.GMJ_two_int_indx.csv

>>> COPY $WorkDir/GMJ_two_int.csv $CurrDir/O3_173.GMJ_two_int.csv

&SCF

>>> COPY $WorkDir/O3_173.scf.h5 $CurrDir/

&RASSCF
Title= RASSCF
FileOrb
/home/grierjones/DDCASPT2/ozone/O3/O3_172/O3_172.RasOrb

NACTEL
4 0 0
Inactive
10
RAS2
3
Symmetry
1
Spin
1
orblisting
all
ITERation
200 100
CIMX
200
SDAV
500
PRWF
0
PRSD

>>> COPY $WorkDir/O3_173.rasscf.h5 $CurrDir/

>>> COPY $WorkDir/GMJ_Fock_MO.csv $CurrDir/O3_173.GMJ_Fock_MO.csv

&CASPT2
Frozen
0
Imaginary Shift
0.0

>>> FOREACH i IN (B,E,F,G,H)

  >>> FOREACH j IN (P,M)

    >>> IF (-FILE GMJ_e2_${i}_${j}.csv)

      >>> COPY $WorkDir/GMJ_RHS_${i}_${j}.csv $CurrDir/GMJ_RHS_${i}_${j}.csv

      >>> COPY $WorkDir/GMJ_IVECW_${i}_${j}.csv $CurrDir/GMJ_IVECW_${i}_${j}.csv

      >>> COPY $WorkDir/GMJ_e2_${i}_${j}.csv $CurrDir/GMJ_e2_${i}_${j}.csv

    >>> END IF

  >>> END FOREACH

>>> END FOREACH

>>> FOREACH i IN (A,C,D)

  >>> IF (-FILE GMJ_e2_$i.csv)

    >>> COPY $WorkDir/GMJ_RHS_$i.csv $CurrDir/GMJ_RHS_$i.csv

    >>> COPY $WorkDir/GMJ_IVECW_$i.csv $CurrDir/GMJ_IVECW_$i.csv

    >>> COPY $WorkDir/GMJ_e2_$i.csv $CurrDir/GMJ_e2_$i.csv

  >>> END IF

>>> END FOREACH

-- ----------------------------------

--- Start Module: gateway at Fri Jul 26 14:27:38 2024 ---
 
()()()()()()()()()()()()()()()()()()()()()()()()()()()()()()()()()()()()()()()()()()()()()()()()()()

                                              &GATEWAY

                                   only a single process is used
                       available to each process: 2.0 GB of memory, 1 thread?
()()()()()()()()()()()()()()()()()()()()()()()()()()()()()()()()()()()()()()()()()()()()()()()()()()
 
 ###############################################################################
 ###############################################################################
 ###                                                                         ###
 ###                                                                         ###
 ###                                                                         ###
 ###    WARNING: EXPERT option is ON!                                        ###
 ###                                                                         ###
 ###                                                                         ###
 ###############################################################################
 ###############################################################################
 
++    Symmetry information:
      ---------------------
 
                    Character Table for C1 
 
                             E  
                    a        1  x, y, xy, Rz, z, xz, Ry, yz, Rx, I
--
 
 
++    Basis set information:
      ----------------------
 
 
      Basis set label: O.ANO-RCC...3S2P1D.
 
      Electronic valence basis set:
      ------------------
      Associated Effective Charge   8.000000 au
      Associated Actual Charge      8.000000 au
      Nuclear Model: Point charge
 
      Shell  nPrim  nBasis  Cartesian Spherical Contaminant
         s      14       3        X                  
         p       9       2        X                  
         d       4       1                 X         
--
 
 
++    Molecular structure info:
      -------------------------
 
                    ************************************************ 
                    **** Cartesian Coordinates / Bohr, Angstrom **** 
                    ************************************************ 
 
     Center  Label                x              y              z                     x              y              z
        1      O1               0.147436       2.410565       0.000000              0.078020       1.275616       0.000000
        2      O2               0.000000       0.000000       0.000000              0.000000       0.000000       0.000000
        3      O3               0.147436      -2.410565       0.000000              0.078020      -1.275616       0.000000
 
                    *************************************** 
                    *    InterNuclear Distances / Bohr    * 
                    *************************************** 
 
               1 O1            2 O2            3 O3    
    1 O1       0.000000
    2 O2       2.415069        0.000000
    3 O3       4.821130        2.415069        0.000000
 
                    ******************************************* 
                    *    InterNuclear Distances / Angstrom    * 
                    ******************************************* 
 
               1 O1            2 O2            3 O3    
    1 O1       0.000000
    2 O2       1.278000        0.000000
    3 O3       2.551232        1.278000        0.000000
 
                    ************************************** 
                    *    Valence Bond Angles / Degree    * 
                    ************************************** 
                          Atom centers                 Phi
                      1 O1       2 O2       3 O3       173.00
--
 
 
            Nuclear Potential Energy             66.27544255 au
 
 ###############################################################################
 ###############################################################################
 ###                                                                         ###
 ###                                                                         ###
 ###    There were warnings during the execution                             ###
 ###    Please, check the output with care!                                  ###
 ###                                                                         ###
 ###                                                                         ###
 ###############################################################################
 ###############################################################################
--- Stop Module: gateway at Fri Jul 26 14:27:38 2024 /rc=_RC_ALL_IS_WELL_ ---
*** files: xmldump
    saved to directory /home/grierjones/DDCASPT2/ozone/O3/O3_173

--- Start Module: seward at Fri Jul 26 14:27:38 2024 ---
 
()()()()()()()()()()()()()()()()()()()()()()()()()()()()()()()()()()()()()()()()()()()()()()()()()()

                                              &SEWARD

                                   only a single process is used
                       available to each process: 2.0 GB of memory, 1 thread?
()()()()()()()()()()()()()()()()()()()()()()()()()()()()()()()()()()()()()()()()()()()()()()()()()()
 
 ###############################################################################
 ###############################################################################
 ###                                                                         ###
 ###                                                                         ###
 ###                                                                         ###
 ###    WARNING: EXPERT option is ON!                                        ###
 ###                                                                         ###
 ###                                                                         ###
 ###############################################################################
 ###############################################################################
               SEWARD will generate:
                  Multipole Moment integrals up to order  2
                  Kinetic Energy integrals
                  Nuclear Attraction integrals (point charge)
                  One-Electron Hamiltonian integrals
                  Velocity integrals
                  Relativistic Douglas-Kroll-Hess integrals:
                    - Parametrization         : EXP
                    - DKH order of Hamiltonian: 2
                    - DKH order of Properties : 0
                         - multipole moment operators
                         - electric potential operators
                         - contact operators
                  Atomic mean-field integrals
                  Two-Electron Repulsion integrals
 
                   Integrals are discarded if absolute value <: 0.10E-13
                   Integral cutoff threshold is set to       <: 0.10E-15
 
            Nuclear Potential Energy             66.27544255 au
 
 
      Basis set specifications :
      Symmetry species         a  
      Basis functions           42
 
 
  Input file to MOLDEN was generated!
 
 ###############################################################################
 ###############################################################################
 ###                                                                         ###
 ###                                                                         ###
 ###    There were warnings during the execution                             ###
 ###    Please, check the output with care!                                  ###
 ###                                                                         ###
 ###                                                                         ###
 ###############################################################################
 ###############################################################################
--- Stop Module: seward at Fri Jul 26 14:27:39 2024 /rc=_RC_ALL_IS_WELL_ ---
*** files: O3_173.GssOrb O3_173.guessorb.h5 O3_173.guessorb.molden xmldump
    saved to directory /home/grierjones/DDCASPT2/ozone/O3/O3_173

*** symbolic link created: INPORB -> O3_173.GssOrb
--- Start Module: motra at Fri Jul 26 14:27:39 2024 ---
 
()()()()()()()()()()()()()()()()()()()()()()()()()()()()()()()()()()()()()()()()()()()()()()()()()()

                                               &MOTRA

                                   only a single process is used
                       available to each process: 2.0 GB of memory, 1 thread?
()()()()()()()()()()()()()()()()()()()()()()()()()()()()()()()()()()()()()()()()()()()()()()()()()()
 
 
      *** WARNING: Default frozen orbitals is overwritten by user input.
      *** Default values:   3
 
      Header of the integral files:
      
       Integrals generated by seward 4.2.0  , Fri Jul 26 14:27:38 2024
 
 
      Header of MO coefficients source file:
      *Guess orbitals                                                                 
 
 
      Cartesian coordinates in Angstrom:
      -----------------------------------------------------
      No.  Label        X            Y            Z        
      -----------------------------------------------------
       1   O1         0.07802000   1.27561600   0.00000000
       2   O2         0.00000000   0.00000000   0.00000000
       3   O3         0.07802000  -1.27561600   0.00000000
      -----------------------------------------------------
      Nuclear repulsion energy =   66.27544255
 
      Orbital specifications:
      -----------------------
 
      Symmetry species:              1
      Number of basis functions:    42
      Frozen orbitals:               0
      Deleted orbitals:              0
      Number of orbitals used:      42

       SYMMETRY  BASIS FUNCTIONS       ORBITALS      INTEGRALS   CPU(SEC)  I/O(SEC)
 
        1 1 1 1   42  42  42  42    42  42  42  42      408156       0.00      0.00

       TOTAL CPU TIME(SEC)    2.91TOTAL I/O TIME(SEC)    5.35
 
--- Stop Module: motra at Fri Jul 26 14:27:44 2024 /rc=_RC_ALL_IS_WELL_ ---
*** files: xmldump
    saved to directory /home/grierjones/DDCASPT2/ozone/O3/O3_173
--- Module motra spent 5 seconds ---

>>> COPY /tmp/O3_173/GMJ_one_int_indx.csv /home/grierjones/DDCASPT2/ozone/O3/O3_173/O3_173.GMJ_one_int_indx.csv

>>> COPY /tmp/O3_173/GMJ_one_int.csv /home/grierjones/DDCASPT2/ozone/O3/O3_173/O3_173.GMJ_one_int.csv

>>> COPY /tmp/O3_173/GMJ_two_int_indx.csv /home/grierjones/DDCASPT2/ozone/O3/O3_173/O3_173.GMJ_two_int_indx.csv

>>> COPY /tmp/O3_173/GMJ_two_int.csv /home/grierjones/DDCASPT2/ozone/O3/O3_173/O3_173.GMJ_two_int.csv

*** symbolic link created: INPORB -> O3_173.GssOrb
--- Start Module: scf at Fri Jul 26 14:27:44 2024 ---
 
()()()()()()()()()()()()()()()()()()()()()()()()()()()()()()()()()()()()()()()()()()()()()()()()()()

                                                &SCF

                                   only a single process is used
                       available to each process: 2.0 GB of memory, 1 thread?
()()()()()()()()()()()()()()()()()()()()()()()()()()()()()()()()()()()()()()()()()()()()()()()()()()
 
++    Input section:
      --------------
 
      Header of the integral files:
      
       Integrals generated by seward 4.2.0  , Fri Jul 26 14:27:38 2024
 
 
      Cartesian coordinates in Angstrom:
      -----------------------------------------------------
      No.  Label        X            Y            Z        
      -----------------------------------------------------
       1   O1         0.07802000   1.27561600   0.00000000
       2   O2         0.00000000   0.00000000   0.00000000
       3   O3         0.07802000  -1.27561600   0.00000000
      -----------------------------------------------------
      Nuclear repulsion energy =   66.27544255
--
 
++    Orbital specifications:
      -----------------------
 
      Symmetry species               1
                                     a
      Frozen orbitals                0
      Aufbau                        12
      Start temperature = 0.500
      End temperature   = 0.010
      Temperature Factor= 0.460
      Deleted orbitals               0
      Total number of orbitals      42
      Number of basis functions     42
--
 
      Molecular charge                           0.000
 
++    Optimization specifications:
      ----------------------------
 
      SCF Algorithm: Conventional
      Minimized density differences are used
      Number of density matrices in core                5
      Maximum number of NDDO SCF iterations           400
      Maximum number of HF SCF iterations             400
      Threshold for SCF energy change            0.10E-08
      Threshold for density matrix               0.10E-03
      Threshold for Fock matrix                  0.15E-03
      Threshold for linear dependence            0.10E-08
      Threshold at which DIIS is turned on       0.15E+00
      Threshold at which QNR/C2DIIS is turned on 0.75E-01
      Threshold for Norm(delta) (QNR/C2DIIS)     0.20E-04
      DIIS extrapolation of the SCF procedure
      All orbitals punched on: SCFORB
--
 
      Input vectors read from INPORB
      Orbital file label: *Guess orbitals
 
 
++ Convergence information
                                   SCF        iterations: Energy and convergence statistics
 
Iter     Tot. SCF        One-elec.       Two-elec.     Energy      Max Dij or  Max Fij      DNorm      TNorm      AccCon     Time
         Energy          Energy          Energy        Change      Delta Norm                                                in Sec.
   1  -221.451576560  -440.194601516   152.467582405   0.00E+00    0.11E+00*   0.71E+00*    0.77E+01   0.76E+02   None         0.
   2  -222.512204561  -435.284934046   146.497286934  -0.11E+01*   0.11E+00*   0.80E-01*    0.34E+01   0.75E+02   EDIIS        0.
   3  -223.814849536  -441.667774059   151.577481972  -0.13E+01*   0.92E-01*   0.12E+00*    0.31E+01   0.76E+02   EDIIS        0.
   4  -224.123846097  -438.886599173   148.487310526  -0.31E+00*   0.13E+00*   0.89E-01*    0.14E+01   0.75E+02   EDIIS        0.
   5  -224.137778313  -440.894053036   150.480832173  -0.14E-01*   0.82E-01*   0.69E-01*    0.72E+00   0.76E+02   EDIIS        0.
   6  -224.339778447  -439.979671335   149.364450338  -0.20E+00*   0.61E-01*   0.57E-01*    0.17E+01   0.76E+02   EDIIS        0.
   7  -224.375385391  -440.453543365   149.802715424  -0.36E-01*   0.11E+00*   0.45E-01*    0.28E+00   0.76E+02   EDIIS        0.
   8  -224.377482151  -440.075859883   149.422935182  -0.21E-02*   0.16E-01*   0.34E-01*    0.18E+00   0.76E+02   EDIIS        0.
 
       Fermi aufbau procedure completed!
      nOcc=   12
 
   9  -224.382089728  -440.285813410   149.628281132  -0.46E-02*   0.30E-01*   0.11E-01*    0.28E-01   0.76E+02   EDIIS        0.
  10  -224.382310131  -440.217765626   149.560012945  -0.22E-03*   0.96E-02*   0.95E-02*    0.82E-02   0.76E+02   EDIIS        0.
  11  -224.382470859  -440.272935867   149.615022458  -0.16E-03*   0.12E-01*   0.49E-02*    0.23E-02   0.76E+02   EDIIS        0.
  12  -224.382556178  -440.236314775   149.578316047  -0.85E-04*   0.46E-02*   0.33E-02*    0.12E-02   0.76E+02   EDIIS        0.
  13  -224.382581266  -440.260459384   149.602435568  -0.25E-04*   0.31E-02*   0.16E-02*    0.56E-03   0.76E+02   c2DIIS       0.
  14  -224.382606239  -440.247961261   149.589912472  -0.25E-04*   0.14E-02*   0.69E-03*    0.12E-03   0.76E+02   QNRc2DIIS    0.
  15  -224.382611353  -440.250388971   149.592335068  -0.51E-05*   0.34E-02*   0.56E-03*    0.32E-04   0.76E+02   QNRc2DIIS    0.
  16  -224.382616545  -440.248710580   149.590651485  -0.52E-05*   0.25E-03*   0.14E-03     0.26E-03   0.76E+02   QNRc2DIIS    0.
  17  -224.382616720  -440.248909218   149.590849948  -0.17E-06*   0.51E-03*   0.72E-04     0.17E-02   0.76E+02   QNRc2DIIS    0.
  18  -224.382616862  -440.249041393   149.590981981  -0.14E-06*   0.30E-04*   0.82E-05     0.46E-02   0.76E+02   QNRc2DIIS    0.
  19  -224.382616863  -440.249015852   149.590956439  -0.11E-08*   0.16E-05    0.95E-06     0.97E-02   0.76E+02   QNRc2DIIS    0.
  20  -224.382616863  -440.249039979   149.590980566  -0.70E-11    0.72E-06    0.38E-06     0.53E-02   0.76E+02   QNRc2DIIS    0.
 
       Convergence after 20 Macro Iterations
--
 
 *****************************************************************************************************************************
 *                                                                                                                           *
 *                                             SCF/KS-DFT Program, Final results                                             *
 *                                                                                                                           *
 *                                                                                                                           *
 *                                                                                                                           *
 *                                                       Final Results                                                       *
 *                                                                                                                           *
 *****************************************************************************************************************************
 
::    Total SCF energy                               -224.3826168628
      One-electron energy                            -440.2490399794
      Two-electron energy                             149.5909805664
      Nuclear repulsion energy                         66.2754425502
      Kinetic energy (interpolated)                   225.6445958899
      Virial theorem                                    0.9944072269
      Total spin, S(S+1)                                0.0000000000
      Total spin, S                                     0.0000000000
      Max non-diagonal density matrix element           0.0000009516
      Max non-diagonal Fock matrix element              0.0000000843
 
 
      All orbitals with orbital energies smaller than  E(LUMO)+0.5 are printed
 
++    Molecular orbitals:
      -------------------
 
      Title: SCF orbitals

      Molecular orbitals for symmetry species 1: a  
 
          Orbital            1         2         3         4         5         6         7         8         9        10    
          Energy          -20.8396  -20.7361  -20.7360   -1.7050   -1.4692   -1.0602   -0.8398   -0.7843   -0.7502   -0.6231
          Occ. No.          2.0000    2.0000    2.0000    2.0000    2.0000    2.0000    2.0000    2.0000    2.0000    2.0000
 
        1 O1     1s         0.0028   -0.7072    0.7072   -0.0156    0.0096    0.0143   -0.0017   -0.0196    0.0000    0.0025
        2 O1     2s         0.0001   -0.0008    0.0005    0.3271   -0.5736    0.6546   -0.0379   -0.4118    0.0000    0.0327
        3 O1     3s         0.0001   -0.0002   -0.0001   -0.0242    0.0127    0.0189   -0.0027   -0.0260    0.0000    0.0029
        4 O1     2px        0.0000    0.0000   -0.0000   -0.0053    0.0096    0.0191    0.3433   -0.0773   -0.0000   -0.7004
        5 O1     3px        0.0001    0.0000    0.0000    0.0022   -0.0013   -0.0030   -0.0322    0.0042    0.0000    0.0048
        6 O1     2py       -0.0002    0.0009   -0.0010   -0.1018    0.0936    0.1803   -0.0482   -0.4212    0.0000    0.0739
        7 O1     3py       -0.0000   -0.0005    0.0003    0.0251   -0.0188   -0.0271    0.0041    0.0288   -0.0000    0.0001
        8 O1     2pz        0.0000    0.0000    0.0000   -0.0000    0.0000    0.0000    0.0000    0.0000    0.4232   -0.0000
        9 O1     3pz        0.0000   -0.0000   -0.0000    0.0000   -0.0000   -0.0000   -0.0000    0.0000   -0.0241   -0.0000
       10 O1     3d2-       0.0000   -0.0000    0.0000    0.0009   -0.0023   -0.0019   -0.0227    0.0048    0.0000    0.0142
       11 O1     3d1-      -0.0000    0.0000    0.0000    0.0000    0.0000   -0.0000   -0.0000   -0.0000   -0.0309    0.0000
       12 O1     3d0        0.0000    0.0000   -0.0001   -0.0082    0.0083    0.0070   -0.0017   -0.0172    0.0000    0.0020
       13 O1     3d1+      -0.0000    0.0000    0.0000   -0.0000    0.0000    0.0000   -0.0000   -0.0000   -0.0016    0.0000
       14 O1     3d2+      -0.0001   -0.0002    0.0001   -0.0168    0.0155    0.0150   -0.0053   -0.0321    0.0000    0.0046
       15 O2     1s         1.0000    0.0000   -0.0041   -0.0208   -0.0000   -0.0149   -0.0010   -0.0000   -0.0000   -0.0000
       16 O2     2s         0.0000    0.0000   -0.0008    0.6723    0.0000   -0.6248   -0.0110   -0.0000    0.0000   -0.0000
       17 O2     3s        -0.0009    0.0000   -0.0007   -0.0353   -0.0000   -0.0150   -0.0008   -0.0000   -0.0000   -0.0000
       18 O2     2px        0.0002    0.0000   -0.0000    0.0200    0.0000    0.0355    0.7478    0.0000   -0.0000    0.0000
       19 O2     3px       -0.0004    0.0000   -0.0000   -0.0045   -0.0000   -0.0045   -0.0645    0.0000   -0.0000   -0.0000
       20 O2     2py        0.0000    0.0010    0.0000    0.0000   -0.3273   -0.0000    0.0000    0.5369   -0.0000   -0.0526
       21 O2     3py       -0.0000    0.0013    0.0000   -0.0000    0.0821    0.0000   -0.0000   -0.0835   -0.0000    0.0016
       22 O2     2pz       -0.0000    0.0000    0.0000   -0.0000   -0.0000   -0.0000    0.0000    0.0000    0.6380   -0.0000
       23 O2     3pz        0.0000    0.0000    0.0000   -0.0000   -0.0000    0.0000   -0.0000   -0.0000   -0.0144    0.0000
       24 O2     3d2-       0.0000    0.0000    0.0000    0.0000   -0.0076   -0.0000    0.0000    0.0050   -0.0000   -0.0385
       25 O2     3d1-      -0.0000   -0.0000   -0.0000   -0.0000   -0.0000    0.0000   -0.0000    0.0000    0.0000   -0.0000
       26 O2     3d0       -0.0003   -0.0000    0.0003   -0.0183   -0.0000    0.0013   -0.0040   -0.0000    0.0000   -0.0000
       27 O2     3d1+       0.0000    0.0000   -0.0000    0.0000   -0.0000   -0.0000    0.0000    0.0000    0.0064   -0.0000
       28 O2     3d2+       0.0002   -0.0000    0.0004   -0.0326   -0.0000   -0.0024    0.0040   -0.0000   -0.0000   -0.0000
       29 O3     1s         0.0028    0.7072    0.7072   -0.0156   -0.0096    0.0143   -0.0017    0.0196   -0.0000   -0.0025
       30 O3     2s         0.0001    0.0008    0.0005    0.3271    0.5736    0.6546   -0.0379    0.4118   -0.0000   -0.0327
       31 O3     3s         0.0001    0.0002   -0.0001   -0.0242   -0.0127    0.0189   -0.0027    0.0260   -0.0000   -0.0029
       32 O3     2px        0.0000   -0.0000   -0.0000   -0.0053   -0.0096    0.0191    0.3433    0.0773   -0.0000    0.7004
       33 O3     3px        0.0001   -0.0000    0.0000    0.0022    0.0013   -0.0030   -0.0322   -0.0042    0.0000   -0.0048
       34 O3     2py        0.0002    0.0009    0.0010    0.1018    0.0936   -0.1803    0.0482   -0.4212    0.0000    0.0739
       35 O3     3py        0.0000   -0.0005   -0.0003   -0.0251   -0.0188    0.0271   -0.0041    0.0288   -0.0000    0.0001
       36 O3     2pz       -0.0000   -0.0000   -0.0000    0.0000   -0.0000   -0.0000    0.0000    0.0000    0.4232    0.0000
       37 O3     3pz        0.0000   -0.0000   -0.0000    0.0000    0.0000    0.0000   -0.0000   -0.0000   -0.0241   -0.0000
       38 O3     3d2-      -0.0000   -0.0000   -0.0000   -0.0009   -0.0023    0.0019    0.0227    0.0048   -0.0000    0.0142
       39 O3     3d1-      -0.0000   -0.0000   -0.0000    0.0000   -0.0000   -0.0000    0.0000    0.0000    0.0309    0.0000
       40 O3     3d0        0.0000   -0.0000   -0.0001   -0.0082   -0.0083    0.0070   -0.0017    0.0172   -0.0000   -0.0020
       41 O3     3d1+      -0.0000    0.0000    0.0000   -0.0000   -0.0000    0.0000   -0.0000    0.0000   -0.0016   -0.0000
       42 O3     3d2+      -0.0001    0.0002    0.0001   -0.0168   -0.0155    0.0150   -0.0053    0.0321   -0.0000   -0.0046
 
          Orbital           11        12        13        14        15        16    
          Energy           -0.5181   -0.4717   -0.0270    0.1320    0.2857    0.4686
          Occ. No.          2.0000    2.0000    0.0000    0.0000    0.0000    0.0000
 
        1 O1     1s        -0.0000    0.0006    0.0000    0.0252   -0.1648   -0.0100
        2 O1     2s        -0.0000   -0.0013    0.0000    0.3228   -1.1933   -0.0698
        3 O1     3s        -0.0000    0.0051    0.0000    0.0078   -0.4296   -0.0405
        4 O1     2px        0.0000    0.6675   -0.0000    0.0199    0.0588   -0.0980
        5 O1     3px        0.0000    0.0415   -0.0000    0.0072    0.0485    0.4326
        6 O1     2py       -0.0000    0.0338   -0.0000   -0.8069    0.5951    0.0547
        7 O1     3py       -0.0000   -0.0057   -0.0000   -0.1656    0.6567    0.1120
        8 O1     2pz       -0.7023    0.0000    0.6497   -0.0000    0.0000   -0.0000
        9 O1     3pz       -0.0349    0.0000    0.1293    0.0000   -0.0000    0.0000
       10 O1     3d2-      -0.0000    0.0040    0.0000    0.0036   -0.0043    0.0281
       11 O1     3d1-       0.0246    0.0000    0.0139   -0.0000    0.0000    0.0000
       12 O1     3d0        0.0000    0.0011    0.0000   -0.0003    0.0199    0.0025
       13 O1     3d1+       0.0010   -0.0000    0.0010   -0.0000    0.0000    0.0000
       14 O1     3d2+       0.0000    0.0030   -0.0000   -0.0002    0.0330    0.0092
       15 O2     1s         0.0000    0.0068   -0.0000   -0.1165    0.0000    0.0330
       16 O2     2s        -0.0000    0.0848   -0.0000   -1.1095   -0.0000    0.2028
       17 O2     3s         0.0000    0.0128   -0.0000   -0.2559    0.0000    0.0782
       18 O2     2px        0.0000   -0.7381    0.0000   -0.1390   -0.0000   -0.0775
       19 O2     3px        0.0000   -0.0439    0.0000   -0.0274   -0.0000    0.4515
       20 O2     2py        0.0000    0.0000   -0.0000   -0.0000    1.3315   -0.0000
       21 O2     3py        0.0000   -0.0000   -0.0000   -0.0000    1.1187   -0.0000
       22 O2     2pz        0.0000   -0.0000   -0.9012    0.0000   -0.0000   -0.0000
       23 O2     3pz        0.0000   -0.0000   -0.1684    0.0000   -0.0000    0.0000
       24 O2     3d2-       0.0000   -0.0000   -0.0000   -0.0000    0.0105   -0.0000
       25 O2     3d1-      -0.0557   -0.0000   -0.0000    0.0000   -0.0000   -0.0000
       26 O2     3d0       -0.0000    0.0065   -0.0000   -0.0395   -0.0000   -0.0152
       27 O2     3d1+       0.0000   -0.0000   -0.0022   -0.0000   -0.0000   -0.0000
       28 O2     3d2+      -0.0000    0.0091   -0.0000   -0.0727   -0.0000   -0.0352
       29 O3     1s         0.0000    0.0006   -0.0000    0.0252    0.1648   -0.0100
       30 O3     2s         0.0000   -0.0013   -0.0000    0.3228    1.1933   -0.0698
       31 O3     3s         0.0000    0.0051    0.0000    0.0078    0.4296   -0.0405
       32 O3     2px       -0.0000    0.6675   -0.0000    0.0199   -0.0588   -0.0980
       33 O3     3px       -0.0000    0.0415   -0.0000    0.0072   -0.0485    0.4326
       34 O3     2py       -0.0000   -0.0338    0.0000    0.8069    0.5951   -0.0547
       35 O3     3py       -0.0000    0.0057    0.0000    0.1656    0.6567   -0.1120
       36 O3     2pz        0.7023    0.0000    0.6497   -0.0000    0.0000   -0.0000
       37 O3     3pz        0.0349    0.0000    0.1293   -0.0000    0.0000    0.0000
       38 O3     3d2-      -0.0000   -0.0040    0.0000   -0.0036   -0.0043   -0.0281
       39 O3     3d1-       0.0246    0.0000   -0.0139    0.0000    0.0000   -0.0000
       40 O3     3d0        0.0000    0.0011   -0.0000   -0.0003   -0.0199    0.0025
       41 O3     3d1+      -0.0010   -0.0000    0.0010   -0.0000    0.0000    0.0000
       42 O3     3d2+       0.0000    0.0030   -0.0000   -0.0002   -0.0330    0.0092
--
 
 
++    Molecular charges:
      ------------------
 
      Mulliken charges per centre and basis function type
      ---------------------------------------------------
 
                O1      O2      O3    
      1s       2.0003  1.9999  2.0003
      2s       1.9375  1.6729  1.9375
      2px      2.0132  1.9810  2.0132
      2pz      1.4533  1.0447  1.4533
      2py      0.7225  1.0090  0.7225
      3s      -0.0150 -0.0241 -0.0150
      3px     -0.0201 -0.0450 -0.0201
      3pz     -0.0107 -0.0058 -0.0107
      3py     -0.0135  0.0269 -0.0135
      3d2+     0.0202  0.0179  0.0202
      3d1+     0.0000  0.0003  0.0000
      3d0      0.0057  0.0047  0.0057
      3d1-     0.0136  0.0485  0.0136
      3d2-     0.0117  0.0314  0.0117
      Total    8.1187  7.7625  8.1187
 
      N-E     -0.1187  0.2375 -0.1187
 
      Total electronic charge=   24.000000
 
      Total            charge=   -0.000000
--
 
 
  Input file to MOLDEN was generated!
 
 
++    Static properties:
      ------------------
 
 
      LoProp Charges per center
 

                   O1       O2       O3    
      Nuclear      8.0000   8.0000   8.0000
      Electronic  -8.1659  -7.6683  -8.1659
 
      Total       -0.1659   0.3317  -0.1659
--
 
 
++    Natural Bond Order analysis
      ---------------------------
      Based on LoProp computed density
      -------------------------------------------------------------------------------------
      Atom A       Atom B       Bond Order | Atom A       Atom B       Bond Order
        O1           O2             2.000  |   O2           O3             2.000
      -------------------------------------------------------------------------------------
      NBO located     16.000 core electrons.
      NBO located      8.000 electrons involved in    2 bonds.
--
 
 
++    Molecular properties:
      ---------------------
 
      Charge (e):
                      =   -0.0000
      Dipole Moment (Debye):
      Origin of the operator (Ang)=    0.0000    0.0000    0.0000
                   X=  3.8596E-03               Y= -7.9124E-10               Z=  5.5793E-14           Total=  3.8596E-03
      Quadrupole Moment (Debye*Ang):
      Origin of the operator (Ang)=    0.0520    0.0000    0.0000
                  XX= -1.6354E+01              XY= -1.5400E-11              XZ= -3.3606E-13              YY= -1.7006E+01
                  YZ=  1.5188E-13              ZZ= -1.5158E+01
      In traceless form (Debye*Ang)
                  XX= -2.7186E-01              XY= -2.3100E-11              XZ= -5.0408E-13              YY= -1.2500E+00
                  YZ=  2.2781E-13              ZZ=  1.5218E+00
--
 
 
  Input file to MOLDEN was generated!
 
 ###############################################################################
 ###############################################################################
 ###                                                                         ###
 ###                                                                         ###
 ###    RunFile label nBas                                                   ###
 ###    was used       78 times                                              ###
 ###                                                                         ###
 ###                                                                         ###
 ###############################################################################
 ###############################################################################
--- Stop Module: scf at Fri Jul 26 14:27:44 2024 /rc=_RC_ALL_IS_WELL_ ---
*** files: O3_173.LprOrb O3_173.LoProp.molden O3_173.scf.molden O3_173.ScfOrb O3_173.scf.h5 xmldump
    saved to directory /home/grierjones/DDCASPT2/ozone/O3/O3_173

>>> COPY /tmp/O3_173/O3_173.scf.h5 /home/grierjones/DDCASPT2/ozone/O3/O3_173/

*** symbolic link created: INPORB -> O3_173.ScfOrb
--- Start Module: rasscf at Fri Jul 26 14:27:44 2024 ---
 
()()()()()()()()()()()()()()()()()()()()()()()()()()()()()()()()()()()()()()()()()()()()()()()()()()

                                              &RASSCF

                                   only a single process is used
                       available to each process: 2.0 GB of memory, 1 thread?
()()()()()()()()()()()()()()()()()()()()()()()()()()()()()()()()()()()()()()()()()()()()()()()()()()
 
 
      Header of the ONEINT file:
      --------------------------
      
      Integrals generated by seward 4.2.0  , Fri Jul 26 14:27:38 2024
 
 
      OrdInt status: non-squared
 
 
      Cartesian coordinates in Angstrom:
      -----------------------------------------------------
      No.  Label        X            Y            Z        
      -----------------------------------------------------
       1   O1         0.07802000   1.27561600   0.00000000
       2   O2         0.00000000   0.00000000   0.00000000
       3   O3         0.07802000  -1.27561600   0.00000000
      -----------------------------------------------------
      Nuclear repulsion energy =   66.27544255
 
++    Wave function specifications:
      -----------------------------
 
      Number of closed shell electrons          20
      Number of electrons in active shells       4
      Max number of holes in RAS1 space          0
      Max nr of electrons in RAS3 space          0
      Number of inactive orbitals               10
      Number of active orbitals                  3
      Number of secondary orbitals              29
      Spin quantum number                      0.0
      State symmetry                             1
--
 
++    Orbital specifications:
      -----------------------
 
      Symmetry species                           1
                                                 a
      Frozen orbitals                            0
      Inactive orbitals                         10
      Active orbitals                            3
      RAS1 orbitals                              0
      RAS2 orbitals                              3
      RAS3 orbitals                              0
      Secondary orbitals                        29
      Deleted orbitals                           0
      Number of basis functions                 42
--
 
++    CI expansion specifications:
      ----------------------------
 
      Number of CSFs                             6
      Number of determinants                     6
      Number of root(s) required                 1
      Root chosen for geometry opt.              1
      CI root used                               1
         
      highest root included in the CI            1
      max. size of the explicit Hamiltonian      6
--
 
++    Optimization specifications:
      ----------------------------
 
      RASSCF algorithm: Conventional
      Maximum number of macro iterations       200
      Maximum number of SX iterations          100
      Threshold for RASSCF energy            0.100E-07
      Threshold for max MO rotation          0.100E+00
      Threshold for max BLB element          0.100E-03
      Level shift parameter                  0.500E+00
      Make Quasi-Newton update
--
 
      The MO-coefficients are taken from the file:
      /home/grierjones/DDCASPT2/ozone/O3/O3_172/O3_172.RasOrb                                                                         
      Title: RASSCF average (pseudo-natural) orbitals                                      
 
      Total molecular charge    0.00
 
      ************************************************************************************************************************
      *                                                                                                                      *
      *                                            Wave function control section                                             *
      *                                                                                                                      *
      ************************************************************************************************************************
 
 
                                         RASSCF iterations: Energy and convergence statistics
                                         ----------------------------------------------------
 
      Iter CI   SX   CI       RASSCF       Energy    max ROT     max BLB   max BLB  Level Ln srch  Step   QN   Walltime
          iter iter root      energy       change     param      element    value   shift minimum  type update hh:mm:ss
 Nr of preliminary CI iterations:   1
        1   1    4    1  -224.45440013    0.00E+00   0.29E-02    7  14 1 -0.66E-02*  0.19   0.00    SX    NO    0:00:00
        2   1    4    1  -224.45451592   -0.12E-03* -0.18E-02    7  14 1 -0.40E-02*  0.19   0.00    SX    NO    0:00:00
        3   1    3    1  -224.45454595   -0.30E-04* -0.13E-02    7  14 1 -0.23E-02*  0.19   0.00    SX    NO    0:00:00
        4   1    3    1  -224.45455667   -0.11E-04* -0.95E-03   10  14 1  0.15E-02*  0.19   0.00    SX    NO    0:00:00
        5   1    3    1  -224.45456098   -0.43E-05* -0.14E-02   10  14 1  0.11E-02*  0.19   2.50    LS   YES    0:00:00
        6   1    3    1  -224.45456425   -0.33E-05* -0.96E-03   10  14 1  0.63E-03*  0.19   1.34    QN   YES    0:00:00
        7   1    3    1  -224.45456545   -0.12E-05* -0.78E-03    7  14 1  0.42E-03*  0.19   1.24    QN   YES    0:00:00
        8   1    3    1  -224.45456608   -0.63E-06* -0.64E-03    7  14 1  0.32E-03*  0.19   1.52    QN   YES    0:00:00
        9   1    3    1  -224.45456633   -0.25E-06* -0.22E-03    8  19 1 -0.19E-03*  0.19   0.81    QN   YES    0:00:00
       10   1    3    1  -224.45456635   -0.14E-07*  0.10E-03    8  19 1  0.14E-03*  0.19   0.55    LS   YES    0:00:00
       11   1    3    1  -224.45456635   -0.23E-08   0.70E-04    7  14 1  0.44E-04   0.19   0.52    QN   YES    0:00:00
      Convergence after 11 iterations
       12   1    3    1  -224.45456635   -0.50E-08   0.70E-04    8  19 1  0.32E-04   0.19   0.52    QN   YES    0:00:00
 
      ************************************************************************************************************************
                                                      Wave function printout:
                       occupation of active orbitals, and spin coupling of open shells (u,d: Spin up or down)
      ************************************************************************************************************************
 
      Note: transformation to natural orbitals
      has been made, which may change the order of the CSFs.
 
      printout of CI-coefficients larger than  0.00 for root  1
      energy=    -224.454566
      conf/sym  111     Coeff  Weight
             1  220  -0.93895 0.88163
 
   + sqrt(     1/1     )  |220|
 
             2  2ud  -0.00000 0.00000
 
   + sqrt(     1/2     )  |2ab|
   - sqrt(     1/2     )  |2ba|
 
             3  202   0.33168 0.11001
 
   + sqrt(     1/1     )  |202|
 
             4  u2d  -0.00000 0.00000
 
   - sqrt(     1/2     )  |a2b|
   + sqrt(     1/2     )  |b2a|
 
             5  ud2   0.00000 0.00000
 
   + sqrt(     1/2     )  |ab2|
   - sqrt(     1/2     )  |ba2|
 
             6  022   0.09143 0.00836
 
   + sqrt(     1/1     )  |022|
 
 
      Natural orbitals and occupation numbers for root  1
      sym 1:   1.983281   1.779980   0.236739
 
      ************************************************************************************************************************
      *                                                                                                                      *
      *                                                    Final results                                                     *
      *                                                                                                                      *
      ************************************************************************************************************************
 
 
++    Wave function specifications:
      -----------------------------
 
      Number of closed shell electrons          20
      Number of electrons in active shells       4
      Max number of holes in RAS1 space          0
      Max nr of electrons in RAS3 space          0
      Number of inactive orbitals               10
      Number of active orbitals                  3
      Number of secondary orbitals              29
      Spin quantum number                      0.0
      State symmetry                             1
--
 
++    Orbital specifications:
      -----------------------
 
      Symmetry species                           1
                                                 a
      Frozen orbitals                            0
      Inactive orbitals                         10
      Active orbitals                            3
      RAS1 orbitals                              0
      RAS2 orbitals                              3
      RAS3 orbitals                              0
      Secondary orbitals                        29
      Deleted orbitals                           0
      Number of basis functions                 42
--
 
++    CI expansion specifications:
      ----------------------------
 
      Number of CSFs                             6
      Number of determinants                     6
      Number of root(s) required                 1
      CI root used                               1
      highest root included in the CI            1
      Root passed to geometry opt.               1
--
 
++    Final optimization conditions:
      ------------------------------
 
      Average CI energy                            -224.45456635
      RASSCF energy for state  1                   -224.45456635
      Super-CI energy                                -0.00000000
      RASSCF energy change                           -0.00000000
      Max change in MO coefficients               0.789E-04
      Max non-diagonal density matrix element     0.704E-04
      Maximum BLB matrix element                  0.316E-04
      (orbital pair   8,  19 in symmetry   1)
      Norm of electronic gradient            0.530E-04
--
 
 
      Final state energy(ies):
      ------------------------
 
::    RASSCF root number  1 Total energy:   -224.45456635
 
++    Molecular orbitals:
      -------------------
 
      Pseudonatural active orbitals and approximate occupation numbers
 
 
 
 
      Molecular orbitals for symmetry species 1: a  
 
 
      Orbital                1         2         3         4         5         6         7         8         9        10
      Energy          -20.7513  -20.7399  -20.7399   -1.6723   -1.4536   -1.0498   -0.8040   -0.7709   -0.6257   -0.4501
      Occ. No.          2.0000    2.0000    2.0000    2.0000    2.0000    2.0000    2.0000    2.0000    2.0000    2.0000
 
    1 O1     1s         0.0240   -0.7072    0.7068   -0.0153    0.0084    0.0148   -0.0014   -0.0188    0.0029    0.0004
    2 O1     2s         0.0002   -0.0008    0.0005    0.3483   -0.5908    0.6410   -0.0307   -0.3833    0.0372   -0.0061
    3 O1     3s         0.0001   -0.0001   -0.0001   -0.0251    0.0120    0.0187   -0.0022   -0.0249    0.0033    0.0058
    4 O1     2px        0.0001    0.0000   -0.0000   -0.0052    0.0093    0.0195    0.3966   -0.0885   -0.6998    0.6408
    5 O1     3px        0.0001    0.0000   -0.0000    0.0021   -0.0013   -0.0027   -0.0333    0.0047    0.0072    0.0467
    6 O1     2py       -0.0003    0.0009   -0.0010   -0.1035    0.0901    0.1994   -0.0492   -0.4455    0.0809    0.0488
    7 O1     3py       -0.0000   -0.0005    0.0003    0.0253   -0.0177   -0.0275    0.0033    0.0270    0.0002   -0.0059
    8 O1     2pz       -0.0000   -0.0000    0.0000   -0.0000    0.0000    0.0000    0.0000   -0.0000   -0.0000    0.0000
    9 O1     3pz       -0.0000    0.0000    0.0000   -0.0000   -0.0000   -0.0000   -0.0000    0.0000   -0.0000    0.0000
   10 O1     3d2-       0.0000   -0.0000    0.0000    0.0007   -0.0021   -0.0017   -0.0229    0.0046    0.0130    0.0080
   11 O1     3d1-      -0.0000    0.0000    0.0000    0.0000    0.0000    0.0000   -0.0000    0.0000    0.0000    0.0000
   12 O1     3d0        0.0000    0.0001   -0.0002   -0.0088    0.0087    0.0074   -0.0018   -0.0173    0.0024    0.0012
   13 O1     3d1+       0.0000   -0.0000    0.0000    0.0000    0.0000   -0.0000    0.0000   -0.0000   -0.0000    0.0000
   14 O1     3d2+      -0.0001   -0.0002    0.0001   -0.0167    0.0150    0.0160   -0.0051   -0.0323    0.0048    0.0036
   15 O2     1s         0.9994    0.0000   -0.0341   -0.0219   -0.0000   -0.0122   -0.0013   -0.0000    0.0000    0.0082
   16 O2     2s         0.0001    0.0000   -0.0008    0.6452   -0.0000   -0.6271   -0.0168   -0.0000    0.0000    0.1056
   17 O2     3s        -0.0012    0.0000   -0.0006   -0.0294   -0.0000   -0.0190   -0.0008   -0.0000    0.0000    0.0160
   18 O2     2px        0.0002   -0.0000    0.0000    0.0210    0.0000    0.0264    0.6834   -0.0000    0.0000   -0.8041
   19 O2     3px       -0.0004    0.0000   -0.0000   -0.0043   -0.0000   -0.0035   -0.0506    0.0000   -0.0000   -0.0638
   20 O2     2py        0.0000    0.0010    0.0000    0.0000   -0.2989    0.0000    0.0000    0.5133   -0.0592    0.0000
   21 O2     3py        0.0000    0.0012    0.0000    0.0000    0.0789    0.0000   -0.0000   -0.0762    0.0006    0.0000
   22 O2     2pz       -0.0000   -0.0000   -0.0000   -0.0000    0.0000    0.0000    0.0000   -0.0000    0.0000   -0.0000
   23 O2     3pz        0.0000   -0.0000   -0.0000    0.0000    0.0000   -0.0000   -0.0000   -0.0000    0.0000   -0.0000
   24 O2     3d2-      -0.0000    0.0000    0.0000    0.0000   -0.0079    0.0000    0.0000    0.0058   -0.0361    0.0000
   25 O2     3d1-      -0.0000    0.0000    0.0000   -0.0000    0.0000   -0.0000    0.0000   -0.0000   -0.0000    0.0000
   26 O2     3d0       -0.0002   -0.0000    0.0003   -0.0177   -0.0000    0.0016   -0.0044   -0.0000    0.0000    0.0080
   27 O2     3d1+      -0.0000    0.0000   -0.0000    0.0000    0.0000   -0.0000    0.0000   -0.0000    0.0000   -0.0000
   28 O2     3d2+       0.0002   -0.0000    0.0004   -0.0328   -0.0000    0.0005    0.0047   -0.0000    0.0000    0.0087
   29 O3     1s         0.0240    0.7072    0.7068   -0.0153   -0.0084    0.0148   -0.0014    0.0188   -0.0029    0.0004
   30 O3     2s         0.0002    0.0008    0.0005    0.3483    0.5908    0.6410   -0.0307    0.3833   -0.0372   -0.0061
   31 O3     3s         0.0001    0.0001   -0.0001   -0.0251   -0.0120    0.0187   -0.0022    0.0249   -0.0033    0.0058
   32 O3     2px        0.0001   -0.0000   -0.0000   -0.0052   -0.0093    0.0195    0.3966    0.0885    0.6998    0.6408
   33 O3     3px        0.0001   -0.0000   -0.0000    0.0021    0.0013   -0.0027   -0.0333   -0.0047   -0.0072    0.0467
   34 O3     2py        0.0003    0.0009    0.0010    0.1035    0.0901   -0.1994    0.0492   -0.4455    0.0809   -0.0488
   35 O3     3py        0.0000   -0.0005   -0.0003   -0.0253   -0.0177    0.0275   -0.0033    0.0270    0.0002    0.0059
   36 O3     2pz        0.0000    0.0000    0.0000   -0.0000   -0.0000    0.0000    0.0000    0.0000    0.0000    0.0000
   37 O3     3pz        0.0000    0.0000    0.0000    0.0000   -0.0000    0.0000   -0.0000    0.0000   -0.0000    0.0000
   38 O3     3d2-      -0.0000   -0.0000   -0.0000   -0.0007   -0.0021    0.0017    0.0229    0.0046    0.0130   -0.0080
   39 O3     3d1-       0.0000    0.0000    0.0000    0.0000   -0.0000    0.0000    0.0000   -0.0000    0.0000   -0.0000
   40 O3     3d0        0.0000   -0.0001   -0.0002   -0.0088   -0.0087    0.0074   -0.0018    0.0173   -0.0024    0.0012
   41 O3     3d1+      -0.0000    0.0000   -0.0000    0.0000   -0.0000   -0.0000    0.0000    0.0000   -0.0000   -0.0000
   42 O3     3d2+      -0.0001    0.0002    0.0001   -0.0167   -0.0150    0.0160   -0.0051    0.0323   -0.0048    0.0036
 
 
      Orbital               11        12        13        14        15        16        17        18        19        20
      Energy            0.0000    0.0000    0.0000    0.1364    0.2868    0.4682    0.4779    0.5148    0.6612    0.6726
      Occ. No.          1.9833    1.7800    0.2367    0.0000    0.0000    0.0000    0.0000    0.0000    0.0000    0.0000
 
    1 O1     1s        -0.0000    0.0000   -0.0000   -0.0265   -0.1652    0.0000   -0.0093    0.0355   -0.0362    0.0084
    2 O1     2s        -0.0000    0.0000    0.0000   -0.3367   -1.1920    0.0000   -0.0653    0.2642   -0.0959    0.0208
    3 O1     3s        -0.0000    0.0000   -0.0000   -0.0064   -0.4313    0.0000   -0.0346    0.2168   -0.1187    0.0325
    4 O1     2px       -0.0000    0.0000   -0.0000   -0.0294    0.0571   -0.0000   -0.0758   -0.0363   -0.0454   -0.0875
    5 O1     3px        0.0000    0.0000    0.0000   -0.0097    0.0497   -0.0000    0.4621    0.0471   -0.1857   -0.8041
    6 O1     2py       -0.0000   -0.0000   -0.0000    0.8016    0.5772   -0.0000    0.0495   -0.2815   -0.4788    0.1223
    7 O1     3py       -0.0000   -0.0000    0.0000    0.1620    0.6612   -0.0000    0.1005   -0.8317    0.0481   -0.0102
    8 O1     2pz        0.3377   -0.7037    0.6582   -0.0000   -0.0000    0.0267   -0.0000   -0.0000    0.0000   -0.0000
    9 O1     3pz       -0.0296   -0.0097   -0.0639   -0.0000   -0.0000    0.4920    0.0000    0.0000   -0.0000   -0.0000
   10 O1     3d2-       0.0000   -0.0000   -0.0000   -0.0038   -0.0045   -0.0000    0.0293   -0.0007   -0.0260   -0.0159
   11 O1     3d1-      -0.0300    0.0199    0.0094    0.0000    0.0000    0.0361    0.0000    0.0000    0.0000   -0.0000
   12 O1     3d0        0.0000   -0.0000   -0.0000   -0.0003    0.0200   -0.0000    0.0027    0.0024    0.0659   -0.0167
   13 O1     3d1+      -0.0014    0.0006    0.0006   -0.0000    0.0000    0.0027    0.0000   -0.0000   -0.0000    0.0000
   14 O1     3d2+      -0.0000   -0.0000   -0.0000   -0.0016    0.0337   -0.0000    0.0097    0.0003    0.1106   -0.0283
   15 O2     1s         0.0000   -0.0000   -0.0000    0.1155    0.0000   -0.0000    0.0306   -0.1819    0.0000   -0.0000
   16 O2     2s         0.0000    0.0000   -0.0000    1.1260    0.0000   -0.0000    0.1878   -1.0868    0.0000   -0.0000
   17 O2     3s        -0.0000   -0.0000    0.0000    0.2656    0.0000   -0.0000    0.0779   -0.3609    0.0000   -0.0000
   18 O2     2px       -0.0000   -0.0000    0.0000    0.1590    0.0000    0.0000   -0.1180   -0.0293   -0.0000   -0.0000
   19 O2     3px        0.0000   -0.0000    0.0000    0.0345    0.0000   -0.0000    0.4027   -0.0000   -0.0000   -0.0000
   20 O2     2py        0.0000   -0.0000   -0.0000   -0.0000    1.3213    0.0000    0.0000   -0.0000   -0.4049    0.0996
   21 O2     3py        0.0000    0.0000   -0.0000   -0.0000    1.1301   -0.0000    0.0000    0.0000    0.7504   -0.1847
   22 O2     2pz        0.7451    0.0000   -0.6966   -0.0000   -0.0000   -0.2928   -0.0000    0.0000    0.0000   -0.0000
   23 O2     3pz       -0.0032   -0.0000   -0.0729   -0.0000   -0.0000    0.3377    0.0000    0.0000    0.0000   -0.0000
   24 O2     3d2-      -0.0000    0.0000    0.0000   -0.0000    0.0114   -0.0000    0.0000    0.0000    0.0300    0.0632
   25 O2     3d1-       0.0000   -0.0468   -0.0000   -0.0000    0.0000    0.0000   -0.0000    0.0000   -0.0000    0.0000
   26 O2     3d0        0.0000   -0.0000   -0.0000    0.0384    0.0000    0.0000   -0.0133    0.0986    0.0000   -0.0000
   27 O2     3d1+       0.0074    0.0000   -0.0049    0.0000   -0.0000   -0.0058   -0.0000   -0.0000   -0.0000   -0.0000
   28 O2     3d2+      -0.0000   -0.0000   -0.0000    0.0694    0.0000    0.0000   -0.0322    0.1615    0.0000   -0.0000
   29 O3     1s         0.0000   -0.0000   -0.0000   -0.0265    0.1652    0.0000   -0.0093    0.0355    0.0362   -0.0084
   30 O3     2s        -0.0000   -0.0000   -0.0000   -0.3367    1.1920    0.0000   -0.0653    0.2642    0.0959   -0.0208
   31 O3     3s         0.0000    0.0000   -0.0000   -0.0064    0.4313    0.0000   -0.0346    0.2168    0.1187   -0.0325
   32 O3     2px       -0.0000   -0.0000   -0.0000   -0.0294   -0.0571   -0.0000   -0.0758   -0.0363    0.0454    0.0875
   33 O3     3px        0.0000    0.0000    0.0000   -0.0097   -0.0497   -0.0000    0.4621    0.0471    0.1857    0.8041
   34 O3     2py        0.0000   -0.0000    0.0000   -0.8016    0.5772    0.0000   -0.0495    0.2815   -0.4788    0.1223
   35 O3     3py        0.0000   -0.0000   -0.0000   -0.1620    0.6612    0.0000   -0.1005    0.8317    0.0481   -0.0102
   36 O3     2pz        0.3377    0.7037    0.6582    0.0000    0.0000    0.0267   -0.0000   -0.0000   -0.0000    0.0000
   37 O3     3pz       -0.0296    0.0097   -0.0639    0.0000    0.0000    0.4920    0.0000    0.0000    0.0000    0.0000
   38 O3     3d2-      -0.0000   -0.0000   -0.0000    0.0038   -0.0045    0.0000   -0.0293    0.0007   -0.0260   -0.0159
   39 O3     3d1-       0.0300    0.0199   -0.0094   -0.0000    0.0000   -0.0361   -0.0000   -0.0000   -0.0000   -0.0000
   40 O3     3d0        0.0000    0.0000   -0.0000   -0.0003   -0.0200   -0.0000    0.0027    0.0024   -0.0659    0.0167
   41 O3     3d1+      -0.0014   -0.0006    0.0006   -0.0000    0.0000    0.0027    0.0000   -0.0000    0.0000   -0.0000
   42 O3     3d2+      -0.0000   -0.0000    0.0000   -0.0016   -0.0337   -0.0000    0.0097    0.0003   -0.1106    0.0283
 
 
      Orbital               21        22        23        24        25        26        27        28        29        30
      Energy            0.6835    0.8578    1.0257    1.0370    1.0789    1.6896    1.7021    1.7307    1.7308    1.9973
      Occ. No.          0.0000    0.0000    0.0000    0.0000    0.0000    0.0000    0.0000    0.0000    0.0000    0.0000
 
    1 O1     1s        -0.0000   -0.0198   -0.0073   -0.0000    0.0965   -0.0000   -0.0184    0.0000   -0.0012   -0.2756
    2 O1     2s        -0.0000   -0.1024   -0.0399   -0.0000    0.5702   -0.0000   -0.1421    0.0000   -0.0112   -1.8881
    3 O1     3s        -0.0000    0.4525   -0.0189    0.0000   -0.0770   -0.0000   -0.2348    0.0000   -0.0165   -1.7215
    4 O1     2px        0.0000   -0.0065   -0.4832   -0.0000   -0.0557    0.0000    0.1678   -0.0000    0.0171    0.0571
    5 O1     3px        0.0000   -0.0021   -0.9238   -0.0000   -0.0377   -0.0000   -0.0131   -0.0000    0.0108    0.0823
    6 O1     2py       -0.0000   -0.0472    0.0160    0.0000   -0.0781    0.0000    0.0362   -0.0000    0.0095    0.6555
    7 O1     3py        0.0000    0.3071    0.0077   -0.0000    0.6911    0.0000    0.0934   -0.0000    0.0084    0.1827
    8 O1     2pz       -0.0846   -0.0000   -0.0000    0.5131    0.0000   -0.1796    0.0000   -0.0157   -0.0000   -0.0000
    9 O1     3pz       -0.8254   -0.0000   -0.0000    0.9126    0.0000    0.0307   -0.0000   -0.0115   -0.0000    0.0000
   10 O1     3d2-       0.0000   -0.0131   -0.0459   -0.0000   -0.0130    0.0000    0.4475   -0.0000    0.0626   -0.0777
   11 O1     3d1-      -0.0264    0.0000   -0.0000    0.0392    0.0000   -0.4531    0.0000   -0.0627   -0.0000   -0.0000
   12 O1     3d0        0.0000    0.0502    0.0115    0.0000   -0.0659   -0.0000   -0.0247   -0.0000    0.3787   -0.0192
   13 O1     3d1+      -0.0003   -0.0000   -0.0000    0.0080    0.0000   -0.0469    0.0000    0.4347    0.0000    0.0000
   14 O1     3d2+       0.0000    0.0785    0.0036    0.0000   -0.1091    0.0000    0.0551    0.0000   -0.2133   -0.0028
   15 O2     1s        -0.0000    0.0114   -0.0027   -0.0000   -0.0000    0.0000   -0.0000   -0.0000    0.0046   -0.0000
   16 O2     2s         0.0000    0.0496   -0.0069   -0.0000   -0.0000    0.0000   -0.0000   -0.0000    0.0292   -0.0000
   17 O2     3s         0.0000    0.5654   -0.0089   -0.0000   -0.0000    0.0000   -0.0000   -0.0000    0.0207   -0.0000
   18 O2     2px       -0.0000    0.0033    0.6658    0.0000    0.0000    0.0000   -0.0000   -0.0000    0.0142   -0.0000
   19 O2     3px       -0.0000    0.0055    1.6398    0.0000    0.0000    0.0000   -0.0000    0.0000   -0.0225   -0.0000
   20 O2     2py       -0.0000    0.0000    0.0000    0.0000   -0.8304    0.0000    0.1327    0.0000   -0.0000    2.0411
   21 O2     3py        0.0000   -0.0000    0.0000    0.0000   -0.9840    0.0000    0.1702    0.0000   -0.0000    2.2080
   22 O2     2pz       -0.0000    0.0000    0.0000   -0.6714   -0.0000    0.0000   -0.0000   -0.0164   -0.0000    0.0000
   23 O2     3pz       -0.0000    0.0000    0.0000   -1.6609   -0.0000    0.0000    0.0000    0.0257    0.0000   -0.0000
   24 O2     3d2-      -0.0000    0.0000   -0.0000   -0.0000    0.0577   -0.0000   -0.5598    0.0000   -0.0000    0.1152
   25 O2     3d1-       0.0809   -0.0000   -0.0000    0.0000   -0.0000    0.5714   -0.0000    0.0000   -0.0000    0.0000
   26 O2     3d0        0.0000    0.0489    0.0177    0.0000   -0.0000    0.0000   -0.0000   -0.0000    0.5745   -0.0000
   27 O2     3d1+       0.0000   -0.0000   -0.0000    0.0129   -0.0000   -0.0000    0.0000    0.6645    0.0000   -0.0000
   28 O2     3d2+       0.0000    0.0704    0.0068    0.0000   -0.0000   -0.0000    0.0000    0.0000   -0.3338   -0.0000
   29 O3     1s         0.0000   -0.0198   -0.0073   -0.0000   -0.0965    0.0000    0.0184    0.0000   -0.0012    0.2756
   30 O3     2s         0.0000   -0.1024   -0.0399   -0.0000   -0.5702    0.0000    0.1421    0.0000   -0.0112    1.8881
   31 O3     3s         0.0000    0.4525   -0.0189    0.0000    0.0770    0.0000    0.2348    0.0000   -0.0165    1.7215
   32 O3     2px       -0.0000   -0.0065   -0.4832   -0.0000    0.0557   -0.0000   -0.1678   -0.0000    0.0171   -0.0571
   33 O3     3px       -0.0000   -0.0021   -0.9238   -0.0000    0.0377    0.0000    0.0131   -0.0000    0.0108   -0.0823
   34 O3     2py       -0.0000    0.0472   -0.0160   -0.0000   -0.0781    0.0000    0.0362    0.0000   -0.0095    0.6555
   35 O3     3py       -0.0000   -0.3071   -0.0077   -0.0000    0.6911    0.0000    0.0934    0.0000   -0.0084    0.1827
   36 O3     2pz        0.0846   -0.0000   -0.0000    0.5131    0.0000    0.1796   -0.0000   -0.0157   -0.0000   -0.0000
   37 O3     3pz        0.8254   -0.0000   -0.0000    0.9126    0.0000   -0.0307    0.0000   -0.0115   -0.0000    0.0000
   38 O3     3d2-       0.0000    0.0131    0.0459    0.0000   -0.0130    0.0000    0.4475    0.0000   -0.0626   -0.0777
   39 O3     3d1-      -0.0264    0.0000    0.0000   -0.0392   -0.0000   -0.4531    0.0000    0.0627    0.0000   -0.0000
   40 O3     3d0       -0.0000    0.0502    0.0115    0.0000    0.0659    0.0000    0.0247   -0.0000    0.3787    0.0192
   41 O3     3d1+       0.0003   -0.0000   -0.0000    0.0080   -0.0000    0.0469   -0.0000    0.4347    0.0000   -0.0000
   42 O3     3d2+      -0.0000    0.0785    0.0036   -0.0000    0.1091   -0.0000   -0.0551    0.0000   -0.2133    0.0028
 
 
      Orbital               31        32        33        34        35        36        37        38        39        40
      Energy            2.0287    2.0930    2.0932    2.4951    2.4951    2.6331    2.6654    2.6915    3.0034    3.5998
      Occ. No.          0.0000    0.0000    0.0000    0.0000    0.0000    0.0000    0.0000    0.0000    0.0000    0.0000
 
    1 O1     1s        -0.1136   -0.0000    0.0076    0.0086   -0.0000    0.0197    0.0000   -0.0177    0.0283    0.0000
    2 O1     2s        -0.8608   -0.0000    0.0538    0.0511   -0.0000    0.0181    0.0000   -0.2011    0.3292    0.0000
    3 O1     3s        -0.9525   -0.0000    0.0560    0.0160   -0.0000   -0.2308    0.0000   -0.3023    0.3964    0.0000
    4 O1     2px        0.0253    0.0000   -0.0026    0.0840   -0.0000    0.1715    0.0000   -0.2603   -0.0333    0.0000
    5 O1     3px        0.0369   -0.0000    0.0054    0.1463   -0.0000    0.2772    0.0000   -0.3734   -0.0215    0.0000
    6 O1     2py        0.5847    0.0000   -0.0214   -0.0269    0.0000    0.0869   -0.0000    0.2094   -0.4247   -0.0000
    7 O1     3py        0.6042    0.0000   -0.0119   -0.0004    0.0000    0.2799   -0.0000    0.2844   -0.4119   -0.0000
    8 O1     2pz       -0.0000    0.0009    0.0000   -0.0000   -0.0886   -0.0000   -0.3203   -0.0000    0.0000   -0.3338
    9 O1     3pz        0.0000   -0.0080   -0.0000   -0.0000   -0.1460   -0.0000   -0.4658   -0.0000   -0.0000   -0.2034
   10 O1     3d2-      -0.0510    0.0000   -0.0661   -0.2284    0.0000   -0.4578   -0.0000    0.6204    0.1204   -0.0000
   11 O1     3d1-      -0.0000    0.0672    0.0000    0.0000    0.2310    0.0000    0.7796    0.0000   -0.0000    0.6811
   12 O1     3d0       -0.0410    0.0000   -0.6134    0.4917   -0.0000    0.1686   -0.0000    0.2982   -0.4086   -0.0000
   13 O1     3d1+       0.0000   -0.7061   -0.0000    0.0000    0.5610   -0.0000   -0.1232   -0.0000   -0.0000    0.0577
   14 O1     3d2+      -0.0685   -0.0000    0.3492   -0.2687    0.0000    0.4874   -0.0000    0.3544   -0.6978   -0.0000
   15 O2     1s         0.2716    0.0000    0.0000    0.0002   -0.0000    0.1486   -0.0000    0.1481   -0.0000    0.0000
   16 O2     2s         1.9513   -0.0000    0.0000   -0.0250    0.0000    0.7822   -0.0000    0.8919   -0.0000   -0.0000
   17 O2     3s         1.9621   -0.0000    0.0000   -0.0737    0.0000    0.0182   -0.0000    0.3433   -0.0000   -0.0000
   18 O2     2px        0.0272   -0.0000    0.0000   -0.2640    0.0000   -0.4130   -0.0000    0.7111   -0.0000   -0.0000
   19 O2     3px        0.0419    0.0000    0.0000   -0.2414    0.0000   -0.4520   -0.0000    0.6566    0.0000    0.0000
   20 O2     2py        0.0000    0.0000   -0.0566    0.0000   -0.0000    0.0000    0.0000    0.0000   -0.7489   -0.0000
   21 O2     3py        0.0000    0.0000   -0.0602    0.0000   -0.0000    0.0000   -0.0000    0.0000    0.2997   -0.0000
   22 O2     2pz        0.0000    0.0000   -0.0000    0.0000    0.2721    0.0000    0.8217    0.0000    0.0000    0.0000
   23 O2     3pz       -0.0000   -0.0000   -0.0000    0.0000    0.2370    0.0000    0.7819    0.0000    0.0000    0.0000
   24 O2     3d2-       0.0000   -0.0000    0.0046    0.0000   -0.0000    0.0000   -0.0000   -0.0000    0.0343   -0.0000
   25 O2     3d1-      -0.0000   -0.0064   -0.0000   -0.0000   -0.0000   -0.0000   -0.0000   -0.0000   -0.0000    1.1069
   26 O2     3d0        0.0813   -0.0000   -0.0000   -0.5933    0.0000    0.3856   -0.0000   -0.0911   -0.0000    0.0000
   27 O2     3d1+       0.0000   -0.0000   -0.0000   -0.0000   -0.7085    0.0000    0.3211    0.0000    0.0000    0.0000
   28 O2     3d2+       0.1426   -0.0000    0.0000    0.3881   -0.0000    0.2389   -0.0000    0.3233   -0.0000    0.0000
   29 O3     1s        -0.1136    0.0000   -0.0076    0.0086   -0.0000    0.0197    0.0000   -0.0177   -0.0283   -0.0000
   30 O3     2s        -0.8608    0.0000   -0.0538    0.0511   -0.0000    0.0181    0.0000   -0.2011   -0.3292   -0.0000
   31 O3     3s        -0.9525    0.0000   -0.0560    0.0160   -0.0000   -0.2308    0.0000   -0.3023   -0.3964   -0.0000
   32 O3     2px        0.0253   -0.0000    0.0026    0.0840   -0.0000    0.1715    0.0000   -0.2603    0.0333   -0.0000
   33 O3     3px        0.0369    0.0000   -0.0054    0.1463   -0.0000    0.2772    0.0000   -0.3734    0.0215   -0.0000
   34 O3     2py       -0.5847    0.0000   -0.0214    0.0269   -0.0000   -0.0869    0.0000   -0.2094   -0.4247   -0.0000
   35 O3     3py       -0.6042    0.0000   -0.0119    0.0004   -0.0000   -0.2799    0.0000   -0.2844   -0.4119   -0.0000
   36 O3     2pz       -0.0000   -0.0009   -0.0000   -0.0000   -0.0886   -0.0000   -0.3203   -0.0000   -0.0000    0.3338
   37 O3     3pz        0.0000    0.0080    0.0000   -0.0000   -0.1460   -0.0000   -0.4658   -0.0000   -0.0000    0.2034
   38 O3     3d2-       0.0510    0.0000   -0.0661    0.2284   -0.0000    0.4578    0.0000   -0.6204    0.1204   -0.0000
   39 O3     3d1-       0.0000    0.0672    0.0000   -0.0000   -0.2310   -0.0000   -0.7796   -0.0000   -0.0000    0.6811
   40 O3     3d0       -0.0410   -0.0000    0.6134    0.4917   -0.0000    0.1686   -0.0000    0.2982    0.4086    0.0000
   41 O3     3d1+       0.0000    0.7061    0.0000    0.0000    0.5610   -0.0000   -0.1232   -0.0000    0.0000   -0.0577
   42 O3     3d2+      -0.0685    0.0000   -0.3492   -0.2687    0.0000    0.4874   -0.0000    0.3544    0.6978    0.0000
 
 
      Orbital               41        42
      Energy            3.6093    4.4730
      Occ. No.          0.0000    0.0000
 
    1 O1     1s        -0.0132    0.2410
    2 O1     2s        -0.0823    1.5901
    3 O1     3s        -0.0279    0.8014
    4 O1     2px       -0.3266   -0.1104
    5 O1     3px       -0.2038   -0.0505
    6 O1     2py        0.0805   -1.1821
    7 O1     3py        0.0198   -0.4987
    8 O1     2pz       -0.0000    0.0000
    9 O1     3pz       -0.0000   -0.0000
   10 O1     3d2-       0.6681    0.1372
   11 O1     3d1-       0.0000   -0.0000
   12 O1     3d0        0.0151   -0.3448
   13 O1     3d1+       0.0000   -0.0000
   14 O1     3d2+       0.1404   -0.5844
   15 O2     1s         0.0000   -0.4316
   16 O2     2s         0.0000   -3.0498
   17 O2     3s         0.0000   -1.9630
   18 O2     2px        0.0000   -0.0650
   19 O2     3px        0.0000   -0.0013
   20 O2     2py        0.0738    0.0000
   21 O2     3py        0.0089    0.0000
   22 O2     2pz       -0.0000   -0.0000
   23 O2     3pz       -0.0000    0.0000
   24 O2     3d2-       1.1080   -0.0000
   25 O2     3d1-       0.0000   -0.0000
   26 O2     3d0        0.0000    0.7150
   27 O2     3d1+      -0.0000    0.0000
   28 O2     3d2+       0.0000    1.2402
   29 O3     1s         0.0132    0.2410
   30 O3     2s         0.0823    1.5901
   31 O3     3s         0.0279    0.8014
   32 O3     2px        0.3266   -0.1104
   33 O3     3px        0.2038   -0.0505
   34 O3     2py        0.0805    1.1821
   35 O3     3py        0.0198    0.4987
   36 O3     2pz        0.0000   -0.0000
   37 O3     3pz        0.0000   -0.0000
   38 O3     3d2-       0.6681   -0.1372
   39 O3     3d1-       0.0000   -0.0000
   40 O3     3d0       -0.0151   -0.3448
   41 O3     3d1+      -0.0000   -0.0000
   42 O3     3d2+      -0.1404   -0.5844
--
 
      Von Neumann Entropy (Root  1) =  0.52607
 

      Mulliken population analysis for root number:  1
      -----------------------------------------------
 
 
++    Molecular charges:
      ------------------
 
      Mulliken charges per centre and basis function type
      ---------------------------------------------------
 
                O1      O2      O3    
      1s       2.0003  1.9999  2.0003
      2s       1.9346  1.6400  1.9346
      2px      2.0145  1.9899  2.0145
      2pz      1.2862  1.3856  1.2862
      2py      0.7864  0.9421  0.7864
      3s      -0.0147 -0.0258 -0.0147
      3px     -0.0232 -0.0572 -0.0232
      3pz     -0.0087 -0.0049 -0.0087
      3py     -0.0137  0.0148 -0.0137
      3d2+     0.0198  0.0173  0.0198
      3d1+     0.0000  0.0003  0.0000
      3d0      0.0057  0.0049  0.0057
      3d1-     0.0145  0.0350  0.0145
      3d2-     0.0128  0.0292  0.0128
      Total    8.0145  7.9709  8.0145
 
      N-E     -0.0145  0.0291 -0.0145
 
      Total electronic charge=   24.000000
 
      Total            charge=   -0.000000
--
 
 

      Expectation values of various properties for root number:  1
      -----------------------------------------------------------
 
 
++    Molecular properties:
      ---------------------
 
      Charge (e):
                      =   -0.0000
      Dipole Moment (Debye):
      Origin of the operator (Ang)=    0.0000    0.0000    0.0000
                   X=  1.0853E-01               Y= -8.3147E-11               Z= -3.6631E-13           Total=  1.0853E-01
      Quadrupole Moment (Debye*Ang):
      Origin of the operator (Ang)=    0.0520    0.0000    0.0000
                  XX= -1.6303E+01              XY= -5.1564E-12              XZ= -5.0774E-12              YY= -1.5781E+01
                  YZ= -6.5783E-15              ZZ= -1.4798E+01
      In traceless form (Debye*Ang)
                  XX= -1.0135E+00              XY= -7.7346E-12              XZ= -7.6161E-12              YY= -2.3072E-01
                  YZ= -9.8674E-15              ZZ=  1.2442E+00
--
 

      LoProp population analysis for root number:  1
      -----------------------------------------------
 
 
++    LoProp analysis:
      ----------------
 
 
 
  Input file to MOLDEN was generated!
 
 
++    Static properties:
      ------------------
 
 
      LoProp Charges per center
 

                   O1       O2       O3    
      Nuclear      8.0000   8.0000   8.0000
      Electronic  -8.0529  -7.8941  -8.0529
 
      Total       -0.0529   0.1059  -0.0529
--
 
 
      Natural Bond Order analysis for root number:  1
 
++    Natural Bond Order analysis
      ---------------------------
      Based on LoProp computed density
      -------------------------------------------------------------------------------------
      Atom A       Atom B       Bond Order | Atom A       Atom B       Bond Order
        O1           O2             1.969  |   O2           O3             1.969
      -------------------------------------------------------------------------------------
      NBO located     16.000 core electrons.
      NBO located      7.876 electrons involved in    2 bonds.
      The remaining    0.124 electrons are to be considered as diffuse
--
 
--
 
 
  Input file to MOLDEN was generated!
 
      Average orbitals are written to the RASORB file
      Natural orbitals for root   1 are written to the RASORB.1 file
      Spin density orbitals for root   1 are written to the SPDORB.1 file
 
--- Stop Module: rasscf at Fri Jul 26 14:27:45 2024 /rc=_RC_ALL_IS_WELL_ ---
*** files: O3_173.LprOrb O3_173.rasscf.molden O3_173.LoProp.molden O3_173.RasOrb O3_173.RasOrb.1 O3_173.rasscf.h5 O3_173.SpdOrb.1 xmldump
    saved to directory /home/grierjones/DDCASPT2/ozone/O3/O3_173

>>> COPY /tmp/O3_173/O3_173.rasscf.h5 /home/grierjones/DDCASPT2/ozone/O3/O3_173/

>>> COPY /tmp/O3_173/GMJ_Fock_MO.csv /home/grierjones/DDCASPT2/ozone/O3/O3_173/O3_173.GMJ_Fock_MO.csv

*** symbolic link created: INPORB -> O3_173.RasOrb
--- Start Module: caspt2 at Fri Jul 26 14:27:45 2024 ---
 
()()()()()()()()()()()()()()()()()()()()()()()()()()()()()()()()()()()()()()()()()()()()()()()()()()

                                              &CASPT2

                                   only a single process is used
                       available to each process: 2.0 GB of memory, 1 thread?
()()()()()()()()()()()()()()()()()()()()()()()()()()()()()()()()()()()()()()()()()()()()()()()()()()
 
 Cholesky algorithm in CASPT2 =    1
 
 ###############################################################################
 ###############################################################################
 ###                                                                         ###
 ###                                                                         ###
 ###    User changed nr of frozen orbitals.                                  ###
 ###                                                                         ###
 ###                                                                         ###
 ###############################################################################
 ###############################################################################
 
++    Wave function specifications:
      -----------------------------
 
      Number of closed shell electrons          20
      Number of electrons in active shells       4
      Max number of holes in RAS1 space          0
      Max number of electrons in RAS3 space      0
      Number of inactive orbitals               10
      Number of active orbitals                  3
      Number of secondary orbitals              29
      Spin quantum number                      0.0
      State symmetry                             1
      Number of CSFs                             6
      Number of root(s) available                1
      Root passed to geometry opt.               1
      A file JOBMIX will be created.
      This is a CASSCF or RASSCF reference function
--
 
++    Orbital specifications:
      -----------------------
 
      Symmetry species                           1
                                                 a
      Frozen orbitals                            0
      Inactive orbitals                         10
      Active orbitals                            3
      Secondary orbitals                        29
      Deleted orbitals                           0
      Number of basis functions                 42
--
 
      Type of Fock operator: STANDARD
      Type of 0-order Hamiltonian: STANDARD WITH DEFAULT IPEA
        "IP-EA" denominator shift =      0.25
      The input orbitals and the CI vector will be transformed.
 
--------------------------------------------------------------------------------
 Estimated memory requirements:
  POLY3 :                   250202
  RHS:                      279634
  SIGMA :                   302200
  PRPCTL:                        0
 Available workspace:    230396563
 
++ CASPT2 computation for group   1
 
********************************************************************************
 Multi-State initialization phase begins for group   1
--------------------------------------------------------------------------------
********************************************************************************
 Compute H0 matrices for state    1
--------------------------------------------------------------------------------
--------------------------------------------------------------------------------
 H0 matrices have been computed.
 
********************************************************************************
  CASPT2 EQUATION SOLUTION
--------------------------------------------------------------------------------
 
  Total nr of CASPT2 parameters:
   Before reduction:       86691
   After  reduction:       82880
 
 The contributions to the second order correlation energy in atomic units.
-----------------------------------------------------------------------------------------------------------------------------
  IT.      VJTU        VJTI        ATVX        AIVX        VJAI        BVAT        BJAT        BJAI        TOTAL       RNORM  
-----------------------------------------------------------------------------------------------------------------------------
   1    -0.000000   -0.001575   -0.015577   -0.101043   -0.016773   -0.017103   -0.120804   -0.257579   -0.530455    0.002160
   2    -0.000000   -0.001594   -0.015633   -0.101385   -0.016790   -0.017108   -0.120817   -0.257582   -0.530908    0.000174
   3    -0.000000   -0.001594   -0.015634   -0.101390   -0.016790   -0.017108   -0.120818   -0.257582   -0.530915    0.000025
   4    -0.000000   -0.001595   -0.015633   -0.101388   -0.016790   -0.017108   -0.120818   -0.257582   -0.530912    0.000003
-------------------------------------------------------------------------------------------------------------------
 
  FINAL CASPT2 RESULT:
 
  Correlation energy /Case, /Symm, and sums:
 VJTU     -0.00000000 -0.00000000
 VJTIP    -0.00159463 -0.00159463
 VJTIM     0.00000000  0.00000000
 ATVX     -0.01563321 -0.01563321
 AIVX     -0.10138747 -0.10138747
 VJAIP    -0.01167173 -0.01167173
 VJAIM    -0.00511794 -0.00511794
 BVATP    -0.01625826 -0.01625826
 BVATM    -0.00084927 -0.00084927
 BJATP    -0.04530695 -0.04530695
 BJATM    -0.07551073 -0.07551073
 BJAIP    -0.17338498 -0.17338498
 BJAIM    -0.08419671 -0.08419671
 Summed:  -0.53091189 -0.53091189
 
      Reference energy:        -224.4545663545
      E2 (Non-variational):      -0.5309118896
      E2 (Variational):          -0.5309119167
      Total energy:            -224.9854782711
      Residual norm:              0.0000002971
      Reference weight:           0.85751
 
      Contributions to the CASPT2 correlation energy
      Active & Virtual Only:         -0.0327407371
      One Inactive Excited:          -0.2222051568
      Two Inactive Excited:          -0.2759659958
 
 
++ Denominators, etc.
----------------------------------------------------------------------------------------------------
 Report on small energy denominators, large coefficients, and large energy contributions.
CASE  SYMM ACTIVE-MIX  NON-ACTIVE INDICES          DENOMINATOR     RHS VALUE       COEFFICIENT     CONTRIBUTION
ATVX     1  Mu1.0006  Se1.016                       1.90364772     -0.06894657      0.03691830     -0.00254539
ATVX     1  Mu1.0005  Se1.021                       1.87510065      0.11096798     -0.05799990     -0.00643613
ATVX     1  Mu1.0005  Se1.026                       2.88117671     -0.08021457      0.02792821     -0.00224025
AIVX     1  Mu1.0005  In1.004 Se1.014               2.60370465      0.08675206     -0.03331275     -0.00288995
AIVX     1  Mu1.0002  In1.005 Se1.014               1.98391511      0.05203563     -0.02564834     -0.00133463
AIVX     1  Mu1.0003  In1.005 Se1.014               2.08431547      0.06638177     -0.03135825     -0.00208162
AIVX     1  Mu1.0004  In1.006 Se1.014               1.82706667      0.06577156     -0.03635248     -0.00239096
AIVX     1  Mu1.0005  In1.006 Se1.014               1.98115617     -0.06211703      0.03183038     -0.00197721
AIVX     1  Mu1.0002  In1.008 Se1.014               1.30119574     -0.12113410      0.09230818     -0.01118167
AIVX     1  Mu1.0003  In1.008 Se1.014               1.40159610     -0.06934430      0.04910065     -0.00340485
AIVX     1  Mu1.0002  In1.009 Se1.017               1.49756738      0.05863507     -0.03803092     -0.00222995
AIVX     1  Mu1.0004  In1.010 Se1.017               1.56890946     -0.06106369      0.03878272     -0.00236822
AIVX     1  Mu1.0002  In1.008 Se1.018               1.67962437     -0.04666598      0.02701727     -0.00126079
AIVX     1  Mu1.0004  In1.008 Se1.019               2.07305667      0.12749528     -0.06182400     -0.00788227
AIVX     1  Mu1.0005  In1.008 Se1.019               2.22714616     -0.07868798      0.03546313     -0.00279052
AIVX     1  Mu1.0002  In1.010 Se1.020               1.51662194      0.06466994     -0.04146556     -0.00268158
AIVX     1  Mu1.0003  In1.010 Se1.020               1.61702230      0.04378196     -0.02623780     -0.00114874
AIVX     1  Mu1.0004  In1.006 Se1.022               2.54849856     -0.06971804      0.02730458     -0.00190362
AIVX     1  Mu1.0002  In1.008 Se1.022               2.02262763      0.05481558     -0.02663653     -0.00146010
BJATM    1  Mu1.0002  In1.008 Se1.019 Se1.016       2.61859678      0.06117788     -0.02567433     -0.00157070
BJATM    1  Mu1.0001  In1.009 Se1.021 Se1.020       2.38291537     -0.06293931      0.02641441     -0.00166250
BJATM    1  Mu1.0002  In1.010 Se1.023 Se1.016       2.66224340     -0.06559101      0.02549448     -0.00167221
BJAIP    1  Se1.014 In1.006 Se1.014 In1.006         2.37233120      0.06631125     -0.02795191     -0.00185353
BJAIP    1  Se1.014 In1.006 Se1.019 In1.008         2.61832120      0.09965733     -0.03806151     -0.00379311
BJAIP    1  Se1.014 In1.008 Se1.014 In1.008         1.81459023      0.08945416     -0.04929717     -0.00440984
BJAIP    1  Se1.019 In1.008 Se1.019 In1.008         2.86431120      0.11511076     -0.04018790     -0.00462606
BJAIP    1  Se1.017 In1.007 Se1.023 In1.010         2.75772888     -0.07488950      0.02715621     -0.00203371
BJAIP    1  Se1.017 In1.009 Se1.020 In1.010         2.22638807      0.06600094     -0.02964485     -0.00195659
BJAIP    1  Se1.014 In1.010 Se1.014 In1.010         1.17290997      0.03049534     -0.02599973     -0.00079287
BJAIM    1  Se1.014 In1.006 Se1.018 In1.008         2.61832120      0.07248667     -0.02768436     -0.00200675
BJAIM    1  Se1.014 In1.008 Se1.016 In1.009         2.01096187     -0.05665017      0.02817068     -0.00159587
BJAIM    1  Se1.017 In1.008 Se1.018 In1.010         2.36016399      0.06110139     -0.02588857     -0.00158183
BJAIM    1  Se1.014 In1.008 Se1.019 In1.010         2.03001643     -0.05441233      0.02680390     -0.00145846
BJAIM    1  Se1.014 In1.008 Se1.026 In1.010         3.05951299     -0.08762446      0.02864000     -0.00250956
--
 
   (Skipping property calculation,
    use PROP keyword to activate)
--
 
  Total CASPT2 energies:
::    CASPT2 Root  1     Total energy:   -224.98547827
 
  A NEW JOBIPH FILE NAMED 'JOBMIX' IS PREPARED.
********************************************************************************
--- Stop Module: caspt2 at Fri Jul 26 14:27:45 2024 /rc=_RC_ALL_IS_WELL_ ---
*** files: xmldump
    saved to directory /home/grierjones/DDCASPT2/ozone/O3/O3_173

>>> EXPORT i = B

>>> EXPORT j = P

>>> IF (-FILE GMJ_e2_${i}_${j}.csv)

>>> COPY /tmp/O3_173/GMJ_RHS_B_P.csv /home/grierjones/DDCASPT2/ozone/O3/O3_173/GMJ_RHS_B_P.csv

>>> COPY /tmp/O3_173/GMJ_IVECW_B_P.csv /home/grierjones/DDCASPT2/ozone/O3/O3_173/GMJ_IVECW_B_P.csv

>>> COPY /tmp/O3_173/GMJ_e2_B_P.csv /home/grierjones/DDCASPT2/ozone/O3/O3_173/GMJ_e2_B_P.csv

>>> END FOREACH

>>> EXPORT j = M

>>> IF (-FILE GMJ_e2_${i}_${j}.csv)
(Skipped)

>>> END FOREACH

>>> END FOREACH

>>> EXPORT i = E

>>> EXPORT j = P

>>> IF (-FILE GMJ_e2_${i}_${j}.csv)

>>> COPY /tmp/O3_173/GMJ_RHS_E_P.csv /home/grierjones/DDCASPT2/ozone/O3/O3_173/GMJ_RHS_E_P.csv

>>> COPY /tmp/O3_173/GMJ_IVECW_E_P.csv /home/grierjones/DDCASPT2/ozone/O3/O3_173/GMJ_IVECW_E_P.csv

>>> COPY /tmp/O3_173/GMJ_e2_E_P.csv /home/grierjones/DDCASPT2/ozone/O3/O3_173/GMJ_e2_E_P.csv

>>> END FOREACH

>>> EXPORT j = M

>>> IF (-FILE GMJ_e2_${i}_${j}.csv)

>>> COPY /tmp/O3_173/GMJ_RHS_E_M.csv /home/grierjones/DDCASPT2/ozone/O3/O3_173/GMJ_RHS_E_M.csv

>>> COPY /tmp/O3_173/GMJ_IVECW_E_M.csv /home/grierjones/DDCASPT2/ozone/O3/O3_173/GMJ_IVECW_E_M.csv

>>> COPY /tmp/O3_173/GMJ_e2_E_M.csv /home/grierjones/DDCASPT2/ozone/O3/O3_173/GMJ_e2_E_M.csv

>>> END FOREACH

>>> END FOREACH

>>> EXPORT i = F

>>> EXPORT j = P

>>> IF (-FILE GMJ_e2_${i}_${j}.csv)

>>> COPY /tmp/O3_173/GMJ_RHS_F_P.csv /home/grierjones/DDCASPT2/ozone/O3/O3_173/GMJ_RHS_F_P.csv

>>> COPY /tmp/O3_173/GMJ_IVECW_F_P.csv /home/grierjones/DDCASPT2/ozone/O3/O3_173/GMJ_IVECW_F_P.csv

>>> COPY /tmp/O3_173/GMJ_e2_F_P.csv /home/grierjones/DDCASPT2/ozone/O3/O3_173/GMJ_e2_F_P.csv

>>> END FOREACH

>>> EXPORT j = M

>>> IF (-FILE GMJ_e2_${i}_${j}.csv)

>>> COPY /tmp/O3_173/GMJ_RHS_F_M.csv /home/grierjones/DDCASPT2/ozone/O3/O3_173/GMJ_RHS_F_M.csv

>>> COPY /tmp/O3_173/GMJ_IVECW_F_M.csv /home/grierjones/DDCASPT2/ozone/O3/O3_173/GMJ_IVECW_F_M.csv

>>> COPY /tmp/O3_173/GMJ_e2_F_M.csv /home/grierjones/DDCASPT2/ozone/O3/O3_173/GMJ_e2_F_M.csv

>>> END FOREACH

>>> END FOREACH

>>> EXPORT i = G

>>> EXPORT j = P

>>> IF (-FILE GMJ_e2_${i}_${j}.csv)

>>> COPY /tmp/O3_173/GMJ_RHS_G_P.csv /home/grierjones/DDCASPT2/ozone/O3/O3_173/GMJ_RHS_G_P.csv

>>> COPY /tmp/O3_173/GMJ_IVECW_G_P.csv /home/grierjones/DDCASPT2/ozone/O3/O3_173/GMJ_IVECW_G_P.csv

>>> COPY /tmp/O3_173/GMJ_e2_G_P.csv /home/grierjones/DDCASPT2/ozone/O3/O3_173/GMJ_e2_G_P.csv

>>> END FOREACH

>>> EXPORT j = M

>>> IF (-FILE GMJ_e2_${i}_${j}.csv)

>>> COPY /tmp/O3_173/GMJ_RHS_G_M.csv /home/grierjones/DDCASPT2/ozone/O3/O3_173/GMJ_RHS_G_M.csv

>>> COPY /tmp/O3_173/GMJ_IVECW_G_M.csv /home/grierjones/DDCASPT2/ozone/O3/O3_173/GMJ_IVECW_G_M.csv

>>> COPY /tmp/O3_173/GMJ_e2_G_M.csv /home/grierjones/DDCASPT2/ozone/O3/O3_173/GMJ_e2_G_M.csv

>>> END FOREACH

>>> END FOREACH

>>> EXPORT i = H

>>> EXPORT j = P

>>> IF (-FILE GMJ_e2_${i}_${j}.csv)

>>> COPY /tmp/O3_173/GMJ_RHS_H_P.csv /home/grierjones/DDCASPT2/ozone/O3/O3_173/GMJ_RHS_H_P.csv

>>> COPY /tmp/O3_173/GMJ_IVECW_H_P.csv /home/grierjones/DDCASPT2/ozone/O3/O3_173/GMJ_IVECW_H_P.csv

>>> COPY /tmp/O3_173/GMJ_e2_H_P.csv /home/grierjones/DDCASPT2/ozone/O3/O3_173/GMJ_e2_H_P.csv

>>> END FOREACH

>>> EXPORT j = M

>>> IF (-FILE GMJ_e2_${i}_${j}.csv)

>>> COPY /tmp/O3_173/GMJ_RHS_H_M.csv /home/grierjones/DDCASPT2/ozone/O3/O3_173/GMJ_RHS_H_M.csv

>>> COPY /tmp/O3_173/GMJ_IVECW_H_M.csv /home/grierjones/DDCASPT2/ozone/O3/O3_173/GMJ_IVECW_H_M.csv

>>> COPY /tmp/O3_173/GMJ_e2_H_M.csv /home/grierjones/DDCASPT2/ozone/O3/O3_173/GMJ_e2_H_M.csv

>>> END FOREACH

>>> END FOREACH

>>> EXPORT i = A

>>> IF (-FILE GMJ_e2_$i.csv)

>>> COPY /tmp/O3_173/GMJ_RHS_A.csv /home/grierjones/DDCASPT2/ozone/O3/O3_173/GMJ_RHS_A.csv

>>> COPY /tmp/O3_173/GMJ_IVECW_A.csv /home/grierjones/DDCASPT2/ozone/O3/O3_173/GMJ_IVECW_A.csv

>>> COPY /tmp/O3_173/GMJ_e2_A.csv /home/grierjones/DDCASPT2/ozone/O3/O3_173/GMJ_e2_A.csv

>>> END FOREACH

>>> EXPORT i = C

>>> IF (-FILE GMJ_e2_$i.csv)

>>> COPY /tmp/O3_173/GMJ_RHS_C.csv /home/grierjones/DDCASPT2/ozone/O3/O3_173/GMJ_RHS_C.csv

>>> COPY /tmp/O3_173/GMJ_IVECW_C.csv /home/grierjones/DDCASPT2/ozone/O3/O3_173/GMJ_IVECW_C.csv

>>> COPY /tmp/O3_173/GMJ_e2_C.csv /home/grierjones/DDCASPT2/ozone/O3/O3_173/GMJ_e2_C.csv

>>> END FOREACH

>>> EXPORT i = D

>>> IF (-FILE GMJ_e2_$i.csv)

>>> COPY /tmp/O3_173/GMJ_RHS_D.csv /home/grierjones/DDCASPT2/ozone/O3/O3_173/GMJ_RHS_D.csv

>>> COPY /tmp/O3_173/GMJ_IVECW_D.csv /home/grierjones/DDCASPT2/ozone/O3/O3_173/GMJ_IVECW_D.csv

>>> COPY /tmp/O3_173/GMJ_e2_D.csv /home/grierjones/DDCASPT2/ozone/O3/O3_173/GMJ_e2_D.csv

>>> END FOREACH

.########################.
.# Non-zero return code #.
.########################.

    Timing: Wall=7.04 User=4.21 System=2.83
**************************************
*** WorkDir at /tmp/O3_173 cleaned ***
**************************************
