   This run of MOLCAS is using the pymolcas driver

                             OPE
                             OPE          NMOL  CASOP  ENMOLC A   SO
                 OPE        NMOLC        AS  OP EN  MO LC     AS  OP
                OPENM       OL CA        SO  PE NM  OL CA     SOP EN
                OP EN      MO   LC       AS  OP ENMOL  CASO   PENMOL
                OP  EN     MO   LC       AS  OP EN     MO     LC ASO
               OP   E  NMOL  C  AS       OP  EN MO     LC     AS  OP
               OP  E   NMO   LC AS        OPEN  MO     LCASOP EN   M
               O  PEN   MO  LCA  SO
            OPE   NMO   L   CAS    OP
        OPENMOL  CASOP     ENMOL   CASOPE
     OPENMOLCA   SOPENMOLCASOPEN   MOLCASOPE
    OPENMOLCAS   OP           EN   MOL    CAS
    OPENMOLCAS       OP  ENM        O     LCA
    OPENMOLCAS    OPEN  MOLCASO     P  E  NMO
    OPENMOLCAS     OP               E  N  MOL
    OPENMOLCA   SO           PENM   O  L  CAS    OPEN    MO    LCAS
    OPENMOLCA   SOP           ENM   O  L  CAS   OP  EN  MOLC  AS   O
    OPENMOLCA   SOPE           NM      O  LCA   S      OP  EN MO
    OPENMOLC                AS         O  PEN   M      OL  CA  SOPE
    OPENMO        LCASOPE  NMOL        C  ASO   P      ENMOLC     AS
    OPE     NMO      LCA  SO     P     E   NM   OL  CA SO  PE N   MO
          OPENMOLCA            SOPE   NMO        LCAS  O    P  ENMO
     OPENMOLCASOPENMOLCASOPENMOLCASOPENMOLCA
        OPENMOLCASOPENMOLCASOPENMOLCASOPE
            OPENMOLCASOPENMOLCASOPENM
               OPENMOLCASOPENMOLCA        version: ea724fe96-dirty
                   OPENMOLCASO
                       OPE                tag:

 OpenMolcas is free software; you can redistribute it and/or modify it
 under the terms of the GNU Lesser General Public License version 2.1.
 OpenMolcas is distributed in the hope that it will be useful, but it
 is provided "as is" and without any express or implied warranties.
 For more details see the full text of the license in the file
 LICENSE or in <http://www.gnu.org/licenses/>.

                 Copyright (C) The OpenMolcas Authors
           For the author list and the recommended citation,
                   consult the file CONTRIBUTORS.md

           *************************************************
           * pymolcas version py2.28                       *
           *   build c4a6d18ded8cb6cad61d2372a9abd97c      *
           *   (after the EMIL interpreter by V. Veryazov) *
           *************************************************

configuration info
------------------
C Compiler ID: Intel
C flags: -std=gnu99
Fortran Compiler ID: Intel
Fortran flags: -fpp -i8 -r8 -heap-arrays
Definitions: _MOLCAS_;_I8_;_LINUX_
Parallel: OFF (GA=OFF)


   --------------------------------------------------------------------------------
  |
  |              Project: H6_2.76
  |       Submitted from: /home/grierjones/DDCASPT2/hydrogen_comps/H6_chain/H6_2.76
  |         Scratch area: /tmp/H6_2.76
  |      Save outputs to: /home/grierjones/DDCASPT2/hydrogen_comps/H6_chain/H6_2.76
  |               Molcas: /home/grierjones/Test/build
  |
  | Scratch area is empty
  |
  |       MOLCAS_DRIVER = /usr/local/pymolcas
  | MOLCAS_KEEP_WORKDIR = NO
  |  MOLCAS_NEW_WORKDIR = YES
  |       MOLCAS_NPROCS = 1
  |        MOLCAS_PRINT = NORMAL
  |       MOLCAS_SOURCE = /home/grierjones/Test/build
  |    MOLCAS_STRUCTURE = 0
  |
   --------------------------------------------------------------------------------

++ ---------   Input file   ---------

&GATEWAY
coord=H6_2.76.xyz
Basis = ANO-RCC-VDZP
Group = nosymm
Expert
End of Input

&SEWARD
End of Input

&SCF

>>> COPY $WorkDir/H6_2.76.scf.h5 $CurrDir/

&RASSCF
Title= RASSCF
FileOrb
/home/grierjones/DDCASPT2/hydrogen_comps/H6_chain/H6_2.73/H6_2.73.RasOrb
NACTEL
6 0 0
Inactive
0
RAS2
6
Symmetry
1
Spin
1
orblisting
all
ITERation
300 200

>>> COPY $WorkDir/H6_2.76.rasscf.h5 $CurrDir/

>>> COPY $WorkDir/GMJ_Fock_MO.csv $CurrDir/H6_2.76.GMJ_Fock_MO.csv

>>> COPY $WorkDir/GMJ_PT2_Fock_MO.csv $CurrDir/H6_2.76.GMJ_PT2_Fock_MO.csv

&MOTRA
Frozen=0
LUMORB

>>> COPY $WorkDir/GMJ_one_int_indx.csv $CurrDir/H6_2.76.GMJ_one_int_indx.csv

>>> COPY $WorkDir/GMJ_one_int.csv $CurrDir/H6_2.76.GMJ_one_int.csv

>>> COPY $WorkDir/GMJ_two_int_indx.csv $CurrDir/H6_2.76.GMJ_two_int_indx.csv

>>> COPY $WorkDir/GMJ_two_int.csv $CurrDir/H6_2.76.GMJ_two_int.csv

&CASPT2
Frozen
0
MAXITER
50

>>> FOREACH i IN (B,E,F,G,H)

  >>> FOREACH j IN (P,M)

    >>> IF (-FILE GMJ_e2_${i}_${j}.csv)

      >>> COPY $WorkDir/GMJ_RHS_${i}_${j}.csv $CurrDir/GMJ_RHS_${i}_${j}.csv

      >>> COPY $WorkDir/GMJ_IVECW_${i}_${j}.csv $CurrDir/GMJ_IVECW_${i}_${j}.csv

      >>> COPY $WorkDir/GMJ_IVECX_${i}_${j}.csv $CurrDir/GMJ_IVECX_${i}_${j}.csv

      >>> COPY $WorkDir/GMJ_IVECC2_${i}_${j}.csv $CurrDir/GMJ_IVECC2_${i}_${j}.csv

      >>> COPY $WorkDir/GMJ_e2_${i}_${j}.csv $CurrDir/GMJ_e2_${i}_${j}.csv

    >>> END IF

  >>> END FOREACH

>>> END FOREACH

>>> FOREACH i IN (A,C,D)

  >>> IF (-FILE GMJ_e2_$i.csv)

    >>> COPY $WorkDir/GMJ_RHS_$i.csv $CurrDir/GMJ_RHS_$i.csv

    >>> COPY $WorkDir/GMJ_IVECW_$i.csv $CurrDir/GMJ_IVECW_$i.csv

    >>> COPY $WorkDir/GMJ_IVECX_$i.csv $CurrDir/GMJ_IVECX_$i.csv

    >>> COPY $WorkDir/GMJ_IVECC2_$i.csv $CurrDir/GMJ_IVECC2_$i.csv

    >>> COPY $WorkDir/GMJ_e2_$i.csv $CurrDir/GMJ_e2_$i.csv

  >>> END IF

>>> END FOREACH

-- ----------------------------------

--- Start Module: gateway at Mon Nov 18 14:14:44 2024 ---
 
()()()()()()()()()()()()()()()()()()()()()()()()()()()()()()()()()()()()()()()()()()()()()()()()()()

                                              &GATEWAY

                                   only a single process is used
                       available to each process: 2.0 GB of memory, 1 thread?
()()()()()()()()()()()()()()()()()()()()()()()()()()()()()()()()()()()()()()()()()()()()()()()()()()
 
 ###############################################################################
 ###############################################################################
 ###                                                                         ###
 ###                                                                         ###
 ###                                                                         ###
 ###    WARNING: EXPERT option is ON!                                        ###
 ###                                                                         ###
 ###                                                                         ###
 ###############################################################################
 ###############################################################################
 
++    Symmetry information:
      ---------------------
 
                    Character Table for C1 
 
                             E  
                    a        1  x, y, xy, Rz, z, xz, Ry, yz, Rx, I
--
 
 
++    Basis set information:
      ----------------------
 
 
      Basis set label: H.ANO-RCC...2S1P.
 
      Electronic valence basis set:
      ------------------
      Associated Effective Charge   1.000000 au
      Associated Actual Charge      1.000000 au
      Nuclear Model: Point charge
 
      Shell  nPrim  nBasis  Cartesian Spherical Contaminant
         s       8       2        X                  
         p       4       1        X                  
--
 
 
++    Molecular structure info:
      -------------------------
 
                    ************************************************ 
                    **** Cartesian Coordinates / Bohr, Angstrom **** 
                    ************************************************ 
 
     Center  Label                x              y              z                     x              y              z
        1      H1               0.000000       0.000000       0.000000              0.000000       0.000000       0.000000
        2      H2               0.000000       0.000000       5.211063              0.000000       0.000000       2.757576
        3      H3               0.000000       0.000000      10.422127              0.000000       0.000000       5.515152
        4      H4               0.000000       0.000000      15.633188              0.000000       0.000000       8.272727
        5      H5               0.000000       0.000000      20.844252              0.000000       0.000000      11.030303
        6      H6               0.000000       0.000000      26.055315              0.000000       0.000000      13.787879
 
                    *************************************** 
                    *    InterNuclear Distances / Bohr    * 
                    *************************************** 
 
               1 H1            2 H2            3 H3            4 H4            5 H5            6 H6    
    1 H1       0.000000
    2 H2       5.211063        0.000000
    3 H3      10.422127        5.211063        0.000000
    4 H4      15.633188       10.422125        5.211062        0.000000
    5 H5      20.844252       15.633188       10.422125        5.211063        0.000000
    6 H6      26.055315       20.844252       15.633188       10.422127        5.211063        0.000000
 
                    ******************************************* 
                    *    InterNuclear Distances / Angstrom    * 
                    ******************************************* 
 
               1 H1            2 H2            3 H3            4 H4            5 H5            6 H6    
    1 H1       0.000000
    2 H2       2.757576        0.000000
    3 H3       5.515152        2.757576        0.000000
    4 H4       8.272727        5.515151        2.757575        0.000000
    5 H5      11.030303        8.272727        5.515151        2.757576        0.000000
    6 H6      13.787879       11.030303        8.272727        5.515152        2.757576        0.000000
--
 
 
            Nuclear Potential Energy              1.66952502 au
 
 ###############################################################################
 ###############################################################################
 ###                                                                         ###
 ###                                                                         ###
 ###    There were warnings during the execution                             ###
 ###    Please, check the output with care!                                  ###
 ###                                                                         ###
 ###                                                                         ###
 ###############################################################################
 ###############################################################################
--- Stop Module: gateway at Mon Nov 18 14:14:45 2024 /rc=_RC_ALL_IS_WELL_ ---
*** files: xmldump
    saved to directory /home/grierjones/DDCASPT2/hydrogen_comps/H6_chain/H6_2.76

--- Start Module: seward at Mon Nov 18 14:14:45 2024 ---
 
()()()()()()()()()()()()()()()()()()()()()()()()()()()()()()()()()()()()()()()()()()()()()()()()()()

                                              &SEWARD

                                   only a single process is used
                       available to each process: 2.0 GB of memory, 1 thread?
()()()()()()()()()()()()()()()()()()()()()()()()()()()()()()()()()()()()()()()()()()()()()()()()()()
 
 ###############################################################################
 ###############################################################################
 ###                                                                         ###
 ###                                                                         ###
 ###                                                                         ###
 ###    WARNING: EXPERT option is ON!                                        ###
 ###                                                                         ###
 ###                                                                         ###
 ###############################################################################
 ###############################################################################
               SEWARD will generate:
                  Multipole Moment integrals up to order  2
                  Kinetic Energy integrals
                  Nuclear Attraction integrals (point charge)
                  One-Electron Hamiltonian integrals
                  Velocity integrals
                  Relativistic Douglas-Kroll-Hess integrals:
                    - Parametrization         : EXP
                    - DKH order of Hamiltonian: 2
                    - DKH order of Properties : 0
                         - multipole moment operators
                         - electric potential operators
                         - contact operators
                  Atomic mean-field integrals
                  Two-Electron Repulsion integrals
 
                   Integrals are discarded if absolute value <: 0.10E-13
                   Integral cutoff threshold is set to       <: 0.10E-15
 
            Nuclear Potential Energy              1.66952502 au
 
 
      Basis set specifications :
      Symmetry species         a  
      Basis functions           30
 
 
  Input file to MOLDEN was generated!
 
 ###############################################################################
 ###############################################################################
 ###                                                                         ###
 ###                                                                         ###
 ###    There were warnings during the execution                             ###
 ###    Please, check the output with care!                                  ###
 ###                                                                         ###
 ###                                                                         ###
 ###############################################################################
 ###############################################################################
--- Stop Module: seward at Mon Nov 18 14:14:45 2024 /rc=_RC_ALL_IS_WELL_ ---
*** files: H6_2.76.GssOrb H6_2.76.guessorb.h5 H6_2.76.guessorb.molden xmldump
    saved to directory /home/grierjones/DDCASPT2/hydrogen_comps/H6_chain/H6_2.76

*** symbolic link created: INPORB -> H6_2.76.GssOrb
--- Start Module: scf at Mon Nov 18 14:14:45 2024 ---
 
()()()()()()()()()()()()()()()()()()()()()()()()()()()()()()()()()()()()()()()()()()()()()()()()()()

                                                &SCF

                                   only a single process is used
                       available to each process: 2.0 GB of memory, 1 thread?
()()()()()()()()()()()()()()()()()()()()()()()()()()()()()()()()()()()()()()()()()()()()()()()()()()
 
++    Input section:
      --------------
 
      Header of the integral files:
      
       Integrals generated by seward 4.2.0  , Mon Nov 18 14:14:45 2024
 
 
      Cartesian coordinates in Angstrom:
      -----------------------------------------------------
      No.  Label        X            Y            Z        
      -----------------------------------------------------
       1   H1         0.00000000   0.00000000   0.00000000
       2   H2         0.00000000   0.00000000   2.75757600
       3   H3         0.00000000   0.00000000   5.51515200
       4   H4         0.00000000   0.00000000   8.27272700
       5   H5         0.00000000   0.00000000  11.03030300
       6   H6         0.00000000   0.00000000  13.78787900
      -----------------------------------------------------
      Nuclear repulsion energy =    1.66952502
--
 
++    Orbital specifications:
      -----------------------
 
      Symmetry species               1
                                     a
      Frozen orbitals                0
      Occupied orbitals              3
      Secondary orbitals            27
      Deleted orbitals               0
      Total number of orbitals      30
      Number of basis functions     30
--
 
      Molecular charge                           0.000
 
++    Optimization specifications:
      ----------------------------
 
      SCF Algorithm: Conventional
      Minimized density differences are used
      Number of density matrices in core                5
      Maximum number of NDDO SCF iterations           400
      Maximum number of HF SCF iterations             400
      Threshold for SCF energy change            0.10E-08
      Threshold for density matrix               0.10E-03
      Threshold for Fock matrix                  0.15E-03
      Threshold for linear dependence            0.10E-08
      Threshold at which DIIS is turned on       0.15E+00
      Threshold at which QNR/C2DIIS is turned on 0.75E-01
      Threshold for Norm(delta) (QNR/C2DIIS)     0.20E-04
      DIIS extrapolation of the SCF procedure
      All orbitals punched on: SCFORB
--
 
      Input vectors read from INPORB
      Orbital file label: *Guess orbitals
 
 
++ Convergence information
                                   SCF        iterations: Energy and convergence statistics
 
Iter     Tot. SCF        One-elec.       Two-elec.     Energy      Max Dij or  Max Fij      DNorm      TNorm      AccCon     Time
         Energy          Energy          Energy        Change      Delta Norm                                                in Sec.
   1    -2.343546905    -6.398293129     2.385221208   0.00E+00    0.41E+00*   0.13E+00*    0.39E+01   0.57E+01   None         0.
   2    -2.530640094    -6.378270043     2.178104933  -0.19E+00*   0.14E+00*   0.25E-01*    0.12E+01   0.54E+01   EDIIS        0.
   3    -2.539375218    -6.331655691     2.122755457  -0.87E-02*   0.94E-01*   0.98E-02*    0.25E+00   0.53E+01   EDIIS        0.
   4    -2.540931510    -6.339506931     2.129050404  -0.16E-02*   0.60E-01*   0.58E-02*    0.17E+00   0.53E+01   c2DIIS       0.
   5    -2.541486038    -6.328069967     2.117058913  -0.55E-03*   0.23E-01*   0.41E-02*    0.23E-01   0.53E+01   QNRc2DIIS    0.
   6    -2.541707046    -6.334493794     2.123261732  -0.22E-03*   0.17E-01*   0.28E-02*    0.76E-02   0.53E+01   QNRc2DIIS    0.
   7    -2.541839501    -6.331683874     2.120319357  -0.13E-03*   0.83E-02*   0.82E-03*    0.18E-02   0.53E+01   QNRc2DIIS    0.
   8    -2.541854308    -6.330681525     2.119302201  -0.15E-04*   0.25E-03*   0.24E-04     0.13E-02   0.53E+01   QNRc2DIIS    0.
   9    -2.541854325    -6.330707755     2.119328413  -0.17E-07*   0.57E-04*   0.35E-05     0.10E-03   0.53E+01   QNRc2DIIS    0.
  10    -2.541854326    -6.330702236     2.119322894  -0.60E-09    0.65E-05    0.58E-06     0.28E-04   0.53E+01   QNRc2DIIS    0.
 
       Convergence after 10 Macro Iterations
--
 
 *****************************************************************************************************************************
 *                                                                                                                           *
 *                                             SCF/KS-DFT Program, Final results                                             *
 *                                                                                                                           *
 *                                                                                                                           *
 *                                                                                                                           *
 *                                                       Final Results                                                       *
 *                                                                                                                           *
 *****************************************************************************************************************************
 
::    Total SCF energy                                 -2.5418543257
      One-electron energy                              -6.3307022362
      Two-electron energy                               2.1193228942
      Nuclear repulsion energy                          1.6695250163
      Kinetic energy (interpolated)                     1.9734164990
      Virial theorem                                    1.2880475698
      Total spin, S(S+1)                                0.0000000000
      Total spin, S                                     0.0000000000
      Max non-diagonal density matrix element           0.0000099957
      Max non-diagonal Fock matrix element              0.0000004911
 
 
      All orbitals with orbital energies smaller than  E(LUMO)+0.5 are printed
 
++    Molecular orbitals:
      -------------------
 
      Title: SCF orbitals

      Molecular orbitals for symmetry species 1: a  
 
          Orbital            1         2         3         4         5         6         7         8    
          Energy           -0.3687   -0.3503   -0.3271   -0.1495   -0.1168   -0.0884    0.3192    0.3368
          Occ. No.          2.0000    2.0000    2.0000    0.0000    0.0000    0.0000    0.0000    0.0000
 
        1 H1     1s         0.2534   -0.4271    0.3810   -0.4430    0.5361   -0.3429   -0.1373    0.1897
        2 H1     2s         0.0511   -0.0893    0.0838   -0.1355    0.1722   -0.1125    0.2625   -0.4498
        3 H1     2px       -0.0000    0.0000   -0.0000   -0.0000   -0.0000    0.0000   -0.0000    0.0000
        4 H1     2py       -0.0000    0.0000    0.0000   -0.0000    0.0000   -0.0000   -0.0000   -0.0000
        5 H1     2pz        0.0075   -0.0107    0.0077    0.0041   -0.0103    0.0104   -0.0045    0.0053
        6 H2     1s         0.3210   -0.4568    0.3188    0.2873   -0.5667    0.4905   -0.2191    0.2162
        7 H2     2s         0.0582   -0.1061    0.0936    0.0830   -0.1884    0.1679    0.2864   -0.3271
        8 H2     2px       -0.0000    0.0000    0.0000    0.0000    0.0000    0.0000   -0.0000    0.0000
        9 H2     2py        0.0000   -0.0000    0.0000   -0.0000   -0.0000    0.0000   -0.0000    0.0000
       10 H2     2pz       -0.0023    0.0080   -0.0108    0.0150   -0.0098   -0.0016    0.0029    0.0026
       11 H3     1s         0.4424   -0.0681   -0.4520    0.4930    0.1497   -0.6221   -0.2352    0.0838
       12 H3     2s         0.0872   -0.0000   -0.1190    0.1524    0.0555   -0.2101    0.3321   -0.1404
       13 H3     2px        0.0000   -0.0000   -0.0000   -0.0000   -0.0000    0.0000   -0.0000   -0.0000
       14 H3     2py       -0.0000   -0.0000    0.0000    0.0000   -0.0000    0.0000   -0.0000    0.0000
       15 H3     2pz        0.0064    0.0045   -0.0106   -0.0134    0.0110    0.0069   -0.0024    0.0063
       16 H4     1s         0.4424    0.0681   -0.4520   -0.4930    0.1497    0.6221   -0.2352   -0.0838
       17 H4     2s         0.0872    0.0000   -0.1190   -0.1524    0.0555    0.2101    0.3321    0.1404
       18 H4     2px       -0.0000   -0.0000    0.0000   -0.0000    0.0000    0.0000    0.0000    0.0000
       19 H4     2py        0.0000    0.0000    0.0000   -0.0000   -0.0000    0.0000    0.0000    0.0000
       20 H4     2pz       -0.0064    0.0045    0.0106   -0.0134   -0.0110    0.0069    0.0024    0.0063
       21 H5     1s         0.3210    0.4568    0.3188   -0.2873   -0.5667   -0.4905   -0.2191   -0.2162
       22 H5     2s         0.0582    0.1061    0.0936   -0.0830   -0.1884   -0.1679    0.2864    0.3271
       23 H5     2px        0.0000    0.0000    0.0000    0.0000    0.0000   -0.0000    0.0000    0.0000
       24 H5     2py       -0.0000    0.0000   -0.0000    0.0000    0.0000   -0.0000    0.0000   -0.0000
       25 H5     2pz        0.0023    0.0080    0.0108    0.0150    0.0098   -0.0016   -0.0029    0.0026
       26 H6     1s         0.2534    0.4271    0.3810    0.4430    0.5361    0.3429   -0.1373   -0.1897
       27 H6     2s         0.0511    0.0893    0.0838    0.1355    0.1722    0.1125    0.2625    0.4498
       28 H6     2px        0.0000   -0.0000   -0.0000   -0.0000    0.0000    0.0000   -0.0000    0.0000
       29 H6     2py        0.0000    0.0000   -0.0000    0.0000    0.0000   -0.0000   -0.0000    0.0000
       30 H6     2pz       -0.0075   -0.0107   -0.0077    0.0041    0.0103    0.0104    0.0045    0.0053
--
 
 
++    Molecular charges:
      ------------------
 
      Mulliken charges per centre and basis function type
      ---------------------------------------------------
 
                H1      H2      H3      H4      H5      H6    
      1s       0.8834  0.9223  0.9069  0.9069  0.9223  0.8834
      2s       0.0902  0.0970  0.0907  0.0907  0.0970  0.0902
      2px      0.0000  0.0000  0.0000  0.0000  0.0000  0.0000
      2pz      0.0029  0.0033  0.0033  0.0033  0.0033  0.0029
      2py      0.0000  0.0000  0.0000  0.0000  0.0000  0.0000
      Total    0.9764  1.0227  1.0009  1.0009  1.0227  0.9764
 
      N-E      0.0236 -0.0227 -0.0009 -0.0009 -0.0227  0.0236
 
      Total electronic charge=    6.000000
 
      Total            charge=   -0.000000
--
 
 
  Input file to MOLDEN was generated!
 
 
++    Static properties:
      ------------------
 
 
      LoProp Charges per center
 

                   H1       H2       H3       H4       H5       H6    
      Nuclear      1.0000   1.0000   1.0000   1.0000   1.0000   1.0000
      Electronic  -0.9848  -1.0136  -1.0016  -1.0016  -1.0136  -0.9848
 
      Total        0.0152  -0.0136  -0.0016  -0.0016  -0.0136   0.0152
--
 
 
++    Natural Bond Order analysis
      ---------------------------
      Based on LoProp computed density
      -------------------------------------------------------------------------------------
      Atom A       Atom B       Bond Order
      -------------------------------------------------------------------------------------
      NBO located      0.977 non-bonded electrons on atom H1        
      NBO located      1.007 non-bonded electrons on atom H3        
      NBO located      1.007 non-bonded electrons on atom H4        
      NBO located      0.977 non-bonded electrons on atom H6        
      The remaining    2.032 electrons are to be considered as diffuse
--
 
 
++    Molecular properties:
      ---------------------
 
      Charge (e):
                      =   -0.0000
      Dipole Moment (Debye):
      Origin of the operator (Ang)=    0.0000    0.0000    0.0000
                   X=  3.1487E-14               Y=  1.3525E-14               Z=  3.5037E-12           Total=  3.5038E-12
      Quadrupole Moment (Debye*Ang):
      Origin of the operator (Ang)=    0.0000    0.0000    6.8939
                  XX= -1.4696E+01              XY= -2.7837E-29              XZ= -2.0376E-13              YY= -1.4696E+01
                  YZ= -8.8160E-14              ZZ= -1.6835E+00
      In traceless form (Debye*Ang)
                  XX= -6.5062E+00              XY= -4.1756E-29              XZ= -3.0564E-13              YY= -6.5062E+00
                  YZ= -1.3224E-13              ZZ=  1.3012E+01
--
 
 
  Input file to MOLDEN was generated!
 
 ###############################################################################
 ###############################################################################
 ###                                                                         ###
 ###                                                                         ###
 ###    RunFile label nBas                                                   ###
 ###    was used       78 times                                              ###
 ###                                                                         ###
 ###                                                                         ###
 ###############################################################################
 ###############################################################################
--- Stop Module: scf at Mon Nov 18 14:14:45 2024 /rc=_RC_ALL_IS_WELL_ ---
*** files: H6_2.76.LprOrb H6_2.76.LoProp.molden H6_2.76.scf.molden H6_2.76.ScfOrb H6_2.76.scf.h5 xmldump
    saved to directory /home/grierjones/DDCASPT2/hydrogen_comps/H6_chain/H6_2.76

>>> COPY /tmp/H6_2.76/H6_2.76.scf.h5 /home/grierjones/DDCASPT2/hydrogen_comps/H6_chain/H6_2.76/

*** symbolic link created: INPORB -> H6_2.76.ScfOrb
--- Start Module: rasscf at Mon Nov 18 14:14:45 2024 ---
 
()()()()()()()()()()()()()()()()()()()()()()()()()()()()()()()()()()()()()()()()()()()()()()()()()()

                                              &RASSCF

                                   only a single process is used
                       available to each process: 2.0 GB of memory, 1 thread?
()()()()()()()()()()()()()()()()()()()()()()()()()()()()()()()()()()()()()()()()()()()()()()()()()()
 
 
 *************** WARNING ****************
 ###############################################################################
 ###############################################################################
 ###                                                                         ###
 ###                                                                         ###
 ###    Too many macro-iterations.                                           ###
 ###                                                                         ###
 ###                                                                         ###
 ###############################################################################
 ###############################################################################
 Too many macro-iterations requested.
 Reset to maximum, new MAXIT=     200
 ****************************************
 
 *************** WARNING ****************
 ###############################################################################
 ###############################################################################
 ###                                                                         ###
 ###                                                                         ###
 ###    Too many SX-iterations.                                              ###
 ###                                                                         ###
 ###                                                                         ###
 ###############################################################################
 ###############################################################################
 Too many SX-iterations requested.
 Reset to maximum, new ITMAX=     100
 ****************************************
 
      Header of the ONEINT file:
      --------------------------
      
      Integrals generated by seward 4.2.0  , Mon Nov 18 14:14:45 2024
 
 
      OrdInt status: non-squared
 
 
      Cartesian coordinates in Angstrom:
      -----------------------------------------------------
      No.  Label        X            Y            Z        
      -----------------------------------------------------
       1   H1         0.00000000   0.00000000   0.00000000
       2   H2         0.00000000   0.00000000   2.75757600
       3   H3         0.00000000   0.00000000   5.51515200
       4   H4         0.00000000   0.00000000   8.27272700
       5   H5         0.00000000   0.00000000  11.03030300
       6   H6         0.00000000   0.00000000  13.78787900
      -----------------------------------------------------
      Nuclear repulsion energy =    1.66952502
 
++    Wave function specifications:
      -----------------------------
 
      Number of closed shell electrons           0
      Number of electrons in active shells       6
      Max number of holes in RAS1 space          0
      Max nr of electrons in RAS3 space          0
      Number of inactive orbitals                0
      Number of active orbitals                  6
      Number of secondary orbitals              24
      Spin quantum number                      0.0
      State symmetry                             1
--
 
++    Orbital specifications:
      -----------------------
 
      Symmetry species                           1
                                                 a
      Frozen orbitals                            0
      Inactive orbitals                          0
      Active orbitals                            6
      RAS1 orbitals                              0
      RAS2 orbitals                              6
      RAS3 orbitals                              0
      Secondary orbitals                        24
      Deleted orbitals                           0
      Number of basis functions                 30
--
 
++    CI expansion specifications:
      ----------------------------
 
      Number of CSFs                           175
      Number of determinants                   210
      Number of root(s) required                 1
      Root chosen for geometry opt.              1
      CI root used                               1
         
      highest root included in the CI            1
      max. size of the explicit Hamiltonian    175
--
 
++    Optimization specifications:
      ----------------------------
 
      RASSCF algorithm: Conventional
      Maximum number of macro iterations       200
      Maximum number of SX iterations          100
      Threshold for RASSCF energy            0.100E-07
      Threshold for max MO rotation          0.100E+00
      Threshold for max BLB element          0.100E-03
      Level shift parameter                  0.500E+00
      Make Quasi-Newton update
--
 
      The MO-coefficients are taken from the file:
      /home/grierjones/DDCASPT2/hydrogen_comps/H6_chain/H6_2.73/H6_2.73.RasOrb                                                        
      Title: RASSCF average (pseudo-natural) orbitals                                      
 
      Total molecular charge    0.00
 
      ************************************************************************************************************************
      *                                                                                                                      *
      *                                            Wave function control section                                             *
      *                                                                                                                      *
      ************************************************************************************************************************
 
 
                                         RASSCF iterations: Energy and convergence statistics
                                         ----------------------------------------------------
 
      Iter CI   SX   CI       RASSCF       Energy    max ROT     max BLB   max BLB  Level Ln srch  Step   QN   Walltime
          iter iter root      energy       change     param      element    value   shift minimum  type update hh:mm:ss
 Nr of preliminary CI iterations:   1
        1   1    4    1    -2.99493372    0.00E+00   0.51E-03    3  11 1  0.37E-03*  0.01   0.00    SX    NO    0:00:00
        2   1    3    1    -2.99493455   -0.83E-06* -0.17E-03    1   7 1  0.11E-03*  0.01   0.00    SX    NO    0:00:00
        3   1    3    1    -2.99493457   -0.27E-07*  0.40E-04    1   7 1 -0.26E-04   0.01   0.00    SX    NO    0:00:00
        4   1    3    1    -2.99493458   -0.19E-08   0.15E-04    1   7 1  0.10E-04   0.01   0.00    SX    NO    0:00:00
      Convergence after  4 iterations
 
  Dmat in MO in SXCTL bf call to SXHAM                                                                                    
  mat. size =     6x    6
 
        1.2571157822712071
        0.0000000197623861      1.2061144667930095
        0.0000278943335031      0.0000002265401497      1.1292583153377966
        0.0000001643663143     -0.0000445170067865      0.0000000010789978      0.8728792620443978
        0.0000000000255013     -0.0000958407108268      0.0000001627927585      0.0000095071918099      0.7406689299163761
        0.0000196025453374      0.0000000009711641     -0.0001329706824274      0.0000002202108486     -0.0000000258755453
        0.7939632436372148
        5   1    3    1    -2.99493458   -0.18E-09   0.15E-04    1   7 1 -0.32E-05   0.01   0.00    SX    NO    0:00:00
 
      ************************************************************************************************************************
                                                      Wave function printout:
                       occupation of active orbitals, and spin coupling of open shells (u,d: Spin up or down)
      ************************************************************************************************************************
 
      Note: transformation to natural orbitals
      has been made, which may change the order of the CSFs.
 
      printout of CI-coefficients larger than  0.05 for root  1
      energy=      -2.994935
      conf/sym  111111     Coeff  Weight
             1  222000   0.43410 0.18844
            11  220200  -0.25405 0.06454
            12  220ud0  -0.05116 0.00262
            13  220020  -0.05774 0.00333
            16  220002  -0.06940 0.00482
            20  2udu0d  -0.27917 0.07794
            21  2ud0ud   0.09460 0.00895
            23  u2d200   0.05177 0.00268
            24  u2dud0   0.28488 0.08116
            25  u2d020   0.05392 0.00291
            28  u2d002  -0.11113 0.01235
            29  202200  -0.07050 0.00497
            30  202ud0   0.11124 0.01237
            31  202020  -0.07306 0.00534
            34  202002  -0.19927 0.03971
            38  ud2u0d  -0.09619 0.00925
            39  ud20ud   0.23802 0.05666
            41  022200  -0.05959 0.00355
            42  022ud0  -0.05477 0.00300
            43  022020  -0.18113 0.03281
            46  022002  -0.07423 0.00551
            48  2uud0d   0.08096 0.00655
            50  u2udd0  -0.09718 0.00944
            55  uu20dd   0.05272 0.00278
           120  200220   0.06518 0.00425
           123  200202   0.18889 0.03568
           124  200ud2  -0.05296 0.00281
           127  ud02ud  -0.21711 0.04714
           128  ud0u2d  -0.07249 0.00525
           132  020220   0.16203 0.02625
           135  020202   0.06618 0.00438
           136  020ud2   0.08916 0.00795
           138  u0d220   0.08911 0.00794
           141  u0d202  -0.05376 0.00289
           142  u0dud2   0.22362 0.05000
           145  0ud2ud  -0.07364 0.00542
           146  0udu2d  -0.19454 0.03784
           155  002022   0.15189 0.02307
           162  u0udd2  -0.07442 0.00554
           164  0uud2d   0.05718 0.00327
           175  000222  -0.21787 0.04747
 
      Natural orbitals and occupation numbers for root  1
      sym 1:   1.257116   1.206114   1.129258   0.872879   0.740669   0.793963
 
      ************************************************************************************************************************
      *                                                                                                                      *
      *                                                    Final results                                                     *
      *                                                                                                                      *
      ************************************************************************************************************************
 
 
++    Wave function specifications:
      -----------------------------
 
      Number of closed shell electrons           0
      Number of electrons in active shells       6
      Max number of holes in RAS1 space          0
      Max nr of electrons in RAS3 space          0
      Number of inactive orbitals                0
      Number of active orbitals                  6
      Number of secondary orbitals              24
      Spin quantum number                      0.0
      State symmetry                             1
--
 
++    Orbital specifications:
      -----------------------
 
      Symmetry species                           1
                                                 a
      Frozen orbitals                            0
      Inactive orbitals                          0
      Active orbitals                            6
      RAS1 orbitals                              0
      RAS2 orbitals                              6
      RAS3 orbitals                              0
      Secondary orbitals                        24
      Deleted orbitals                           0
      Number of basis functions                 30
--
 
++    CI expansion specifications:
      ----------------------------
 
      Number of CSFs                           175
      Number of determinants                   210
      Number of root(s) required                 1
      CI root used                               1
      highest root included in the CI            1
      Root passed to geometry opt.               1
--
 
++    Final optimization conditions:
      ------------------------------
 
      Average CI energy                              -2.99493458
      RASSCF energy for state  1                     -2.99493458
      Super-CI energy                                -0.00000000
      RASSCF energy change                           -0.00000000
      Max change in MO coefficients              -0.590E-05
      Max non-diagonal density matrix element     0.155E-04
      Maximum BLB matrix element                 -0.325E-05
      (orbital pair   1,   7 in symmetry   1)
      Norm of electronic gradient            0.461E-05
--
 
 
      Final state energy(ies):
      ------------------------
 
::    RASSCF root number  1 Total energy:     -2.99493458
 
++    Molecular orbitals:
      -------------------
 
      Pseudonatural active orbitals and approximate occupation numbers
 
 
 
 
      Molecular orbitals for symmetry species 1: a  
 
 
      Orbital                1         2         3         4         5         6         7         8         9        10
      Energy            0.0000    0.0000    0.0000    0.0000    0.0000    0.0000    0.3281    0.3457    0.3825    0.4473
      Occ. No.          1.2571    1.2061    1.1293    0.8729    0.7407    0.7940    0.0000    0.0000    0.0000    0.0000
 
    1 H1     1s         0.2769   -0.4471    0.4122   -0.4467    0.3283   -0.5105   -0.0971   -0.1189    0.0482   -0.0698
    2 H1     2s         0.0210   -0.0346    0.0334   -0.0466    0.0425   -0.0600    0.2644    0.4547   -0.5574   -0.5813
    3 H1     2px       -0.0000    0.0000    0.0000    0.0000   -0.0000    0.0000   -0.0000   -0.0000    0.0000   -0.0000
    4 H1     2py       -0.0000    0.0000   -0.0000    0.0000   -0.0000    0.0000   -0.0000    0.0000   -0.0000   -0.0000
    5 H1     2pz        0.0006   -0.0006    0.0003   -0.0009    0.0020   -0.0020   -0.0018   -0.0025    0.0068    0.0288
    6 H2     1s         0.3674   -0.4784    0.2854    0.2752   -0.4673    0.5513   -0.1665   -0.1631    0.0364    0.0081
    7 H2     2s         0.0247   -0.0421    0.0362    0.0229   -0.0749    0.0733    0.2953    0.3413   -0.0578    0.4270
    8 H2     2px        0.0000   -0.0000   -0.0000   -0.0000   -0.0000    0.0000   -0.0000   -0.0000   -0.0000    0.0000
    9 H2     2py       -0.0000    0.0000   -0.0000    0.0000    0.0000    0.0000    0.0000    0.0000   -0.0000   -0.0000
   10 H2     2pz        0.0006    0.0001   -0.0008   -0.0007   -0.0001   -0.0008    0.0004   -0.0045    0.0262    0.0583
   11 H3     1s         0.4519   -0.1086   -0.4780    0.5042    0.5684   -0.1552   -0.1805   -0.0549   -0.1043   -0.0054
   12 H3     2s         0.0321   -0.0010   -0.0492    0.0575    0.0909   -0.0282    0.3395    0.1426    0.4132    0.4736
   13 H3     2px       -0.0000    0.0000   -0.0000   -0.0000    0.0000    0.0000    0.0000    0.0000   -0.0000    0.0000
   14 H3     2py        0.0000   -0.0000    0.0000   -0.0000   -0.0000    0.0000   -0.0000   -0.0000    0.0000    0.0000
   15 H3     2pz       -0.0003    0.0009   -0.0002    0.0007    0.0011    0.0009    0.0004   -0.0062    0.0107   -0.0484
   16 H4     1s         0.4519    0.1086   -0.4780   -0.5042   -0.5684   -0.1552   -0.1805    0.0549   -0.1043    0.0054
   17 H4     2s         0.0321    0.0010   -0.0492   -0.0575   -0.0909   -0.0282    0.3395   -0.1426    0.4132   -0.4736
   18 H4     2px       -0.0000   -0.0000    0.0000   -0.0000   -0.0000   -0.0000    0.0000   -0.0000    0.0000    0.0000
   19 H4     2py        0.0000   -0.0000    0.0000    0.0000    0.0000   -0.0000   -0.0000   -0.0000    0.0000   -0.0000
   20 H4     2pz        0.0003    0.0009    0.0002    0.0007    0.0011   -0.0009   -0.0004   -0.0062   -0.0107   -0.0484
   21 H5     1s         0.3674    0.4784    0.2854   -0.2752    0.4673    0.5513   -0.1665    0.1631    0.0364   -0.0081
   22 H5     2s         0.0247    0.0421    0.0362   -0.0229    0.0749    0.0733    0.2953   -0.3413   -0.0578   -0.4270
   23 H5     2px        0.0000   -0.0000   -0.0000    0.0000    0.0000    0.0000   -0.0000   -0.0000   -0.0000   -0.0000
   24 H5     2py        0.0000   -0.0000    0.0000    0.0000   -0.0000   -0.0000   -0.0000   -0.0000    0.0000   -0.0000
   25 H5     2pz       -0.0006    0.0001    0.0008   -0.0007   -0.0001    0.0008   -0.0004   -0.0045   -0.0262    0.0583
   26 H6     1s         0.2769    0.4471    0.4122    0.4467   -0.3283   -0.5105   -0.0971    0.1189    0.0482    0.0698
   27 H6     2s         0.0210    0.0346    0.0334    0.0466   -0.0425   -0.0600    0.2644   -0.4547   -0.5574    0.5813
   28 H6     2px        0.0000   -0.0000   -0.0000   -0.0000   -0.0000    0.0000   -0.0000   -0.0000   -0.0000    0.0000
   29 H6     2py       -0.0000   -0.0000   -0.0000    0.0000   -0.0000    0.0000    0.0000   -0.0000   -0.0000   -0.0000
   30 H6     2pz       -0.0006   -0.0006   -0.0003   -0.0009    0.0020    0.0020    0.0018   -0.0025   -0.0068    0.0288
 
 
      Orbital               11        12        13        14        15        16        17        18        19        20
      Energy            0.5586    0.7153    0.7832    0.8816    0.8816    0.9014    0.9014    0.9310    0.9310    0.9654
      Occ. No.          0.0000    0.0000    0.0000    0.0000    0.0000    0.0000    0.0000    0.0000    0.0000    0.0000
 
    1 H1     1s        -0.1648    0.1568   -0.0703    0.0000   -0.0000    0.0000    0.0000    0.0000    0.0000    0.0000
    2 H1     2s        -0.5186    0.3375   -0.1326    0.0000   -0.0000    0.0000    0.0000    0.0000   -0.0000    0.0000
    3 H1     2px       -0.0000    0.0000    0.0000    0.0836   -0.2049    0.2693    0.3015    0.5024   -0.1063    0.2206
    4 H1     2py       -0.0000   -0.0000    0.0000    0.2049    0.0836    0.3015   -0.2693    0.1063    0.5024    0.4785
    5 H1     2pz        0.0997   -0.2985    0.3277    0.0000   -0.0000    0.0000    0.0000    0.0000   -0.0000    0.0000
    6 H2     1s         0.1689   -0.2211    0.0518   -0.0000   -0.0000    0.0000   -0.0000   -0.0000    0.0000   -0.0000
    7 H2     2s         0.8293   -0.6500    0.1520   -0.0000    0.0000   -0.0000   -0.0000   -0.0000   -0.0000   -0.0000
    8 H2     2px        0.0000    0.0000    0.0000    0.1529   -0.3748    0.3416    0.3825    0.2327   -0.0492   -0.0952
    9 H2     2py       -0.0000   -0.0000    0.0000    0.3748    0.1529    0.3825   -0.3416    0.0492    0.2327   -0.2066
   10 H2     2pz        0.0278    0.2623   -0.3920   -0.0000    0.0000   -0.0000   -0.0000   -0.0000    0.0000   -0.0000
   11 H3     1s        -0.0759    0.2706   -0.0199    0.0000   -0.0000    0.0000   -0.0000   -0.0000   -0.0000    0.0000
   12 H3     2s        -0.4029    0.7935   -0.0607    0.0000   -0.0000    0.0000    0.0000    0.0000    0.0000    0.0000
   13 H3     2px       -0.0000   -0.0000    0.0000    0.1914   -0.4690    0.1521    0.1703   -0.4057    0.0858   -0.1771
   14 H3     2py       -0.0000    0.0000   -0.0000    0.4690    0.1914    0.1703   -0.1521   -0.0858   -0.4057   -0.3842
   15 H3     2pz       -0.1664   -0.0986    0.3866   -0.0000    0.0000   -0.0000    0.0000   -0.0000   -0.0000   -0.0000
   16 H4     1s        -0.0759   -0.2706   -0.0199   -0.0000    0.0000    0.0000   -0.0000   -0.0000    0.0000   -0.0000
   17 H4     2s        -0.4029   -0.7935   -0.0607   -0.0000    0.0000   -0.0000   -0.0000   -0.0000   -0.0000   -0.0000
   18 H4     2px        0.0000    0.0000    0.0000    0.1914   -0.4690   -0.1521   -0.1703   -0.4057    0.0858    0.1771
   19 H4     2py        0.0000    0.0000    0.0000    0.4690    0.1914   -0.1703    0.1521   -0.0858   -0.4057    0.3842
   20 H4     2pz        0.1664   -0.0986   -0.3866    0.0000   -0.0000    0.0000    0.0000    0.0000    0.0000    0.0000
   21 H5     1s         0.1689    0.2211    0.0518    0.0000    0.0000   -0.0000    0.0000    0.0000    0.0000    0.0000
   22 H5     2s         0.8293    0.6500    0.1520    0.0000   -0.0000    0.0000    0.0000    0.0000    0.0000    0.0000
   23 H5     2px        0.0000   -0.0000    0.0000    0.1529   -0.3748   -0.3416   -0.3825    0.2327   -0.0492    0.0952
   24 H5     2py        0.0000    0.0000    0.0000    0.3748    0.1529   -0.3825    0.3416    0.0492    0.2327    0.2066
   25 H5     2pz       -0.0278    0.2623    0.3920   -0.0000    0.0000   -0.0000   -0.0000   -0.0000    0.0000   -0.0000
   26 H6     1s        -0.1648   -0.1568   -0.0703   -0.0000   -0.0000    0.0000   -0.0000    0.0000   -0.0000   -0.0000
   27 H6     2s        -0.5186   -0.3375   -0.1326    0.0000   -0.0000   -0.0000    0.0000   -0.0000   -0.0000    0.0000
   28 H6     2px       -0.0000    0.0000   -0.0000    0.0836   -0.2049   -0.2693   -0.3015    0.5024   -0.1063   -0.2206
   29 H6     2py       -0.0000    0.0000   -0.0000    0.2049    0.0836   -0.3015    0.2693    0.1063    0.5024   -0.4785
   30 H6     2pz       -0.0997   -0.2985   -0.3277    0.0000   -0.0000    0.0000    0.0000    0.0000   -0.0000    0.0000
 
 
      Orbital               21        22        23        24        25        26        27        28        29        30
      Energy            0.9654    0.9973    0.9973    1.0086    1.0202    1.0202    1.0582    1.1264    1.1995    1.2574
      Occ. No.          0.0000    0.0000    0.0000    0.0000    0.0000    0.0000    0.0000    0.0000    0.0000    0.0000
 
    1 H1     1s         0.0000    0.0000   -0.0000    0.0989   -0.0000   -0.0000   -0.1040    0.0956   -0.0759    0.0448
    2 H1     2s        -0.0000    0.0000    0.0000    0.2164   -0.0000    0.0000   -0.2490    0.2228   -0.1566    0.0807
    3 H1     2px       -0.4785    0.3019    0.3112   -0.0000   -0.2012   -0.1386    0.0000   -0.0000   -0.0000    0.0000
    4 H1     2py        0.2206    0.3112   -0.3019    0.0000    0.1386   -0.2012    0.0000    0.0000   -0.0000   -0.0000
    5 H1     2pz       -0.0000    0.0000    0.0000    0.3353   -0.0000    0.0000   -0.4733    0.5183   -0.4385    0.2520
    6 H2     1s         0.0000   -0.0000    0.0000   -0.2871    0.0000   -0.0000    0.2258   -0.1320    0.0346    0.0082
    7 H2     2s         0.0000   -0.0000   -0.0000   -0.6632    0.0000   -0.0000    0.5222   -0.2734    0.0695    0.0005
    8 H2     2px        0.2066   -0.3690   -0.3804    0.0000    0.3557    0.2451   -0.0000   -0.0000    0.0000    0.0000
    9 H2     2py       -0.0952   -0.3804    0.3690   -0.0000   -0.2451    0.3557   -0.0000   -0.0000   -0.0000    0.0000
   10 H2     2pz        0.0000   -0.0000   -0.0000   -0.3972    0.0000   -0.0000    0.1482    0.2995   -0.6078    0.4859
   11 H3     1s        -0.0000    0.0000    0.0000    0.4344   -0.0000    0.0000   -0.1231   -0.0335    0.0485    0.0138
   12 H3     2s        -0.0000    0.0000    0.0000    1.0192   -0.0000    0.0000   -0.2867   -0.0676    0.0746    0.0248
   13 H3     2px        0.3842    0.1628    0.1678   -0.0000   -0.4421   -0.3047    0.0000    0.0000   -0.0000    0.0000
   14 H3     2py       -0.1771    0.1678   -0.1628    0.0000    0.3047   -0.4421    0.0000   -0.0000    0.0000   -0.0000
   15 H3     2pz       -0.0000    0.0000    0.0000    0.1700   -0.0000    0.0000    0.5001   -0.4655   -0.2526    0.5990
   16 H4     1s        -0.0000   -0.0000    0.0000   -0.4344    0.0000   -0.0000   -0.1231    0.0335    0.0485   -0.0138
   17 H4     2s         0.0000   -0.0000   -0.0000   -1.0192    0.0000   -0.0000   -0.2867    0.0676    0.0746   -0.0248
   18 H4     2px       -0.3842    0.1628    0.1678    0.0000    0.4421    0.3047   -0.0000   -0.0000    0.0000   -0.0000
   19 H4     2py        0.1771    0.1678   -0.1628   -0.0000   -0.3047    0.4421   -0.0000    0.0000    0.0000    0.0000
   20 H4     2pz       -0.0000    0.0000    0.0000    0.1700   -0.0000    0.0000   -0.5001   -0.4655    0.2526    0.5990
   21 H5     1s        -0.0000    0.0000   -0.0000    0.2871   -0.0000    0.0000    0.2258    0.1320    0.0346   -0.0082
   22 H5     2s        -0.0000    0.0000    0.0000    0.6632   -0.0000    0.0000    0.5222    0.2734    0.0695   -0.0005
   23 H5     2px       -0.2066   -0.3690   -0.3804    0.0000   -0.3557   -0.2451    0.0000    0.0000    0.0000    0.0000
   24 H5     2py        0.0952   -0.3804    0.3690    0.0000    0.2451   -0.3557    0.0000   -0.0000   -0.0000   -0.0000
   25 H5     2pz        0.0000   -0.0000   -0.0000   -0.3972    0.0000   -0.0000   -0.1482    0.2995    0.6078    0.4859
   26 H6     1s         0.0000   -0.0000   -0.0000   -0.0989    0.0000   -0.0000   -0.1040   -0.0956   -0.0759   -0.0448
   27 H6     2s         0.0000   -0.0000   -0.0000   -0.2164    0.0000   -0.0000   -0.2490   -0.2228   -0.1566   -0.0807
   28 H6     2px        0.4785    0.3019    0.3112   -0.0000    0.2012    0.1386   -0.0000    0.0000   -0.0000   -0.0000
   29 H6     2py       -0.2206    0.3112   -0.3019   -0.0000   -0.1386    0.2012   -0.0000    0.0000    0.0000    0.0000
   30 H6     2pz       -0.0000    0.0000    0.0000    0.3353   -0.0000    0.0000    0.4733    0.5183    0.4385    0.2520
--
 
      Von Neumann Entropy (Root  1) =  2.90857
 

      Mulliken population analysis for root number:  1
      -----------------------------------------------
 
 
++    Molecular charges:
      ------------------
 
      Mulliken charges per centre and basis function type
      ---------------------------------------------------
 
                H1      H2      H3      H4      H5      H6    
      1s       0.9936  1.0008  1.0013  1.0013  1.0008  0.9936
      2s       0.0055  0.0002 -0.0013 -0.0013  0.0002  0.0055
      2px      0.0000  0.0000  0.0000  0.0000  0.0000  0.0000
      2pz     -0.0001  0.0000 -0.0000 -0.0000  0.0000 -0.0001
      2py      0.0000  0.0000  0.0000  0.0000  0.0000  0.0000
      Total    0.9990  1.0011  1.0000  1.0000  1.0011  0.9990
 
      N-E      0.0010 -0.0011  0.0000  0.0000 -0.0011  0.0010
 
      Total electronic charge=    6.000000
 
      Total            charge=   -0.000000
--
 
 

      Expectation values of various properties for root number:  1
      -----------------------------------------------------------
 
 
++    Molecular properties:
      ---------------------
 
      Charge (e):
                      =   -0.0000
      Dipole Moment (Debye):
      Origin of the operator (Ang)=    0.0000    0.0000    0.0000
                   X=  1.7862E-13               Y=  5.6684E-13               Z=  3.8324E-11           Total=  3.8328E-11
      Quadrupole Moment (Debye*Ang):
      Origin of the operator (Ang)=    0.0000    0.0000    6.8939
                  XX= -9.0680E+00              XY=  2.8146E-27              XZ= -9.2849E-13              YY= -9.0680E+00
                  YZ= -1.1800E-12              ZZ= -9.0957E+00
      In traceless form (Debye*Ang)
                  XX=  1.3877E-02              XY=  4.2219E-27              XZ= -1.3927E-12              YY=  1.3877E-02
                  YZ= -1.7700E-12              ZZ= -2.7753E-02
--
 

      LoProp population analysis for root number:  1
      -----------------------------------------------
 
 
++    LoProp analysis:
      ----------------
 
 
 
  Input file to MOLDEN was generated!
 
 
++    Static properties:
      ------------------
 
 
      LoProp Charges per center
 

                   H1       H2       H3       H4       H5       H6    
      Nuclear      1.0000   1.0000   1.0000   1.0000   1.0000   1.0000
      Electronic  -1.0001  -0.9999  -1.0000  -1.0000  -0.9999  -1.0001
 
      Total       -0.0001   0.0001   0.0000   0.0000   0.0001  -0.0001
--
 
 
      Natural Bond Order analysis for root number:  1
 
++    Natural Bond Order analysis
      ---------------------------
      Based on LoProp computed density
      -------------------------------------------------------------------------------------
      Atom A       Atom B       Bond Order
      -------------------------------------------------------------------------------------
      The remaining    6.000 electrons are to be considered as diffuse
--
 
--
 
 
  Input file to MOLDEN was generated!
 
      Average orbitals are written to the RASORB file
      Natural orbitals for root   1 are written to the RASORB.1 file
      Spin density orbitals for root   1 are written to the SPDORB.1 file
 
--- Stop Module: rasscf at Mon Nov 18 14:14:46 2024 /rc=_RC_ALL_IS_WELL_ ---
*** files: H6_2.76.LprOrb H6_2.76.rasscf.molden H6_2.76.LoProp.molden H6_2.76.RasOrb H6_2.76.RasOrb.1 H6_2.76.rasscf.h5 H6_2.76.SpdOrb.1 xmldump
    saved to directory /home/grierjones/DDCASPT2/hydrogen_comps/H6_chain/H6_2.76

>>> COPY /tmp/H6_2.76/H6_2.76.rasscf.h5 /home/grierjones/DDCASPT2/hydrogen_comps/H6_chain/H6_2.76/

>>> COPY /tmp/H6_2.76/GMJ_Fock_MO.csv /home/grierjones/DDCASPT2/hydrogen_comps/H6_chain/H6_2.76/H6_2.76.GMJ_Fock_MO.csv

>>> COPY /tmp/H6_2.76/GMJ_PT2_Fock_MO.csv /home/grierjones/DDCASPT2/hydrogen_comps/H6_chain/H6_2.76/H6_2.76.GMJ_PT2_Fock_MO.csv

*** symbolic link created: INPORB -> H6_2.76.RasOrb
--- Start Module: motra at Mon Nov 18 14:14:46 2024 ---
 
()()()()()()()()()()()()()()()()()()()()()()()()()()()()()()()()()()()()()()()()()()()()()()()()()()

                                               &MOTRA

                                   only a single process is used
                       available to each process: 2.0 GB of memory, 1 thread?
()()()()()()()()()()()()()()()()()()()()()()()()()()()()()()()()()()()()()()()()()()()()()()()()()()
 
 
      *** WARNING: Default frozen orbitals is overwritten by user input.
      *** Default values:   0
 
      Header of the integral files:
      
       Integrals generated by seward 4.2.0  , Mon Nov 18 14:14:45 2024
 
 
      Header of MO coefficients source file:
      * RASSCF average (pseudo-natural) orbitals                                      
 
 
      Cartesian coordinates in Angstrom:
      -----------------------------------------------------
      No.  Label        X            Y            Z        
      -----------------------------------------------------
       1   H1         0.00000000   0.00000000   0.00000000
       2   H2         0.00000000   0.00000000   2.75757600
       3   H3         0.00000000   0.00000000   5.51515200
       4   H4         0.00000000   0.00000000   8.27272700
       5   H5         0.00000000   0.00000000  11.03030300
       6   H6         0.00000000   0.00000000  13.78787900
      -----------------------------------------------------
      Nuclear repulsion energy =    1.66952502
 
      Orbital specifications:
      -----------------------
 
      Symmetry species:              1
      Number of basis functions:    30
      Frozen orbitals:               0
      Deleted orbitals:              0
      Number of orbitals used:      30

       SYMMETRY  BASIS FUNCTIONS       ORBITALS      INTEGRALS   CPU(SEC)  I/O(SEC)
 
        1 1 1 1   30  30  30  30    30  30  30  30      108345       0.00      0.00

       TOTAL CPU TIME(SEC)    0.04TOTAL I/O TIME(SEC)    0.15
 
--- Stop Module: motra at Mon Nov 18 14:14:46 2024 /rc=_RC_ALL_IS_WELL_ ---
*** files: xmldump
    saved to directory /home/grierjones/DDCASPT2/hydrogen_comps/H6_chain/H6_2.76

>>> COPY /tmp/H6_2.76/GMJ_one_int_indx.csv /home/grierjones/DDCASPT2/hydrogen_comps/H6_chain/H6_2.76/H6_2.76.GMJ_one_int_indx.csv

>>> COPY /tmp/H6_2.76/GMJ_one_int.csv /home/grierjones/DDCASPT2/hydrogen_comps/H6_chain/H6_2.76/H6_2.76.GMJ_one_int.csv

>>> COPY /tmp/H6_2.76/GMJ_two_int_indx.csv /home/grierjones/DDCASPT2/hydrogen_comps/H6_chain/H6_2.76/H6_2.76.GMJ_two_int_indx.csv

>>> COPY /tmp/H6_2.76/GMJ_two_int.csv /home/grierjones/DDCASPT2/hydrogen_comps/H6_chain/H6_2.76/H6_2.76.GMJ_two_int.csv

*** symbolic link created: INPORB -> H6_2.76.RasOrb
--- Start Module: caspt2 at Mon Nov 18 14:14:46 2024 ---
 
()()()()()()()()()()()()()()()()()()()()()()()()()()()()()()()()()()()()()()()()()()()()()()()()()()

                                              &CASPT2

                                   only a single process is used
                       available to each process: 2.0 GB of memory, 1 thread?
()()()()()()()()()()()()()()()()()()()()()()()()()()()()()()()()()()()()()()()()()()()()()()()()()()
 
 Cholesky algorithm in CASPT2 =    1
 
 ###############################################################################
 ###############################################################################
 ###                                                                         ###
 ###                                                                         ###
 ###    User changed nr of frozen orbitals.                                  ###
 ###                                                                         ###
 ###                                                                         ###
 ###############################################################################
 ###############################################################################
 
++    Wave function specifications:
      -----------------------------
 
      Number of closed shell electrons           0
      Number of electrons in active shells       6
      Max number of holes in RAS1 space          0
      Max number of electrons in RAS3 space      0
      Number of inactive orbitals                0
      Number of active orbitals                  6
      Number of secondary orbitals              24
      Spin quantum number                      0.0
      State symmetry                             1
      Number of CSFs                           175
      Number of root(s) available                1
      Root passed to geometry opt.               1
      A file JOBMIX will be created.
      This is a CASSCF or RASSCF reference function
--
 
++    Orbital specifications:
      -----------------------
 
      Symmetry species                           1
                                                 a
      Frozen orbitals                            0
      Inactive orbitals                          0
      Active orbitals                            6
      Secondary orbitals                        24
      Deleted orbitals                           0
      Number of basis functions                 30
--
 
      Type of Fock operator: STANDARD
      Type of 0-order Hamiltonian: STANDARD WITH DEFAULT IPEA
        "IP-EA" denominator shift =      0.25
      The input orbitals and the CI vector will be transformed.
 
--------------------------------------------------------------------------------
 Estimated memory requirements:
  POLY3 :                   262414
  RHS:                      285604
  SIGMA :                   275200
  PRPCTL:                        0
 Available workspace:    230396124
 
++ CASPT2 computation for group   1
 
********************************************************************************
 Multi-State initialization phase begins for group   1
--------------------------------------------------------------------------------
********************************************************************************
 Compute H0 matrices for state    1
--------------------------------------------------------------------------------
--------------------------------------------------------------------------------
 H0 matrices have been computed.
 
********************************************************************************
  CASPT2 EQUATION SOLUTION
--------------------------------------------------------------------------------
 
  Total nr of CASPT2 parameters:
   Before reduction:       15624
   After  reduction:       14712
 
 The contributions to the second order correlation energy in atomic units.
-----------------------------------------------------------------------------------------------------------------------------
  IT.      VJTU        VJTI        ATVX        AIVX        VJAI        BVAT        BJAT        BJAI        TOTAL       RNORM  
-----------------------------------------------------------------------------------------------------------------------------
   1     0.000000    0.000000   -0.000260    0.000000    0.000000   -0.000856    0.000000    0.000000   -0.001116    0.000348
   2     0.000000    0.000000   -0.000263    0.000000    0.000000   -0.000857    0.000000    0.000000   -0.001120    0.000051
   3     0.000000    0.000000   -0.000263    0.000000    0.000000   -0.000857    0.000000    0.000000   -0.001120    0.000011
   4     0.000000    0.000000   -0.000263    0.000000    0.000000   -0.000857    0.000000    0.000000   -0.001120    0.000002
-------------------------------------------------------------------------------------------------------------------
 
  FINAL CASPT2 RESULT:
 
  Correlation energy /Case, /Symm, and sums:
 VJTU      0.00000000  0.00000000
 VJTIP     0.00000000  0.00000000
 VJTIM     0.00000000  0.00000000
 ATVX     -0.00026325 -0.00026325
 AIVX      0.00000000  0.00000000
 VJAIP     0.00000000  0.00000000
 VJAIM     0.00000000  0.00000000
 BVATP    -0.00076143 -0.00076143
 BVATM    -0.00009544 -0.00009544
 BJATP     0.00000000  0.00000000
 BJATM     0.00000000  0.00000000
 BJAIP     0.00000000  0.00000000
 BJAIM     0.00000000  0.00000000
 Summed:  -0.00112012 -0.00112012
 
      Reference energy:          -2.9949345763
      E2 (Non-variational):      -0.0011201248
      E2 (Variational):          -0.0011201265
      Total energy:              -2.9960547027
      Residual norm:              0.0000002633
      Reference weight:           0.99930
 
      Contributions to the CASPT2 correlation energy
      Active & Virtual Only:         -0.0011201248
      One Inactive Excited:           0.0000000000
      Two Inactive Excited:           0.0000000000
 
 
++ Denominators, etc.
----------------------------------------------------------------------------------------------------
 Report on small energy denominators, large coefficients, and large energy contributions.
CASE  SYMM ACTIVE-MIX  NON-ACTIVE INDICES          DENOMINATOR     RHS VALUE       COEFFICIENT     CONTRIBUTION
--
 
   (Skipping property calculation,
    use PROP keyword to activate)
--
 
  Total CASPT2 energies:
::    CASPT2 Root  1     Total energy:     -2.99605470
 
  A NEW JOBIPH FILE NAMED 'JOBMIX' IS PREPARED.
********************************************************************************
--- Stop Module: caspt2 at Mon Nov 18 14:14:46 2024 /rc=_RC_ALL_IS_WELL_ ---
*** files: xmldump
    saved to directory /home/grierjones/DDCASPT2/hydrogen_comps/H6_chain/H6_2.76

>>> EXPORT i = B

>>> EXPORT j = P

>>> IF (-FILE GMJ_e2_${i}_${j}.csv)
(Skipped)

>>> END FOREACH

>>> EXPORT j = M

>>> IF (-FILE GMJ_e2_${i}_${j}.csv)
(Skipped)

>>> END FOREACH

>>> END FOREACH

>>> EXPORT i = E

>>> EXPORT j = P

>>> IF (-FILE GMJ_e2_${i}_${j}.csv)
(Skipped)

>>> END FOREACH

>>> EXPORT j = M

>>> IF (-FILE GMJ_e2_${i}_${j}.csv)
(Skipped)

>>> END FOREACH

>>> END FOREACH

>>> EXPORT i = F

>>> EXPORT j = P

>>> IF (-FILE GMJ_e2_${i}_${j}.csv)

>>> COPY /tmp/H6_2.76/GMJ_RHS_F_P.csv /home/grierjones/DDCASPT2/hydrogen_comps/H6_chain/H6_2.76/GMJ_RHS_F_P.csv

>>> COPY /tmp/H6_2.76/GMJ_IVECW_F_P.csv /home/grierjones/DDCASPT2/hydrogen_comps/H6_chain/H6_2.76/GMJ_IVECW_F_P.csv

>>> COPY /tmp/H6_2.76/GMJ_IVECX_F_P.csv /home/grierjones/DDCASPT2/hydrogen_comps/H6_chain/H6_2.76/GMJ_IVECX_F_P.csv

>>> COPY /tmp/H6_2.76/GMJ_IVECC2_F_P.csv /home/grierjones/DDCASPT2/hydrogen_comps/H6_chain/H6_2.76/GMJ_IVECC2_F_P.csv

>>> COPY /tmp/H6_2.76/GMJ_e2_F_P.csv /home/grierjones/DDCASPT2/hydrogen_comps/H6_chain/H6_2.76/GMJ_e2_F_P.csv

>>> END FOREACH

>>> EXPORT j = M

>>> IF (-FILE GMJ_e2_${i}_${j}.csv)

>>> COPY /tmp/H6_2.76/GMJ_RHS_F_M.csv /home/grierjones/DDCASPT2/hydrogen_comps/H6_chain/H6_2.76/GMJ_RHS_F_M.csv

>>> COPY /tmp/H6_2.76/GMJ_IVECW_F_M.csv /home/grierjones/DDCASPT2/hydrogen_comps/H6_chain/H6_2.76/GMJ_IVECW_F_M.csv

>>> COPY /tmp/H6_2.76/GMJ_IVECX_F_M.csv /home/grierjones/DDCASPT2/hydrogen_comps/H6_chain/H6_2.76/GMJ_IVECX_F_M.csv

>>> COPY /tmp/H6_2.76/GMJ_IVECC2_F_M.csv /home/grierjones/DDCASPT2/hydrogen_comps/H6_chain/H6_2.76/GMJ_IVECC2_F_M.csv

>>> COPY /tmp/H6_2.76/GMJ_e2_F_M.csv /home/grierjones/DDCASPT2/hydrogen_comps/H6_chain/H6_2.76/GMJ_e2_F_M.csv

>>> END FOREACH

>>> END FOREACH

>>> EXPORT i = G

>>> EXPORT j = P

>>> IF (-FILE GMJ_e2_${i}_${j}.csv)
(Skipped)

>>> END FOREACH

>>> EXPORT j = M

>>> IF (-FILE GMJ_e2_${i}_${j}.csv)
(Skipped)

>>> END FOREACH

>>> END FOREACH

>>> EXPORT i = H

>>> EXPORT j = P

>>> IF (-FILE GMJ_e2_${i}_${j}.csv)
(Skipped)

>>> END FOREACH

>>> EXPORT j = M

>>> IF (-FILE GMJ_e2_${i}_${j}.csv)
(Skipped)

>>> END FOREACH

>>> END FOREACH

>>> EXPORT i = A

>>> IF (-FILE GMJ_e2_$i.csv)
(Skipped)

>>> END FOREACH

>>> EXPORT i = C

>>> IF (-FILE GMJ_e2_$i.csv)

>>> COPY /tmp/H6_2.76/GMJ_RHS_C.csv /home/grierjones/DDCASPT2/hydrogen_comps/H6_chain/H6_2.76/GMJ_RHS_C.csv

>>> COPY /tmp/H6_2.76/GMJ_IVECW_C.csv /home/grierjones/DDCASPT2/hydrogen_comps/H6_chain/H6_2.76/GMJ_IVECW_C.csv

>>> COPY /tmp/H6_2.76/GMJ_IVECX_C.csv /home/grierjones/DDCASPT2/hydrogen_comps/H6_chain/H6_2.76/GMJ_IVECX_C.csv

>>> COPY /tmp/H6_2.76/GMJ_IVECC2_C.csv /home/grierjones/DDCASPT2/hydrogen_comps/H6_chain/H6_2.76/GMJ_IVECC2_C.csv

>>> COPY /tmp/H6_2.76/GMJ_e2_C.csv /home/grierjones/DDCASPT2/hydrogen_comps/H6_chain/H6_2.76/GMJ_e2_C.csv

>>> END FOREACH

>>> EXPORT i = D

>>> IF (-FILE GMJ_e2_$i.csv)
(Skipped)

>>> END FOREACH

.########################.
.# Non-zero return code #.
.########################.

    Timing: Wall=1.64 User=0.98 System=0.65
***************************************
*** WorkDir at /tmp/H6_2.76 cleaned ***
***************************************
