[Molden Format]
[N_Atoms]
                     2
[Atoms] (AU)
H1          1      1           0.00000000      0.00000000      0.00000000
H2          2      1           0.00000000      0.00000000      1.70075351
[Charge] (Mulliken)
  4.041211809635570E-014
 -4.130029651605582E-014
[GTO] (AU)
   1
   s   8
  1.886144500E+02  9.638500027E-04
  2.827659600E+01  7.491960021E-03
  6.424830000E+00  3.759541011E-02
  1.815041000E+00  1.433949804E-01
  5.910630000E-01  3.486363010E-01
  2.121490000E-01  4.382973612E-01
  7.989100000E-02  1.651066105E-01
  2.796200000E-02  2.102287006E-02
 
   2
   s   8
  1.886144500E+02  9.638500027E-04
  2.827659600E+01  7.491960021E-03
  6.424830000E+00  3.759541011E-02
  1.815041000E+00  1.433949804E-01
  5.910630000E-01  3.486363010E-01
  2.121490000E-01  4.382973612E-01
  7.989100000E-02  1.651066105E-01
  2.796200000E-02  2.102287006E-02
 
[MO]
Sym=     1a  
Ene=    -0.5506
Spin= Alpha
Occup=    1.95956
   1         0.55469972
   2         0.55469972
Sym=     2a  
Ene=     0.3940
Spin= Alpha
Occup=    0.04044
   1        -1.15470484
   2         1.15470484
