[Molden Format]
[N_Atoms]
                     2
[Atoms] (AU)
B1          1      5           0.00000000      0.00000000      0.00000000
BE2         2      4           0.00000000      0.00000000      5.29123315
[Charge] (Mulliken)
 -2.463032003362109E-002
  2.463032003361398E-002
[GTO] (AU)
   1
   s  14
  3.336021700E+04  1.039699991E-04
  4.972095200E+03  5.254399956E-04
  1.125641700E+03  2.509059979E-03
  3.164913600E+02  1.031887991E-02
  1.020072600E+02  3.636632969E-02
  3.629587300E+01  1.064607991E-01
  1.397141000E+01  2.403999880E-01
  5.741156000E+00  3.748581168E-01
  2.494268000E+00  3.100066974E-01
  1.114202000E+00  7.922455933E-02
  4.215490000E-01 -4.947589958E-03
  1.696330000E-01 -7.737119935E-03
  6.853500000E-02 -1.501079987E-03
  2.398700000E-02 -1.333299989E-04
   s  14
  3.336021700E+04 -2.030000008E-05
  4.972095200E+03 -1.025700004E-04
  1.125641700E+03 -4.911300020E-04
  3.164913600E+02 -2.026570008E-03
  1.020072600E+02 -7.261010030E-03
  3.629587300E+01 -2.197722009E-02
  1.397141000E+01 -5.408428022E-02
  5.741156000E+00 -1.022402604E-01
  2.494268000E+00 -1.423595206E-01
  1.114202000E+00 -4.658690019E-02
  4.215490000E-01  3.799402916E-01
  1.696330000E-01  5.890463624E-01
  6.853500000E-02  1.749075107E-01
  2.398700000E-02 -1.142030005E-03
   p   9
  5.500000000E+01  1.229800005E-03
  1.336610100E+01  8.827380035E-03
  4.135394000E+00  3.843340015E-02
  1.481256000E+00  1.150031805E-01
  6.021360000E-01  2.733674011E-01
  2.556360000E-01  4.061972116E-01
  1.111510000E-01  3.014967912E-01
  4.764800000E-02  7.684809030E-02
  1.667700000E-02 -8.170000032E-06
 
   2
   s  14
  2.262859900E+04  8.443999941E-05
  3.372318100E+03  4.601499968E-04
  7.603504000E+02  2.285389984E-03
  2.117404800E+02  9.648129932E-03
  6.722346800E+01  3.494469975E-02
  2.337217700E+01  1.061099893E-01
  8.721373000E+00  2.458240383E-01
  3.468091000E+00  3.862428773E-01
  1.452144000E+00  3.105526078E-01
  6.086150000E-01  6.415933955E-02
  2.576860000E-01 -2.265049984E-03
  1.041760000E-01 -5.217499963E-04
  4.242700000E-02 -8.757499938E-04
  1.484900000E-02  1.242199991E-04
   s  14
  2.262859900E+04 -1.586999994E-05
  3.372318100E+03 -8.656999968E-05
  7.603504000E+02 -4.302199984E-04
  2.117404800E+02 -1.825079993E-03
  6.722346800E+01 -6.682749976E-03
  2.337217700E+01 -2.095119992E-02
  8.721373000E+00 -5.200308981E-02
  3.468091000E+00 -9.849176964E-02
  1.452144000E+00 -1.355800695E-01
  6.086150000E-01 -6.429875976E-02
  2.576860000E-01  3.125414989E-01
  1.041760000E-01  6.270468577E-01
  4.242700000E-02  2.110231492E-01
  1.484900000E-02 -4.104669985E-03
   p   9
  3.371018400E+01  1.069960000E-03
  8.057649500E+00  6.828550001E-03
  2.836471400E+00  2.119065000E-02
  1.099965700E+00  5.843696001E-02
  4.433964000E-01  2.020920800E-01
  1.822264000E-01  4.582953101E-01
  7.572410000E-02  3.691239601E-01
  3.168540000E-02  6.611471001E-02
  1.108990000E-02  1.405160000E-03
 
[MO]
Sym=     1a  
Ene=    -7.6234
Spin= Alpha
Occup=    2.00000
   1         0.99991018
   2         0.01440365
   3        -0.00000015
   4         0.00000009
   5         0.00036965
   6        -0.00003468
   7        -0.00028052
   8        -0.00000027
   9         0.00000016
  10         0.00036210
Sym=     2a  
Ene=    -4.7172
Spin= Alpha
Occup=    2.00000
   1        -0.00000322
   2         0.00009466
   3         0.00000015
   4        -0.00000009
   5         0.00003079
   6         0.99999635
   7         0.00207902
   8        -0.00000139
   9         0.00000081
  10        -0.00009981
Sym=     3a  
Ene=    -0.4840
Spin= Alpha
Occup=    2.00000
   1        -0.01756411
   2         0.92682254
   3        -0.00007248
   4         0.00004201
   5         0.01875824
   6        -0.00846872
   7         0.19403968
   8        -0.00000145
   9         0.00000081
  10        -0.06251077
Sym=     4a  
Ene=    -0.2983
Spin= Alpha
Occup=    2.00000
   1         0.00712908
   2         0.36111689
   3        -0.00019706
   4         0.00011482
   5        -0.11843793
   6         0.00179239
   7        -0.96106499
   8        -0.00018025
   9         0.00010459
  10        -0.02245548
Sym=     5a  
Ene=     0.1090
Spin= Alpha
Occup=    0.00000
   1         0.00092981
   2         0.01376441
   3         0.23182371
   4         0.01954318
   5        -0.08493784
   6         0.00179734
   7         0.02894963
   8        -0.84509181
   9         0.51505083
  10         0.05352169
Sym=     6a  
Ene=     0.0000
Spin= Alpha
Occup=    1.00000
   1         0.00000524
   2         0.00026006
   3         0.85519314
   4        -0.49618864
   5        -0.00430833
   6         0.00009518
   7         0.00125734
   8         0.06174373
   9        -0.03582531
  10         0.00088207
Sym=     7a  
Ene=     0.0580
Spin= Alpha
Occup=    0.00000
   1         0.01408572
   2         0.20585669
   3        -0.02981540
   4        -0.00316968
   5        -0.58005682
   6         0.01143243
   7         0.18736597
   8         0.08230016
   9        -0.06736724
  10         0.69418764
Sym=     8a  
Ene=     0.0796
Spin= Alpha
Occup=    0.00000
   1         0.00022027
   2         0.00321873
   3         0.23094058
   4         0.43708089
   5        -0.00815097
   6         0.00015835
   7         0.00258838
   8         0.49147422
   9         0.64555234
  10         0.01069732
Sym=     9a  
Ene=     0.1493
Spin= Alpha
Occup=    0.00000
   1         0.00008663
   2         0.00125397
   3        -0.41941619
   4        -0.76003954
   5        -0.00173418
   6         0.00002911
   7         0.00052582
   8         0.22025461
   9         0.57211264
  10         0.00397790
Sym=    10a  
Ene=     0.2419
Spin= Alpha
Occup=    0.00000
   1        -0.02304119
   2        -0.32825189
   3        -0.00805883
   4         0.00006589
   5        -0.89510615
   6         0.02258047
   7         0.34156809
   8         0.02168331
   9        -0.01204609
  10        -0.83443083
