[Molden Format]
[N_Atoms]
                     2
[Atoms] (AU)
BE1         1      4           0.00000000      0.00000000      0.00000000
N2          2      7           0.00000000      0.00000000      5.29123315
[Charge] (Mulliken)
 -4.706262306306108E-002
  4.706262306301667E-002
[GTO] (AU)
   1
   s  14
  2.262859900E+04  8.443999941E-05
  3.372318100E+03  4.601499968E-04
  7.603504000E+02  2.285389984E-03
  2.117404800E+02  9.648129932E-03
  6.722346800E+01  3.494469975E-02
  2.337217700E+01  1.061099893E-01
  8.721373000E+00  2.458240383E-01
  3.468091000E+00  3.862428773E-01
  1.452144000E+00  3.105526078E-01
  6.086150000E-01  6.415933955E-02
  2.576860000E-01 -2.265049984E-03
  1.041760000E-01 -5.217499963E-04
  4.242700000E-02 -8.757499938E-04
  1.484900000E-02  1.242199991E-04
   s  14
  2.262859900E+04 -1.586999994E-05
  3.372318100E+03 -8.656999968E-05
  7.603504000E+02 -4.302199984E-04
  2.117404800E+02 -1.825079993E-03
  6.722346800E+01 -6.682749976E-03
  2.337217700E+01 -2.095119992E-02
  8.721373000E+00 -5.200308981E-02
  3.468091000E+00 -9.849176964E-02
  1.452144000E+00 -1.355800695E-01
  6.086150000E-01 -6.429875976E-02
  2.576860000E-01  3.125414989E-01
  1.041760000E-01  6.270468577E-01
  4.242700000E-02  2.110231492E-01
  1.484900000E-02 -4.104669985E-03
   p   9
  3.371018400E+01  1.069960000E-03
  8.057649500E+00  6.828550001E-03
  2.836471400E+00  2.119065000E-02
  1.099965700E+00  5.843696001E-02
  4.433964000E-01  2.020920800E-01
  1.822264000E-01  4.582953101E-01
  7.572410000E-02  3.691239601E-01
  3.168540000E-02  6.611471001E-02
  1.108990000E-02  1.405160000E-03
 
   2
   s  14
  7.476171500E+04  1.182599996E-04
  1.112365400E+04  5.172899983E-04
  2.512685700E+03  2.266659992E-03
  7.037772900E+02  9.145289970E-03
  2.254787900E+02  3.239342989E-02
  7.961581000E+01  9.770792967E-02
  3.023728300E+01  2.317036792E-01
  1.226362200E+01  3.768898887E-01
  5.265086000E+00  3.177420689E-01
  2.333471000E+00  8.211308973E-02
  9.018560000E-01  3.312089989E-03
  3.583360000E-01  3.720819988E-03
  1.410930000E-01  3.165419989E-03
  4.938300000E-02  4.595799985E-04
   s  14
  7.476171500E+04 -2.707000010E-05
  1.112365400E+04 -1.183700004E-04
  2.512685700E+03 -5.203800020E-04
  7.037772900E+02 -2.102930008E-03
  2.254787900E+02 -7.568200028E-03
  7.961581000E+01 -2.346767009E-02
  3.023728300E+01 -6.042901023E-02
  1.226362200E+01 -1.170549104E-01
  5.265086000E+00 -1.555321506E-01
  2.333471000E+00 -2.468935009E-02
  9.018560000E-01  3.625054514E-01
  3.583360000E-01  5.550845021E-01
  1.410930000E-01  2.148376908E-01
  4.938300000E-02  8.983850034E-03
   p   9
  1.266665700E+02  1.233630000E-03
  2.983738900E+01  9.493409996E-03
  9.394038000E+00  4.293961998E-02
  3.405104000E+00  1.362925399E-01
  1.350000000E+00  2.921362499E-01
  5.576960000E-01  3.887887598E-01
  2.324490000E-01  2.946801399E-01
  9.426400000E-02  8.012875997E-02
  3.299200000E-02  5.405199998E-04
 
[MO]
Sym=     1a  
Ene=   -15.6130
Spin= Alpha
Occup=    1.00000
   1        -0.00003498
   2        -0.00054707
   3        -0.00000000
   4         0.00000000
   5        -0.00068972
   6         1.00000602
   7        -0.00446158
   8         0.00000000
   9        -0.00000000
  10        -0.00025046
Sym=     1a  
Ene=   -15.5800
Spin= Beta
Occup=    1.00000
   1        -0.00002920
   2        -0.00038652
   3        -0.00000000
   4         0.00000000
   5        -0.00044924
   6         0.99998744
   7        -0.00678192
   8         0.00000000
   9         0.00000000
  10        -0.00018052
Sym=     2a  
Ene=    -4.6796
Spin= Alpha
Occup=    1.00000
   1         0.99999754
   2         0.00213871
   3         0.00000000
   4         0.00000000
   5         0.00068371
   6        -0.00001155
   7        -0.00006167
   8         0.00000000
   9         0.00000000
  10        -0.00001235
Sym=     2a  
Ene=    -4.6790
Spin= Beta
Occup=    1.00000
   1         0.99999686
   2         0.00225637
   3        -0.00000000
   4         0.00000000
   5         0.00032337
   6        -0.00000658
   7         0.00000927
   8        -0.00000000
   9         0.00000000
  10        -0.00007570
Sym=     3a  
Ene=    -1.0207
Spin= Alpha
Occup=    1.00000
   1        -0.00240201
   2         0.00504377
   3        -0.00000000
   4         0.00000000
   5         0.00323017
   6         0.00454953
   7         0.99872729
   8        -0.00000000
   9         0.00000000
  10        -0.01333952
Sym=     3a  
Ene=    -0.8775
Spin= Beta
Occup=    1.00000
   1        -0.00238176
   2         0.01879402
   3         0.00000000
   4        -0.00000000
   5         0.01732203
   6         0.00644193
   7         0.99438822
   8         0.00000000
   9        -0.00000000
  10        -0.00437699
Sym=     4a  
Ene=    -0.5405
Spin= Alpha
Occup=    1.00000
   1        -0.00000000
   2         0.00000000
   3         0.01194350
   4         0.00467606
   5         0.00000000
   6        -0.00000000
   7        -0.00000000
   8         0.93039041
   9         0.36426154
  10        -0.00000000
Sym=     4a  
Ene=    -0.4339
Spin= Beta
Occup=    1.00000
   1         0.00692856
   2        -0.20557090
   3        -0.00000000
   4         0.00000000
   5        -0.06933313
   6         0.00310675
   7         0.04876379
   8        -0.00000000
   9         0.00000000
  10         0.94245836
Sym=     5a  
Ene=    -0.4772
Spin= Alpha
Occup=    1.00000
   1         0.00690975
   2        -0.16245736
   3         0.00000000
   4        -0.00000000
   5        -0.07013259
   6         0.00270670
   7         0.04568072
   8         0.00000000
   9        -0.00000000
  10         0.95503429
Sym=     5a  
Ene=    -0.2751
Spin= Beta
Occup=    1.00000
   1        -0.00003328
   2         0.97588948
   3        -0.00000000
   4         0.00000000
   5        -0.15928442
   6        -0.00550690
   7        -0.08782166
   8        -0.00000000
   9         0.00000000
  10         0.27629146
Sym=     6a  
Ene=    -0.2738
Spin= Alpha
Occup=    1.00000
   1         0.00004290
   2         1.00038404
   3         0.00000000
   4        -0.00000000
   5         0.01782487
   6        -0.00859126
   7        -0.11304183
   8         0.00000000
   9        -0.00000000
  10         0.27822603
Sym=     6a  
Ene=     0.0944
Spin= Beta
Occup=    0.00000
   1        -0.00000000
   2        -0.00000000
   3        -0.23826456
   4         0.60857115
   5         0.00000000
   6        -0.00000000
   7        -0.00000000
   8        -0.26214381
   9         0.66956310
  10        -0.00000000
Sym=     7a  
Ene=     0.0672
Spin= Alpha
Occup=    0.00000
   1         0.00000000
   2         0.00000000
   3        -0.14125011
   4         0.36077855
   5        -0.00000000
   6         0.00000000
   7         0.00000000
   8        -0.32780712
   9         0.83727917
  10         0.00000000
Sym=     7a  
Ene=     0.1135
Spin= Beta
Occup=    0.00000
   1        -0.00000000
   2         0.00000000
   3         0.87946753
   4         0.34432448
   5         0.00000000
   6        -0.00000000
   7        -0.00000000
   8         0.25816429
   9         0.10107512
  10        -0.00000000
Sym=     8a  
Ene=     0.1205
Spin= Alpha
Occup=    0.00000
   1        -0.00000000
   2        -0.00000000
   3         0.93274746
   4         0.36518436
   5        -0.00000000
   6         0.00000000
   7         0.00000000
   8        -0.06733613
   9        -0.02636309
  10        -0.00000000
Sym=     8a  
Ene=     0.1420
Spin= Beta
Occup=    0.00000
   1         0.00000000
   2         0.00000000
   3         0.27678779
   4        -0.70696649
   5         0.00000000
   6        -0.00000000
   7        -0.00000000
   8        -0.25428745
   9         0.64949651
  10         0.00000000
Sym=     9a  
Ene=     0.1297
Spin= Alpha
Occup=    0.00000
   1        -0.00000000
   2        -0.00000000
   3        -0.33679354
   4         0.86023212
   5         0.00000000
   6        -0.00000000
   7        -0.00000000
   8         0.16100924
   9        -0.41124696
  10        -0.00000000
Sym=     9a  
Ene=     0.1553
Spin= Beta
Occup=    0.00000
   1         0.00171650
   2         0.17992181
   3        -0.00000000
   4         0.00000000
   5         1.01765052
   6        -0.01948966
   7        -0.22730097
   8         0.00000000
   9        -0.00000000
  10         0.27903675
Sym=    10a  
Ene=     0.1514
Spin= Alpha
Occup=    0.00000
   1         0.00132209
   2         0.01261146
   3         0.00000000
   4        -0.00000000
   5         1.02997275
   6        -0.01795344
   7        -0.19562443
   8        -0.00000000
   9         0.00000000
  10         0.22971116
Sym=    10a  
Ene=     0.1975
Spin= Beta
Occup=    0.00000
   1        -0.00000000
   2        -0.00000000
   3        -0.31096194
   4        -0.12174618
   5        -0.00000000
   6         0.00000000
   7         0.00000000
   8         0.89638812
   9         0.35094915
  10        -0.00000000
