[Molden Format]
[N_Atoms]
                     2
[Atoms] (AU)
BE1         1      4           0.00000000      0.00000000      0.00000000
N2          2      7           0.00000000      0.00000000      3.40150702
[Charge] (Mulliken)
  7.172700010474387E-002
 -7.172700010478827E-002
[GTO] (AU)
   1
   s  14
  2.262859900E+04  8.443999941E-05
  3.372318100E+03  4.601499968E-04
  7.603504000E+02  2.285389984E-03
  2.117404800E+02  9.648129932E-03
  6.722346800E+01  3.494469975E-02
  2.337217700E+01  1.061099893E-01
  8.721373000E+00  2.458240383E-01
  3.468091000E+00  3.862428773E-01
  1.452144000E+00  3.105526078E-01
  6.086150000E-01  6.415933955E-02
  2.576860000E-01 -2.265049984E-03
  1.041760000E-01 -5.217499963E-04
  4.242700000E-02 -8.757499938E-04
  1.484900000E-02  1.242199991E-04
   s  14
  2.262859900E+04 -1.586999994E-05
  3.372318100E+03 -8.656999968E-05
  7.603504000E+02 -4.302199984E-04
  2.117404800E+02 -1.825079993E-03
  6.722346800E+01 -6.682749976E-03
  2.337217700E+01 -2.095119992E-02
  8.721373000E+00 -5.200308981E-02
  3.468091000E+00 -9.849176964E-02
  1.452144000E+00 -1.355800695E-01
  6.086150000E-01 -6.429875976E-02
  2.576860000E-01  3.125414989E-01
  1.041760000E-01  6.270468577E-01
  4.242700000E-02  2.110231492E-01
  1.484900000E-02 -4.104669985E-03
   p   9
  3.371018400E+01  1.069960000E-03
  8.057649500E+00  6.828550001E-03
  2.836471400E+00  2.119065000E-02
  1.099965700E+00  5.843696001E-02
  4.433964000E-01  2.020920800E-01
  1.822264000E-01  4.582953101E-01
  7.572410000E-02  3.691239601E-01
  3.168540000E-02  6.611471001E-02
  1.108990000E-02  1.405160000E-03
 
   2
   s  14
  7.476171500E+04  1.182599996E-04
  1.112365400E+04  5.172899983E-04
  2.512685700E+03  2.266659992E-03
  7.037772900E+02  9.145289970E-03
  2.254787900E+02  3.239342989E-02
  7.961581000E+01  9.770792967E-02
  3.023728300E+01  2.317036792E-01
  1.226362200E+01  3.768898887E-01
  5.265086000E+00  3.177420689E-01
  2.333471000E+00  8.211308973E-02
  9.018560000E-01  3.312089989E-03
  3.583360000E-01  3.720819988E-03
  1.410930000E-01  3.165419989E-03
  4.938300000E-02  4.595799985E-04
   s  14
  7.476171500E+04 -2.707000010E-05
  1.112365400E+04 -1.183700004E-04
  2.512685700E+03 -5.203800020E-04
  7.037772900E+02 -2.102930008E-03
  2.254787900E+02 -7.568200028E-03
  7.961581000E+01 -2.346767009E-02
  3.023728300E+01 -6.042901023E-02
  1.226362200E+01 -1.170549104E-01
  5.265086000E+00 -1.555321506E-01
  2.333471000E+00 -2.468935009E-02
  9.018560000E-01  3.625054514E-01
  3.583360000E-01  5.550845021E-01
  1.410930000E-01  2.148376908E-01
  4.938300000E-02  8.983850034E-03
   p   9
  1.266665700E+02  1.233630000E-03
  2.983738900E+01  9.493409996E-03
  9.394038000E+00  4.293961998E-02
  3.405104000E+00  1.362925399E-01
  1.350000000E+00  2.921362499E-01
  5.576960000E-01  3.887887598E-01
  2.324490000E-01  2.946801399E-01
  9.426400000E-02  8.012875997E-02
  3.299200000E-02  5.405199998E-04
 
[MO]
Sym=     1a  
Ene=   -15.6560
Spin= Alpha
Occup=    1.00000
   1        -0.00033122
   2        -0.00195045
   3         0.00000000
   4        -0.00000000
   5        -0.00196346
   6         1.00018215
   7        -0.00113477
   8        -0.00000000
   9        -0.00000000
  10        -0.00104636
Sym=     1a  
Ene=   -15.5700
Spin= Beta
Occup=    1.00000
   1        -0.00013943
   2        -0.00066177
   3         0.00000000
   4        -0.00000000
   5        -0.00052436
   6         1.00001872
   7        -0.00805588
   8        -0.00000000
   9        -0.00000000
  10        -0.00053322
Sym=     2a  
Ene=    -4.7192
Spin= Alpha
Occup=    1.00000
   1         0.99992519
   2         0.00300499
   3        -0.00000000
   4         0.00000000
   5         0.00118225
   6        -0.00015648
   7         0.00043416
   8        -0.00000000
   9        -0.00000000
  10        -0.00104391
Sym=     2a  
Ene=    -4.7492
Spin= Beta
Occup=    1.00000
   1         0.99997310
   2         0.00419359
   3        -0.00000000
   4         0.00000000
   5         0.00073256
   6        -0.00015254
   7         0.00028019
   8         0.00000000
   9        -0.00000000
  10        -0.00018707
Sym=     3a  
Ene=    -1.1735
Spin= Alpha
Occup=    1.00000
   1        -0.02829486
   2         0.00949813
   3        -0.00000000
   4        -0.00000000
   5         0.02103973
   6         0.00106490
   7         0.98712075
   8         0.00000000
   9        -0.00000000
  10        -0.02729054
Sym=     3a  
Ene=    -0.8142
Spin= Beta
Occup=    1.00000
   1        -0.03069601
   2         0.15498808
   3        -0.00000000
   4        -0.00000000
   5         0.09286194
   6        -0.00273619
   7         0.88435157
   8        -0.00000000
   9         0.00000000
  10        -0.10826022
Sym=     4a  
Ene=    -0.6133
Spin= Alpha
Occup=    1.00000
   1         0.04960170
   2        -0.11460418
   3         0.00000000
   4        -0.00000000
   5        -0.12533014
   6         0.01156635
   7         0.12790981
   8         0.00000000
   9        -0.00000000
  10         0.93554056
Sym=     4a  
Ene=    -0.3496
Spin= Beta
Occup=    1.00000
   1         0.00104245
   2        -0.94336115
   3         0.00000000
   4         0.00000000
   5         0.26928332
   6         0.01771454
   7         0.32769950
   8        -0.00000000
   9         0.00000000
  10         0.10969781
Sym=     5a  
Ene=    -0.5905
Spin= Alpha
Occup=    1.00000
   1         0.00000000
   2        -0.00000000
   3        -0.04997763
   4        -0.01031505
   5        -0.00000000
   6         0.00000000
   7         0.00000000
   8        -0.96780158
   9        -0.19974779
  10         0.00000000
Sym=     5a  
Ene=    -0.2576
Spin= Beta
Occup=    1.00000
   1         0.00000000
   2         0.00000000
   3        -0.17049174
   4         0.82605255
   5        -0.00000000
   6         0.00000000
   7         0.00000000
   8        -0.07890699
   9         0.38231364
  10         0.00000000
Sym=     6a  
Ene=    -0.5713
Spin= Alpha
Occup=    1.00000
   1         0.00000000
   2        -0.00000000
   3        -0.00956412
   4         0.04633929
   5        -0.00000000
   6         0.00000000
   7         0.00000000
   8        -0.19993847
   9         0.96872542
  10         0.00000000
Sym=     6a  
Ene=     0.0380
Spin= Beta
Occup=    0.00000
   1         0.00000000
   2        -0.00000000
   3         0.85474312
   4         0.17641328
   5        -0.00000000
   6         0.00000000
   7         0.00000000
   8         0.33294910
   9         0.06871847
  10         0.00000000
Sym=     7a  
Ene=     0.0834
Spin= Alpha
Occup=    0.00000
   1         0.01383769
   2         0.97503683
   3         0.00000000
   4         0.00000000
   5        -0.32347170
   6        -0.01371940
   7        -0.16647951
   8        -0.00000000
   9         0.00000000
  10         0.21618688
Sym=     7a  
Ene=     0.0697
Spin= Beta
Occup=    0.00000
   1        -0.02156772
   2         0.03548985
   3         0.00000000
   4         0.00000000
   5         0.70467343
   6        -0.04547964
   7        -0.49186702
   8         0.00000000
   9        -0.00000000
  10        -0.61552455
Sym=     8a  
Ene=     0.1646
Spin= Alpha
Occup=    0.00000
   1        -0.00000000
   2        -0.00000000
   3         0.99974668
   4         0.20634105
   5        -0.00000000
   6         0.00000000
   7         0.00000000
   8        -0.25563898
   9        -0.05276218
  10        -0.00000000
Sym=     8a  
Ene=     0.1820
Spin= Beta
Occup=    0.00000
   1         0.00000000
   2         0.00000000
   3         0.11668588
   4        -0.56535684
   5         0.00000000
   6        -0.00000000
   7        -0.00000000
   8        -0.19093642
   9         0.92510943
  10        -0.00000000
Sym=     9a  
Ene=     0.1957
Spin= Alpha
Occup=    0.00000
   1        -0.00000000
   2        -0.00000000
   3        -0.20637722
   4         0.99992192
   5        -0.00000000
   6         0.00000000
   7         0.00000000
   8         0.05203496
   9        -0.25211552
  10        -0.00000000
Sym=     9a  
Ene=     0.2574
Spin= Beta
Occup=    0.00000
   1         0.00000000
   2         0.00000000
   3        -0.52096581
   4        -0.10752387
   5         0.00000000
   6        -0.00000000
   7        -0.00000000
   8         0.94400004
   9         0.19483531
  10         0.00000000
Sym=    10a  
Ene=     0.3356
Spin= Alpha
Occup=    0.00000
   1         0.04470630
   2         0.56565285
   3         0.00000000
   4         0.00000000
   5         1.14676003
   6        -0.08768085
   7        -0.70969902
   8        -0.00000000
   9        -0.00000000
  10         0.52133826
Sym=    10a  
Ene=     0.4139
Spin= Beta
Occup=    0.00000
   1         0.06282382
   2         0.60718039
   3         0.00000000
   4         0.00000000
   5         0.92636157
   6        -0.07712500
   7        -0.62505608
   8        -0.00000000
   9        -0.00000000
  10         0.88988133
