   This run of MOLCAS is using the pymolcas driver

                             OPE
                             OPE          NMOL  CASOP  ENMOLC A   SO
                 OPE        NMOLC        AS  OP EN  MO LC     AS  OP
                OPENM       OL CA        SO  PE NM  OL CA     SOP EN
                OP EN      MO   LC       AS  OP ENMOL  CASO   PENMOL
                OP  EN     MO   LC       AS  OP EN     MO     LC ASO
               OP   E  NMOL  C  AS       OP  EN MO     LC     AS  OP
               OP  E   NMO   LC AS        OPEN  MO     LCASOP EN   M
               O  PEN   MO  LCA  SO
            OPE   NMO   L   CAS    OP
        OPENMOL  CASOP     ENMOL   CASOPE
     OPENMOLCA   SOPENMOLCASOPEN   MOLCASOPE
    OPENMOLCAS   OP           EN   MOL    CAS
    OPENMOLCAS       OP  ENM        O     LCA
    OPENMOLCAS    OPEN  MOLCASO     P  E  NMO
    OPENMOLCAS     OP               E  N  MOL
    OPENMOLCA   SO           PENM   O  L  CAS    OPEN    MO    LCAS
    OPENMOLCA   SOP           ENM   O  L  CAS   OP  EN  MOLC  AS   O
    OPENMOLCA   SOPE           NM      O  LCA   S      OP  EN MO
    OPENMOLC                AS         O  PEN   M      OL  CA  SOPE
    OPENMO        LCASOPE  NMOL        C  ASO   P      ENMOLC     AS
    OPE     NMO      LCA  SO     P     E   NM   OL  CA SO  PE N   MO
          OPENMOLCA            SOPE   NMO        LCAS  O    P  ENMO
     OPENMOLCASOPENMOLCASOPENMOLCASOPENMOLCA
        OPENMOLCASOPENMOLCASOPENMOLCASOPE
            OPENMOLCASOPENMOLCASOPENM
               OPENMOLCASOPENMOLCA        version: ea724fe96-dirty
                   OPENMOLCASO
                       OPE                tag:

 OpenMolcas is free software; you can redistribute it and/or modify it
 under the terms of the GNU Lesser General Public License version 2.1.
 OpenMolcas is distributed in the hope that it will be useful, but it
 is provided "as is" and without any express or implied warranties.
 For more details see the full text of the license in the file
 LICENSE or in <http://www.gnu.org/licenses/>.

                 Copyright (C) The OpenMolcas Authors
           For the author list and the recommended citation,
                   consult the file CONTRIBUTORS.md

           *************************************************
           * pymolcas version py2.28                       *
           *   build c4a6d18ded8cb6cad61d2372a9abd97c      *
           *   (after the EMIL interpreter by V. Veryazov) *
           *************************************************

configuration info
------------------
C Compiler ID: Intel
C flags: -std=gnu99
Fortran Compiler ID: Intel
Fortran flags: -fpp -i8 -r8 -heap-arrays
Definitions: _MOLCAS_;_I8_;_LINUX_
Parallel: OFF (GA=OFF)


   -------------------------------------------------------------------------------
  |
  |              Project: 4.98
  |       Submitted from: /home/grierjones/DDCASPT2/iron_oxo_DDCASPT2/cluster/4.98
  |         Scratch area: /tmp/4.98
  |      Save outputs to: /home/grierjones/DDCASPT2/iron_oxo_DDCASPT2/cluster/4.98
  |               Molcas: /home/grierjones/Test/build
  |
  | Scratch area is empty
  |
  |       MOLCAS_DRIVER = /usr/local/pymolcas
  | MOLCAS_KEEP_WORKDIR = NO
  |  MOLCAS_NEW_WORKDIR = YES
  |       MOLCAS_NPROCS = 1
  |        MOLCAS_PRINT = NORMAL
  |       MOLCAS_SOURCE = /home/grierjones/Test/build
  |    MOLCAS_STRUCTURE = 0
  |
   -------------------------------------------------------------------------------

++ ---------   Input file   ---------

&GATEWAY
coord=4.98.xyz
Basis = ANO-RCC-VDZP
Group = nosymm
Expert
End of Input

&SEWARD
End of Input

&SCF
UHF
charge
2
spin
5

>>> COPY $WorkDir/4.98.scf.h5 $CurrDir/

&RASSCF
Title= RASSCF
FileOrb
/home/grierjones/DDCASPT2/iron_oxo_DDCASPT2/cluster/4.96/4.96.RasOrb
NACTEL
10 0 0
RAS2
14
Symmetry
1
Spin
5
charge
2
orblisting
all
ITERation
300 200

>>> COPY $WorkDir/4.98.rasscf.h5 $CurrDir/

>>> COPY $WorkDir/GMJ_Fock_MO.csv $CurrDir/4.98.GMJ_Fock_MO.csv

>>> COPY $WorkDir/GMJ_PT2_Fock_MO.csv $CurrDir/4.98.GMJ_PT2_Fock_MO.csv

&MOTRA
Frozen=0
LUMORB

>>> COPY $WorkDir/GMJ_one_int_indx.csv $CurrDir/4.98.GMJ_one_int_indx.csv

>>> COPY $WorkDir/GMJ_one_int.csv $CurrDir/4.98.GMJ_one_int.csv

>>> COPY $WorkDir/GMJ_two_int_indx.csv $CurrDir/4.98.GMJ_two_int_indx.csv

>>> COPY $WorkDir/GMJ_two_int.csv $CurrDir/4.98.GMJ_two_int.csv

&CASPT2
Frozen
0
MAXITER
50

>>> FOREACH i IN (B,E,F,G,H)

  >>> FOREACH j IN (P,M)

    >>> IF (-FILE GMJ_e2_${i}_${j}.csv)

      >>> COPY $WorkDir/GMJ_RHS_${i}_${j}.csv $CurrDir/GMJ_RHS_${i}_${j}.csv

      >>> COPY $WorkDir/GMJ_IVECW_${i}_${j}.csv $CurrDir/GMJ_IVECW_${i}_${j}.csv

      >>> COPY $WorkDir/GMJ_IVECX_${i}_${j}.csv $CurrDir/GMJ_IVECX_${i}_${j}.csv

      >>> COPY $WorkDir/GMJ_IVECC2_${i}_${j}.csv $CurrDir/GMJ_IVECC2_${i}_${j}.csv

      >>> COPY $WorkDir/GMJ_e2_${i}_${j}.csv $CurrDir/GMJ_e2_${i}_${j}.csv

    >>> END IF

  >>> END FOREACH

>>> END FOREACH

>>> FOREACH i IN (A,C,D)

  >>> IF (-FILE GMJ_e2_$i.csv)

    >>> COPY $WorkDir/GMJ_RHS_$i.csv $CurrDir/GMJ_RHS_$i.csv

    >>> COPY $WorkDir/GMJ_IVECW_$i.csv $CurrDir/GMJ_IVECW_$i.csv

    >>> COPY $WorkDir/GMJ_IVECX_$i.csv $CurrDir/GMJ_IVECX_$i.csv

    >>> COPY $WorkDir/GMJ_IVECC2_$i.csv $CurrDir/GMJ_IVECC2_$i.csv

    >>> COPY $WorkDir/GMJ_e2_$i.csv $CurrDir/GMJ_e2_$i.csv

  >>> END IF

>>> END FOREACH

-- ----------------------------------

--- Start Module: gateway at Wed Dec 18 05:16:40 2024 ---
 
()()()()()()()()()()()()()()()()()()()()()()()()()()()()()()()()()()()()()()()()()()()()()()()()()()

                                              &GATEWAY

                                   only a single process is used
                       available to each process: 2.0 GB of memory, 1 thread?
()()()()()()()()()()()()()()()()()()()()()()()()()()()()()()()()()()()()()()()()()()()()()()()()()()
 
 ###############################################################################
 ###############################################################################
 ###                                                                         ###
 ###                                                                         ###
 ###                                                                         ###
 ###    WARNING: EXPERT option is ON!                                        ###
 ###                                                                         ###
 ###                                                                         ###
 ###############################################################################
 ###############################################################################
 
++    Symmetry information:
      ---------------------
 
                    Character Table for C1 
 
                             E  
                    a        1  x, y, xy, Rz, z, xz, Ry, yz, Rx, I
--
 
 
++    Basis set information:
      ----------------------
 
 
      Basis set label: O.ANO-RCC...3S2P1D.
 
      Electronic valence basis set:
      ------------------
      Associated Effective Charge   8.000000 au
      Associated Actual Charge      8.000000 au
      Nuclear Model: Point charge
 
      Shell  nPrim  nBasis  Cartesian Spherical Contaminant
         s      14       3        X                  
         p       9       2        X                  
         d       4       1                 X         
 
 
      Basis set label: FE.ANO-RCC...5S4P2D1F.
 
      Electronic valence basis set:
      ------------------
      Associated Effective Charge  26.000000 au
      Associated Actual Charge     26.000000 au
      Nuclear Model: Point charge
 
      Shell  nPrim  nBasis  Cartesian Spherical Contaminant
         s      21       5        X                  
         p      15       4        X                  
         d      10       2                 X         
         f       6       1                 X         
--
 
 
++    Molecular structure info:
      -------------------------
 
                    ************************************************ 
                    **** Cartesian Coordinates / Bohr, Angstrom **** 
                    ************************************************ 
 
     Center  Label                x              y              z                     x              y              z
        1      O1               0.000000       0.000000       6.217010              0.000000       0.000000       3.289900
        2      FE2              0.000000       0.000000      -3.193448              0.000000       0.000000      -1.689900
--
 
 
            Nuclear Potential Energy             22.10306836 au
 
 ###############################################################################
 ###############################################################################
 ###                                                                         ###
 ###                                                                         ###
 ###    There were warnings during the execution                             ###
 ###    Please, check the output with care!                                  ###
 ###                                                                         ###
 ###                                                                         ###
 ###############################################################################
 ###############################################################################
--- Stop Module: gateway at Wed Dec 18 05:16:40 2024 /rc=_RC_ALL_IS_WELL_ ---
*** files: xmldump
    saved to directory /home/grierjones/DDCASPT2/iron_oxo_DDCASPT2/cluster/4.98

--- Start Module: seward at Wed Dec 18 05:16:40 2024 ---
 
()()()()()()()()()()()()()()()()()()()()()()()()()()()()()()()()()()()()()()()()()()()()()()()()()()

                                              &SEWARD

                                   only a single process is used
                       available to each process: 2.0 GB of memory, 1 thread?
()()()()()()()()()()()()()()()()()()()()()()()()()()()()()()()()()()()()()()()()()()()()()()()()()()
 
 ###############################################################################
 ###############################################################################
 ###                                                                         ###
 ###                                                                         ###
 ###                                                                         ###
 ###    WARNING: EXPERT option is ON!                                        ###
 ###                                                                         ###
 ###                                                                         ###
 ###############################################################################
 ###############################################################################
               SEWARD will generate:
                  Multipole Moment integrals up to order  2
                  Kinetic Energy integrals
                  Nuclear Attraction integrals (point charge)
                  One-Electron Hamiltonian integrals
                  Velocity integrals
                  Relativistic Douglas-Kroll-Hess integrals:
                    - Parametrization         : EXP
                    - DKH order of Hamiltonian: 2
                    - DKH order of Properties : 0
                         - multipole moment operators
                         - electric potential operators
                         - contact operators
                  Atomic mean-field integrals
                  Two-Electron Repulsion integrals
 
                   Integrals are discarded if absolute value <: 0.10E-13
                   Integral cutoff threshold is set to       <: 0.10E-15
 
            Nuclear Potential Energy             22.10306836 au
 
 
      Basis set specifications :
      Symmetry species         a  
      Basis functions           48
 
 
  Input file to MOLDEN was generated!
 
 ###############################################################################
 ###############################################################################
 ###                                                                         ###
 ###                                                                         ###
 ###    There were warnings during the execution                             ###
 ###    Please, check the output with care!                                  ###
 ###                                                                         ###
 ###                                                                         ###
 ###############################################################################
 ###############################################################################
--- Stop Module: seward at Wed Dec 18 05:16:41 2024 /rc=_RC_ALL_IS_WELL_ ---
*** files: 4.98.GssOrb 4.98.guessorb.h5 4.98.guessorb.molden xmldump
    saved to directory /home/grierjones/DDCASPT2/iron_oxo_DDCASPT2/cluster/4.98

*** symbolic link created: INPORB -> 4.98.GssOrb
--- Start Module: scf at Wed Dec 18 05:16:41 2024 ---
 
()()()()()()()()()()()()()()()()()()()()()()()()()()()()()()()()()()()()()()()()()()()()()()()()()()

                                                &SCF

                                   only a single process is used
                       available to each process: 2.0 GB of memory, 1 thread?
()()()()()()()()()()()()()()()()()()()()()()()()()()()()()()()()()()()()()()()()()()()()()()()()()()
 
 *** Possible bug in opening file
 *** isFreeUnit resets the unit number
++    Input section:
      --------------
 
      Header of the integral files:
      
       Integrals generated by seward 4.2.0  , Wed Dec 18 05:16:40 2024
 
 
      Cartesian coordinates in Angstrom:
      -----------------------------------------------------
      No.  Label        X            Y            Z        
      -----------------------------------------------------
       1   O1         0.00000000   0.00000000   3.28990000
       2   FE2        0.00000000   0.00000000  -1.68990000
      -----------------------------------------------------
      Nuclear repulsion energy =   22.10306836
--
 
++    Orbital specifications:
      -----------------------
 
      Symmetry species               1
                                     a
      Frozen orbitals                0
      Start temperature = 0.500
      End temperature   = 0.010
      Temperature Factor= 0.460
      Deleted orbitals               0
      Total number of orbitals      48
      Number of basis functions     48
--
 
      Molecular charge                           2.000
 
++    Optimization specifications:
      ----------------------------
 
      SCF Algorithm: Conventional USCF
      D(i)-D(i-1) density differences are used
      Number of density matrices in core                5
      Maximum number of NDDO SCF iterations           400
      Maximum number of HF SCF iterations             400
      Threshold for SCF energy change            0.10E-08
      Threshold for density matrix               0.10E-03
      Threshold for Fock matrix                  0.15E-03
      Threshold for linear dependence            0.10E-08
      Threshold at which DIIS is turned on       0.15E+00
      Threshold at which QNR/C2DIIS is turned on 0.75E-01
      Threshold for Norm(delta) (QNR/C2DIIS)     0.20E-04
      DIIS extrapolation of the SCF procedure
      All orbitals punched on: UHFORB
--
 
      Input vectors read from INPORB
      Orbital file label: *Guess orbitals
 
 
++ Convergence information
                               UHF SCF        iterations: Energy and convergence statistics
 
Iter     Tot. SCF        One-elec.       Two-elec.     Energy      Max Dij or  Max Fij      DNorm      TNorm      AccCon     Time
         Energy          Energy          Energy        Change      Delta Norm                                                in Sec.
 
 The total and one-electron energies are shifted by a value of      1000. a.u.
 
   1  -343.296276448  -877.758678901   512.359334093   0.00E+00    0.16E+00*   0.36E+00*    0.75E+01   0.18E+03   None         0.
   2  -343.475955391  -873.620822964   508.041799213  -0.18E+00*   0.11E+00*   0.14E+00*    0.10E+01   0.18E+03   EDIIS        0.
   3  -341.602323504  -921.745335685   558.039943821   0.19E+01*   0.64E-01*   0.19E+00*    0.18E+01   0.19E+03   EDIIS        0.
   4  -342.920927742  -861.972177773   496.948181671  -0.13E+01*   0.70E-01*   0.71E-01*    0.15E+01   0.17E+03   EDIIS        0.
   5  -344.058725731  -895.610088542   529.448294451  -0.11E+01*   0.22E-01*   0.37E-01*    0.85E+00   0.18E+03   EDIIS        0.
   6  -344.182764429  -867.710103563   501.424270774  -0.12E+00*   0.26E+00*   0.21E+00*    0.18E+01   0.18E+03   EDIIS        0.
   7  -343.337816691  -909.033746072   543.592861021   0.84E+00*   0.73E-01*   0.43E-01*    0.20E+01   0.18E+03   EDIIS        0.
   8  -344.873889929  -886.143023977   519.166065689  -0.15E+01*   0.25E+00*   0.15E+00*    0.22E+01   0.18E+03   EDIIS        0.
   9  -345.214620896  -874.151628343   506.833939086  -0.34E+00*   0.23E+00*   0.36E+00*    0.16E+01   0.18E+03   EDIIS        0.
  10  -345.290476009  -879.224907748   511.831363379  -0.76E-01*   0.65E-01*   0.84E-01*    0.70E+00   0.18E+03   EDIIS        0.
  11  -345.299046733  -877.340051834   509.937936742  -0.86E-02*   0.33E-01*   0.33E-01*    0.21E+00   0.18E+03   EDIIS        0.
 
       Fermi aufbau procedure completed!
      nOcc(alpha)=   18
      nOcc(beta) =   14
 
  12  -345.300387242  -878.160957294   510.757501692  -0.13E-02*   0.98E-02*   0.85E-02*    0.84E-01   0.18E+03   EDIIS        0.
  13  -345.300656106  -877.844292280   510.440567814  -0.27E-03*   0.82E-02*   0.47E-02*    0.35E-01   0.18E+03   EDIIS        0.
  14  -345.300724278  -877.971927304   510.568134666  -0.68E-04*   0.41E-02*   0.24E-02*    0.18E-01   0.18E+03   EDIIS        0.
  15  -345.300744514  -877.922409126   510.518596252  -0.20E-04*   0.26E-02*   0.15E-02*    0.96E-02   0.18E+03   EDIIS        0.
  16  -345.300751113  -877.941712986   510.537893514  -0.66E-05*   0.60E-03*   0.17E-02*    0.55E-02   0.18E+03   c2DIIS       0.
  17  -345.300754302  -877.926363345   510.522540683  -0.32E-05*   0.78E-03*   0.31E-03*    0.25E-02   0.18E+03   QNRc2DIIS    0.
  18  -345.300754529  -877.939982103   510.536159214  -0.23E-06*   0.30E-03*   0.12E-03     0.11E-02   0.18E+03   QNRc2DIIS    0.
  19  -345.300754580  -877.936833784   510.533010844  -0.51E-07*   0.42E-03*   0.54E-04     0.41E-03   0.18E+03   QNRc2DIIS    0.
  20  -345.300754596  -877.936150500   510.532327544  -0.16E-07*   0.70E-05    0.18E-05     0.57E-03   0.18E+03   QNRc2DIIS    0.
  21  -345.300754596  -877.936144966   510.532322010  -0.95E-11    0.23E-05    0.68E-06     0.10E-04   0.18E+03   QNRc2DIIS    0.
 
       Convergence after 21 Macro Iterations
--
 
 *****************************************************************************************************************************
 *                                                                                                                           *
 *                                             SCF/KS-DFT Program, Final results                                             *
 *                                                                                                                           *
 *                                                                                                                           *
 *                                                                                                                           *
 *                                                       Final Results                                                       *
 *                                                                                                                           *
 *****************************************************************************************************************************
 
::    Total SCF energy                              -1345.3007545961
      One-electron energy                           -1877.9361449660
      Two-electron energy                             510.5323220099
      Nuclear repulsion energy                         22.1030683600
      Kinetic energy (interpolated)                  1399.7952389102
      Virial theorem                                    0.9610696745
      Total spin, S(S+1)                                8.0099201290
      Total spin, S                                     2.3740076773
      Max non-diagonal density matrix element           0.0000012670
      Max non-diagonal Fock matrix element              0.0000002589
 
 
      All orbitals with orbital energies smaller than  E(LUMO)+0.5 are printed
 
++    Molecular orbitals:
      -------------------
 
      Title: UHF orbitals (alpha)

      Molecular orbitals for symmetry species 1: a  
 
          Orbital            1         2         3         4         5         6         7         8         9        10    
          Energy         -264.6165  -33.4941  -28.5579  -28.5579  -28.5579  -20.8488   -5.4422   -3.9822   -3.9822   -3.9821
          Occ. No.          1.0000    1.0000    1.0000    1.0000    1.0000    1.0000    1.0000    1.0000    1.0000    1.0000
 
        1 O1     1s        -0.0000   -0.0000   -0.0000    0.0000   -0.0000    1.0000   -0.0000   -0.0000   -0.0000   -0.0000
        2 O1     2s        -0.0000   -0.0000   -0.0000    0.0000   -0.0000   -0.0022   -0.0003   -0.0000   -0.0000   -0.0002
        3 O1     3s        -0.0000   -0.0000   -0.0001    0.0000   -0.0000    0.0004   -0.0004    0.0000   -0.0000   -0.0002
        4 O1     2px        0.0000   -0.0000    0.0000   -0.0000   -0.0000   -0.0000    0.0000   -0.0000    0.0000   -0.0000
        5 O1     3px        0.0000    0.0000    0.0000   -0.0000   -0.0000   -0.0000   -0.0000   -0.0001    0.0000   -0.0000
        6 O1     2py       -0.0000    0.0000   -0.0000   -0.0000    0.0000   -0.0000   -0.0000   -0.0000   -0.0000    0.0000
        7 O1     3py       -0.0000    0.0000   -0.0000   -0.0000    0.0000    0.0000   -0.0000   -0.0000   -0.0001    0.0000
        8 O1     2pz        0.0000    0.0000    0.0000   -0.0000    0.0000   -0.0001    0.0002   -0.0000   -0.0000    0.0001
        9 O1     3pz        0.0000    0.0000    0.0001   -0.0000    0.0000    0.0000    0.0005    0.0000    0.0000    0.0001
       10 O1     3d2-       0.0000   -0.0000    0.0000    0.0000    0.0000    0.0000   -0.0000   -0.0000   -0.0000   -0.0000
       11 O1     3d1-       0.0000    0.0000    0.0000    0.0000   -0.0000    0.0000   -0.0000    0.0000    0.0000    0.0000
       12 O1     3d0        0.0000   -0.0000   -0.0000    0.0000   -0.0000    0.0009   -0.0000    0.0000   -0.0000   -0.0000
       13 O1     3d1+       0.0000    0.0000   -0.0000    0.0000    0.0000   -0.0000   -0.0000    0.0000   -0.0000   -0.0000
       14 O1     3d2+      -0.0000    0.0000    0.0000   -0.0000    0.0000   -0.0000    0.0000    0.0000   -0.0000   -0.0000
       15 FE2    1s         1.0000   -0.0000   -0.0000    0.0000   -0.0000   -0.0000    0.0000    0.0000   -0.0000    0.0000
       16 FE2    2s         0.0000    1.0000   -0.0000    0.0000   -0.0000    0.0000   -0.0035   -0.0000   -0.0000   -0.0000
       17 FE2    3s        -0.0000    0.0035    0.0000   -0.0000    0.0000   -0.0000    0.9999    0.0000   -0.0000   -0.0000
       18 FE2    4s         0.0000   -0.0003    0.0000   -0.0000    0.0000   -0.0000   -0.0076   -0.0000    0.0000    0.0000
       19 FE2    5s        -0.0000    0.0004    0.0000   -0.0000    0.0000   -0.0001    0.0083   -0.0000    0.0000    0.0000
       20 FE2    2px        0.0000    0.0000   -0.0000    0.1880    0.9822    0.0000   -0.0000   -0.0035    0.0002   -0.0000
       21 FE2    3px       -0.0000    0.0000   -0.0000    0.0007    0.0034    0.0000   -0.0000    0.9985   -0.0485    0.0000
       22 FE2    4px        0.0000    0.0000    0.0000   -0.0001   -0.0006   -0.0000    0.0000   -0.0192    0.0009   -0.0000
       23 FE2    5px       -0.0000   -0.0000   -0.0000    0.0003    0.0015    0.0000   -0.0000    0.0182   -0.0009    0.0000
       24 FE2    2py       -0.0000   -0.0000    0.0000    0.9822   -0.1880    0.0000    0.0000   -0.0002   -0.0035    0.0000
       25 FE2    3py        0.0000    0.0000    0.0000    0.0034   -0.0007   -0.0000   -0.0000    0.0485    0.9985   -0.0000
       26 FE2    4py       -0.0000   -0.0000   -0.0000   -0.0006    0.0001    0.0000   -0.0000   -0.0009   -0.0192    0.0000
       27 FE2    5py        0.0000    0.0000    0.0000    0.0015   -0.0003    0.0000    0.0000    0.0009    0.0182   -0.0000
       28 FE2    2pz        0.0000    0.0000    1.0000   -0.0000    0.0000    0.0000   -0.0000    0.0000   -0.0000   -0.0035
       29 FE2    3pz       -0.0000    0.0000    0.0035   -0.0000    0.0000   -0.0000    0.0000   -0.0000    0.0000    0.9996
       30 FE2    4pz        0.0000    0.0000   -0.0006    0.0000   -0.0000   -0.0000    0.0001    0.0000   -0.0000   -0.0192
       31 FE2    5pz        0.0000    0.0000    0.0015   -0.0000    0.0000   -0.0000    0.0001   -0.0000    0.0000    0.0182
       32 FE2    3d2-       0.0000    0.0000   -0.0000    0.0000   -0.0000    0.0000    0.0000    0.0000   -0.0000   -0.0000
       33 FE2    4d2-      -0.0000    0.0000    0.0000   -0.0000    0.0000   -0.0000   -0.0000    0.0000    0.0000    0.0000
       34 FE2    3d1-       0.0000   -0.0000    0.0000    0.0000   -0.0000    0.0000   -0.0000    0.0000    0.0000   -0.0000
       35 FE2    4d1-      -0.0000    0.0000    0.0000    0.0000   -0.0000    0.0000    0.0000   -0.0000   -0.0000    0.0000
       36 FE2    3d0        0.0000    0.0000    0.0000   -0.0000    0.0000   -0.0000   -0.0000   -0.0000    0.0000    0.0000
       37 FE2    4d0        0.0000    0.0000    0.0000   -0.0000    0.0000   -0.0000    0.0001    0.0000   -0.0000   -0.0000
       38 FE2    3d1+       0.0000   -0.0000   -0.0000    0.0000    0.0000   -0.0000    0.0000    0.0000   -0.0000    0.0000
       39 FE2    4d1+       0.0000   -0.0000   -0.0000    0.0000    0.0000   -0.0000   -0.0000   -0.0000    0.0000   -0.0000
       40 FE2    3d2+      -0.0000    0.0000   -0.0000    0.0000   -0.0000   -0.0000   -0.0000   -0.0000    0.0000    0.0000
       41 FE2    4d2+      -0.0000   -0.0000    0.0000    0.0000    0.0000    0.0000    0.0000   -0.0000   -0.0000   -0.0000
       42 FE2    4f3-      -0.0000    0.0000   -0.0000   -0.0000    0.0000   -0.0000   -0.0000    0.0000   -0.0000    0.0000
       43 FE2    4f2-      -0.0000    0.0000   -0.0000    0.0000   -0.0000   -0.0000   -0.0000    0.0000   -0.0000   -0.0000
       44 FE2    4f1-       0.0000   -0.0000   -0.0000    0.0000   -0.0000   -0.0000    0.0000   -0.0000   -0.0000    0.0000
       45 FE2    4f0        0.0000    0.0000    0.0000   -0.0000   -0.0000   -0.0000    0.0000    0.0000   -0.0000   -0.0000
       46 FE2    4f1+       0.0000   -0.0000   -0.0000    0.0000    0.0000   -0.0000    0.0000   -0.0000    0.0000   -0.0000
       47 FE2    4f2+      -0.0000    0.0000   -0.0000    0.0000    0.0000   -0.0000    0.0000   -0.0000   -0.0000    0.0000
       48 FE2    4f3+       0.0000   -0.0000   -0.0000    0.0000   -0.0000    0.0000    0.0000    0.0000    0.0000    0.0000
 
          Orbital           11        12        13        14        15        16        17        18        19        20    
          Energy           -1.6629   -1.6628   -1.6628   -1.6628   -1.6628   -1.2931   -0.9501   -0.7329   -0.4819   -0.4819
          Occ. No.          1.0000    1.0000    1.0000    1.0000    1.0000    1.0000    1.0000    1.0000    0.0000    0.0000
 
        1 O1     1s         0.0000   -0.0000   -0.0000    0.0000   -0.0000    0.0021    0.0006    0.0002   -0.0000   -0.0000
        2 O1     2s         0.0007   -0.0000   -0.0000    0.0000   -0.0000    0.9992    0.0048    0.0188   -0.0000   -0.0000
        3 O1     3s         0.0007   -0.0000   -0.0000    0.0000   -0.0000    0.0223    0.0060   -0.0112   -0.0000   -0.0000
        4 O1     2px       -0.0000    0.0000   -0.0000    0.0002   -0.0000   -0.0000    0.0000   -0.0000   -0.0009    0.0007
        5 O1     3px       -0.0000    0.0000   -0.0000    0.0005   -0.0001    0.0000    0.0000   -0.0000   -0.0027    0.0021
        6 O1     2py       -0.0000    0.0000   -0.0000    0.0000    0.0002   -0.0000   -0.0000    0.0000   -0.0007   -0.0009
        7 O1     3py       -0.0000    0.0000   -0.0000    0.0001    0.0005   -0.0000    0.0000    0.0000   -0.0021   -0.0027
        8 O1     2pz       -0.0007    0.0000    0.0000   -0.0000    0.0000   -0.0174   -0.0094    0.9974    0.0000    0.0000
        9 O1     3pz       -0.0009    0.0000    0.0000   -0.0000    0.0000   -0.0065   -0.0062    0.0508    0.0000    0.0000
       10 O1     3d2-       0.0000    0.0000   -0.0000   -0.0000   -0.0000    0.0000    0.0000    0.0000    0.0000    0.0000
       11 O1     3d1-       0.0000   -0.0000    0.0000   -0.0000   -0.0001    0.0000   -0.0000   -0.0000    0.0000    0.0000
       12 O1     3d0        0.0001   -0.0000   -0.0000    0.0000   -0.0000    0.0296    0.0002   -0.0055   -0.0000   -0.0000
       13 O1     3d1+       0.0000   -0.0000    0.0000   -0.0001    0.0000   -0.0000    0.0000    0.0000    0.0000   -0.0000
       14 O1     3d2+      -0.0000    0.0000    0.0000    0.0000    0.0000   -0.0000   -0.0000   -0.0000    0.0000    0.0000
       15 FE2    1s        -0.0000    0.0000    0.0000   -0.0000   -0.0000   -0.0000   -0.0000    0.0000    0.0000    0.0000
       16 FE2    2s        -0.0000    0.0000   -0.0000    0.0000    0.0000   -0.0000    0.0004    0.0002    0.0000    0.0000
       17 FE2    3s         0.0000   -0.0000    0.0000    0.0000    0.0000   -0.0001    0.0101    0.0010    0.0000    0.0000
       18 FE2    4s        -0.0002    0.0000    0.0000   -0.0000    0.0000    0.0003    0.9279    0.0123    0.0000    0.0000
       19 FE2    5s        -0.0002    0.0000    0.0000   -0.0000    0.0000   -0.0006   -0.3719   -0.0071    0.0000    0.0000
       20 FE2    2px       -0.0000   -0.0000    0.0000   -0.0000    0.0000   -0.0000   -0.0000    0.0000    0.0004   -0.0003
       21 FE2    3px        0.0000   -0.0000    0.0000   -0.0000    0.0000    0.0000    0.0000    0.0000    0.0146   -0.0115
       22 FE2    4px        0.0000    0.0000    0.0000   -0.0001    0.0000    0.0000   -0.0000    0.0000    0.7845   -0.6192
       23 FE2    5px       -0.0000   -0.0000    0.0000   -0.0000    0.0000   -0.0000   -0.0000    0.0000    0.0254   -0.0201
       24 FE2    2py        0.0000   -0.0000    0.0000   -0.0000   -0.0000   -0.0000    0.0000   -0.0000    0.0003    0.0004
       25 FE2    3py       -0.0000    0.0000    0.0000   -0.0000   -0.0000   -0.0000    0.0000    0.0000    0.0115    0.0146
       26 FE2    4py       -0.0000   -0.0000    0.0000   -0.0000   -0.0001   -0.0000    0.0000    0.0000    0.6192    0.7845
       27 FE2    5py        0.0000    0.0000    0.0000   -0.0000   -0.0000   -0.0000    0.0000   -0.0000    0.0201    0.0254
       28 FE2    2pz       -0.0000    0.0000    0.0000   -0.0000    0.0000   -0.0000   -0.0000    0.0000    0.0000    0.0000
       29 FE2    3pz       -0.0000    0.0000   -0.0000   -0.0000    0.0000   -0.0001   -0.0001    0.0002    0.0000    0.0000
       30 FE2    4pz       -0.0004    0.0000    0.0000   -0.0000    0.0000    0.0002   -0.0057   -0.0181    0.0000    0.0000
       31 FE2    5pz       -0.0001    0.0000    0.0000   -0.0000    0.0000   -0.0001   -0.0004   -0.0009    0.0000    0.0000
       32 FE2    3d2-       0.0000    0.9721   -0.1907   -0.0000   -0.0000   -0.0000   -0.0000    0.0000   -0.0000   -0.0000
       33 FE2    4d2-      -0.0000   -0.1338    0.0262    0.0000    0.0000   -0.0000   -0.0000    0.0000    0.0000   -0.0000
       34 FE2    3d1-      -0.0000    0.0000   -0.0000    0.2194    0.9660    0.0000   -0.0000   -0.0000    0.0000    0.0000
       35 FE2    4d1-       0.0000   -0.0000    0.0000   -0.0302   -0.1330   -0.0000    0.0000    0.0000   -0.0004   -0.0005
       36 FE2    3d0        0.9906   -0.0000   -0.0000    0.0000   -0.0000   -0.0001   -0.0001    0.0004   -0.0000    0.0000
       37 FE2    4d0       -0.1365    0.0000    0.0000   -0.0000    0.0000    0.0002   -0.0008   -0.0026   -0.0000   -0.0000
       38 FE2    3d1+      -0.0000    0.0000   -0.0000    0.9660   -0.2194    0.0000   -0.0000    0.0000    0.0000   -0.0000
       39 FE2    4d1+       0.0000   -0.0000    0.0000   -0.1330    0.0302    0.0000   -0.0000   -0.0000   -0.0005    0.0004
       40 FE2    3d2+       0.0000    0.1907    0.9721    0.0000    0.0000    0.0000   -0.0000    0.0000   -0.0000    0.0000
       41 FE2    4d2+      -0.0000   -0.0262   -0.1338   -0.0000   -0.0000   -0.0000   -0.0000   -0.0000   -0.0000   -0.0000
       42 FE2    4f3-       0.0000   -0.0000    0.0000   -0.0000   -0.0000   -0.0000   -0.0000    0.0000    0.0000    0.0000
       43 FE2    4f2-       0.0000    0.0000   -0.0000   -0.0000   -0.0000   -0.0000    0.0000    0.0000    0.0000   -0.0000
       44 FE2    4f1-       0.0000    0.0000   -0.0000    0.0000    0.0000   -0.0000    0.0000    0.0000   -0.0000   -0.0000
       45 FE2    4f0        0.0000   -0.0000    0.0000    0.0000   -0.0000    0.0000   -0.0000   -0.0001   -0.0000   -0.0000
       46 FE2    4f1+      -0.0000    0.0000   -0.0000    0.0000   -0.0000   -0.0000   -0.0000   -0.0000   -0.0000    0.0000
       47 FE2    4f2+       0.0000    0.0000    0.0000    0.0000    0.0000   -0.0000    0.0000    0.0000   -0.0000   -0.0000
       48 FE2    4f3+       0.0000   -0.0000   -0.0000   -0.0000   -0.0000   -0.0000    0.0000    0.0000    0.0000    0.0000
 
          Orbital           21        22        23        24    
          Energy           -0.4813   -0.2475   -0.1234   -0.1234
          Occ. No.          0.0000    0.0000    0.0000    0.0000
 
        1 O1     1s        -0.0014   -0.0042    0.0000   -0.0000
        2 O1     2s        -0.0213   -0.0531   -0.0000    0.0000
        3 O1     3s        -0.0082   -0.0120    0.0000   -0.0000
        4 O1     2px       -0.0000   -0.0000    0.0413    0.9442
        5 O1     3px       -0.0000   -0.0000    0.0142    0.3256
        6 O1     2py        0.0000    0.0000    0.9442   -0.0413
        7 O1     3py        0.0000    0.0000    0.3256   -0.0142
        8 O1     2pz        0.0525    0.0597   -0.0000    0.0000
        9 O1     3pz        0.0145    0.0137   -0.0000    0.0000
       10 O1     3d2-       0.0000    0.0000    0.0000   -0.0000
       11 O1     3d1-      -0.0000   -0.0000   -0.0054    0.0002
       12 O1     3d0       -0.0003   -0.0001    0.0000   -0.0000
       13 O1     3d1+       0.0000    0.0000   -0.0002   -0.0054
       14 O1     3d2+      -0.0000   -0.0000    0.0000    0.0000
       15 FE2    1s         0.0000    0.0000   -0.0000    0.0000
       16 FE2    2s         0.0000   -0.0002   -0.0000    0.0000
       17 FE2    3s         0.0002   -0.0046   -0.0000    0.0000
       18 FE2    4s         0.0057    0.3732   -0.0000    0.0000
       19 FE2    5s        -0.0009    0.9339   -0.0000    0.0000
       20 FE2    2px        0.0000   -0.0000   -0.0000   -0.0000
       21 FE2    3px        0.0000    0.0000   -0.0000   -0.0005
       22 FE2    4px        0.0000    0.0000   -0.0006   -0.0133
       23 FE2    5px        0.0000   -0.0000    0.0001    0.0021
       24 FE2    2py       -0.0000   -0.0000   -0.0000    0.0000
       25 FE2    3py       -0.0000   -0.0000   -0.0005    0.0000
       26 FE2    4py       -0.0000   -0.0000   -0.0133    0.0006
       27 FE2    5py       -0.0000    0.0000    0.0021   -0.0001
       28 FE2    2pz        0.0005    0.0000   -0.0000    0.0000
       29 FE2    3pz        0.0187    0.0002   -0.0000    0.0000
       30 FE2    4pz        1.0017    0.0061   -0.0000    0.0000
       31 FE2    5pz        0.0325   -0.0006    0.0000   -0.0000
       32 FE2    3d2-      -0.0000    0.0000    0.0000    0.0000
       33 FE2    4d2-      -0.0000   -0.0000   -0.0000    0.0000
       34 FE2    3d1-      -0.0000    0.0000    0.0016   -0.0001
       35 FE2    4d1-       0.0000    0.0000    0.0148   -0.0006
       36 FE2    3d0        0.0001   -0.0002    0.0000   -0.0000
       37 FE2    4d0       -0.0011   -0.0021    0.0000   -0.0000
       38 FE2    3d1+       0.0000    0.0000    0.0001    0.0016
       39 FE2    4d1+      -0.0000   -0.0000    0.0006    0.0148
       40 FE2    3d2+       0.0000   -0.0000    0.0000    0.0000
       41 FE2    4d2+      -0.0000    0.0000    0.0000    0.0000
       42 FE2    4f3-       0.0000   -0.0000    0.0000   -0.0000
       43 FE2    4f2-      -0.0000   -0.0000    0.0000    0.0000
       44 FE2    4f1-       0.0000    0.0000    0.0002   -0.0000
       45 FE2    4f0       -0.0000   -0.0000    0.0000   -0.0000
       46 FE2    4f1+      -0.0000   -0.0000    0.0000    0.0002
       47 FE2    4f2+      -0.0000   -0.0000   -0.0000    0.0000
       48 FE2    4f3+      -0.0000   -0.0000   -0.0000    0.0000
--
 
 
  Input file to MOLDEN was generated!
 
 
++    Static properties:
      ------------------
 
 
      LoProp Charges per center
 

                   O1       FE2   
      Nuclear      8.0000  26.0000
      Electronic  -7.9997 -24.0003
 
      Total        0.0003   1.9997
--
 
 
      All orbitals with orbital energies smaller than  E(LUMO)+0.5 are printed
 
++    Molecular orbitals:
      -------------------
 
      Title: UHF orbitals (beta)

      Molecular orbitals for symmetry species 1: a  
 
          Orbital            1         2         3         4         5         6         7         8         9        10    
          Energy         -264.6086  -33.3174  -28.3854  -28.3854  -28.3854  -20.9340   -4.9681   -3.4197   -3.4197   -3.4196
          Occ. No.          1.0000    1.0000    1.0000    1.0000    1.0000    1.0000    1.0000    1.0000    1.0000    1.0000
 
        1 O1     1s        -0.0000    0.0000    0.0000   -0.0000    0.0000    1.0000   -0.0000    0.0000    0.0000    0.0000
        2 O1     2s        -0.0000    0.0000    0.0000   -0.0000    0.0000    0.0019   -0.0001   -0.0000    0.0000    0.0001
        3 O1     3s        -0.0000    0.0000    0.0000   -0.0000    0.0000   -0.0017   -0.0002    0.0000    0.0000    0.0001
        4 O1     2px        0.0000   -0.0000    0.0000    0.0000    0.0000   -0.0000    0.0000    0.0000   -0.0000   -0.0000
        5 O1     3px        0.0000    0.0000    0.0000    0.0000    0.0000   -0.0000   -0.0000    0.0001   -0.0000    0.0000
        6 O1     2py       -0.0000    0.0000    0.0000   -0.0000   -0.0000   -0.0000   -0.0000    0.0000    0.0000   -0.0000
        7 O1     3py       -0.0000    0.0000    0.0000   -0.0000   -0.0000    0.0000   -0.0000    0.0000    0.0001   -0.0000
        8 O1     2pz        0.0000   -0.0000   -0.0000    0.0000   -0.0000   -0.0001    0.0001   -0.0000   -0.0000   -0.0001
        9 O1     3pz        0.0000   -0.0000   -0.0000    0.0000   -0.0001    0.0001    0.0002   -0.0000   -0.0000   -0.0003
       10 O1     3d2-       0.0000   -0.0000    0.0000    0.0000    0.0000    0.0000   -0.0000   -0.0000   -0.0000   -0.0000
       11 O1     3d1-       0.0000    0.0000   -0.0000    0.0000    0.0000   -0.0000   -0.0000   -0.0000   -0.0000    0.0000
       12 O1     3d0        0.0000    0.0000    0.0000   -0.0000    0.0000   -0.0004   -0.0000    0.0000    0.0000    0.0000
       13 O1     3d1+       0.0000    0.0000   -0.0000   -0.0000   -0.0000    0.0000   -0.0000   -0.0000    0.0000   -0.0000
       14 O1     3d2+      -0.0000    0.0000   -0.0000    0.0000    0.0000    0.0000    0.0000    0.0000   -0.0000   -0.0000
       15 FE2    1s         1.0000   -0.0000   -0.0000    0.0000   -0.0000    0.0000    0.0000    0.0000   -0.0000   -0.0000
       16 FE2    2s         0.0000    1.0000   -0.0000    0.0000   -0.0000    0.0000    0.0011   -0.0000   -0.0000   -0.0000
       17 FE2    3s        -0.0000   -0.0011    0.0000   -0.0000    0.0000    0.0000    1.0000    0.0000   -0.0000   -0.0001
       18 FE2    4s         0.0000    0.0002   -0.0000    0.0000   -0.0000    0.0000   -0.0028   -0.0000   -0.0000   -0.0000
       19 FE2    5s        -0.0000   -0.0002   -0.0000    0.0000   -0.0000    0.0001    0.0033   -0.0000   -0.0000   -0.0001
       20 FE2    2px        0.0000    0.0000    0.1023    0.9947    0.0000    0.0000   -0.0000    0.0032   -0.0002   -0.0000
       21 FE2    3px       -0.0000    0.0000   -0.0003   -0.0032   -0.0000    0.0000   -0.0000    0.9978   -0.0647   -0.0000
       22 FE2    4px        0.0000    0.0000    0.0000    0.0004    0.0000    0.0000    0.0000   -0.0114    0.0007    0.0000
       23 FE2    5px       -0.0000   -0.0000   -0.0001   -0.0011   -0.0000    0.0000   -0.0000    0.0055   -0.0004   -0.0000
       24 FE2    2py       -0.0000   -0.0000    0.9947   -0.1023   -0.0000    0.0000    0.0000    0.0002    0.0032   -0.0000
       25 FE2    3py        0.0000    0.0000   -0.0032    0.0003    0.0000    0.0000   -0.0000    0.0647    0.9978   -0.0000
       26 FE2    4py       -0.0000   -0.0000    0.0004   -0.0000   -0.0000   -0.0000   -0.0000   -0.0007   -0.0114    0.0000
       27 FE2    5py        0.0000    0.0000   -0.0011    0.0001    0.0000    0.0000    0.0000    0.0004    0.0055   -0.0000
       28 FE2    2pz        0.0000    0.0000    0.0000   -0.0000    1.0000    0.0000   -0.0000    0.0000    0.0000    0.0032
       29 FE2    3pz       -0.0000    0.0000   -0.0000    0.0000   -0.0032    0.0000    0.0001    0.0000    0.0000    0.9999
       30 FE2    4pz        0.0000   -0.0000    0.0000   -0.0000    0.0004    0.0000    0.0000   -0.0000   -0.0000   -0.0115
       31 FE2    5pz        0.0000   -0.0000   -0.0000    0.0000   -0.0011    0.0000    0.0000    0.0000    0.0000    0.0055
       32 FE2    3d2-       0.0000    0.0000    0.0000    0.0000   -0.0000    0.0000    0.0000   -0.0000   -0.0000   -0.0000
       33 FE2    4d2-      -0.0000    0.0000   -0.0000   -0.0000    0.0000   -0.0000   -0.0000   -0.0000    0.0000    0.0000
       34 FE2    3d1-       0.0000   -0.0000    0.0000   -0.0000   -0.0000   -0.0000   -0.0000    0.0000    0.0001   -0.0000
       35 FE2    4d1-      -0.0000    0.0000   -0.0000    0.0000    0.0000   -0.0000    0.0000   -0.0000   -0.0000    0.0000
       36 FE2    3d0        0.0000   -0.0000   -0.0000    0.0000   -0.0000    0.0000   -0.0000   -0.0000    0.0000    0.0001
       37 FE2    4d0        0.0000   -0.0000   -0.0000    0.0000   -0.0000    0.0000    0.0000    0.0000   -0.0000   -0.0000
       38 FE2    3d1+       0.0000   -0.0000    0.0000    0.0000    0.0000   -0.0000    0.0000    0.0001   -0.0000   -0.0000
       39 FE2    4d1+       0.0000   -0.0000   -0.0000   -0.0000   -0.0000    0.0000   -0.0000   -0.0000    0.0000   -0.0000
       40 FE2    3d2+      -0.0000    0.0000   -0.0000   -0.0000   -0.0000   -0.0000   -0.0000   -0.0000    0.0000    0.0000
       41 FE2    4d2+      -0.0000    0.0000    0.0000    0.0000    0.0000    0.0000    0.0000   -0.0000   -0.0000   -0.0000
       42 FE2    4f3-      -0.0000    0.0000   -0.0000    0.0000   -0.0000   -0.0000   -0.0000    0.0000   -0.0000    0.0000
       43 FE2    4f2-      -0.0000    0.0000    0.0000   -0.0000   -0.0000   -0.0000   -0.0000    0.0000   -0.0000   -0.0000
       44 FE2    4f1-       0.0000   -0.0000   -0.0000    0.0000    0.0000   -0.0000    0.0000   -0.0000   -0.0000    0.0000
       45 FE2    4f0        0.0000   -0.0000   -0.0000   -0.0000   -0.0000    0.0000   -0.0000    0.0000   -0.0000   -0.0000
       46 FE2    4f1+       0.0000   -0.0000   -0.0000   -0.0000   -0.0000   -0.0000    0.0000   -0.0000    0.0000   -0.0000
       47 FE2    4f2+      -0.0000    0.0000   -0.0000    0.0000   -0.0000   -0.0000    0.0000   -0.0000   -0.0000   -0.0000
       48 FE2    4f3+       0.0000   -0.0000    0.0000   -0.0000   -0.0000    0.0000    0.0000    0.0000   -0.0000    0.0000
 
          Orbital           11        12        13        14        15        16        17        18        19        20    
          Energy           -1.6359   -0.9261   -0.9261   -0.8281   -0.5735   -0.5715   -0.5715   -0.5715   -0.5715   -0.5714
          Occ. No.          1.0000    1.0000    1.0000    1.0000    0.0000    0.0000    0.0000    0.0000    0.0000    0.0000
 
        1 O1     1s        -0.0019    0.0000    0.0000    0.0000    0.0001   -0.0000    0.0000    0.0000   -0.0000   -0.0002
        2 O1     2s         0.9993   -0.0000    0.0000    0.0138   -0.0002   -0.0000    0.0000    0.0000   -0.0000   -0.0025
        3 O1     3s        -0.0285    0.0000   -0.0000   -0.0105    0.0014   -0.0000    0.0000    0.0000   -0.0000   -0.0010
        4 O1     2px        0.0000    0.0629    0.9969   -0.0000   -0.0000   -0.0000   -0.0000   -0.0010    0.0006   -0.0000
        5 O1     3px       -0.0000   -0.0030   -0.0479    0.0000   -0.0000   -0.0000   -0.0000   -0.0008    0.0005   -0.0000
        6 O1     2py       -0.0000    0.9969   -0.0629    0.0000    0.0000    0.0000   -0.0000   -0.0006   -0.0010    0.0000
        7 O1     3py       -0.0000   -0.0479    0.0030   -0.0000    0.0000    0.0000   -0.0000   -0.0005   -0.0008    0.0000
        8 O1     2pz       -0.0143   -0.0000    0.0000    0.9996    0.0124    0.0000   -0.0000   -0.0000    0.0000    0.0095
        9 O1     3pz       -0.0032    0.0000   -0.0000   -0.0088   -0.0015    0.0000   -0.0000   -0.0000    0.0000    0.0026
       10 O1     3d2-       0.0000    0.0000   -0.0000    0.0000    0.0000   -0.0000    0.0000   -0.0000    0.0000    0.0000
       11 O1     3d1-      -0.0000   -0.0050    0.0003   -0.0000    0.0000   -0.0000    0.0000    0.0000    0.0000    0.0000
       12 O1     3d0       -0.0210    0.0000   -0.0000   -0.0067    0.0002   -0.0000    0.0000   -0.0000   -0.0000   -0.0000
       13 O1     3d1+       0.0000   -0.0003   -0.0050    0.0000   -0.0000    0.0000    0.0000    0.0000   -0.0000    0.0000
       14 O1     3d2+       0.0000    0.0000    0.0000   -0.0000   -0.0000    0.0000    0.0000    0.0000    0.0000   -0.0000
       15 FE2    1s        -0.0000   -0.0000   -0.0000    0.0000   -0.0000    0.0000   -0.0000   -0.0000    0.0000    0.0000
       16 FE2    2s        -0.0000   -0.0000    0.0000    0.0001   -0.0002    0.0000   -0.0000    0.0000    0.0000   -0.0000
       17 FE2    3s        -0.0000   -0.0000   -0.0000    0.0005    0.0035   -0.0000    0.0000   -0.0000    0.0000    0.0003
       18 FE2    4s        -0.0004    0.0000    0.0000   -0.0045    0.9657    0.0000    0.0000   -0.0000    0.0000    0.0766
       19 FE2    5s        -0.0011   -0.0000    0.0000    0.0015   -0.2469   -0.0000   -0.0000    0.0000   -0.0000   -0.0191
       20 FE2    2px       -0.0000   -0.0000   -0.0000    0.0000   -0.0000   -0.0000   -0.0000   -0.0000    0.0000   -0.0000
       21 FE2    3px        0.0000   -0.0000   -0.0000    0.0000    0.0000   -0.0000   -0.0000   -0.0001    0.0000    0.0000
       22 FE2    4px        0.0000   -0.0000   -0.0004    0.0000   -0.0000    0.0000    0.0000    0.0001   -0.0001    0.0000
       23 FE2    5px       -0.0000   -0.0000   -0.0001    0.0000   -0.0000    0.0000    0.0000   -0.0000    0.0000   -0.0000
       24 FE2    2py       -0.0000   -0.0000    0.0000   -0.0000   -0.0000   -0.0000   -0.0000   -0.0000   -0.0000    0.0000
       25 FE2    3py       -0.0000   -0.0000    0.0000    0.0000    0.0000    0.0000   -0.0000   -0.0000   -0.0001    0.0000
       26 FE2    4py       -0.0000   -0.0004    0.0000    0.0000    0.0000    0.0000    0.0000    0.0001    0.0001   -0.0000
       27 FE2    5py       -0.0000   -0.0001    0.0000   -0.0000    0.0000    0.0000   -0.0000   -0.0000   -0.0000    0.0000
       28 FE2    2pz       -0.0000    0.0000   -0.0000    0.0000    0.0000    0.0000   -0.0000    0.0000    0.0000   -0.0000
       29 FE2    3pz       -0.0000   -0.0000    0.0000    0.0003   -0.0000    0.0000    0.0000    0.0000   -0.0000   -0.0001
       30 FE2    4pz       -0.0006    0.0000    0.0000   -0.0029   -0.0014    0.0000   -0.0000   -0.0000    0.0000   -0.0003
       31 FE2    5pz       -0.0003   -0.0000   -0.0000   -0.0002   -0.0003   -0.0000   -0.0000    0.0000    0.0000   -0.0001
       32 FE2    3d2-       0.0000   -0.0000   -0.0000   -0.0000    0.0000    0.9913   -0.0372   -0.0000    0.0000   -0.0000
       33 FE2    4d2-      -0.0000   -0.0000    0.0000    0.0000    0.0000    0.1265   -0.0047   -0.0000    0.0000   -0.0000
       34 FE2    3d1-      -0.0000    0.0000   -0.0000    0.0000    0.0000   -0.0000    0.0000    0.4976    0.8581   -0.0000
       35 FE2    4d1-      -0.0000   -0.0001    0.0000    0.0000    0.0000   -0.0000    0.0000    0.0635    0.1094   -0.0000
       36 FE2    3d0       -0.0000   -0.0000   -0.0000   -0.0031   -0.0781    0.0000   -0.0000   -0.0000    0.0000    0.9890
       37 FE2    4d0       -0.0002    0.0000    0.0000   -0.0010   -0.0103    0.0000   -0.0000   -0.0000    0.0000    0.1261
       38 FE2    3d1+       0.0000    0.0000    0.0000   -0.0000   -0.0000    0.0000    0.0000    0.8581   -0.4976    0.0000
       39 FE2    4d1+       0.0000   -0.0000   -0.0001    0.0000   -0.0000    0.0000    0.0000    0.1094   -0.0635    0.0000
       40 FE2    3d2+      -0.0000   -0.0000   -0.0000   -0.0000    0.0000   -0.0372   -0.9913    0.0000    0.0000   -0.0000
       41 FE2    4d2+      -0.0000    0.0000   -0.0000   -0.0000    0.0000   -0.0047   -0.1265    0.0000    0.0000   -0.0000
       42 FE2    4f3-      -0.0000    0.0000   -0.0000    0.0000   -0.0000   -0.0000    0.0000   -0.0000   -0.0000    0.0000
       43 FE2    4f2-       0.0000   -0.0000    0.0000    0.0000    0.0000    0.0000   -0.0000   -0.0000    0.0000   -0.0000
       44 FE2    4f1-       0.0000    0.0000   -0.0000    0.0000    0.0000   -0.0000    0.0000    0.0000    0.0000   -0.0000
       45 FE2    4f0       -0.0000    0.0000    0.0000   -0.0000   -0.0000    0.0000   -0.0000   -0.0000    0.0000    0.0000
       46 FE2    4f1+      -0.0000    0.0000    0.0000   -0.0000   -0.0000    0.0000    0.0000    0.0000   -0.0000    0.0000
       47 FE2    4f2+      -0.0000   -0.0000    0.0000    0.0000    0.0000   -0.0000   -0.0000    0.0000    0.0000    0.0000
       48 FE2    4f3+      -0.0000   -0.0000    0.0000    0.0000    0.0000    0.0000    0.0000   -0.0000   -0.0000    0.0000
 
          Orbital           21        22        23        24    
          Energy           -0.3918   -0.3918   -0.3909   -0.2259
          Occ. No.          0.0000    0.0000    0.0000    0.0000
 
        1 O1     1s         0.0000   -0.0000   -0.0015   -0.0041
        2 O1     2s         0.0000   -0.0000   -0.0189   -0.0472
        3 O1     3s         0.0000   -0.0000   -0.0043   -0.0068
        4 O1     2px       -0.0042    0.0008   -0.0000   -0.0000
        5 O1     3px       -0.0011    0.0002   -0.0000   -0.0000
        6 O1     2py       -0.0008   -0.0042    0.0000    0.0000
        7 O1     3py       -0.0002   -0.0011    0.0000    0.0000
        8 O1     2pz       -0.0000    0.0000    0.0314    0.0470
        9 O1     3pz       -0.0000    0.0000    0.0030    0.0068
       10 O1     3d2-       0.0000   -0.0000    0.0000    0.0000
       11 O1     3d1-      -0.0000   -0.0001    0.0000    0.0000
       12 O1     3d0       -0.0000    0.0000    0.0006    0.0009
       13 O1     3d1+      -0.0001    0.0000   -0.0000   -0.0000
       14 O1     3d2+      -0.0000   -0.0000   -0.0000   -0.0000
       15 FE2    1s        -0.0000    0.0000    0.0000    0.0000
       16 FE2    2s        -0.0000    0.0000    0.0000    0.0002
       17 FE2    3s        -0.0000    0.0000    0.0000   -0.0024
       18 FE2    4s         0.0000   -0.0000    0.0008    0.2493
       19 FE2    5s         0.0000    0.0000   -0.0037    0.9727
       20 FE2    2px       -0.0003    0.0001   -0.0000   -0.0000
       21 FE2    3px        0.0108   -0.0020    0.0000    0.0000
       22 FE2    4px        0.9812   -0.1788    0.0000   -0.0000
       23 FE2    5px        0.0710   -0.0129    0.0000   -0.0000
       24 FE2    2py       -0.0001   -0.0003    0.0000   -0.0000
       25 FE2    3py        0.0020    0.0108   -0.0000   -0.0000
       26 FE2    4py        0.1788    0.9812   -0.0000   -0.0000
       27 FE2    5py        0.0129    0.0710   -0.0000    0.0000
       28 FE2    2pz        0.0000   -0.0000   -0.0003   -0.0000
       29 FE2    3pz       -0.0000    0.0000    0.0111    0.0001
       30 FE2    4pz       -0.0000    0.0000    0.9986    0.0079
       31 FE2    5pz       -0.0000    0.0000    0.0720    0.0000
       32 FE2    3d2-      -0.0000    0.0000   -0.0000    0.0000
       33 FE2    4d2-       0.0000   -0.0000   -0.0000    0.0000
       34 FE2    3d1-      -0.0000   -0.0001   -0.0000   -0.0000
       35 FE2    4d1-      -0.0000   -0.0000    0.0000    0.0000
       36 FE2    3d0       -0.0000    0.0000    0.0009    0.0008
       37 FE2    4d0       -0.0000   -0.0000   -0.0005   -0.0011
       38 FE2    3d1+      -0.0001    0.0000    0.0000    0.0000
       39 FE2    4d1+      -0.0000    0.0000   -0.0000    0.0000
       40 FE2    3d2+       0.0000    0.0000    0.0000   -0.0000
       41 FE2    4d2+      -0.0000   -0.0000   -0.0000    0.0000
       42 FE2    4f3-       0.0000    0.0000    0.0000   -0.0000
       43 FE2    4f2-       0.0000   -0.0000   -0.0000   -0.0000
       44 FE2    4f1-      -0.0000   -0.0000    0.0000    0.0000
       45 FE2    4f0       -0.0000   -0.0000   -0.0000   -0.0000
       46 FE2    4f1+      -0.0000    0.0000   -0.0000   -0.0000
       47 FE2    4f2+      -0.0000   -0.0000    0.0000   -0.0000
       48 FE2    4f3+       0.0000    0.0000   -0.0000   -0.0000
--
 
 
++    Molecular charges:
      ------------------
 
      Mulliken charges per centre and basis function type
      ---------------------------------------------------
 
                            O1                      FE2   
                     alpha        beta       alpha        beta
      1s           1.0000      1.0000      1.0000      1.0000
      2s           0.9986      0.9988      1.0000      1.0000
      2px          0.0000      0.9977      1.0000      1.0000
      2pz          0.9959      0.9996      1.0000      1.0000
      2py          0.0000      0.9977      1.0000      1.0000
      3s           0.0006      0.0009      1.0000      1.0000
      3px          0.0000      0.0023      0.9993      0.9998
      3pz          0.0030      0.0001      0.9993      0.9998
      3py          0.0000      0.0023      0.9993      0.9998
      4s           0.0000      0.0000      0.8619      0.0001
      3d2+        -0.0000      0.0000      0.9814      0.0000
      3d1+        -0.0000      0.0000      0.9814      0.0000
      3d0          0.0009      0.0005      0.9814      0.0000
      3d1-        -0.0000      0.0000      0.9814      0.0000
      3d2-        -0.0000      0.0000      0.9814      0.0000
      4px          0.0000      0.0000      0.0004      0.0001
      4pz          0.0000      0.0000      0.0013      0.0002
      4py          0.0000      0.0000      0.0004      0.0001
      5s           0.0000      0.0000      0.1380     -0.0001
      4d2+         0.0000      0.0000      0.0186      0.0000
      4d1+         0.0000      0.0000      0.0186     -0.0000
      4d0          0.0000      0.0000      0.0187      0.0000
      4d1-         0.0000      0.0000      0.0186     -0.0000
      4d2-         0.0000      0.0000      0.0186      0.0000
      5px          0.0000      0.0000      0.0003      0.0000
      5pz          0.0000      0.0000      0.0004      0.0000
      5py          0.0000      0.0000      0.0003      0.0000
      4f3+         0.0000      0.0000      0.0000      0.0000
      4f2+         0.0000      0.0000      0.0000      0.0000
      4f1+         0.0000      0.0000      0.0000      0.0000
      4f0          0.0000      0.0000      0.0000      0.0000
      4f1-         0.0000      0.0000      0.0000      0.0000
      4f2-         0.0000      0.0000      0.0000      0.0000
      4f3-         0.0000      0.0000      0.0000      0.0000
      Total        2.9991      4.9999     15.0009      9.0001
      Total              7.9990                 24.0010
 
      Charge            0.0010                  1.9990
 
      Total electronic charge=   32.000000
 
      Total            charge=    2.000000
--
 
 
  Input file to MOLDEN was generated!
 
 
++    Static properties:
      ------------------
 
 
      LoProp Charges per center
 

                   O1       FE2   
      Nuclear      8.0000  26.0000
      Electronic  -7.9997 -24.0003
 
      Total        0.0003   1.9997
--
 
 
++    Natural Bond Order analysis
      ---------------------------
      Based on LoProp computed density
      -------------------------------------------------------------------------------------
      Atom A       Atom B       Bond Order
      -------------------------------------------------------------------------------------
      NBO located     20.000 core electrons.
      NBO located      3.994 lone pair electrons.
      NBO located      1.000 non-bonded electrons on atom O1        
      NBO located      1.000 non-bonded electrons on atom O1        
      NBO located      1.000 non-bonded electrons on atom FE2       
      NBO located      1.000 non-bonded electrons on atom FE2       
      NBO located      1.000 non-bonded electrons on atom FE2       
      NBO located      1.000 non-bonded electrons on atom FE2       
      NBO located      1.000 non-bonded electrons on atom FE2       
      NBO located      1.000 non-bonded electrons on atom FE2       
      The remaining    0.006 electrons are to be considered as diffuse
--
 
 
++    Molecular orbitals:
      -------------------
 
      Title: Natural orbitals

      Molecular orbitals for symmetry species 1: a  
 
          Orbital            1         2         3         4         5         6         7         8         9        10    
          Energy         -264.6125  -33.0538  -27.6175  -27.7115  -27.7106  -20.9130   -5.5994   -4.4660   -4.4615   -4.4610
          Occ. No.          2.0000    2.0000    2.0000    2.0000    2.0000    2.0000    2.0000    1.9999    1.9999    1.9999
 
        1 O1     1s         0.0000    0.0057    0.1130    0.0000    0.0000    0.9917   -0.0518   -0.0022    0.0000    0.0000
        2 O1     2s        -0.0000   -0.0001   -0.0036   -0.0000   -0.0000   -0.0334    0.0007   -0.0024   -0.0000   -0.0000
        3 O1     3s        -0.0000    0.0000   -0.0001   -0.0000   -0.0000   -0.0005   -0.0003    0.0003    0.0000    0.0000
        4 O1     2px        0.0000   -0.0000   -0.0000   -0.0000   -0.0000    0.0000   -0.0000    0.0000   -0.0000    0.0000
        5 O1     3px        0.0000    0.0000    0.0000   -0.0000   -0.0000    0.0000   -0.0000    0.0000   -0.0000    0.0000
        6 O1     2py       -0.0000    0.0000    0.0000   -0.0000    0.0000   -0.0000    0.0000   -0.0000   -0.0000   -0.0000
        7 O1     3py       -0.0000    0.0000   -0.0000   -0.0000    0.0000    0.0000    0.0000   -0.0000   -0.0000   -0.0000
        8 O1     2pz        0.0000   -0.0000    0.0014   -0.0000    0.0000   -0.0010    0.0044   -0.0290   -0.0000   -0.0000
        9 O1     3pz        0.0000   -0.0000    0.0001    0.0000    0.0000    0.0002    0.0004   -0.0007   -0.0000   -0.0000
       10 O1     3d2-       0.0000   -0.0000    0.0000    0.0000    0.0000   -0.0000   -0.0000   -0.0000   -0.0000   -0.0000
       11 O1     3d1-       0.0000    0.0000    0.0000    0.0000   -0.0000    0.0000   -0.0000    0.0000    0.0000    0.0000
       12 O1     3d0        0.0000    0.0000    0.0000    0.0000    0.0000    0.0002   -0.0001    0.0002    0.0000    0.0000
       13 O1     3d1+       0.0000    0.0000   -0.0000    0.0000    0.0000   -0.0000   -0.0000   -0.0000    0.0000   -0.0000
       14 O1     3d2+      -0.0000   -0.0000    0.0000   -0.0000    0.0000    0.0000    0.0000   -0.0000    0.0000   -0.0000
       15 FE2    1s         1.0000   -0.0000    0.0000    0.0000   -0.0000    0.0000    0.0000    0.0000    0.0000   -0.0000
       16 FE2    2s         0.0000    0.9939    0.0018    0.0000   -0.0000   -0.0001    0.1106    0.0005    0.0000    0.0000
       17 FE2    3s        -0.0000   -0.1105    0.0053    0.0000    0.0000    0.0519    0.9925    0.0033    0.0000    0.0000
       18 FE2    4s         0.0000    0.0005   -0.0000   -0.0000   -0.0000   -0.0001   -0.0022    0.0001   -0.0000    0.0000
       19 FE2    5s        -0.0000   -0.0006    0.0000    0.0000    0.0000    0.0003    0.0045   -0.0000   -0.0000   -0.0000
       20 FE2    2px        0.0000    0.0000   -0.0000    0.1855    0.9669   -0.0000    0.0000    0.0000    0.1692   -0.0453
       21 FE2    3px       -0.0000   -0.0000    0.0000   -0.0330   -0.1720    0.0000   -0.0000    0.0000    0.9509   -0.2543
       22 FE2    4px        0.0000    0.0000   -0.0000    0.0005    0.0026   -0.0000    0.0000   -0.0000   -0.0146    0.0039
       23 FE2    5px       -0.0000   -0.0000    0.0000   -0.0004   -0.0019    0.0000   -0.0000    0.0000    0.0113   -0.0030
       24 FE2    2py       -0.0000   -0.0000    0.0000    0.9669   -0.1855   -0.0000   -0.0000   -0.0000    0.0452    0.1691
       25 FE2    3py        0.0000    0.0000   -0.0000   -0.1719    0.0330    0.0000    0.0000   -0.0000    0.2543    0.9509
       26 FE2    4py       -0.0000   -0.0000    0.0000    0.0026   -0.0005   -0.0000   -0.0000    0.0000   -0.0039   -0.0146
       27 FE2    5py        0.0000    0.0000   -0.0000   -0.0019    0.0004    0.0000    0.0000   -0.0000    0.0030    0.0113
       28 FE2    2pz       -0.0000   -0.0019    0.9781   -0.0000    0.0000   -0.1110   -0.0002    0.1759    0.0000    0.0000
       29 FE2    3pz       -0.0000    0.0002   -0.1746    0.0000   -0.0000    0.0217   -0.0034    0.9838    0.0000    0.0000
       30 FE2    4pz        0.0000   -0.0000    0.0026   -0.0000    0.0000   -0.0003    0.0001   -0.0148   -0.0000   -0.0000
       31 FE2    5pz        0.0000   -0.0000   -0.0019    0.0000   -0.0000    0.0002   -0.0000    0.0117    0.0000    0.0000
       32 FE2    3d2-       0.0000   -0.0000    0.0000    0.0000   -0.0000    0.0000    0.0000   -0.0000   -0.0000   -0.0000
       33 FE2    4d2-      -0.0000    0.0000   -0.0000   -0.0000    0.0000   -0.0000   -0.0000    0.0000    0.0000    0.0000
       34 FE2    3d1-       0.0000   -0.0000   -0.0000   -0.0000    0.0000    0.0000    0.0000   -0.0000    0.0000    0.0001
       35 FE2    4d1-      -0.0000   -0.0000    0.0000    0.0000   -0.0000   -0.0000    0.0000    0.0000   -0.0000   -0.0000
       36 FE2    3d0        0.0000   -0.0000   -0.0000    0.0000   -0.0000    0.0000   -0.0000    0.0002   -0.0000    0.0000
       37 FE2    4d0        0.0000   -0.0000    0.0000    0.0000    0.0000    0.0000    0.0000    0.0000    0.0000   -0.0000
       38 FE2    3d1+       0.0000   -0.0000    0.0000   -0.0000   -0.0000    0.0000    0.0000    0.0000    0.0001   -0.0000
       39 FE2    4d1+       0.0000    0.0000   -0.0000    0.0000    0.0000   -0.0000   -0.0000   -0.0000   -0.0000    0.0000
       40 FE2    3d2+      -0.0000    0.0000   -0.0000    0.0000   -0.0000    0.0000   -0.0000    0.0000   -0.0000    0.0000
       41 FE2    4d2+      -0.0000   -0.0000    0.0000    0.0000    0.0000    0.0000    0.0000   -0.0000   -0.0000   -0.0000
       42 FE2    4f3-      -0.0000    0.0000   -0.0000    0.0000    0.0000   -0.0000   -0.0000    0.0000   -0.0000   -0.0000
       43 FE2    4f2-      -0.0000    0.0000   -0.0000    0.0000   -0.0000   -0.0000   -0.0000   -0.0000    0.0000   -0.0000
       44 FE2    4f1-       0.0000   -0.0000    0.0000    0.0000   -0.0000   -0.0000    0.0000    0.0000   -0.0000   -0.0000
       45 FE2    4f0        0.0000   -0.0000    0.0000   -0.0000   -0.0000   -0.0000   -0.0000   -0.0000    0.0000   -0.0000
       46 FE2    4f1+       0.0000   -0.0000   -0.0000    0.0000    0.0000   -0.0000    0.0000   -0.0000   -0.0000    0.0000
       47 FE2    4f2+      -0.0000    0.0000   -0.0000    0.0000    0.0000   -0.0000    0.0000    0.0000   -0.0000   -0.0000
       48 FE2    4f3+       0.0000   -0.0000   -0.0000   -0.0000   -0.0000    0.0000    0.0000    0.0000    0.0000   -0.0000
 
          Orbital           11        12        13        14        15        16        17        18        19        20    
          Energy           -0.8184   -1.4466   -0.7821   -0.7821   -1.0835   -1.0835   -1.0835   -0.7590   -0.7820   -0.7820
          Occ. No.          1.9980    1.9974    1.0001    1.0001    1.0000    1.0000    1.0000    1.0000    0.9999    0.9999
 
        1 O1     1s        -0.0091   -0.0323   -0.0000    0.0000   -0.0000    0.0000    0.0000   -0.0006   -0.0000   -0.0000
        2 O1     2s        -0.2405   -0.9701   -0.0000    0.0000   -0.0006    0.0000    0.0000   -0.0059   -0.0000   -0.0000
        3 O1     3s         0.0114    0.0006   -0.0000    0.0000   -0.0006    0.0000    0.0000   -0.0058   -0.0000   -0.0000
        4 O1     2px        0.0000   -0.0000    0.6887   -0.1570   -0.0000   -0.0000   -0.0000   -0.0000   -0.6909   -0.1459
        5 O1     3px        0.0000   -0.0000   -0.0327    0.0075   -0.0000    0.0000    0.0000   -0.0000    0.0335    0.0071
        6 O1     2py       -0.0000    0.0000    0.1570    0.6887   -0.0000   -0.0000    0.0000   -0.0000   -0.1459    0.6909
        7 O1     3py       -0.0000    0.0000   -0.0075   -0.0327   -0.0000    0.0000   -0.0000    0.0000    0.0071   -0.0335
        8 O1     2pz       -0.9694    0.2402    0.0000   -0.0000   -0.0027    0.0000    0.0000   -0.0067   -0.0000   -0.0000
        9 O1     3pz       -0.0194    0.0094    0.0000   -0.0000    0.0008   -0.0000   -0.0000    0.0054    0.0000    0.0000
       10 O1     3d2-      -0.0000   -0.0000   -0.0000    0.0000   -0.0000    0.0000    0.0000    0.0000    0.0000    0.0000
       11 O1     3d1-       0.0000   -0.0000   -0.0008   -0.0035    0.0000    0.0000   -0.0000   -0.0000    0.0007   -0.0034
       12 O1     3d0        0.0050   -0.0056   -0.0000    0.0000   -0.0001    0.0000    0.0000   -0.0001   -0.0000    0.0000
       13 O1     3d1+      -0.0000    0.0000   -0.0035    0.0008    0.0000   -0.0000    0.0000    0.0000    0.0034    0.0007
       14 O1     3d2+       0.0000   -0.0000    0.0000    0.0000    0.0000    0.0000   -0.0000   -0.0000   -0.0000    0.0000
       15 FE2    1s        -0.0000    0.0000    0.0000   -0.0000    0.0000   -0.0000   -0.0000    0.0000    0.0000    0.0000
       16 FE2    2s         0.0003   -0.0001    0.0000   -0.0000    0.0000   -0.0000   -0.0000    0.0003    0.0000    0.0000
       17 FE2    3s         0.0031   -0.0016   -0.0000    0.0000   -0.0000    0.0000    0.0000   -0.0038   -0.0000   -0.0000
       18 FE2    4s         0.0036   -0.0004   -0.0000    0.0000    0.0002    0.0000    0.0000   -0.9280   -0.0000   -0.0000
       19 FE2    5s        -0.0000    0.0007    0.0000   -0.0000    0.0003   -0.0000   -0.0000    0.3720    0.0000    0.0000
       20 FE2    2px       -0.0000    0.0000   -0.0000    0.0000    0.0000    0.0000   -0.0000    0.0000   -0.0000   -0.0000
       21 FE2    3px        0.0000   -0.0000   -0.0001    0.0000    0.0000   -0.0000    0.0000    0.0000   -0.0000   -0.0000
       22 FE2    4px       -0.0000    0.0000   -0.0003    0.0001    0.0000   -0.0000    0.0000    0.0000    0.0002    0.0000
       23 FE2    5px       -0.0000    0.0000   -0.0001    0.0000    0.0000   -0.0000    0.0000    0.0000    0.0001    0.0000
       24 FE2    2py        0.0000    0.0000   -0.0000   -0.0000    0.0000   -0.0000    0.0000   -0.0000   -0.0000    0.0000
       25 FE2    3py       -0.0000   -0.0000   -0.0000   -0.0001    0.0000   -0.0000    0.0000   -0.0000   -0.0000    0.0000
       26 FE2    4py       -0.0000    0.0000   -0.0001   -0.0003    0.0000   -0.0000    0.0000   -0.0000    0.0000   -0.0002
       27 FE2    5py        0.0000   -0.0000   -0.0000   -0.0001    0.0000   -0.0000   -0.0000   -0.0000    0.0000   -0.0001
       28 FE2    2pz       -0.0036    0.0006    0.0000    0.0000    0.0000    0.0000    0.0000   -0.0000    0.0000   -0.0000
       29 FE2    3pz       -0.0288    0.0047    0.0000   -0.0000    0.0001   -0.0000   -0.0000    0.0001    0.0000    0.0000
       30 FE2    4pz        0.0107   -0.0022    0.0000   -0.0000    0.0004   -0.0000   -0.0000    0.0060    0.0000    0.0000
       31 FE2    5pz        0.0002    0.0001    0.0000   -0.0000    0.0001   -0.0000   -0.0000    0.0004    0.0000    0.0000
       32 FE2    3d2-       0.0000   -0.0000   -0.0000   -0.0000   -0.0000    0.9714    0.1943    0.0000   -0.0000    0.0000
       33 FE2    4d2-      -0.0000    0.0000    0.0000    0.0000    0.0000   -0.1337   -0.0267   -0.0000    0.0000   -0.0000
       34 FE2    3d1-      -0.0000    0.0000    0.1557    0.6830   -0.0000    0.0000   -0.0000    0.0000    0.1447   -0.6854
       35 FE2    4d1-      -0.0000    0.0000   -0.0214   -0.0941    0.0000   -0.0000    0.0000   -0.0000   -0.0199    0.0943
       36 FE2    3d0        0.0029   -0.0007   -0.0000   -0.0000   -0.9906   -0.0000    0.0000    0.0001   -0.0000    0.0000
       37 FE2    4d0        0.0015   -0.0003    0.0000    0.0000    0.1365    0.0000   -0.0000    0.0008    0.0000   -0.0000
       38 FE2    3d1+       0.0000   -0.0000    0.6830   -0.1557   -0.0000    0.0000   -0.0000   -0.0000    0.6854    0.1447
       39 FE2    4d1+      -0.0000   -0.0000   -0.0941    0.0214    0.0000   -0.0000    0.0000    0.0000   -0.0943   -0.0199
       40 FE2    3d2+       0.0000   -0.0000   -0.0000    0.0000   -0.0000    0.1943   -0.9714   -0.0000   -0.0000    0.0000
       41 FE2    4d2+       0.0000   -0.0000    0.0000   -0.0000    0.0000   -0.0267    0.1337    0.0000    0.0000   -0.0000
       42 FE2    4f3-      -0.0000    0.0000    0.0000   -0.0000   -0.0000   -0.0000   -0.0000    0.0000   -0.0000    0.0000
       43 FE2    4f2-      -0.0000    0.0000   -0.0000   -0.0000   -0.0000    0.0000    0.0000    0.0000   -0.0000    0.0000
       44 FE2    4f1-      -0.0000    0.0000    0.0000    0.0000   -0.0000    0.0000   -0.0000    0.0000    0.0000   -0.0000
       45 FE2    4f0        0.0001   -0.0000   -0.0000   -0.0000   -0.0000   -0.0000   -0.0000    0.0000   -0.0000    0.0000
       46 FE2    4f1+       0.0000    0.0000    0.0000   -0.0000   -0.0000    0.0000   -0.0000   -0.0000    0.0000    0.0000
       47 FE2    4f2+      -0.0000    0.0000   -0.0000   -0.0000   -0.0000    0.0000   -0.0000   -0.0000   -0.0000    0.0000
       48 FE2    4f3+      -0.0000    0.0000    0.0000    0.0000   -0.0000   -0.0000    0.0000   -0.0000   -0.0000    0.0000
 
          Orbital           21        22        23        24        25        26        27        28        29        30    
          Energy            1.2208    0.3550    0.9472    0.9472    0.9868   -0.2099    0.8849   -0.0400   -0.0400    0.4797
          Occ. No.          0.0026    0.0020    0.0001    0.0001    0.0001    0.0000    0.0000    0.0000    0.0000    0.0000
 
        1 O1     1s         0.0000    0.0004   -0.0000   -0.0000   -0.0015    0.0043    0.0021   -0.0000   -0.0000    0.0016
        2 O1     2s        -0.0036    0.0097   -0.0000   -0.0000   -0.0179    0.0503    0.0244   -0.0000   -0.0000    0.0217
        3 O1     3s         0.6867    0.1687   -0.0000   -0.0000   -0.0296    0.1099    0.6101   -0.0000    0.0000   -0.3613
        4 O1     2px       -0.0000    0.0000   -0.0030    0.0020    0.0000    0.0000    0.0000   -0.0068    0.0054    0.0000
        5 O1     3px        0.0000   -0.0000   -0.0105    0.0070    0.0000    0.0000    0.0000   -0.0399    0.0316    0.0000
        6 O1     2py        0.0000   -0.0000   -0.0020   -0.0030   -0.0000   -0.0000   -0.0000   -0.0054   -0.0068   -0.0000
        7 O1     3py       -0.0000    0.0000   -0.0070   -0.0105   -0.0000   -0.0000   -0.0000   -0.0316   -0.0399   -0.0000
        8 O1     2pz        0.0210   -0.0287    0.0000    0.0000    0.0111   -0.0495   -0.0262   -0.0000    0.0000   -0.0365
        9 O1     3pz       -0.2291    0.9064    0.0000    0.0000   -0.0834   -0.1947   -0.2070   -0.0000    0.0000   -0.3133
       10 O1     3d2-       0.0000    0.0000    0.0000   -0.0000    0.0000    0.0000    0.0000    0.0000   -0.0000    0.0000
       11 O1     3d1-       0.0000    0.0000    0.0006    0.0009   -0.0000    0.0000   -0.0000    0.0044    0.0055    0.0000
       12 O1     3d0        0.6780    0.1972    0.0000   -0.0000   -0.0108    0.0136   -0.5565    0.0000   -0.0000    0.4301
       13 O1     3d1+      -0.0000   -0.0000    0.0009   -0.0006    0.0000   -0.0000    0.0000    0.0055   -0.0044   -0.0000
       14 O1     3d2+      -0.0000   -0.0000   -0.0000    0.0000    0.0000   -0.0000   -0.0000    0.0000   -0.0000   -0.0000
       15 FE2    1s        -0.0000    0.0001    0.0000    0.0000   -0.0000   -0.0000   -0.0000   -0.0000    0.0000   -0.0000
       16 FE2    2s        -0.0003    0.0011    0.0000   -0.0000   -0.0001   -0.0002   -0.0003   -0.0000    0.0000   -0.0004
       17 FE2    3s        -0.0017    0.0058    0.0000   -0.0000   -0.0006    0.0021   -0.0015   -0.0000    0.0000   -0.0018
       18 FE2    4s        -0.0058    0.0274    0.0000    0.0000   -0.0013   -0.3871   -0.0176   -0.0000   -0.0000   -0.0291
       19 FE2    5s         0.0186   -0.0378    0.0000    0.0000    0.0148   -0.9461   -0.0131   -0.0000   -0.0000   -0.0252
       20 FE2    2px        0.0000    0.0000   -0.0002    0.0001    0.0000    0.0000    0.0000   -0.0000    0.0000    0.0000
       21 FE2    3px       -0.0000    0.0000   -0.0150    0.0100   -0.0000   -0.0000   -0.0000    0.0055   -0.0044   -0.0000
       22 FE2    4px        0.0000    0.0000   -0.4299    0.2852   -0.0000    0.0000   -0.0000    0.6720   -0.5319   -0.0000
       23 FE2    5px        0.0000   -0.0000    0.7138   -0.4735    0.0000    0.0000   -0.0000    0.4054   -0.3209   -0.0000
       24 FE2    2py        0.0000   -0.0000   -0.0001   -0.0002    0.0000    0.0000    0.0000   -0.0000   -0.0000    0.0000
       25 FE2    3py       -0.0000    0.0000   -0.0100   -0.0150    0.0000   -0.0000    0.0000    0.0044    0.0055    0.0000
       26 FE2    4py       -0.0000    0.0000   -0.2852   -0.4299    0.0000   -0.0000    0.0000    0.5319    0.6720    0.0000
       27 FE2    5py       -0.0000   -0.0000    0.4735    0.7138   -0.0000   -0.0000    0.0000    0.3209    0.4054    0.0000
       28 FE2    2pz       -0.0000    0.0002   -0.0000   -0.0000   -0.0002   -0.0000   -0.0000    0.0000    0.0000   -0.0000
       29 FE2    3pz       -0.0003   -0.0000   -0.0000   -0.0000   -0.0180   -0.0008   -0.0051   -0.0000    0.0000   -0.0068
       30 FE2    4pz        0.0579   -0.2340   -0.0000   -0.0000   -0.4848    0.0030   -0.5101    0.0000    0.0000   -0.6826
       31 FE2    5pz        0.0045   -0.0027    0.0000    0.0000    0.8678    0.0021   -0.3106    0.0000    0.0000   -0.4104
       32 FE2    3d2-      -0.0000    0.0000   -0.0000   -0.0000    0.0000   -0.0000   -0.0000   -0.0000    0.0000   -0.0000
       33 FE2    4d2-      -0.0000    0.0000   -0.0000   -0.0000    0.0000   -0.0000   -0.0000   -0.0000    0.0000   -0.0000
       34 FE2    3d1-      -0.0000   -0.0000   -0.0001   -0.0001    0.0000    0.0000    0.0000    0.0007    0.0009   -0.0000
       35 FE2    4d1-      -0.0000    0.0000   -0.0003   -0.0004    0.0000   -0.0000    0.0000    0.0045    0.0057   -0.0000
       36 FE2    3d0        0.0001    0.0012    0.0000   -0.0000    0.0001   -0.0025   -0.0139    0.0000    0.0000    0.0045
       37 FE2    4d0        0.0079   -0.0149   -0.0000   -0.0000    0.0042   -0.0124   -0.0938    0.0000    0.0000    0.0416
       38 FE2    3d1+       0.0000    0.0000   -0.0001    0.0001   -0.0000   -0.0000   -0.0000    0.0009   -0.0007    0.0000
       39 FE2    4d1+       0.0000    0.0000   -0.0004    0.0003   -0.0000   -0.0000   -0.0000    0.0057   -0.0045    0.0000
       40 FE2    3d2+      -0.0000    0.0000   -0.0000   -0.0000   -0.0000   -0.0000   -0.0000   -0.0000   -0.0000   -0.0000
       41 FE2    4d2+      -0.0000    0.0000   -0.0000   -0.0000    0.0000   -0.0000   -0.0000   -0.0000   -0.0000   -0.0000
       42 FE2    4f3-       0.0000    0.0000   -0.0000   -0.0000    0.0000    0.0000    0.0000   -0.0000    0.0000    0.0000
       43 FE2    4f2-       0.0000    0.0000   -0.0000   -0.0000    0.0000    0.0000    0.0000    0.0000    0.0000    0.0000
       44 FE2    4f1-      -0.0000    0.0000   -0.0000   -0.0001   -0.0000    0.0000    0.0000    0.0004    0.0005    0.0000
       45 FE2    4f0        0.0003   -0.0006   -0.0000   -0.0000    0.0001   -0.0006   -0.0043   -0.0000   -0.0000    0.0011
       46 FE2    4f1+       0.0000   -0.0000   -0.0001    0.0000    0.0000   -0.0000   -0.0000    0.0005   -0.0004   -0.0000
       47 FE2    4f2+      -0.0000   -0.0000   -0.0000    0.0000   -0.0000    0.0000   -0.0000    0.0000    0.0000    0.0000
       48 FE2    4f3+      -0.0000    0.0000    0.0000    0.0000    0.0000   -0.0000    0.0000   -0.0000    0.0000   -0.0000
 
          Orbital           31        32        33        34        35        36        37        38        39        40    
          Energy            0.2905    0.3674    0.2669    0.3741    0.2755    0.2693    0.2695    3.1063    2.6444    2.1093
          Occ. No.          0.0000    0.0000    0.0000    0.0000    0.0000    0.0000    0.0000    0.0000    0.0000    0.0000
 
        1 O1     1s         0.0007   -0.0000    0.0000    0.0000    0.0000   -0.0000    0.0000    0.0000   -0.0000   -0.0000
        2 O1     2s         0.0117   -0.0000    0.0000    0.0000    0.0000   -0.0000    0.0000   -0.0002   -0.0000   -0.0000
        3 O1     3s        -0.0377    0.0000   -0.0000   -0.0000   -0.0000    0.0000   -0.0000    0.0013    0.0000    0.0000
        4 O1     2px       -0.0000    0.0057    0.0017    0.0475    0.0046   -0.0000   -0.0002    0.0000   -0.0008    0.0049
        5 O1     3px       -0.0000    0.1222    0.1281    0.9790    0.0853   -0.0002   -0.0032    0.0000   -0.0046    0.0256
        6 O1     2py        0.0000    0.0470   -0.0029   -0.0047   -0.0094   -0.0000    0.0001   -0.0000   -0.0007    0.0031
        7 O1     3py        0.0000    0.9863   -0.0523   -0.1076   -0.1027   -0.0008    0.0022   -0.0000   -0.0027    0.0106
        8 O1     2pz       -0.0227    0.0000   -0.0000   -0.0000   -0.0000    0.0000   -0.0000    0.0008    0.0000    0.0000
        9 O1     3pz       -0.0905    0.0000   -0.0000   -0.0000   -0.0000    0.0000   -0.0000    0.0040    0.0000    0.0000
       10 O1     3d2-       0.0000    0.0000    0.0005   -0.0005    0.0038   -0.0003    0.0124   -0.0000   -0.0959   -0.1483
       11 O1     3d1-      -0.0000   -0.0150    0.0009   -0.0099    0.0060    0.0041    0.0009    0.0000   -0.1070    0.5190
       12 O1     3d0        0.0832   -0.0000    0.0000    0.0000    0.0000   -0.0000    0.0000   -0.0029   -0.0000   -0.0000
       13 O1     3d1+       0.0000   -0.0076   -0.0003   -0.0275    0.0001   -0.0057   -0.0050   -0.0000   -0.1156    0.7265
       14 O1     3d2+      -0.0000    0.0002    0.0000    0.0006   -0.0021   -0.0035   -0.0049    0.0000    0.5901   -0.0886
       15 FE2    1s        -0.0000    0.0000   -0.0000   -0.0000   -0.0000    0.0000   -0.0000    0.0000    0.0000    0.0000
       16 FE2    2s        -0.0001    0.0000   -0.0000   -0.0000   -0.0000    0.0000   -0.0000    0.0000    0.0000    0.0000
       17 FE2    3s        -0.0006    0.0000   -0.0000   -0.0000   -0.0000    0.0000   -0.0000    0.0000    0.0000    0.0000
       18 FE2    4s        -0.0062    0.0000   -0.0000   -0.0000   -0.0000    0.0000   -0.0000    0.0003    0.0000    0.0000
       19 FE2    5s        -0.0037    0.0000   -0.0000   -0.0000   -0.0000    0.0000   -0.0000    0.0002    0.0000   -0.0000
       20 FE2    2px        0.0000   -0.0000   -0.0000   -0.0000   -0.0000    0.0000    0.0000   -0.0000    0.0000   -0.0000
       21 FE2    3px        0.0000   -0.0001   -0.0001   -0.0005   -0.0000    0.0000    0.0000   -0.0000    0.0000   -0.0000
[...]
ATVX     1  Mu1.0006  Se1.026                      -0.13021124     -0.00000000     -0.00000000      0.00000000
ATVX     1  Mu1.0007  Se1.026                       0.11437882     -0.00000000     -0.00000000      0.00000000
ATVX     1  Mu1.0008  Se1.026                       0.11437882      0.00000000      0.00000000      0.00000000
ATVX     1  Mu1.0009  Se1.026                       0.12817245     -0.00000001     -0.00001656      0.00000000
ATVX     1  Mu1.0010  Se1.026                       0.12818093     -0.00000007     -0.00010626      0.00000000
ATVX     1  Mu1.0011  Se1.026                       0.12851689      0.00000000      0.00000034      0.00000000
ATVX     1  Mu1.0012  Se1.026                       0.12852036     -0.00000000     -0.00000015      0.00000000
ATVX     1  Mu1.0013  Se1.026                       0.14739128      0.00000000     -0.00000000     -0.00000000
ATVX     1  Mu1.0014  Se1.026                       0.14739128      0.00000000      0.00000000      0.00000000
ATVX     1  Mu1.0015  Se1.026                       0.14943216     -0.00000079     -0.00000181      0.00000000
ATVX     1  Mu1.0016  Se1.026                       0.14953661     -0.00000001     -0.00000002      0.00000000
ATVX     1  Mu1.0017  Se1.026                       0.16208927      0.00000228     -0.00001569     -0.00000000
ATVX     1  Mu1.0018  Se1.026                       0.16209825      0.00000033     -0.00000229     -0.00000000
ATVX     1  Mu1.0019  Se1.026                       0.16403325     -0.00000000      0.00000000     -0.00000000
ATVX     1  Mu1.0020  Se1.026                       0.16403335      0.00000000     -0.00000000     -0.00000000
ATVX     1  Mu1.0021  Se1.026                       0.16540608      0.00000000     -0.00000000     -0.00000000
ATVX     1  Mu1.0022  Se1.026                       0.16541161     -0.00000000      0.00000000     -0.00000000
ATVX     1  Mu1.0023  Se1.026                       0.16709255      0.00000000     -0.00000000     -0.00000000
ATVX     1  Mu1.0024  Se1.026                       0.16709756      0.00000000     -0.00000000     -0.00000000
ATVX     1  Mu1.0025  Se1.026                       0.17115610     -0.00000000      0.00000000     -0.00000000
ATVX     1  Mu1.0026  Se1.026                       0.17115610     -0.00000000      0.00000000     -0.00000000
ATVX     1  Mu1.0027  Se1.026                       0.18163980     -0.00000000      0.00000000     -0.00000000
ATVX     1  Mu1.0028  Se1.026                       0.18173881     -0.00000000      0.00000000     -0.00000000
ATVX     1  Mu1.0029  Se1.026                       0.20244317      0.00000000     -0.00000000     -0.00000000
ATVX     1  Mu1.0030  Se1.026                       0.20244801      0.00000000     -0.00000000     -0.00000000
ATVX     1  Mu1.0031  Se1.026                       0.20762563     -0.00000000      0.00000000     -0.00000000
ATVX     1  Mu1.0032  Se1.026                       0.20767899     -0.00000000      0.00000000     -0.00000000
ATVX     1  Mu1.0033  Se1.026                       0.20891067     -0.00000000      0.00000000     -0.00000000
ATVX     1  Mu1.0034  Se1.026                       0.21055236      0.00000000     -0.00000000     -0.00000000
ATVX     1  Mu1.0035  Se1.026                       0.21056158     -0.00000000      0.00000000     -0.00000000
ATVX     1  Mu1.0036  Se1.026                       0.21515240     -0.00000584      0.00002425     -0.00000000
ATVX     1  Mu1.0037  Se1.026                       0.21515633     -0.00000217      0.00000901     -0.00000000
ATVX     1  Mu1.0038  Se1.026                       0.24069780      0.00000110     -0.00000447     -0.00000000
ATVX     1  Mu1.0039  Se1.026                       0.24080926      0.00000001     -0.00000005     -0.00000000
ATVX     1  Mu1.0040  Se1.026                       0.24582696     -0.00000000     -0.00000000      0.00000000
ATVX     1  Mu1.0041  Se1.026                       0.24582980      0.00000000     -0.00000000     -0.00000000
ATVX     1  Mu1.0042  Se1.026                       0.25292236      0.00000000     -0.00000000     -0.00000000
ATVX     1  Mu1.0043  Se1.026                       0.25292237     -0.00000000      0.00000000     -0.00000000
ATVX     1  Mu1.0044  Se1.026                       0.25756455     -0.00096316      0.00361958     -0.00000349
ATVX     1  Mu1.0045  Se1.026                       0.29455282     -0.00010867     -0.00109520      0.00000012
ATVX     1  Mu1.0001  Se1.027                      -0.10325206      0.00000000      0.00000000      0.00000000
ATVX     1  Mu1.0002  Se1.027                      -0.08925237     -0.00000000     -0.00000000      0.00000000
ATVX     1  Mu1.0003  Se1.027                      -0.08924985      0.00000060     -0.00000171     -0.00000000
ATVX     1  Mu1.0004  Se1.027                      -0.04902114      0.00000000     -0.00000000     -0.00000000
ATVX     1  Mu1.0005  Se1.027                       0.03939989     -0.00000033     -0.00001401      0.00000000
ATVX     1  Mu1.0006  Se1.027                       0.03939997      0.00001815      0.00077335      0.00000001
ATVX     1  Mu1.0007  Se1.027                       0.28399002      0.00000000     -0.00000001     -0.00000000
ATVX     1  Mu1.0008  Se1.027                       0.28399003     -0.00000728      0.00005250     -0.00000000
ATVX     1  Mu1.0009  Se1.027                       0.29778366     -0.00000000      0.00000000     -0.00000000
ATVX     1  Mu1.0010  Se1.027                       0.29779214      0.00000000     -0.00000000     -0.00000000
ATVX     1  Mu1.0011  Se1.027                       0.29812810     -0.00000000      0.00000000     -0.00000000
ATVX     1  Mu1.0012  Se1.027                       0.29813157      0.00000000     -0.00000000     -0.00000000
ATVX     1  Mu1.0001  Se1.028                      -0.10325151     -0.00000000     -0.00000000      0.00000000
ATVX     1  Mu1.0002  Se1.028                      -0.08925183     -0.00000060      0.00000171     -0.00000000
ATVX     1  Mu1.0003  Se1.028                      -0.08924930     -0.00000000     -0.00000000      0.00000000
ATVX     1  Mu1.0004  Se1.028                      -0.04902059     -0.00000000     -0.00000000      0.00000000
ATVX     1  Mu1.0005  Se1.028                       0.03940044      0.00001815      0.00077334      0.00000001
ATVX     1  Mu1.0006  Se1.028                       0.03940052      0.00000033      0.00001401      0.00000000
ATVX     1  Mu1.0007  Se1.028                       0.28399057      0.00000728     -0.00005250     -0.00000000
ATVX     1  Mu1.0008  Se1.028                       0.28399057      0.00000000     -0.00000001     -0.00000000
ATVX     1  Mu1.0009  Se1.028                       0.29778421     -0.00000000      0.00000000     -0.00000000
ATVX     1  Mu1.0010  Se1.028                       0.29779269     -0.00000000      0.00000000     -0.00000000
ATVX     1  Mu1.0011  Se1.028                       0.29812865      0.00000000     -0.00000000     -0.00000000
ATVX     1  Mu1.0012  Se1.028                       0.29813212     -0.00000000     -0.00000000      0.00000000
ATVX     1  Mu1.0001  Se1.029                      -0.10183044     -0.00000000     -0.00000000      0.00000000
ATVX     1  Mu1.0002  Se1.029                      -0.08783075     -0.00000000     -0.00000000      0.00000000
ATVX     1  Mu1.0003  Se1.029                      -0.08782823      0.00000000      0.00000000      0.00000000
ATVX     1  Mu1.0004  Se1.029                      -0.04759952     -0.00000000     -0.00000000      0.00000000
ATVX     1  Mu1.0005  Se1.029                       0.04082151     -0.00000000     -0.00000000      0.00000000
ATVX     1  Mu1.0006  Se1.029                       0.04082159      0.00000000     -0.00000000     -0.00000000
ATVX     1  Mu1.0007  Se1.029                       0.28541164     -0.00000000      0.00000000     -0.00000000
ATVX     1  Mu1.0008  Se1.029                       0.28541165     -0.00000000     -0.00000000      0.00000000
ATVX     1  Mu1.0009  Se1.029                       0.29920528     -0.00000038      0.00000166     -0.00000000
ATVX     1  Mu1.0010  Se1.029                       0.29921376     -0.00000243      0.00001066     -0.00000000
ATVX     1  Mu1.0011  Se1.029                       0.29954972      0.00000001     -0.00000004     -0.00000000
ATVX     1  Mu1.0012  Se1.029                       0.29955319     -0.00000000      0.00000002     -0.00000000
ATVX     1  Mu1.0001  Se1.030                       0.06814582      0.00000000     -0.00000000     -0.00000000
ATVX     1  Mu1.0002  Se1.030                       0.08214550      0.00000000     -0.00000000     -0.00000000
ATVX     1  Mu1.0003  Se1.030                       0.08214802     -0.00000000      0.00000000     -0.00000000
ATVX     1  Mu1.0004  Se1.030                       0.12237674      0.00000000     -0.00000000     -0.00000000
ATVX     1  Mu1.0005  Se1.030                       0.21079777     -0.00000000     -0.00000000      0.00000000
ATVX     1  Mu1.0006  Se1.030                       0.21079784     -0.00000000      0.00000000     -0.00000000
ATVX     1  Mu1.0278  Se1.031                       2.30566346      0.08053570     -0.03570060     -0.00287517
ATVX     1  Mu1.0279  Se1.032                       2.30566348     -0.08053569      0.03570060     -0.00287517
AIVX     1  Mu1.0145  In1.011 Se1.033               3.36825981     -0.09499750      0.02846444     -0.00270405
AIVX     1  Mu1.0169  In1.009 Se1.034               6.56241307     -0.17780673      0.02709483     -0.00481764
AIVX     1  Mu1.0169  In1.010 Se1.035               6.56241400     -0.17780722      0.02709490     -0.00481767
AIVX     1  Mu1.0029  In1.011 Se1.037               3.46929287      0.10782242     -0.02977101     -0.00320998
AIVX     1  Mu1.0030  In1.011 Se1.037               3.46929288      0.10007530     -0.02763194     -0.00276527
AIVX     1  Mu1.0055  In1.011 Se1.038               3.71931747     -0.14643549      0.03780196     -0.00553555
AIVX     1  Mu1.0036  In1.011 Se1.041               3.51741782     -0.09857839      0.02679853     -0.00264176
BVATM    1  Mu1.0001  Se1.032 Se1.031               1.96158787     -0.07174772      0.03688800     -0.00264663
BVATM    1  Mu1.0001  Se1.038 Se1.037               5.01040337      0.12963419     -0.02587301     -0.00335403
BJATP    1  Mu1.0002  In1.011 Se1.033 Se1.031       2.94974792     -0.08235039      0.02779079     -0.00228858
BJATP    1  Mu1.0001  In1.011 Se1.033 Se1.032       2.94974793     -0.08235039      0.02779079     -0.00228858
BJATM    1  Mu1.0002  In1.011 Se1.033 Se1.031       2.94974792      0.07833052     -0.02846179     -0.00222943
BJATM    1  Mu1.0001  In1.011 Se1.033 Se1.032       2.94974793      0.07833052     -0.02846179     -0.00222943
BJAIP    1  Se1.033 In1.011 Se1.033 In1.011         3.93787849      0.12174545     -0.03305661     -0.00402449
--
 
   (Skipping property calculation,
    use PROP keyword to activate)
--
 
  Total CASPT2 energies:
::    CASPT2 Root  1     Total energy:  -1345.82747409
 
  A NEW JOBIPH FILE NAMED 'JOBMIX' IS PREPARED.
********************************************************************************
--- Stop Module: caspt2 at Wed Dec 18 05:23:24 2024 /rc=_RC_ALL_IS_WELL_ ---
*** files: xmldump
    saved to directory /home/grierjones/DDCASPT2/iron_oxo_DDCASPT2/cluster/4.98
--- Module caspt2 spent 5 minutes 31 seconds ---

>>> EXPORT i = B

>>> EXPORT j = P

>>> IF (-FILE GMJ_e2_${i}_${j}.csv)

>>> COPY /tmp/4.98/GMJ_RHS_B_P.csv /home/grierjones/DDCASPT2/iron_oxo_DDCASPT2/cluster/4.98/GMJ_RHS_B_P.csv

>>> COPY /tmp/4.98/GMJ_IVECW_B_P.csv /home/grierjones/DDCASPT2/iron_oxo_DDCASPT2/cluster/4.98/GMJ_IVECW_B_P.csv

>>> COPY /tmp/4.98/GMJ_IVECX_B_P.csv /home/grierjones/DDCASPT2/iron_oxo_DDCASPT2/cluster/4.98/GMJ_IVECX_B_P.csv

>>> COPY /tmp/4.98/GMJ_IVECC2_B_P.csv /home/grierjones/DDCASPT2/iron_oxo_DDCASPT2/cluster/4.98/GMJ_IVECC2_B_P.csv

>>> COPY /tmp/4.98/GMJ_e2_B_P.csv /home/grierjones/DDCASPT2/iron_oxo_DDCASPT2/cluster/4.98/GMJ_e2_B_P.csv

>>> END FOREACH

>>> EXPORT j = M

>>> IF (-FILE GMJ_e2_${i}_${j}.csv)

>>> COPY /tmp/4.98/GMJ_RHS_B_M.csv /home/grierjones/DDCASPT2/iron_oxo_DDCASPT2/cluster/4.98/GMJ_RHS_B_M.csv

>>> COPY /tmp/4.98/GMJ_IVECW_B_M.csv /home/grierjones/DDCASPT2/iron_oxo_DDCASPT2/cluster/4.98/GMJ_IVECW_B_M.csv

>>> COPY /tmp/4.98/GMJ_IVECX_B_M.csv /home/grierjones/DDCASPT2/iron_oxo_DDCASPT2/cluster/4.98/GMJ_IVECX_B_M.csv

>>> COPY /tmp/4.98/GMJ_IVECC2_B_M.csv /home/grierjones/DDCASPT2/iron_oxo_DDCASPT2/cluster/4.98/GMJ_IVECC2_B_M.csv

>>> COPY /tmp/4.98/GMJ_e2_B_M.csv /home/grierjones/DDCASPT2/iron_oxo_DDCASPT2/cluster/4.98/GMJ_e2_B_M.csv

>>> END FOREACH

>>> END FOREACH

>>> EXPORT i = E

>>> EXPORT j = P

>>> IF (-FILE GMJ_e2_${i}_${j}.csv)

>>> COPY /tmp/4.98/GMJ_RHS_E_P.csv /home/grierjones/DDCASPT2/iron_oxo_DDCASPT2/cluster/4.98/GMJ_RHS_E_P.csv

>>> COPY /tmp/4.98/GMJ_IVECW_E_P.csv /home/grierjones/DDCASPT2/iron_oxo_DDCASPT2/cluster/4.98/GMJ_IVECW_E_P.csv

>>> COPY /tmp/4.98/GMJ_IVECX_E_P.csv /home/grierjones/DDCASPT2/iron_oxo_DDCASPT2/cluster/4.98/GMJ_IVECX_E_P.csv

>>> COPY /tmp/4.98/GMJ_IVECC2_E_P.csv /home/grierjones/DDCASPT2/iron_oxo_DDCASPT2/cluster/4.98/GMJ_IVECC2_E_P.csv

>>> COPY /tmp/4.98/GMJ_e2_E_P.csv /home/grierjones/DDCASPT2/iron_oxo_DDCASPT2/cluster/4.98/GMJ_e2_E_P.csv

>>> END FOREACH

>>> EXPORT j = M

>>> IF (-FILE GMJ_e2_${i}_${j}.csv)

>>> COPY /tmp/4.98/GMJ_RHS_E_M.csv /home/grierjones/DDCASPT2/iron_oxo_DDCASPT2/cluster/4.98/GMJ_RHS_E_M.csv

>>> COPY /tmp/4.98/GMJ_IVECW_E_M.csv /home/grierjones/DDCASPT2/iron_oxo_DDCASPT2/cluster/4.98/GMJ_IVECW_E_M.csv

>>> COPY /tmp/4.98/GMJ_IVECX_E_M.csv /home/grierjones/DDCASPT2/iron_oxo_DDCASPT2/cluster/4.98/GMJ_IVECX_E_M.csv

>>> COPY /tmp/4.98/GMJ_IVECC2_E_M.csv /home/grierjones/DDCASPT2/iron_oxo_DDCASPT2/cluster/4.98/GMJ_IVECC2_E_M.csv

>>> COPY /tmp/4.98/GMJ_e2_E_M.csv /home/grierjones/DDCASPT2/iron_oxo_DDCASPT2/cluster/4.98/GMJ_e2_E_M.csv

>>> END FOREACH

>>> END FOREACH

>>> EXPORT i = F

>>> EXPORT j = P

>>> IF (-FILE GMJ_e2_${i}_${j}.csv)

>>> COPY /tmp/4.98/GMJ_RHS_F_P.csv /home/grierjones/DDCASPT2/iron_oxo_DDCASPT2/cluster/4.98/GMJ_RHS_F_P.csv

>>> COPY /tmp/4.98/GMJ_IVECW_F_P.csv /home/grierjones/DDCASPT2/iron_oxo_DDCASPT2/cluster/4.98/GMJ_IVECW_F_P.csv

>>> COPY /tmp/4.98/GMJ_IVECX_F_P.csv /home/grierjones/DDCASPT2/iron_oxo_DDCASPT2/cluster/4.98/GMJ_IVECX_F_P.csv

>>> COPY /tmp/4.98/GMJ_IVECC2_F_P.csv /home/grierjones/DDCASPT2/iron_oxo_DDCASPT2/cluster/4.98/GMJ_IVECC2_F_P.csv

>>> COPY /tmp/4.98/GMJ_e2_F_P.csv /home/grierjones/DDCASPT2/iron_oxo_DDCASPT2/cluster/4.98/GMJ_e2_F_P.csv

>>> END FOREACH

>>> EXPORT j = M

>>> IF (-FILE GMJ_e2_${i}_${j}.csv)

>>> COPY /tmp/4.98/GMJ_RHS_F_M.csv /home/grierjones/DDCASPT2/iron_oxo_DDCASPT2/cluster/4.98/GMJ_RHS_F_M.csv

>>> COPY /tmp/4.98/GMJ_IVECW_F_M.csv /home/grierjones/DDCASPT2/iron_oxo_DDCASPT2/cluster/4.98/GMJ_IVECW_F_M.csv

>>> COPY /tmp/4.98/GMJ_IVECX_F_M.csv /home/grierjones/DDCASPT2/iron_oxo_DDCASPT2/cluster/4.98/GMJ_IVECX_F_M.csv

>>> COPY /tmp/4.98/GMJ_IVECC2_F_M.csv /home/grierjones/DDCASPT2/iron_oxo_DDCASPT2/cluster/4.98/GMJ_IVECC2_F_M.csv

>>> COPY /tmp/4.98/GMJ_e2_F_M.csv /home/grierjones/DDCASPT2/iron_oxo_DDCASPT2/cluster/4.98/GMJ_e2_F_M.csv

>>> END FOREACH

>>> END FOREACH

>>> EXPORT i = G

>>> EXPORT j = P

>>> IF (-FILE GMJ_e2_${i}_${j}.csv)

>>> COPY /tmp/4.98/GMJ_RHS_G_P.csv /home/grierjones/DDCASPT2/iron_oxo_DDCASPT2/cluster/4.98/GMJ_RHS_G_P.csv

>>> COPY /tmp/4.98/GMJ_IVECW_G_P.csv /home/grierjones/DDCASPT2/iron_oxo_DDCASPT2/cluster/4.98/GMJ_IVECW_G_P.csv

>>> COPY /tmp/4.98/GMJ_IVECX_G_P.csv /home/grierjones/DDCASPT2/iron_oxo_DDCASPT2/cluster/4.98/GMJ_IVECX_G_P.csv

>>> COPY /tmp/4.98/GMJ_IVECC2_G_P.csv /home/grierjones/DDCASPT2/iron_oxo_DDCASPT2/cluster/4.98/GMJ_IVECC2_G_P.csv

>>> COPY /tmp/4.98/GMJ_e2_G_P.csv /home/grierjones/DDCASPT2/iron_oxo_DDCASPT2/cluster/4.98/GMJ_e2_G_P.csv

>>> END FOREACH

>>> EXPORT j = M

>>> IF (-FILE GMJ_e2_${i}_${j}.csv)

>>> COPY /tmp/4.98/GMJ_RHS_G_M.csv /home/grierjones/DDCASPT2/iron_oxo_DDCASPT2/cluster/4.98/GMJ_RHS_G_M.csv

>>> COPY /tmp/4.98/GMJ_IVECW_G_M.csv /home/grierjones/DDCASPT2/iron_oxo_DDCASPT2/cluster/4.98/GMJ_IVECW_G_M.csv

>>> COPY /tmp/4.98/GMJ_IVECX_G_M.csv /home/grierjones/DDCASPT2/iron_oxo_DDCASPT2/cluster/4.98/GMJ_IVECX_G_M.csv

>>> COPY /tmp/4.98/GMJ_IVECC2_G_M.csv /home/grierjones/DDCASPT2/iron_oxo_DDCASPT2/cluster/4.98/GMJ_IVECC2_G_M.csv

>>> COPY /tmp/4.98/GMJ_e2_G_M.csv /home/grierjones/DDCASPT2/iron_oxo_DDCASPT2/cluster/4.98/GMJ_e2_G_M.csv

>>> END FOREACH

>>> END FOREACH

>>> EXPORT i = H

>>> EXPORT j = P

>>> IF (-FILE GMJ_e2_${i}_${j}.csv)

>>> COPY /tmp/4.98/GMJ_RHS_H_P.csv /home/grierjones/DDCASPT2/iron_oxo_DDCASPT2/cluster/4.98/GMJ_RHS_H_P.csv

>>> COPY /tmp/4.98/GMJ_IVECW_H_P.csv /home/grierjones/DDCASPT2/iron_oxo_DDCASPT2/cluster/4.98/GMJ_IVECW_H_P.csv

>>> COPY /tmp/4.98/GMJ_IVECX_H_P.csv /home/grierjones/DDCASPT2/iron_oxo_DDCASPT2/cluster/4.98/GMJ_IVECX_H_P.csv

>>> COPY /tmp/4.98/GMJ_IVECC2_H_P.csv /home/grierjones/DDCASPT2/iron_oxo_DDCASPT2/cluster/4.98/GMJ_IVECC2_H_P.csv

>>> COPY /tmp/4.98/GMJ_e2_H_P.csv /home/grierjones/DDCASPT2/iron_oxo_DDCASPT2/cluster/4.98/GMJ_e2_H_P.csv

>>> END FOREACH

>>> EXPORT j = M

>>> IF (-FILE GMJ_e2_${i}_${j}.csv)

>>> COPY /tmp/4.98/GMJ_RHS_H_M.csv /home/grierjones/DDCASPT2/iron_oxo_DDCASPT2/cluster/4.98/GMJ_RHS_H_M.csv

>>> COPY /tmp/4.98/GMJ_IVECW_H_M.csv /home/grierjones/DDCASPT2/iron_oxo_DDCASPT2/cluster/4.98/GMJ_IVECW_H_M.csv

>>> COPY /tmp/4.98/GMJ_IVECX_H_M.csv /home/grierjones/DDCASPT2/iron_oxo_DDCASPT2/cluster/4.98/GMJ_IVECX_H_M.csv

>>> COPY /tmp/4.98/GMJ_IVECC2_H_M.csv /home/grierjones/DDCASPT2/iron_oxo_DDCASPT2/cluster/4.98/GMJ_IVECC2_H_M.csv

>>> COPY /tmp/4.98/GMJ_e2_H_M.csv /home/grierjones/DDCASPT2/iron_oxo_DDCASPT2/cluster/4.98/GMJ_e2_H_M.csv

>>> END FOREACH

>>> END FOREACH

>>> EXPORT i = A

>>> IF (-FILE GMJ_e2_$i.csv)

>>> COPY /tmp/4.98/GMJ_RHS_A.csv /home/grierjones/DDCASPT2/iron_oxo_DDCASPT2/cluster/4.98/GMJ_RHS_A.csv

>>> COPY /tmp/4.98/GMJ_IVECW_A.csv /home/grierjones/DDCASPT2/iron_oxo_DDCASPT2/cluster/4.98/GMJ_IVECW_A.csv

>>> COPY /tmp/4.98/GMJ_IVECX_A.csv /home/grierjones/DDCASPT2/iron_oxo_DDCASPT2/cluster/4.98/GMJ_IVECX_A.csv

>>> COPY /tmp/4.98/GMJ_IVECC2_A.csv /home/grierjones/DDCASPT2/iron_oxo_DDCASPT2/cluster/4.98/GMJ_IVECC2_A.csv

>>> COPY /tmp/4.98/GMJ_e2_A.csv /home/grierjones/DDCASPT2/iron_oxo_DDCASPT2/cluster/4.98/GMJ_e2_A.csv

>>> END FOREACH

>>> EXPORT i = C

>>> IF (-FILE GMJ_e2_$i.csv)

>>> COPY /tmp/4.98/GMJ_RHS_C.csv /home/grierjones/DDCASPT2/iron_oxo_DDCASPT2/cluster/4.98/GMJ_RHS_C.csv

>>> COPY /tmp/4.98/GMJ_IVECW_C.csv /home/grierjones/DDCASPT2/iron_oxo_DDCASPT2/cluster/4.98/GMJ_IVECW_C.csv

>>> COPY /tmp/4.98/GMJ_IVECX_C.csv /home/grierjones/DDCASPT2/iron_oxo_DDCASPT2/cluster/4.98/GMJ_IVECX_C.csv

>>> COPY /tmp/4.98/GMJ_IVECC2_C.csv /home/grierjones/DDCASPT2/iron_oxo_DDCASPT2/cluster/4.98/GMJ_IVECC2_C.csv

>>> COPY /tmp/4.98/GMJ_e2_C.csv /home/grierjones/DDCASPT2/iron_oxo_DDCASPT2/cluster/4.98/GMJ_e2_C.csv

>>> END FOREACH

>>> EXPORT i = D

>>> IF (-FILE GMJ_e2_$i.csv)

>>> COPY /tmp/4.98/GMJ_RHS_D.csv /home/grierjones/DDCASPT2/iron_oxo_DDCASPT2/cluster/4.98/GMJ_RHS_D.csv

>>> COPY /tmp/4.98/GMJ_IVECW_D.csv /home/grierjones/DDCASPT2/iron_oxo_DDCASPT2/cluster/4.98/GMJ_IVECW_D.csv

>>> COPY /tmp/4.98/GMJ_IVECX_D.csv /home/grierjones/DDCASPT2/iron_oxo_DDCASPT2/cluster/4.98/GMJ_IVECX_D.csv

>>> COPY /tmp/4.98/GMJ_IVECC2_D.csv /home/grierjones/DDCASPT2/iron_oxo_DDCASPT2/cluster/4.98/GMJ_IVECC2_D.csv

>>> COPY /tmp/4.98/GMJ_e2_D.csv /home/grierjones/DDCASPT2/iron_oxo_DDCASPT2/cluster/4.98/GMJ_e2_D.csv

>>> END FOREACH

.########################.
.# Non-zero return code #.
.########################.

    Timing: Wall=403.93 User=400.49 System=3.32
************************************
*** WorkDir at /tmp/4.98 cleaned ***
************************************
