[Molden Format]
[N_Atoms]
                     2
[Atoms] (AU)
BE1         1      4           0.00000000      0.00000000      0.00000000
F2          2      9           0.00000000      0.00000000      1.51178090
[Charge] (Mulliken)
  0.703842427502533     
 -0.703842427502565     
[GTO] (AU)
   1
   s  14
  2.262859900E+04  8.443999941E-05
  3.372318100E+03  4.601499968E-04
  7.603504000E+02  2.285389984E-03
  2.117404800E+02  9.648129932E-03
  6.722346800E+01  3.494469975E-02
  2.337217700E+01  1.061099893E-01
  8.721373000E+00  2.458240383E-01
  3.468091000E+00  3.862428773E-01
  1.452144000E+00  3.105526078E-01
  6.086150000E-01  6.415933955E-02
  2.576860000E-01 -2.265049984E-03
  1.041760000E-01 -5.217499963E-04
  4.242700000E-02 -8.757499938E-04
  1.484900000E-02  1.242199991E-04
   s  14
  2.262859900E+04 -1.586999994E-05
  3.372318100E+03 -8.656999968E-05
  7.603504000E+02 -4.302199984E-04
  2.117404800E+02 -1.825079993E-03
  6.722346800E+01 -6.682749976E-03
  2.337217700E+01 -2.095119992E-02
  8.721373000E+00 -5.200308981E-02
  3.468091000E+00 -9.849176964E-02
  1.452144000E+00 -1.355800695E-01
  6.086150000E-01 -6.429875976E-02
  2.576860000E-01  3.125414989E-01
  1.041760000E-01  6.270468577E-01
  4.242700000E-02  2.110231492E-01
  1.484900000E-02 -4.104669985E-03
   p   9
  3.371018400E+01  1.069960000E-03
  8.057649500E+00  6.828550001E-03
  2.836471400E+00  2.119065000E-02
  1.099965700E+00  5.843696001E-02
  4.433964000E-01  2.020920800E-01
  1.822264000E-01  4.582953101E-01
  7.572410000E-02  3.691239601E-01
  3.168540000E-02  6.611471001E-02
  1.108990000E-02  1.405160000E-03
 
   2
   s  14
  1.031094600E+05  1.713099991E-04
  1.528100700E+04  7.123999962E-04
  3.441539200E+03  2.990479984E-03
  9.670948300E+02  1.164036994E-02
  3.140353400E+02  3.968642979E-02
  1.134423000E+02  1.128546094E-01
  4.464472700E+01  2.473650687E-01
  1.894287400E+01  3.672702681E-01
  8.532743000E+00  2.896286985E-01
  3.919401000E+00  7.786681959E-02
  1.568157000E+00  4.562139976E-03
  6.232900000E-01  2.468879987E-03
  2.408610000E-01  1.106309994E-03
  8.430100000E-02  1.739699991E-04
   s  14
  1.031094600E+05 -4.044999995E-05
  1.528100700E+04 -1.682299998E-04
  3.441539200E+03 -7.084299991E-04
  9.670948300E+02 -2.767999996E-03
  3.140353400E+02 -9.611379987E-03
  1.134423000E+02 -2.833957996E-02
  4.464472700E+01 -6.839343991E-02
  1.894287400E+01 -1.237379298E-01
  8.532743000E+00 -1.512859698E-01
  3.919401000E+00 -9.099909988E-03
  1.568157000E+00  3.716257695E-01
  6.232900000E-01  5.500214393E-01
  2.408610000E-01  2.092318697E-01
  8.430100000E-02  8.074639989E-03
   p   9
  2.453302900E+02  1.024860004E-03
  5.691900500E+01  8.344290032E-03
  1.760456800E+01  4.078927016E-02
  6.274995000E+00  1.351370605E-01
  2.447030000E+00  2.798830811E-01
  9.950600000E-01  3.597966414E-01
  4.039730000E-01  3.055347412E-01
  1.548100000E-01  1.354703905E-01
  5.418400000E-02  2.804449011E-02
 
[MO]
Sym=     1a  
Ene=   -26.3380
Spin= Alpha
Occup=    1.00000
   1        -0.00103251
   2        -0.00115226
   3        -0.00000000
   4         0.00000000
   5        -0.00034303
   6         1.00011858
   7        -0.00102889
   8        -0.00000000
   9        -0.00000000
  10        -0.00199338
Sym=     1a  
Ene=   -26.3400
Spin= Beta
Occup=    1.00000
   1        -0.00106644
   2        -0.00120398
   3        -0.00000000
   4         0.00000000
   5        -0.00038355
   6         1.00012657
   7        -0.00086687
   8        -0.00000000
   9        -0.00000000
  10        -0.00200014
Sym=     2a  
Ene=    -4.9520
Spin= Alpha
Occup=    1.00000
   1         0.96624125
   2        -0.01672741
   3        -0.00000000
   4        -0.00000000
   5         0.00372763
   6        -0.01244339
   7         0.06178928
   8         0.00000000
   9         0.00000000
  10        -0.05462412
Sym=     2a  
Ene=    -4.9344
Spin= Beta
Occup=    1.00000
   1         0.96583726
   2        -0.01735365
   3        -0.00000000
   4        -0.00000000
   5         0.00478254
   6        -0.01251327
   7         0.06215257
   8         0.00000000
   9         0.00000000
  10        -0.05541310
Sym=     3a  
Ene=    -1.6987
Spin= Alpha
Occup=    1.00000
   1        -0.33593135
   2        -0.03416243
   3        -0.00000000
   4        -0.00000000
   5         0.07298999
   6         0.00120838
   7         0.99821596
   8         0.00000000
   9        -0.00000000
  10        -0.18188880
Sym=     3a  
Ene=    -1.7024
Spin= Beta
Occup=    1.00000
   1        -0.33712885
   2        -0.03925982
   3        -0.00000000
   4        -0.00000000
   5         0.07076205
   6         0.00166257
   7         1.00200059
   8         0.00000000
   9        -0.00000000
  10        -0.18082867
Sym=     4a  
Ene=    -0.8332
Spin= Alpha
Occup=    1.00000
   1        -0.00000000
   2        -0.00000000
   3         0.11106293
   4         0.06695090
   5         0.00000000
   6         0.00000000
   7         0.00000000
   8         0.79914291
   9         0.48173894
  10        -0.00000000
Sym=     4a  
Ene=    -0.8400
Spin= Beta
Occup=    1.00000
   1        -0.00000000
   2        -0.00000000
   3         0.08870463
   4         0.03330005
   5         0.00000000
   6         0.00000000
   7         0.00000000
   8         0.89167754
   9         0.33473906
  10        -0.00000000
Sym=     5a  
Ene=    -0.8332
Spin= Alpha
Occup=    1.00000
   1         0.00000000
   2         0.00000000
   3        -0.06695090
   4         0.11106293
   5        -0.00000000
   6        -0.00000000
   7         0.00000000
   8        -0.48173894
   9         0.79914291
  10         0.00000000
Sym=     5a  
Ene=    -0.8400
Spin= Beta
Occup=    1.00000
   1         0.00000000
   2         0.00000000
   3        -0.03330005
   4         0.08870463
   5        -0.00000000
   6        -0.00000000
   7         0.00000000
   8        -0.33473906
   9         0.89167754
  10         0.00000000
Sym=     6a  
Ene=    -0.7237
Spin= Alpha
Occup=    1.00000
   1         0.36718190
   2         0.15669779
   3         0.00000000
   4         0.00000000
   5        -0.13845198
   6         0.00071060
   7         0.09328560
   8         0.00000000
   9        -0.00000000
  10         1.06703353
Sym=     6a  
Ene=    -0.7213
Spin= Beta
Occup=    1.00000
   1         0.37006681
   2         0.15835391
   3         0.00000000
   4         0.00000000
   5        -0.12578637
   6        -0.00071113
   7         0.08404859
   8         0.00000000
   9        -0.00000000
  10         1.06741750
Sym=     7a  
Ene=    -0.3485
Spin= Alpha
Occup=    1.00000
   1        -0.03171360
   2        -0.88539619
   3         0.00000000
   4        -0.00000000
   5         0.49137002
   6         0.00762611
   7         0.13581138
   8        -0.00000000
   9         0.00000000
  10         0.00368821
Sym=     7a  
Ene=     0.0595
Spin= Beta
Occup=    0.00000
   1        -0.05785611
   2        -0.96306969
   3         0.00000000
   4        -0.00000000
   5         0.37897296
   6         0.02407381
   7         0.23495448
   8        -0.00000000
   9         0.00000000
  10        -0.00442770
Sym=     8a  
Ene=     0.2278
Spin= Alpha
Occup=    0.00000
   1        -0.00000000
   2        -0.00000000
   3        -0.03468039
   4        -1.12138403
   5        -0.00000000
   6         0.00000000
   7         0.00000000
   8         0.01966769
   9         0.63595099
  10         0.00000000
Sym=     8a  
Ene=     0.2858
Spin= Beta
Occup=    0.00000
   1        -0.00000000
   2        -0.00000000
   3        -0.03754115
   4        -1.12478243
   5        -0.00000000
   6         0.00000000
   7         0.00000000
   8         0.02024637
   9         0.60660801
  10         0.00000000
Sym=     9a  
Ene=     0.2278
Spin= Alpha
Occup=    0.00000
   1        -0.00000000
   2        -0.00000000
   3        -1.12138403
   4         0.03468039
   5        -0.00000000
   6         0.00000000
   7         0.00000000
   8         0.63595099
   9        -0.01966769
  10         0.00000000
Sym=     9a  
Ene=     0.2858
Spin= Beta
Occup=    0.00000
   1        -0.00000000
   2        -0.00000000
   3        -1.12478243
   4         0.03754115
   5        -0.00000000
   6         0.00000000
   7         0.00000000
   8         0.60660801
   9        -0.02024637
  10         0.00000000
Sym=    10a  
Ene=     0.4254
Spin= Alpha
Occup=    0.00000
   1        -0.26036636
   2        -0.85828622
   3         0.00000000
   4         0.00000000
   5        -1.17406758
   6         0.17494804
   7         1.09860252
   8        -0.00000000
   9        -0.00000000
  10        -0.03213787
Sym=    10a  
Ene=     0.4582
Spin= Beta
Occup=    0.00000
   1        -0.25158823
   2        -0.76951994
   3         0.00000000
   4         0.00000000
   5        -1.21651826
   6         0.17339665
   7         1.07897724
   8        -0.00000000
   9        -0.00000000
  10        -0.02247153
