****************************************************************************************************
*** WorkDir at /lustre/isaac/scratch/gjones39/scpfiles/ANO-RCC-VTZP/ozone_137.75/3252786 cleaned ***
****************************************************************************************************
   This run of MOLCAS is using the pymolcas driver

                             OPE
                             OPE          NMOL  CASOP  ENMOLC A   SO
                 OPE        NMOLC        AS  OP EN  MO LC     AS  OP
                OPENM       OL CA        SO  PE NM  OL CA     SOP EN
                OP EN      MO   LC       AS  OP ENMOL  CASO   PENMOL
                OP  EN     MO   LC       AS  OP EN     MO     LC ASO
               OP   E  NMOL  C  AS       OP  EN MO     LC     AS  OP
               OP  E   NMO   LC AS        OPEN  MO     LCASOP EN   M
               O  PEN   MO  LCA  SO
            OPE   NMO   L   CAS    OP
        OPENMOL  CASOP     ENMOL   CASOPE
     OPENMOLCA   SOPENMOLCASOPEN   MOLCASOPE
    OPENMOLCAS   OP           EN   MOL    CAS
    OPENMOLCAS       OP  ENM        O     LCA
    OPENMOLCAS    OPEN  MOLCASO     P  E  NMO
    OPENMOLCAS     OP               E  N  MOL
    OPENMOLCA   SO           PENM   O  L  CAS    OPEN    MO    LCAS
    OPENMOLCA   SOP           ENM   O  L  CAS   OP  EN  MOLC  AS   O
    OPENMOLCA   SOPE           NM      O  LCA   S      OP  EN MO
    OPENMOLC                AS         O  PEN   M      OL  CA  SOPE
    OPENMO        LCASOPE  NMOL        C  ASO   P      ENMOLC     AS
    OPE     NMO      LCA  SO     P     E   NM   OL  CA SO  PE N   MO
          OPENMOLCA            SOPE   NMO        LCAS  O    P  ENMO
     OPENMOLCASOPENMOLCASOPENMOLCASOPENMOLCA
        OPENMOLCASOPENMOLCASOPENMOLCASOPE
            OPENMOLCASOPENMOLCASOPENM
               OPENMOLCASOPENMOLCA        version: f37762c57-dirty
                   OPENMOLCASO
                       OPE                tag:

 OpenMolcas is free software; you can redistribute it and/or modify it
 under the terms of the GNU Lesser General Public License version 2.1.
 OpenMolcas is distributed in the hope that it will be useful, but it
 is provided "as is" and without any express or implied warranties.
 For more details see the full text of the license in the file
 LICENSE or in <http://www.gnu.org/licenses/>.

                 Copyright (C) The OpenMolcas Authors
           For the author list and the recommended citation,
                   consult the file CONTRIBUTORS.md

           *************************************************
           * pymolcas version py2.05                       *
           *   build c53fbf9a0f911de0c7c16766b0715e61      *
           *   (after the EMIL interpreter by V. Veryazov) *
           *************************************************

configuration info
------------------
C Compiler ID: GNU
C flags: -std=gnu99
Fortran Compiler ID: Intel
Fortran flags: -fpp -i8 -r8 -heap-arrays
Definitions: _MOLCAS_;_I8_;_LINUX_
Parallel: OFF (GA=OFF)


   ------------------------------------------------------------------------------------------------
  |
  |              Project: ozone_137.75
  |       Submitted from: /lustre/isaac/scratch/gjones39/scpfiles/ANO-RCC-VTZP/ozone_137.75
  |         Scratch area: /lustre/isaac/scratch/gjones39/scpfiles/ANO-RCC-VTZP/ozone_137.75/3252786
  |      Save outputs to: /lustre/isaac/scratch/gjones39/scpfiles/ANO-RCC-VTZP/ozone_137.75
  |               Molcas: /lustre/isaac/proj/UTK0022/Grier2025/Test/build
  |
  | Scratch area is empty
  |
  |       MOLCAS_DRIVER = /nfs/home/gjones39/bin/pymolcas
  | MOLCAS_KEEP_WORKDIR = NO
  |      MOLCAS_MAXITER = 100
  |  MOLCAS_NEW_WORKDIR = YES
  |       MOLCAS_NPROCS = 1
  |       MOLCAS_SOURCE = /lustre/isaac/proj/UTK0022/Grier2025/Test
  |    MOLCAS_STRUCTURE = 0
  |
   ------------------------------------------------------------------------------------------------

++ ---------   Input file   ---------

&GATEWAY
coord=ozone_137.75.xyz
Basis = ANO-RCC-VTZP
Group = nosymm
End of Input

&SEWARD
End of Input

&SCF
FileOrb
/lustre/isaac/scratch/gjones39/scpfiles/ANO-RCC-VTZP/ozone_137.50/ozone_137.50.ScfOrb

>>> COPY $WorkDir/ozone_137.75.scf.h5 $CurrDir/

&RASSCF
Title= RASSCF
ITERation
200 100
CIMX
200
SDAV
500
FileOrb
/lustre/isaac/scratch/gjones39/scpfiles/ANO-RCC-VTZP/ozone_137.50/ozone_137.50.RasOrb
CIROOT
3 3 1
NACTEL
12 0 0
Inactive
6
RAS2
9
Symmetry
1
Spin
1
orblisting
all

>>> COPY $WorkDir/ozone_137.75.rasscf.h5 $CurrDir/

>>> COPY $WorkDir/GMJ_Fock_MO.csv $CurrDir/ozone_137.75.GMJ_Fock_MO.csv

&MOTRA
Frozen=0
LUMORB

>>> COPY $WorkDir/GMJ_one_int_indx.csv $CurrDir/ozone_137.75.GMJ_one_int_indx.csv

>>> COPY $WorkDir/GMJ_one_int.csv $CurrDir/ozone_137.75.GMJ_one_int.csv

>>> COPY $WorkDir/GMJ_two_int_indx.csv $CurrDir/ozone_137.75.GMJ_two_int_indx.csv

>>> COPY $WorkDir/GMJ_two_int.csv $CurrDir/ozone_137.75.GMJ_two_int.csv

&CASPT2

Multistate
ALL

Frozen
0

MAXITER
50

>>> FOREACH k IN (1,2,3)

  >>> FOREACH i IN (B,E,F,G,H)

    >>> FOREACH j IN (P,M)

      >>> IF (-FILE GMJ_e2_${i}_${j}_${k}_.csv)

        >>> COPY $WorkDir/GMJ_RHS_${i}_${j}_${k}_.csv $CurrDir/GMJ_RHS_${i}_${j}_${k}_.csv

        >>> COPY $WorkDir/GMJ_IVECW_${i}_${j}_${k}_.csv $CurrDir/GMJ_IVECW_${i}_${j}_${k}_.csv

        >>> COPY $WorkDir/GMJ_IVECX_${i}_${j}_${k}_.csv $CurrDir/GMJ_IVECX_${i}_${j}_${k}_.csv

        >>> COPY $WorkDir/GMJ_IVECC2_${i}_${j}_${k}_.csv $CurrDir/GMJ_IVECC2_${i}_${j}_${k}_.csv

        >>> COPY $WorkDir/GMJ_e2_${i}_${j}_${k}_.csv $CurrDir/GMJ_e2_${i}_${j}_${k}_.csv

      >>> END IF

    >>> END FOREACH

  >>> END FOREACH

>>> END FOREACH

>>> FOREACH j IN (1,2,3)

  >>> FOREACH i IN (A,C,D)

    >>> IF (-FILE GMJ_e2_${i}_${j}_.csv)

      >>> COPY $WorkDir/GMJ_RHS_${i}_${j}_.csv $CurrDir/GMJ_RHS_${i}_${j}_.csv

      >>> COPY $WorkDir/GMJ_IVECW_${i}_${j}_.csv $CurrDir/GMJ_IVECW_${i}_${j}_.csv

      >>> COPY $WorkDir/GMJ_IVECX_${i}_${j}_.csv $CurrDir/GMJ_IVECX_${i}_${j}_.csv

      >>> COPY $WorkDir/GMJ_IVECC2_${i}_${j}_.csv $CurrDir/GMJ_IVECC2_${i}_${j}_.csv

      >>> COPY $WorkDir/GMJ_e2_${i}_${j}_.csv $CurrDir/GMJ_e2_${i}_${j}_.csv

    >>> END IF

  >>> END FOREACH

>>> END FOREACH

-- ----------------------------------

--- Start Module: gateway at Mon May 12 23:16:50 2025 ---
 
()()()()()()()()()()()()()()()()()()()()()()()()()()()()()()()()()()()()()()()()()()()()()()()()()()

                                              &GATEWAY

                                   only a single process is used
                       available to each process: 62 GB of memory, 1 thread?
()()()()()()()()()()()()()()()()()()()()()()()()()()()()()()()()()()()()()()()()()()()()()()()()()()
 
 
++    Symmetry information:
      ---------------------
 
                    Character Table for C1 
 
                             E  
                    a        1  x, y, xy, Rz, z, xz, Ry, yz, Rx, I
--
 
 
++    Basis set information:
      ----------------------
 
 
      Basis set label: O.ANO-RCC...4S3P2D1F.
 
      Electronic valence basis set:
      ------------------
      Associated Effective Charge   8.000000 au
      Associated Actual Charge      8.000000 au
      Nuclear Model: Point charge
 
      Shell  nPrim  nBasis  Cartesian Spherical Contaminant
         s      14       4        X                  
         p       9       3        X                  
         d       4       2                 X         
         f       3       1                 X         
--
 
 
++    Molecular structure info:
      -------------------------
 
                    ************************************************ 
                    **** Cartesian Coordinates / Bohr, Angstrom **** 
                    ************************************************ 
 
     Center  Label                x              y              z                     x              y              z
        1      O1               0.870400       2.252769       0.000000              0.460596       1.192114       0.000000
        2      O2               0.000000       0.000000       0.000000              0.000000       0.000000       0.000000
        3      O3               0.870400      -2.252769       0.000000              0.460596      -1.192114       0.000000
 
                    *************************************** 
                    *    InterNuclear Distances / Bohr    * 
                    *************************************** 
 
               1 O1            2 O2            3 O3    
    1 O1       0.000000
    2 O2       2.415070        0.000000
    3 O3       4.505538        2.415070        0.000000
 
                    ******************************************* 
                    *    InterNuclear Distances / Angstrom    * 
                    ******************************************* 
 
               1 O1            2 O2            3 O3    
    1 O1       0.000000
    2 O2       1.278000        0.000000
    3 O3       2.384228        1.278000        0.000000
 
                    ************************************** 
                    *    Valence Bond Angles / Degree    * 
                    ************************************** 
                          Atom centers                 Phi
                      1 O1       2 O2       3 O3       137.75
--
 
 
            Nuclear Potential Energy             67.20526798 au
 
--- Stop Module: gateway at Mon May 12 23:16:54 2025 /rc=_RC_ALL_IS_WELL_ ---
*** files: xmldump
    saved to directory /lustre/isaac/scratch/gjones39/scpfiles/ANO-RCC-VTZP/ozone_137.75
--- Module gateway spent 3 seconds ---

--- Start Module: seward at Mon May 12 23:16:54 2025 ---
 
()()()()()()()()()()()()()()()()()()()()()()()()()()()()()()()()()()()()()()()()()()()()()()()()()()

                                              &SEWARD

                                   only a single process is used
                       available to each process: 62 GB of memory, 1 thread?
()()()()()()()()()()()()()()()()()()()()()()()()()()()()()()()()()()()()()()()()()()()()()()()()()()
 
               SEWARD will generate:
                  Multipole Moment integrals up to order  2
                  Kinetic Energy integrals
                  Nuclear Attraction integrals (point charge)
                  One-Electron Hamiltonian integrals
                  Velocity integrals
                  Relativistic Douglas-Kroll-Hess integrals:
                    - Parametrization         : EXP
                    - DKH order of Hamiltonian: 2
                    - DKH order of Properties : 0
                         - multipole moment operators
                         - electric potential operators
                         - contact operators
                  Atomic mean-field integrals
                  Two-Electron Repulsion integrals
 
                   Integrals are discarded if absolute value <: 0.10E-13
                   Integral cutoff threshold is set to       <: 0.10E-15
 
            Nuclear Potential Energy             67.20526798 au
 
 
      Basis set specifications :
      Symmetry species         a  
      Basis functions           90
 
 
  Input file to MOLDEN was generated!
 
--- Stop Module: seward at Mon May 12 23:17:03 2025 /rc=_RC_ALL_IS_WELL_ ---
*** files: ozone_137.75.GssOrb ozone_137.75.guessorb.h5 ozone_137.75.guessorb.molden xmldump
    saved to directory /lustre/isaac/scratch/gjones39/scpfiles/ANO-RCC-VTZP/ozone_137.75
--- Module seward spent 9 seconds ---

*** symbolic link created: INPORB -> ozone_137.75.GssOrb
--- Start Module: scf at Mon May 12 23:17:03 2025 ---
 
()()()()()()()()()()()()()()()()()()()()()()()()()()()()()()()()()()()()()()()()()()()()()()()()()()

                                                &SCF

                                   only a single process is used
                       available to each process: 62 GB of memory, 1 thread?
()()()()()()()()()()()()()()()()()()()()()()()()()()()()()()()()()()()()()()()()()()()()()()()()()()
 
++    Input section:
      --------------
 
      Header of the integral files:
      
       Integrals generated by seward 4.2.0  , Mon May 12 23:16:54 2025
 
 
      Cartesian coordinates in Angstrom:
      -----------------------------------------------------
      No.  Label        X            Y            Z        
      -----------------------------------------------------
       1   O1         0.46059600   1.19211400   0.00000000
       2   O2         0.00000000   0.00000000   0.00000000
       3   O3         0.46059600  -1.19211400   0.00000000
      -----------------------------------------------------
      Nuclear repulsion energy =   67.20526798
--
 
++    Orbital specifications:
      -----------------------
 
      Symmetry species               1
                                     a
      Frozen orbitals                0
      Occupied orbitals             12
      Secondary orbitals            78
      Deleted orbitals               0
      Total number of orbitals      90
      Number of basis functions     90
--
 
      Molecular charge                           0.000
 
++    Optimization specifications:
      ----------------------------
 
      SCF Algorithm: Conventional
      Minimized density differences are used
      Number of density matrices in core                5
      Maximum number of NDDO SCF iterations           400
      Maximum number of HF SCF iterations             400
      Threshold for SCF energy change            0.10E-08
      Threshold for density matrix               0.10E-03
      Threshold for Fock matrix                  0.15E-03
      Threshold for linear dependence            0.10E-08
      Threshold at which DIIS is turned on       0.15E+00
      Threshold at which QNR/C2DIIS is turned on 0.75E-01
      Threshold for Norm(delta) (QNR/C2DIIS)     0.20E-04
      DIIS extrapolation of the SCF procedure
      All orbitals punched on: SCFORB
--
 
      Input vectors read from INPORB
      Orbital file label: * SCF orbitals
 
 
++ Convergence information
                                   SCF        iterations: Energy and convergence statistics
 
Iter     Tot. SCF        One-elec.       Two-elec.     Energy      Max Dij or  Max Fij      DNorm      TNorm      AccCon     Time
         Energy          Energy          Energy        Change      Delta Norm                                                in Sec.
   1  -224.489434514  -442.036303944   150.341601451   0.00E+00    0.12E-02*   0.67E-03*    0.75E+01   0.11E+03   None         0.
   2  -224.489439781  -442.035872509   150.341164750  -0.53E-05*   0.58E-03*   0.32E-03*    0.70E-02   0.11E+03   EDIIS        0.
   3  -224.489440778  -442.036598844   150.341890087  -0.10E-05*   0.35E-03*   0.29E-03*    0.99E-03   0.11E+03   c2DIIS       0.
   4  -224.489441129  -442.035895783   150.341186676  -0.35E-06*   0.21E-03*   0.91E-04     0.11E-02   0.11E+03   QNRc2DIIS    0.
   5  -224.489441140  -442.036978965   150.342269847  -0.11E-07*   0.11E-03*   0.11E-03     0.62E-03   0.11E+03   QNRc2DIIS    0.
   6  -224.489441195  -442.036472437   150.341763264  -0.55E-07*   0.73E-04*   0.12E-04     0.55E-04   0.11E+03   QNRc2DIIS    0.
   7  -224.489441199  -442.036394501   150.341685323  -0.41E-08*   0.58E-05    0.11E-05     0.74E-04   0.11E+03   QNRc2DIIS    0.
   8  -224.489441199  -442.036442270   150.341733092  -0.22E-10    0.22E-05    0.15E-05     0.44E-03   0.11E+03   QNRc2DIIS    0.
 
       Convergence after  8 Macro Iterations
--
 
 *****************************************************************************************************************************
 *                                                                                                                           *
 *                                             SCF/KS-DFT Program, Final results                                             *
 *                                                                                                                           *
 *                                                                                                                           *
 *                                                                                                                           *
 *                                                       Final Results                                                       *
 *                                                                                                                           *
 *****************************************************************************************************************************
 
::    Total SCF energy                               -224.4894411990
      One-electron energy                            -442.0364422697
      Two-electron energy                             150.3417330925
      Nuclear repulsion energy                         67.2052679783
      Kinetic energy (interpolated)                   225.0573907092
      Virial theorem                                    0.9974764236
      Total spin, S(S+1)                                0.0000000000
      Total spin, S                                     0.0000000000
      Max non-diagonal density matrix element           0.0000032417
      Max non-diagonal Fock matrix element              0.0000007356
 
 
      All orbitals with orbital energies smaller than  E(LUMO)+0.5 are printed
 
++    Molecular orbitals:
      -------------------
 
      Title: SCF orbitals

      Molecular orbitals for symmetry species 1: a  
 
          Orbital            1         2         3         4         5         6         7         8         9        10    
          Energy          -20.9165  -20.7361  -20.7361   -1.7312   -1.4559   -1.0802   -0.8322   -0.8033   -0.7715   -0.5907
          Occ. No.          2.0000    2.0000    2.0000    2.0000    2.0000    2.0000    2.0000    2.0000    2.0000    2.0000
 
        1 O1     1s         0.0023   -0.7697    0.6367   -0.0130    0.0122    0.0120   -0.0087   -0.0233    0.0000    0.0076
        2 O1     2s         0.0027    0.0058   -0.0051    0.3395   -0.5632    0.6247   -0.1894   -0.4329   -0.0000    0.0773
        3 O1     3s         0.0015    0.0042   -0.0035   -0.0087    0.0201    0.0200   -0.0150   -0.0514    0.0000    0.0174
        4 O1     4s         0.0003    0.0009   -0.0007   -0.0003    0.0040    0.0033   -0.0031   -0.0109   -0.0000    0.0040
        5 O1     2px       -0.0006   -0.0011    0.0008   -0.0358    0.0475    0.0875    0.2459   -0.2757   -0.0000   -0.6096
        6 O1     3px       -0.0005   -0.0011    0.0006    0.0112   -0.0067   -0.0148   -0.0154    0.0240    0.0000   -0.0032
        7 O1     4px       -0.0001    0.0004   -0.0005    0.0023    0.0003    0.0005   -0.0008    0.0013    0.0000    0.0047
        8 O1     2py       -0.0017   -0.0025    0.0025   -0.1140    0.0816    0.1303   -0.2705   -0.3199   -0.0000    0.3617
        9 O1     3py       -0.0010   -0.0025    0.0024    0.0131   -0.0173   -0.0217    0.0249    0.0430   -0.0000   -0.0056
       10 O1     4py        0.0004    0.0016   -0.0014    0.0011   -0.0037    0.0010    0.0037    0.0037   -0.0000   -0.0028
       11 O1     2pz       -0.0000    0.0000    0.0000   -0.0000    0.0000   -0.0000    0.0000   -0.0000    0.3920   -0.0000
       12 O1     3pz        0.0000    0.0000    0.0000   -0.0000   -0.0000   -0.0000   -0.0000    0.0000   -0.0165   -0.0000
       13 O1     4pz       -0.0000   -0.0000   -0.0000   -0.0000   -0.0000   -0.0000   -0.0000    0.0000   -0.0067   -0.0000
       14 O1     3d2-       0.0002    0.0008   -0.0007    0.0112   -0.0118   -0.0108   -0.0079    0.0223    0.0000    0.0058
       15 O1     4d2-       0.0001    0.0005   -0.0004    0.0009   -0.0014   -0.0006   -0.0007    0.0017    0.0000    0.0012
       16 O1     3d1-      -0.0000   -0.0000   -0.0000    0.0000    0.0000   -0.0000   -0.0000    0.0000   -0.0302   -0.0000
       17 O1     4d1-       0.0000   -0.0000   -0.0000    0.0000    0.0000   -0.0000   -0.0000    0.0000   -0.0051   -0.0000
       18 O1     3d0       -0.0003   -0.0006    0.0005   -0.0105    0.0091    0.0052   -0.0078   -0.0145   -0.0000    0.0053
       19 O1     4d0       -0.0001   -0.0004    0.0004   -0.0007    0.0009    0.0001   -0.0008   -0.0008   -0.0000    0.0007
       20 O1     3d1+       0.0000   -0.0000   -0.0000   -0.0000    0.0000    0.0000   -0.0000    0.0000   -0.0113    0.0000
       21 O1     4d1+      -0.0000    0.0000   -0.0000   -0.0000    0.0000    0.0000   -0.0000   -0.0000   -0.0022   -0.0000
       22 O1     3d2+      -0.0004   -0.0010    0.0009   -0.0166    0.0110    0.0086   -0.0245   -0.0179   -0.0000    0.0172
       23 O1     4d2+      -0.0002   -0.0004    0.0005   -0.0024    0.0014    0.0011   -0.0026   -0.0013   -0.0000    0.0026
       24 O1     4f3-       0.0001    0.0001   -0.0001    0.0032   -0.0023   -0.0003    0.0075    0.0019   -0.0000   -0.0056
       25 O1     4f2-       0.0000    0.0000   -0.0000   -0.0000   -0.0000    0.0000    0.0000   -0.0000    0.0043    0.0000
       26 O1     4f1-       0.0000    0.0002   -0.0001    0.0032   -0.0029   -0.0013    0.0020    0.0035    0.0000   -0.0011
       27 O1     4f0       -0.0000   -0.0000   -0.0000    0.0000    0.0000    0.0000   -0.0000    0.0000   -0.0038    0.0000
       28 O1     4f1+       0.0000    0.0001   -0.0001    0.0011   -0.0011   -0.0007    0.0000    0.0012    0.0000   -0.0010
       29 O1     4f2+      -0.0000   -0.0000   -0.0000   -0.0000   -0.0000    0.0000   -0.0000    0.0000   -0.0057    0.0000
       30 O1     4f3+       0.0000    0.0002   -0.0001    0.0045   -0.0049   -0.0030   -0.0014    0.0067    0.0000    0.0012
       31 O2     1s         0.9992    0.0001   -0.0009   -0.0278   -0.0000   -0.0164   -0.0069   -0.0000   -0.0000   -0.0000
       32 O2     2s        -0.0054   -0.0011    0.0114    0.6226    0.0000   -0.6473   -0.0736   -0.0000   -0.0000   -0.0000
       33 O2     3s        -0.0039   -0.0006    0.0066   -0.0696   -0.0000   -0.0177   -0.0126   -0.0000   -0.0000   -0.0000
       34 O2     4s        -0.0008   -0.0001    0.0011   -0.0127   -0.0000   -0.0043   -0.0043   -0.0000   -0.0000   -0.0000
       35 O2     2px       -0.0005   -0.0003    0.0029    0.0776    0.0000    0.1843    0.6942   -0.0000   -0.0000    0.0000
       36 O2     3px       -0.0013   -0.0002    0.0018   -0.0336   -0.0000   -0.0242   -0.0737    0.0000    0.0000   -0.0000
       37 O2     4px        0.0015    0.0001   -0.0006   -0.0038   -0.0000    0.0014   -0.0097    0.0000    0.0000    0.0000
       38 O2     2py        0.0000   -0.0063   -0.0006    0.0000   -0.3340   -0.0000    0.0000    0.5473    0.0000   -0.1421
       39 O2     3py       -0.0000   -0.0042   -0.0004   -0.0000    0.0648    0.0000   -0.0000   -0.0566   -0.0000   -0.0068
       40 O2     4py        0.0000    0.0012    0.0001    0.0000   -0.0019    0.0000   -0.0000   -0.0095    0.0000    0.0001
       41 O2     2pz       -0.0000   -0.0000   -0.0000    0.0000    0.0000    0.0000    0.0000   -0.0000    0.6678    0.0000
       42 O2     3pz        0.0000   -0.0000   -0.0000    0.0000    0.0000    0.0000   -0.0000    0.0000   -0.0460    0.0000
       43 O2     4pz        0.0000   -0.0000   -0.0000    0.0000    0.0000    0.0000    0.0000    0.0000   -0.0171   -0.0000
       44 O2     3d2-      -0.0000   -0.0012   -0.0001    0.0000   -0.0334   -0.0000    0.0000    0.0232    0.0000   -0.0441
       45 O2     4d2-      -0.0000   -0.0006   -0.0001    0.0000   -0.0036   -0.0000    0.0000    0.0021   -0.0000   -0.0076
       46 O2     3d1-      -0.0000   -0.0000   -0.0000    0.0000    0.0000   -0.0000    0.0000   -0.0000    0.0000   -0.0000
       47 O2     4d1-      -0.0000   -0.0000   -0.0000    0.0000    0.0000   -0.0000   -0.0000   -0.0000    0.0000   -0.0000
       48 O2     3d0        0.0003    0.0001   -0.0011   -0.0148   -0.0000   -0.0046   -0.0133    0.0000    0.0000   -0.0000
       49 O2     4d0        0.0005    0.0001   -0.0006    0.0008    0.0000   -0.0001   -0.0008    0.0000    0.0000   -0.0000
       50 O2     3d1+      -0.0000   -0.0000   -0.0000    0.0000    0.0000   -0.0000    0.0000   -0.0000    0.0262    0.0000
       51 O2     4d1+      -0.0000   -0.0000   -0.0000    0.0000    0.0000    0.0000   -0.0000   -0.0000    0.0038    0.0000
       52 O2     3d2+       0.0006    0.0001   -0.0013   -0.0186   -0.0000   -0.0030    0.0158   -0.0000    0.0000   -0.0000
       53 O2     4d2+       0.0003    0.0001   -0.0006   -0.0016   -0.0000   -0.0005    0.0011   -0.0000    0.0000   -0.0000
       54 O2     4f3-       0.0000    0.0001    0.0000   -0.0000    0.0049    0.0000   -0.0000   -0.0067   -0.0000   -0.0076
       55 O2     4f2-      -0.0000   -0.0000   -0.0000    0.0000    0.0000   -0.0000    0.0000   -0.0000    0.0000   -0.0000
       56 O2     4f1-       0.0000    0.0001    0.0000   -0.0000    0.0053    0.0000   -0.0000   -0.0045   -0.0000    0.0010
       57 O2     4f0        0.0000   -0.0000   -0.0000   -0.0000    0.0000   -0.0000   -0.0000    0.0000   -0.0059    0.0000
       58 O2     4f1+       0.0001    0.0000   -0.0001   -0.0022   -0.0000   -0.0001   -0.0013    0.0000    0.0000    0.0000
       59 O2     4f2+       0.0000   -0.0000   -0.0000   -0.0000   -0.0000   -0.0000   -0.0000    0.0000   -0.0082    0.0000
       60 O2     4f3+       0.0001    0.0000   -0.0002   -0.0092   -0.0000   -0.0013   -0.0077    0.0000    0.0000   -0.0000
       61 O3     1s         0.0023    0.6367    0.7696   -0.0130   -0.0122    0.0120   -0.0087    0.0233    0.0000   -0.0076
       62 O3     2s         0.0027   -0.0048   -0.0061    0.3395    0.5632    0.6247   -0.1894    0.4329    0.0000   -0.0773
       63 O3     3s         0.0015   -0.0034   -0.0042   -0.0087   -0.0201    0.0200   -0.0150    0.0514    0.0000   -0.0174
       64 O3     4s         0.0003   -0.0007   -0.0008   -0.0003   -0.0040    0.0033   -0.0031    0.0109    0.0000   -0.0040
       65 O3     2px       -0.0006    0.0010    0.0010   -0.0358   -0.0475    0.0875    0.2459    0.2757   -0.0000    0.6096
       66 O3     3px       -0.0005    0.0010    0.0008    0.0112    0.0067   -0.0148   -0.0154   -0.0240   -0.0000    0.0032
       67 O3     4px       -0.0001   -0.0003   -0.0006    0.0023   -0.0003    0.0005   -0.0008   -0.0013   -0.0000   -0.0047
       68 O3     2py        0.0017   -0.0020   -0.0029    0.1140    0.0816   -0.1303    0.2705   -0.3199   -0.0000    0.3617
       69 O3     3py        0.0010   -0.0020   -0.0028   -0.0131   -0.0173    0.0217   -0.0249    0.0430    0.0000   -0.0056
       70 O3     4py       -0.0004    0.0013    0.0017   -0.0011   -0.0037   -0.0010   -0.0037    0.0037    0.0000   -0.0028
       71 O3     2pz       -0.0000    0.0000    0.0000   -0.0000   -0.0000   -0.0000    0.0000   -0.0000    0.3920    0.0000
       72 O3     3pz       -0.0000    0.0000    0.0000   -0.0000   -0.0000   -0.0000   -0.0000    0.0000   -0.0165   -0.0000
       73 O3     4pz       -0.0000    0.0000    0.0000   -0.0000   -0.0000    0.0000   -0.0000   -0.0000   -0.0067   -0.0000
       74 O3     3d2-      -0.0002    0.0007    0.0008   -0.0112   -0.0118    0.0108    0.0079    0.0223    0.0000    0.0058
       75 O3     4d2-      -0.0001    0.0004    0.0004   -0.0009   -0.0014    0.0006    0.0007    0.0017   -0.0000    0.0012
       76 O3     3d1-      -0.0000   -0.0000    0.0000   -0.0000   -0.0000   -0.0000    0.0000   -0.0000    0.0302    0.0000
       77 O3     4d1-      -0.0000   -0.0000   -0.0000   -0.0000   -0.0000   -0.0000   -0.0000   -0.0000    0.0051   -0.0000
       78 O3     3d0       -0.0003    0.0004    0.0006   -0.0105   -0.0091    0.0052   -0.0078    0.0145    0.0000   -0.0053
       79 O3     4d0       -0.0001    0.0004    0.0005   -0.0007   -0.0009    0.0001   -0.0008    0.0008   -0.0000   -0.0007
       80 O3     3d1+       0.0000   -0.0000   -0.0000    0.0000    0.0000    0.0000   -0.0000    0.0000   -0.0113   -0.0000
       81 O3     4d1+       0.0000   -0.0000   -0.0000    0.0000    0.0000    0.0000    0.0000    0.0000   -0.0022    0.0000
       82 O3     3d2+      -0.0004    0.0008    0.0011   -0.0166   -0.0110    0.0086   -0.0245    0.0179    0.0000   -0.0172
       83 O3     4d2+      -0.0002    0.0004    0.0005   -0.0024   -0.0014    0.0011   -0.0026    0.0013   -0.0000   -0.0026
       84 O3     4f3-      -0.0001    0.0001    0.0001   -0.0032   -0.0023    0.0003   -0.0075    0.0019    0.0000   -0.0056
       85 O3     4f2-       0.0000   -0.0000   -0.0000   -0.0000    0.0000    0.0000   -0.0000    0.0000   -0.0043   -0.0000
       86 O3     4f1-      -0.0000    0.0001    0.0002   -0.0032   -0.0029    0.0013   -0.0020    0.0035    0.0000   -0.0011
       87 O3     4f0       -0.0000    0.0000    0.0000   -0.0000    0.0000    0.0000   -0.0000    0.0000   -0.0038    0.0000
       88 O3     4f1+       0.0000   -0.0000   -0.0001    0.0011    0.0011   -0.0007    0.0000   -0.0012   -0.0000    0.0010
       89 O3     4f2+       0.0000   -0.0000    0.0000   -0.0000   -0.0000    0.0000   -0.0000    0.0000   -0.0057    0.0000
       90 O3     4f3+       0.0000   -0.0002   -0.0002    0.0045    0.0049   -0.0030   -0.0014   -0.0067   -0.0000   -0.0012
 
          Orbital           11        12        13        14        15        16        17        18        19        20    
          Energy           -0.5215   -0.5013   -0.0415    0.1729    0.1817    0.2353    0.2389    0.3266    0.3540    0.3749
          Occ. No.          2.0000    2.0000    0.0000    0.0000    0.0000    0.0000    0.0000    0.0000    0.0000    0.0000
 
        1 O1     1s         0.0035   -0.0000    0.0000   -0.2091   -0.1112    0.0000   -0.0331    0.0747   -0.0190   -0.0000
        2 O1     2s         0.0149   -0.0000    0.0000   -1.5284   -0.8808    0.0000   -0.1544    0.4478   -0.0575   -0.0000
        3 O1     3s         0.0160   -0.0000    0.0000   -0.8960   -0.4246    0.0000   -0.2185    0.5534   -0.0306   -0.0000
        4 O1     4s         0.0049    0.0000    0.0000   -0.2017   -0.0827    0.0000   -0.0593    0.1527   -0.0010   -0.0000
        5 O1     2px        0.6669    0.0000   -0.0000    0.3533    0.1400   -0.0000   -0.0562   -0.0941   -0.2025    0.0000
        6 O1     3px        0.0189    0.0000   -0.0000    0.3509    0.1996   -0.0000    0.3432    0.1369   -0.7911    0.0000
        7 O1     4px       -0.0035   -0.0000    0.0000    0.0412    0.0481   -0.0000    0.1601    0.1012   -0.3152    0.0000
        8 O1     2py        0.0014    0.0000   -0.0000    0.5906    0.9534   -0.0000   -0.1979   -0.1704   -0.2314    0.0000
        9 O1     3py       -0.0150    0.0000   -0.0000    0.7454    0.6987   -0.0000   -0.0134   -0.8396   -0.1540    0.0000
       10 O1     4py       -0.0019    0.0000   -0.0000    0.1076    0.0967    0.0000   -0.0468   -0.2048   -0.0308   -0.0000
       11 O1     2pz        0.0000   -0.6992    0.6694    0.0000    0.0000   -0.1378   -0.0000   -0.0000    0.0000   -0.1589
       12 O1     3pz       -0.0000   -0.0302    0.1679    0.0000    0.0000    0.3512    0.0000   -0.0000   -0.0000   -0.8999
       13 O1     4pz       -0.0000    0.0070    0.0265    0.0000    0.0000    0.1975    0.0000   -0.0000   -0.0000   -0.3624
       14 O1     3d2-      -0.0085   -0.0000    0.0000   -0.0642   -0.0356    0.0000   -0.0124    0.0273    0.0034    0.0000
       15 O1     4d2-      -0.0010   -0.0000    0.0000   -0.0423   -0.0225    0.0000   -0.0096    0.0191    0.0146    0.0000
       16 O1     3d1-      -0.0000    0.0243    0.0105    0.0000    0.0000    0.0091    0.0000    0.0000   -0.0000    0.0045
       17 O1     4d1-       0.0000    0.0059    0.0007    0.0000    0.0000    0.0012    0.0000    0.0000   -0.0000    0.0109
       18 O1     3d0        0.0048    0.0000   -0.0000    0.0520    0.0347   -0.0000    0.0248   -0.0479   -0.0071   -0.0000
       19 O1     4d0        0.0003    0.0000   -0.0000    0.0331    0.0244   -0.0000    0.0137   -0.0306   -0.0104   -0.0000
       20 O1     3d1+       0.0000    0.0084    0.0048   -0.0000   -0.0000    0.0032    0.0000    0.0000   -0.0000    0.0133
       21 O1     4d1+      -0.0000    0.0019    0.0003   -0.0000   -0.0000   -0.0001    0.0000   -0.0000    0.0000    0.0112
       22 O1     3d2+       0.0057    0.0000   -0.0000    0.0651    0.0391   -0.0000    0.0486   -0.1000    0.0043   -0.0000
       23 O1     4d2+      -0.0005    0.0000   -0.0000    0.0386    0.0315   -0.0000    0.0235   -0.0649   -0.0007   -0.0000
       24 O1     4f3-       0.0002   -0.0000    0.0000   -0.0056   -0.0020    0.0000    0.0018    0.0101   -0.0024    0.0000
       25 O1     4f2-       0.0000   -0.0032   -0.0002    0.0000    0.0000    0.0015    0.0000   -0.0000    0.0000   -0.0056
       26 O1     4f1-      -0.0014   -0.0000    0.0000   -0.0053   -0.0044    0.0000   -0.0019    0.0094    0.0052    0.0000
       27 O1     4f0        0.0000    0.0017    0.0015   -0.0000    0.0000   -0.0019   -0.0000    0.0000   -0.0000    0.0059
       28 O1     4f1+       0.0006    0.0000    0.0000   -0.0013   -0.0022    0.0000   -0.0014    0.0020    0.0042    0.0000
       29 O1     4f2+      -0.0000    0.0043   -0.0005   -0.0000   -0.0000   -0.0016    0.0000    0.0000    0.0000    0.0039
       30 O1     4f3+      -0.0034   -0.0000    0.0000   -0.0071   -0.0058    0.0000   -0.0018    0.0063    0.0091   -0.0000
       31 O2     1s         0.0225    0.0000   -0.0000    0.0000    0.2946   -0.0000    0.0405   -0.2295   -0.0000   -0.0000
       32 O2     2s         0.2698    0.0000   -0.0000    0.0001    2.2098   -0.0000    0.1445   -1.3581   -0.0000   -0.0000
       33 O2     3s         0.0560    0.0000   -0.0000    0.0000    1.1268   -0.0000    0.2384   -0.8780   -0.0000   -0.0000
       34 O2     4s         0.0138    0.0000   -0.0000    0.0000    0.2417   -0.0000    0.0457   -0.1545   -0.0000   -0.0000
       35 O2     2px       -0.5549   -0.0000   -0.0000    0.0000    0.6794    0.0000   -0.1925   -0.1711    0.0000    0.0000
       36 O2     3px       -0.0152   -0.0000    0.0000    0.0000    0.5261   -0.0000    0.3564   -0.5217    0.0000   -0.0000
       37 O2     4px       -0.0026   -0.0000    0.0000    0.0000    0.0822   -0.0000    0.1608   -0.0426    0.0000   -0.0000
       38 O2     2py       -0.0000    0.0000   -0.0000    1.4731   -0.0000   -0.0000    0.0000    0.0000   -0.0909    0.0000
       39 O2     3py       -0.0000    0.0000   -0.0000    1.4781   -0.0000   -0.0000    0.0000   -0.0000    0.3945    0.0000
       40 O2     4py       -0.0000   -0.0000    0.0000    0.1497   -0.0000   -0.0000    0.0000   -0.0000    0.1898   -0.0000
       41 O2     2pz       -0.0000    0.0000   -0.8781   -0.0000   -0.0000   -0.0138    0.0000    0.0000   -0.0000    0.0000
       42 O2     3pz        0.0000   -0.0000   -0.1913    0.0000    0.0000    0.3263    0.0000    0.0000   -0.0000    0.0000
       43 O2     4pz        0.0000   -0.0000   -0.0210    0.0000    0.0000    0.1892    0.0000    0.0000   -0.0000    0.0000
       44 O2     3d2-      -0.0000    0.0000   -0.0000    0.1213   -0.0000   -0.0000    0.0000   -0.0000    0.0881   -0.0000
       45 O2     4d2-      -0.0000    0.0000   -0.0000    0.0745   -0.0000   -0.0000    0.0000   -0.0000    0.0631   -0.0000
       46 O2     3d1-       0.0000   -0.0608   -0.0000   -0.0000   -0.0000   -0.0000    0.0000    0.0000    0.0000    0.1067
       47 O2     4d1-       0.0000   -0.0141   -0.0000   -0.0000   -0.0000   -0.0000    0.0000    0.0000    0.0000    0.0642
       48 O2     3d0        0.0190    0.0000   -0.0000   -0.0000   -0.0348    0.0000   -0.0673    0.1433    0.0000    0.0000
       49 O2     4d0        0.0023    0.0000    0.0000   -0.0000   -0.0282    0.0000   -0.0333    0.0679    0.0000    0.0000
       50 O2     3d1+       0.0000    0.0000    0.0009   -0.0000   -0.0000   -0.0232   -0.0000   -0.0000    0.0000   -0.0000
       51 O2     4d1+       0.0000    0.0000    0.0005   -0.0000   -0.0000   -0.0098   -0.0000   -0.0000    0.0000    0.0000
       52 O2     3d2+       0.0370    0.0000    0.0000   -0.0000   -0.0368    0.0000   -0.1081    0.1063    0.0000    0.0000
       53 O2     4d2+       0.0072   -0.0000    0.0000   -0.0000   -0.0300    0.0000   -0.0462    0.0317    0.0000    0.0000
       54 O2     4f3-      -0.0000    0.0000   -0.0000   -0.0100    0.0000    0.0000   -0.0000   -0.0000   -0.0008    0.0000
       55 O2     4f2-       0.0000   -0.0070   -0.0000    0.0000   -0.0000   -0.0000    0.0000   -0.0000    0.0000    0.0057
       56 O2     4f1-       0.0000    0.0000   -0.0000   -0.0098    0.0000    0.0000   -0.0000    0.0000   -0.0097    0.0000
       57 O2     4f0        0.0000   -0.0000   -0.0021   -0.0000   -0.0000   -0.0015   -0.0000   -0.0000   -0.0000   -0.0000
       58 O2     4f1+      -0.0009    0.0000   -0.0000   -0.0000   -0.0015    0.0000   -0.0043    0.0070    0.0000    0.0000
       59 O2     4f2+      -0.0000   -0.0000    0.0011   -0.0000   -0.0000   -0.0019   -0.0000   -0.0000    0.0000   -0.0000
       60 O2     4f3+       0.0039    0.0000   -0.0000   -0.0000   -0.0061    0.0000   -0.0092    0.0125    0.0000    0.0000
       61 O3     1s         0.0035    0.0000   -0.0000    0.2091   -0.1113   -0.0000   -0.0331    0.0747    0.0190    0.0000
       62 O3     2s         0.0149    0.0000   -0.0000    1.5283   -0.8809   -0.0000   -0.1544    0.4478    0.0575    0.0000
       63 O3     3s         0.0160    0.0000   -0.0000    0.8960   -0.4247   -0.0000   -0.2185    0.5534    0.0306    0.0000
       64 O3     4s         0.0049    0.0000   -0.0000    0.2017   -0.0827    0.0000   -0.0593    0.1527    0.0010    0.0000
       65 O3     2px        0.6670    0.0000   -0.0000   -0.3533    0.1400    0.0000   -0.0562   -0.0941    0.2025   -0.0000
       66 O3     3px        0.0189    0.0000   -0.0000   -0.3509    0.1996   -0.0000    0.3432    0.1369    0.7911   -0.0000
       67 O3     4px       -0.0035   -0.0000   -0.0000   -0.0412    0.0481   -0.0000    0.1601    0.1012    0.3152   -0.0000
       68 O3     2py       -0.0014    0.0000   -0.0000    0.5906   -0.9534   -0.0000    0.1979    0.1704   -0.2314    0.0000
       69 O3     3py        0.0150    0.0000   -0.0000    0.7453   -0.6987   -0.0000    0.0134    0.8396   -0.1540    0.0000
       70 O3     4py        0.0019    0.0000   -0.0000    0.1076   -0.0967   -0.0000    0.0468    0.2048   -0.0308    0.0000
       71 O3     2pz       -0.0000    0.6992    0.6694   -0.0000   -0.0000   -0.1378   -0.0000   -0.0000    0.0000    0.1589
       72 O3     3pz       -0.0000    0.0302    0.1679    0.0000    0.0000    0.3512    0.0000   -0.0000    0.0000    0.8999
       73 O3     4pz        0.0000   -0.0070    0.0265    0.0000    0.0000    0.1975    0.0000   -0.0000    0.0000    0.3624
       74 O3     3d2-       0.0085    0.0000   -0.0000   -0.0642    0.0356    0.0000    0.0124   -0.0273    0.0034    0.0000
       75 O3     4d2-       0.0010    0.0000   -0.0000   -0.0423    0.0225    0.0000    0.0096   -0.0191    0.0146   -0.0000
       76 O3     3d1-      -0.0000    0.0243   -0.0105   -0.0000   -0.0000   -0.0091   -0.0000   -0.0000    0.0000    0.0045
       77 O3     4d1-      -0.0000    0.0059   -0.0007   -0.0000   -0.0000   -0.0012    0.0000   -0.0000    0.0000    0.0109
       78 O3     3d0        0.0048    0.0000    0.0000   -0.0520    0.0347   -0.0000    0.0248   -0.0479    0.0071   -0.0000
       79 O3     4d0        0.0003    0.0000    0.0000   -0.0331    0.0244   -0.0000    0.0137   -0.0306    0.0104   -0.0000
       80 O3     3d1+       0.0000   -0.0084    0.0048    0.0000    0.0000    0.0032    0.0000    0.0000   -0.0000   -0.0133
       81 O3     4d1+       0.0000   -0.0019    0.0003    0.0000   -0.0000   -0.0001    0.0000    0.0000   -0.0000   -0.0112
       82 O3     3d2+       0.0057    0.0000    0.0000   -0.0651    0.0392   -0.0000    0.0486   -0.1000   -0.0043   -0.0000
       83 O3     4d2+      -0.0005   -0.0000    0.0000   -0.0386    0.0315   -0.0000    0.0235   -0.0649    0.0007   -0.0000
       84 O3     4f3-      -0.0002   -0.0000    0.0000   -0.0056    0.0020    0.0000   -0.0018   -0.0101   -0.0024   -0.0000
       85 O3     4f2-       0.0000   -0.0032    0.0002    0.0000    0.0000   -0.0015   -0.0000   -0.0000   -0.0000   -0.0056
       86 O3     4f1-       0.0014    0.0000   -0.0000   -0.0053    0.0044    0.0000    0.0019   -0.0094    0.0052   -0.0000
       87 O3     4f0        0.0000   -0.0017    0.0015    0.0000    0.0000   -0.0019   -0.0000    0.0000   -0.0000   -0.0059
       88 O3     4f1+       0.0006    0.0000    0.0000    0.0013   -0.0022    0.0000   -0.0014    0.0020   -0.0042    0.0000
       89 O3     4f2+       0.0000   -0.0043   -0.0005   -0.0000    0.0000   -0.0016   -0.0000    0.0000   -0.0000   -0.0039
       90 O3     4f3+      -0.0034   -0.0000   -0.0000    0.0071   -0.0058   -0.0000   -0.0018    0.0063   -0.0091    0.0000
 
          Orbital           21    
          Energy            0.4383
          Occ. No.          0.0000
 
        1 O1     1s        -0.0254
        2 O1     2s        -0.1440
        3 O1     3s         0.2317
        4 O1     4s         0.1314
        5 O1     2px        0.2533
        6 O1     3px        0.5682
        7 O1     4px        0.1471
        8 O1     2py       -0.0384
        9 O1     3py        0.4444
       10 O1     4py        0.1297
       11 O1     2pz        0.0000
       12 O1     3pz       -0.0000
       13 O1     4pz       -0.0000
       14 O1     3d2-      -0.0987
       15 O1     4d2-      -0.0652
       16 O1     3d1-      -0.0000
       17 O1     4d1-       0.0000
       18 O1     3d0        0.0449
       19 O1     4d0        0.0283
       20 O1     3d1+      -0.0000
       21 O1     4d1+      -0.0000
       22 O1     3d2+       0.0497
       23 O1     4d2+       0.0279
       24 O1     4f3-       0.0007
       25 O1     4f2-      -0.0000
       26 O1     4f1-      -0.0043
       27 O1     4f0        0.0000
       28 O1     4f1+      -0.0034
       29 O1     4f2+       0.0000
       30 O1     4f3+      -0.0099
       31 O2     1s         0.0935
       32 O2     2s         0.5245
       33 O2     3s         0.8042
       34 O2     4s         0.2395
       35 O2     2px       -0.4023
       36 O2     3px       -0.8373
       37 O2     4px       -0.2845
       38 O2     2py       -0.0000
       39 O2     3py        0.0000
       40 O2     4py        0.0000
       41 O2     2pz       -0.0000
       42 O2     3pz        0.0000
       43 O2     4pz        0.0000
       44 O2     3d2-       0.0000
       45 O2     4d2-       0.0000
       46 O2     3d1-       0.0000
       47 O2     4d1-       0.0000
       48 O2     3d0       -0.0304
       49 O2     4d0       -0.0041
       50 O2     3d1+       0.0000
       51 O2     4d1+       0.0000
       52 O2     3d2+      -0.0689
       53 O2     4d2+      -0.0321
       54 O2     4f3-      -0.0000
       55 O2     4f2-       0.0000
       56 O2     4f1-      -0.0000
       57 O2     4f0        0.0000
       58 O2     4f1+       0.0018
       59 O2     4f2+       0.0000
       60 O2     4f3+       0.0000
       61 O3     1s        -0.0254
       62 O3     2s        -0.1440
       63 O3     3s         0.2317
       64 O3     4s         0.1314
       65 O3     2px        0.2533
       66 O3     3px        0.5682
       67 O3     4px        0.1471
       68 O3     2py        0.0384
       69 O3     3py       -0.4444
       70 O3     4py       -0.1297
       71 O3     2pz        0.0000
       72 O3     3pz       -0.0000
       73 O3     4pz       -0.0000
       74 O3     3d2-       0.0987
       75 O3     4d2-       0.0652
       76 O3     3d1-      -0.0000
       77 O3     4d1-       0.0000
       78 O3     3d0        0.0449
       79 O3     4d0        0.0283
       80 O3     3d1+       0.0000
       81 O3     4d1+       0.0000
       82 O3     3d2+       0.0497
       83 O3     4d2+       0.0279
       84 O3     4f3-      -0.0007
       85 O3     4f2-       0.0000
       86 O3     4f1-       0.0043
       87 O3     4f0        0.0000
       88 O3     4f1+      -0.0034
       89 O3     4f2+       0.0000
       90 O3     4f3+      -0.0099
--
 
 
++    Molecular charges:
      ------------------
 
      Mulliken charges per centre and basis function type
      ---------------------------------------------------
 
                O1      O2      O3    
      1s       1.9978  1.9985  1.9978
      2s       1.9496  1.6857  1.9496
      2px      1.8854  1.6466  1.8854
      2pz      1.3889  1.1325  1.3889
      2py      0.9175  1.0330  0.9175
      3s      -0.0033 -0.0285 -0.0033
      3px     -0.0134 -0.0250 -0.0134
      3pz     -0.0086 -0.0145 -0.0086
      3py      0.0025  0.0049  0.0025
      4s       0.0041  0.0020  0.0041
      3d2+     0.0177  0.0352  0.0177
      3d1+     0.0019  0.0056  0.0019
      3d0      0.0058  0.0073  0.0058
      3d1-     0.0133  0.0510  0.0133
      3d2-     0.0118  0.0406  0.0118
      4px      0.0005  0.0013  0.0005
      4pz      0.0012  0.0018  0.0012
      4py      0.0028  0.0035  0.0028
      4d2+     0.0012  0.0052  0.0012
      4d1+     0.0004  0.0007  0.0004
      4d0      0.0001 -0.0002  0.0001
      4d1-     0.0018  0.0129  0.0018
      4d2-     0.0004  0.0055  0.0004
      4f3+     0.0024  0.0029  0.0024
      4f2+     0.0012  0.0021  0.0012
      4f1+     0.0002  0.0004  0.0002
      4f0      0.0008  0.0016  0.0008
      4f1-     0.0011  0.0013  0.0011
      4f2-     0.0009  0.0027  0.0009
      4f3-     0.0026  0.0062  0.0026
      Total    8.1885  7.6229  8.1885
 
      N-E     -0.1885  0.3771 -0.1885
 
      Total electronic charge=   24.000000
 
      Total            charge=   -0.000000
--
 
 
  Input file to MOLDEN was generated!
 
 
++    Static properties:
      ------------------
 
 
      LoProp Charges per center
 

                   O1       O2       O3    
      Nuclear      8.0000   8.0000   8.0000
      Electronic  -8.1986  -7.6028  -8.1986
 
      Total       -0.1986   0.3972  -0.1986
--
 
 
++    Natural Bond Order analysis
      ---------------------------
      Based on LoProp computed density
      -------------------------------------------------------------------------------------
      Atom A       Atom B       Bond Order | Atom A       Atom B       Bond Order
        O1           O2             1.996  |   O2           O3             1.996
      -------------------------------------------------------------------------------------
      NBO located     11.999 core electrons.
      NBO located      3.942 lone pair electrons.
      NBO located      7.985 electrons involved in    2 bonds.
      The remaining    0.074 electrons are to be considered as diffuse
--
 
 
++    Molecular properties:
      ---------------------
 
      Charge (e):
                      =   -0.0000
      Dipole Moment (Debye):
      Origin of the operator (Ang)=    0.0000    0.0000    0.0000
                   X= -4.0483E-01               Y= -4.9020E-06               Z=  9.9142E-14           Total=  4.0483E-01
      Quadrupole Moment (Debye*Ang):
      Origin of the operator (Ang)=    0.3071    0.0000    0.0000
                  XX= -1.6163E+01              XY= -7.3993E-07              XZ= -2.3335E-14              YY= -1.7074E+01
                  YZ=  2.7065E-13              ZZ= -1.4920E+01
      In traceless form (Debye*Ang)
                  XX= -1.6616E-01              XY= -1.1099E-06              XZ= -3.5002E-14              YY= -1.5328E+00
                  YZ=  4.0597E-13              ZZ=  1.6990E+00
--
 
 
  Input file to MOLDEN was generated!
 
 ###############################################################################
 ###############################################################################
 ###                                                                         ###
 ###                                                                         ###
 ###    RunFile label nBas                                                   ###
 ###    was used       78 times                                              ###
 ###                                                                         ###
 ###                                                                         ###
 ###############################################################################
 ###############################################################################
--- Stop Module: scf at Mon May 12 23:17:05 2025 /rc=_RC_ALL_IS_WELL_ ---
*** files: ozone_137.75.LprOrb ozone_137.75.LoProp.molden ozone_137.75.scf.molden ozone_137.75.ScfOrb ozone_137.75.scf.h5 xmldump
    saved to directory /lustre/isaac/scratch/gjones39/scpfiles/ANO-RCC-VTZP/ozone_137.75
--- Module scf spent 2 seconds ---

>>> COPY /lustre/isaac/scratch/gjones39/scpfiles/ANO-RCC-VTZP/ozone_137.75/3252786/ozone_137.75.scf.h5 /lustre/isaac/scratch/gjones39/scpfiles/ANO-RCC-VTZP/ozone_137.75/

*** symbolic link created: INPORB -> ozone_137.75.ScfOrb
--- Start Module: rasscf at Mon May 12 23:17:05 2025 ---
 
()()()()()()()()()()()()()()()()()()()()()()()()()()()()()()()()()()()()()()()()()()()()()()()()()()

                                              &RASSCF

                                   only a single process is used
                       available to each process: 62 GB of memory, 1 thread?
()()()()()()()()()()()()()()()()()()()()()()()()()()()()()()()()()()()()()()()()()()()()()()()()()()
 
 
      Header of the ONEINT file:
      --------------------------
      
      Integrals generated by seward 4.2.0  , Mon May 12 23:16:54 2025
 
 
      OrdInt status: non-squared
 
 
      Cartesian coordinates in Angstrom:
      -----------------------------------------------------
      No.  Label        X            Y            Z        
      -----------------------------------------------------
       1   O1         0.46059600   1.19211400   0.00000000
       2   O2         0.00000000   0.00000000   0.00000000
       3   O3         0.46059600  -1.19211400   0.00000000
      -----------------------------------------------------
      Nuclear repulsion energy =   67.20526798
 
++    Wave function specifications:
      -----------------------------
 
      Number of closed shell electrons          12
      Number of electrons in active shells      12
      Max number of holes in RAS1 space          0
      Max nr of electrons in RAS3 space          0
      Number of inactive orbitals                6
      Number of active orbitals                  9
      Number of secondary orbitals              75
      Spin quantum number                      0.0
      State symmetry                             1
--
 
++    Orbital specifications:
      -----------------------
 
      Symmetry species                           1
                                                 a
      Frozen orbitals                            0
      Inactive orbitals                          6
      Active orbitals                            9
      RAS1 orbitals                              0
      RAS2 orbitals                              9
      RAS3 orbitals                              0
      Secondary orbitals                        75
      Deleted orbitals                           0
      Number of basis functions                 90
--
 
++    CI expansion specifications:
      ----------------------------
 
      Number of CSFs                          2520
      Number of determinants                  3570
      Number of root(s) required                 3
      Root chosen for geometry opt.              3
      CI roots used                              1     2     3
      weights                                0.333 0.333 0.333
      highest root included in the CI            3
      max. size of the explicit Hamiltonian    500
--
 
++    Optimization specifications:
      ----------------------------
 
      RASSCF algorithm: Conventional
      Maximum number of macro iterations       200
      Maximum number of SX iterations          100
      Threshold for RASSCF energy            0.100E-07
      Threshold for max MO rotation          0.100E+00
      Threshold for max BLB element          0.100E-03
      Level shift parameter                  0.500E+00
      Make Quasi-Newton update
--
 
      The MO-coefficients are taken from the file:
      /lustre/isaac/scratch/gjones39/scpfiles/ANO-RCC-VTZP/ozone_137.50/ozone_137.50.RasOrb                                           
      Title: RASSCF average (pseudo-natural) orbitals                                      
 
      Total molecular charge    0.00
 
      ************************************************************************************************************************
      *                                                                                                                      *
      *                                            Wave function control section                                             *
      *                                                                                                                      *
      ************************************************************************************************************************
 
 
                                         RASSCF iterations: Energy and convergence statistics
                                         ----------------------------------------------------
 
      Iter CI   SX   CI       RASSCF       Energy    max ROT     max BLB   max BLB  Level Ln srch  Step   QN   Walltime
          iter iter root      energy       change     param      element    value   shift minimum  type update hh:mm:ss
 Nr of preliminary CI iterations:   6
        1   1    6    0  -224.65179880    0.00E+00   0.30E-03    4  14 1  0.10E-02*  0.00   0.00    SX    NO    0:00:01
        2   1    6    0  -224.65180102   -0.22E-05* -0.16E-03    4  14 1  0.18E-03*  0.00   0.00    SX    NO    0:00:00
        3   1    5    0  -224.65180110   -0.80E-07* -0.95E-04    6  14 1 -0.51E-04   0.00   0.00    SX    NO    0:00:00
        4   7    6    0  -224.65180326   -0.22E-05*  0.16E-03    4  14 1  0.16E-03*  0.00   0.00    SX    NO    0:00:00
        5   3    5    0  -224.65180337   -0.11E-06* -0.56E-04    6  22 1  0.64E-04   0.00   1.28    QN   YES    0:00:00
        6   3    5    0  -224.65180339   -0.20E-07* -0.33E-04    6  22 1  0.14E-04   0.00   0.98    QN   YES    0:00:00
        7   1    4    0  -224.65180339   -0.17E-08  -0.95E-04    6  22 1  0.23E-04   0.00   1.36    QN   YES    0:00:00
      Convergence after  7 iterations
 
  Dmat in MO in SXCTL bf call to SXHAM                                                                                    
  mat. size =     9x    9
 
        1.9608467368931830
       -0.0000000000030508      1.9493727983938822
        0.0000000000718534     -0.0000000000000001      1.9737189102194201
        0.0006596194088968      0.0000000000051255     -0.0000000031010486      1.6187853513792732
        0.0000000000094077     -0.0004056147946175     -0.0000000000000088     -0.0000000000001648      1.6916052364172769
       -0.0000000000000014     -0.0000000002915058     -0.0000000000048225      0.0000000000000001     -0.0000000009718958
        1.8090149752708302
        0.0000000000812368      0.0000000000000079      0.0002382466726616      0.0000000014672516     -0.0000000000000079
       -0.0000000000100122      0.8824028599728004
        0.0014168700804396      0.0000000000024525     -0.0000000002735499      0.0021282273853793     -0.0000000000007609
        0.0000000000000062     -0.0000000023051237      0.0702532724843004
        0.0000000000030948     -0.0000282098999749      0.0000000000000031     -0.0000000000000071     -0.0021538485664328
        0.0000000001945017      0.0000000000000081      0.0000000000040680      0.0439998589690344
        8   3    4    0  -224.65180339    0.14E-08  -0.95E-04    6  22 1 -0.30E-04   0.00   1.36    QN   YES    0:00:00
 
      ************************************************************************************************************************
                                                      Wave function printout:
                       occupation of active orbitals, and spin coupling of open shells (u,d: Spin up or down)
      ************************************************************************************************************************
 
      Note: transformation to natural orbitals
      has been made, which may change the order of the CSFs.
 
      printout of CI-coefficients larger than  0.05 for root  1
      energy=    -224.710542
      conf/sym  111111111     Coeff  Weight
             1  222222000  -0.90478 0.81863
             4  222220200   0.28893 0.08348
            10  2222udud0   0.06035 0.00364
            12  2222uudd0   0.06367 0.00405
            72  222u2du0d  -0.05705 0.00325
            74  222u2ud0d  -0.05839 0.00341
           126  22u222d00  -0.06528 0.00426
           205  2u222dud0   0.07214 0.00520
           207  2u222udd0   0.06937 0.00481
           551  220222200   0.07711 0.00595
           611  2ud222u0d   0.06309 0.00398
           652  u2d222ud0  -0.06521 0.00425
           731  202222002   0.05928 0.00351
           764  ud22220ud  -0.06883 0.00474
           805  022222020   0.06792 0.00461
           992  2uu222d0d   0.06545 0.00428
          1031  u2u222dd0  -0.05495 0.00302
 
      printout of CI-coefficients larger than  0.05 for root  2
      energy=    -224.637938
      conf/sym  111111111     Coeff  Weight
             5  2222ud200   0.32813 0.10767
            11  222202ud0   0.05574 0.00311
            51  222u22d00  -0.90108 0.81194
           202  2u222d200  -0.07129 0.00508
           208  2u22u2dd0   0.06213 0.00386
           897  2u2u2d2d0   0.05298 0.00281
          1285  2udu2220d   0.05220 0.00272
          1381  202u22d02   0.06101 0.00372
          1406  ud2u22dud  -0.07387 0.00546
          1442  022u22d20   0.07502 0.00563
          1485  2uud2220d   0.05988 0.00359
          1521  u2ud222d0  -0.05541 0.00307
 
      printout of CI-coefficients larger than  0.05 for root  3
      energy=    -224.606931
      conf/sym  111111111     Coeff  Weight
             3  2222u2d00  -0.84364 0.71173
            52  222u2d200   0.45876 0.21046
           277  u2222d200  -0.05859 0.00343
           361  222022u0d  -0.05616 0.00315
           654  u2d2u22d0  -0.05480 0.00300
           733  2022u2d02   0.05772 0.00333
           766  ud22u2dud  -0.07071 0.00500
           807  0222u2d20   0.07208 0.00520
           994  2uu2d220d   0.05436 0.00296
          1033  u2u2d22d0  -0.05304 0.00281
          1407  ud2u2d2ud   0.05030 0.00253
 
      Natural orbitals and occupation numbers for root  1
      sym 1:   1.954211   1.942892   1.960098   1.988918   1.990416   1.787308   0.253895   0.074287   0.047976
 
      Natural orbitals and occupation numbers for root  2
      sym 1:   1.963817   1.948168   1.983559   1.130552   1.850836   1.870468   1.142970   0.068572   0.041059
 
      Natural orbitals and occupation numbers for root  3
      sym 1:   1.957580   1.954059   1.983102   1.744871   1.237950   1.769269   1.244741   0.066850   0.041577
 
      ************************************************************************************************************************
      *                                                                                                                      *
      *                                                    Final results                                                     *
      *                                                                                                                      *
      ************************************************************************************************************************
 
 
++    Wave function specifications:
      -----------------------------
 
      Number of closed shell electrons          12
      Number of electrons in active shells      12
      Max number of holes in RAS1 space          0
      Max nr of electrons in RAS3 space          0
      Number of inactive orbitals                6
      Number of active orbitals                  9
      Number of secondary orbitals              75
      Spin quantum number                      0.0
      State symmetry                             1
--
 
++    Orbital specifications:
      -----------------------
 
      Symmetry species                           1
                                                 a
      Frozen orbitals                            0
      Inactive orbitals                          6
      Active orbitals                            9
      RAS1 orbitals                              0
      RAS2 orbitals                              9
      RAS3 orbitals                              0
      Secondary orbitals                        75
      Deleted orbitals                           0
      Number of basis functions                 90
--
 
++    CI expansion specifications:
      ----------------------------
 
      Number of CSFs                          2520
      Number of determinants                  3570
      Number of root(s) required                 3
      CI roots used                              1     2     3
      weights                                0.333 0.333 0.333
      highest root included in the CI            3
      Root passed to geometry opt.               3
--
 
++    Final optimization conditions:
      ------------------------------
 
      Average CI energy                            -224.65180339
      RASSCF energy for state  3                   -224.60693086
      Super-CI energy                                -0.00000000
      RASSCF energy change                            0.00000000
      Max change in MO coefficients               0.889E-04
      Max non-diagonal density matrix element    -0.945E-04
      Maximum BLB matrix element                 -0.302E-04
      (orbital pair   6,  22 in symmetry   1)
      Norm of electronic gradient            0.753E-01
--
 
 
      Final state energy(ies):
      ------------------------
 
::    RASSCF root number  1 Total energy:   -224.71054171
::    RASSCF root number  2 Total energy:   -224.63793761
::    RASSCF root number  3 Total energy:   -224.60693086
 
++    Molecular orbitals:
      -------------------
 
      Pseudonatural active orbitals and approximate occupation numbers
 
 
 
 
      Molecular orbitals for symmetry species 1: a  
 
 
      Orbital                1         2         3         4         5         6         7         8         9        10
      Energy          -20.7893  -20.7054  -20.7053   -1.5193   -1.3154   -1.0308    0.0000    0.0000    0.0000    0.0000
      Occ. No.          2.0000    2.0000    2.0000    2.0000    2.0000    2.0000    1.9608    1.9494    1.9737    1.6188
 
    1 O1     1s         0.0041   -0.7064    0.7064   -0.0064    0.0001    0.0119   -0.0147   -0.0251   -0.0000   -0.0005
    2 O1     2s         0.0033    0.0047   -0.0050    0.4887   -0.7015    0.5410   -0.1125   -0.1262    0.0000   -0.0515
    3 O1     3s         0.0018    0.0035   -0.0036    0.0014   -0.0065    0.0199   -0.0230   -0.0552   -0.0000    0.0119
    4 O1     4s         0.0003    0.0006   -0.0006    0.0013   -0.0008    0.0022   -0.0038   -0.0110   -0.0000    0.0044
    5 O1     2px       -0.0006   -0.0008    0.0009   -0.0501   -0.0377    0.1015    0.1018   -0.1955   -0.0000    0.7082
    6 O1     3px       -0.0006   -0.0009    0.0007    0.0154    0.0033   -0.0207   -0.0069    0.0237   -0.0000    0.0140
    7 O1     4px       -0.0001    0.0003   -0.0005    0.0023    0.0008   -0.0005   -0.0011    0.0002    0.0000   -0.0049
    8 O1     2py       -0.0019   -0.0017    0.0021    0.0369   -0.0868    0.0588   -0.3458   -0.3962   -0.0000    0.0363
    9 O1     3py       -0.0011   -0.0020    0.0024   -0.0007    0.0027   -0.0170    0.0352    0.0507    0.0000   -0.0125
   10 O1     4py        0.0005    0.0013   -0.0014   -0.0014   -0.0015    0.0029    0.0036    0.0041    0.0000   -0.0017
   11 O1     2pz        0.0000   -0.0000    0.0000   -0.0000    0.0000   -0.0000   -0.0000    0.0000    0.3515    0.0000
   12 O1     3pz       -0.0000   -0.0000    0.0000    0.0000   -0.0000    0.0000    0.0000   -0.0000   -0.0248   -0.0000
   13 O1     4pz       -0.0000    0.0000   -0.0000    0.0000   -0.0000    0.0000    0.0000   -0.0000   -0.0046   -0.0000
   14 O1     3d2-       0.0003    0.0006   -0.0006    0.0108   -0.0015   -0.0128   -0.0016    0.0220    0.0000   -0.0095
   15 O1     4d2-       0.0001    0.0004   -0.0004    0.0009   -0.0005   -0.0010   -0.0009    0.0016    0.0000   -0.0008
   16 O1     3d1-      -0.0000    0.0000   -0.0000    0.0000   -0.0000    0.0000    0.0000   -0.0000   -0.0254   -0.0000
   17 O1     4d1-      -0.0000   -0.0000    0.0000    0.0000   -0.0000    0.0000    0.0000   -0.0000   -0.0034   -0.0000
   18 O1     3d0       -0.0003   -0.0005    0.0006   -0.0052    0.0017    0.0047   -0.0126   -0.0169   -0.0000    0.0029
   19 O1     4d0       -0.0002   -0.0003    0.0003   -0.0004    0.0006    0.0001   -0.0009   -0.0011   -0.0000   -0.0005
   20 O1     3d1+      -0.0000    0.0000   -0.0000    0.0000    0.0000    0.0000    0.0000   -0.0000   -0.0085   -0.0000
   21 O1     4d1+      -0.0000    0.0000   -0.0000   -0.0000    0.0000    0.0000    0.0000   -0.0000   -0.0011   -0.0000
   22 O1     3d2+      -0.0005   -0.0007    0.0008   -0.0032    0.0018    0.0023   -0.0294   -0.0210   -0.0000    0.0011
   23 O1     4d2+      -0.0003   -0.0004    0.0005   -0.0008    0.0006    0.0002   -0.0031   -0.0016   -0.0000   -0.0011
   24 O1     4f3-       0.0001    0.0001   -0.0001   -0.0000   -0.0009    0.0012    0.0071    0.0029    0.0000    0.0006
   25 O1     4f2-       0.0000   -0.0000    0.0000   -0.0000   -0.0000   -0.0000   -0.0000    0.0000    0.0034    0.0000
   26 O1     4f1-       0.0001    0.0001   -0.0001    0.0020   -0.0013   -0.0009    0.0039    0.0048    0.0000   -0.0011
   27 O1     4f0       -0.0000   -0.0000   -0.0000    0.0000   -0.0000    0.0000    0.0000   -0.0000   -0.0043   -0.0000
   28 O1     4f1+       0.0000    0.0000   -0.0001    0.0012   -0.0004   -0.0010    0.0001    0.0019    0.0000   -0.0009
   29 O1     4f2+      -0.0000   -0.0000    0.0000    0.0000   -0.0000    0.0000    0.0000   -0.0000   -0.0048   -0.0000
   30 O1     4f3+       0.0000    0.0002   -0.0001    0.0034   -0.0015   -0.0030    0.0011    0.0068    0.0000   -0.0028
   31 O2     1s         0.9991   -0.0000   -0.0035   -0.0216    0.0000   -0.0189   -0.0207   -0.0000   -0.0000    0.0294
   32 O2     2s        -0.0062    0.0000    0.0104    0.5062   -0.0000   -0.7414    0.2494    0.0000   -0.0000    0.3040
   33 O2     3s        -0.0046    0.0000    0.0058   -0.0429    0.0000   -0.0367   -0.0531   -0.0000   -0.0000    0.0795
   34 O2     4s        -0.0007    0.0000    0.0009   -0.0079    0.0000   -0.0073   -0.0111   -0.0000   -0.0000    0.0175
   35 O2     2px       -0.0010    0.0000    0.0030   -0.2152    0.0000    0.3509    0.6436    0.0000    0.0000   -0.3885
   36 O2     3px       -0.0014    0.0000    0.0016   -0.0126    0.0000   -0.0246   -0.0588   -0.0000   -0.0000   -0.0344
   37 O2     4px        0.0016   -0.0000   -0.0005    0.0011    0.0000   -0.0018   -0.0103   -0.0000   -0.0000   -0.0042
   38 O2     2py       -0.0000   -0.0059    0.0000    0.0000   -0.0483   -0.0000   -0.0000    0.6059    0.0000   -0.0000
   39 O2     3py       -0.0000   -0.0036    0.0000   -0.0000    0.0350   -0.0000    0.0000   -0.0777    0.0000    0.0000
   40 O2     4py        0.0000    0.0010   -0.0000   -0.0000   -0.0055   -0.0000    0.0000   -0.0042    0.0000    0.0000
   41 O2     2pz        0.0000   -0.0000    0.0000   -0.0000   -0.0000   -0.0000   -0.0000    0.0000    0.7256    0.0000
   42 O2     3pz       -0.0000    0.0000   -0.0000    0.0000   -0.0000   -0.0000    0.0000    0.0000   -0.0503   -0.0000
   43 O2     4pz       -0.0000    0.0000    0.0000    0.0000    0.0000    0.0000    0.0000    0.0000   -0.0134   -0.0000
   44 O2     3d2-      -0.0000   -0.0011    0.0000    0.0000   -0.0158   -0.0000   -0.0000    0.0387    0.0000   -0.0000
   45 O2     4d2-      -0.0000   -0.0005    0.0000    0.0000   -0.0014    0.0000   -0.0000    0.0032    0.0000    0.0000
   46 O2     3d1-       0.0000    0.0000    0.0000   -0.0000    0.0000   -0.0000    0.0000    0.0000    0.0000   -0.0000
   47 O2     4d1-       0.0000    0.0000    0.0000    0.0000    0.0000   -0.0000   -0.0000    0.0000    0.0000   -0.0000
   48 O2     3d0        0.0008   -0.0000   -0.0010   -0.0064    0.0000   -0.0100   -0.0206   -0.0000   -0.0000    0.0190
   49 O2     4d0        0.0005   -0.0000   -0.0005    0.0010    0.0000   -0.0009   -0.0010    0.0000   -0.0000    0.0022
   50 O2     3d1+       0.0000    0.0000   -0.0000   -0.0000   -0.0000   -0.0000   -0.0000   -0.0000    0.0244    0.0000
   51 O2     4d1+      -0.0000   -0.0000    0.0000   -0.0000   -0.0000   -0.0000   -0.0000    0.0000    0.0027    0.0000
   52 O2     3d2+       0.0008   -0.0000   -0.0012   -0.0200    0.0000    0.0030    0.0065    0.0000   -0.0000    0.0382
   53 O2     4d2+       0.0005   -0.0000   -0.0006   -0.0014    0.0000    0.0008    0.0008    0.0000   -0.0000    0.0061
   54 O2     4f3-       0.0000    0.0001   -0.0000   -0.0000    0.0017   -0.0000    0.0000   -0.0064   -0.0000    0.0000
   55 O2     4f2-      -0.0000    0.0000    0.0000    0.0000    0.0000    0.0000    0.0000    0.0000    0.0000   -0.0000
   56 O2     4f1-       0.0000    0.0001   -0.0000   -0.0000    0.0035    0.0000    0.0000   -0.0083    0.0000   -0.0000
   57 O2     4f0       -0.0000    0.0000   -0.0000    0.0000    0.0000    0.0000    0.0000   -0.0000   -0.0075   -0.0000
   58 O2     4f1+       0.0001   -0.0000   -0.0001   -0.0010    0.0000   -0.0014   -0.0043   -0.0000   -0.0000    0.0005
   59 O2     4f2+      -0.0000   -0.0000   -0.0000    0.0000   -0.0000   -0.0000    0.0000   -0.0000   -0.0068   -0.0000
   60 O2     4f3+       0.0002   -0.0000   -0.0002   -0.0046   -0.0000   -0.0026   -0.0101   -0.0000   -0.0000    0.0037
   61 O3     1s         0.0041    0.7064    0.7064   -0.0064   -0.0001    0.0119   -0.0147    0.0251   -0.0000   -0.0005
   62 O3     2s         0.0033   -0.0047   -0.0050    0.4887    0.7015    0.5410   -0.1125    0.1262    0.0000   -0.0515
   63 O3     3s         0.0018   -0.0035   -0.0036    0.0014    0.0065    0.0199   -0.0230    0.0552   -0.0000    0.0119
   64 O3     4s         0.0003   -0.0006   -0.0006    0.0013    0.0008    0.0022   -0.0038    0.0110   -0.0000    0.0044
   65 O3     2px       -0.0006    0.0008    0.0009   -0.0501    0.0377    0.1015    0.1018    0.1955   -0.0000    0.7082
   66 O3     3px       -0.0006    0.0009    0.0007    0.0154   -0.0033   -0.0207   -0.0069   -0.0237   -0.0000    0.0140
   67 O3     4px       -0.0001   -0.0003   -0.0005    0.0023   -0.0008   -0.0005   -0.0011   -0.0002    0.0000   -0.0049
   68 O3     2py        0.0019   -0.0017   -0.0021   -0.0369   -0.0868   -0.0588    0.3458   -0.3962    0.0000   -0.0363
   69 O3     3py        0.0011   -0.0020   -0.0024    0.0007    0.0027    0.0170   -0.0352    0.0507   -0.0000    0.0125
   70 O3     4py       -0.0005    0.0013    0.0014    0.0014   -0.0015   -0.0029   -0.0036    0.0041   -0.0000    0.0017
   71 O3     2pz        0.0000    0.0000    0.0000   -0.0000   -0.0000   -0.0000   -0.0000   -0.0000    0.3515    0.0000
   72 O3     3pz       -0.0000    0.0000    0.0000    0.0000    0.0000    0.0000    0.0000    0.0000   -0.0248   -0.0000
   73 O3     4pz       -0.0000   -0.0000   -0.0000    0.0000    0.0000    0.0000    0.0000    0.0000   -0.0046   -0.0000
   74 O3     3d2-      -0.0003    0.0006    0.0006   -0.0108   -0.0015    0.0128    0.0016    0.0220   -0.0000    0.0095
   75 O3     4d2-      -0.0001    0.0004    0.0004   -0.0009   -0.0005    0.0010    0.0009    0.0016   -0.0000    0.0008
   76 O3     3d1-       0.0000    0.0000    0.0000   -0.0000   -0.0000   -0.0000   -0.0000   -0.0000    0.0254    0.0000
   77 O3     4d1-       0.0000   -0.0000   -0.0000   -0.0000   -0.0000   -0.0000   -0.0000   -0.0000    0.0034    0.0000
   78 O3     3d0       -0.0003    0.0005    0.0006   -0.0052   -0.0017    0.0047   -0.0126    0.0169   -0.0000    0.0029
   79 O3     4d0       -0.0002    0.0003    0.0003   -0.0004   -0.0006    0.0001   -0.0009    0.0011   -0.0000   -0.0005
   80 O3     3d1+      -0.0000   -0.0000   -0.0000    0.0000   -0.0000    0.0000    0.0000    0.0000   -0.0085   -0.0000
   81 O3     4d1+      -0.0000   -0.0000   -0.0000   -0.0000   -0.0000    0.0000    0.0000    0.0000   -0.0011   -0.0000
   82 O3     3d2+      -0.0005    0.0007    0.0008   -0.0032   -0.0018    0.0023   -0.0294    0.0210   -0.0000    0.0011
   83 O3     4d2+      -0.0003    0.0004    0.0005   -0.0008   -0.0006    0.0002   -0.0031    0.0016   -0.0000   -0.0011
   84 O3     4f3-      -0.0001    0.0001    0.0001    0.0000   -0.0009   -0.0012   -0.0071    0.0029   -0.0000   -0.0006
   85 O3     4f2-      -0.0000   -0.0000   -0.0000    0.0000   -0.0000    0.0000    0.0000    0.0000   -0.0034   -0.0000
   86 O3     4f1-      -0.0001    0.0001    0.0001   -0.0020   -0.0013    0.0009   -0.0039    0.0048   -0.0000    0.0011
   87 O3     4f0       -0.0000    0.0000   -0.0000    0.0000    0.0000    0.0000    0.0000    0.0000   -0.0043   -0.0000
   88 O3     4f1+       0.0000   -0.0000   -0.0001    0.0012    0.0004   -0.0010    0.0001   -0.0019    0.0000   -0.0009
   89 O3     4f2+      -0.0000    0.0000   -0.0000    0.0000    0.0000    0.0000    0.0000    0.0000   -0.0048   -0.0000
   90 O3     4f3+       0.0000   -0.0002   -0.0001    0.0034    0.0015   -0.0030    0.0011   -0.0068    0.0000   -0.0028
 
 
      Orbital               11        12        13        14        15        16        17        18        19        20
      Energy            0.0000    0.0000    0.0000    0.0000    0.0000    0.1819    0.2204    0.2367    0.2899    0.3599
      Occ. No.          1.6916    1.8090    0.8824    0.0702    0.0440    0.0000    0.0000    0.0000    0.0000    0.0000
 
    1 O1     1s         0.0020   -0.0000    0.0000   -0.0239   -0.0455   -0.2092   -0.1138    0.0000    0.0870   -0.0084
    2 O1     2s        -0.0046   -0.0000    0.0000   -0.3108   -0.4542   -1.5063   -0.7987    0.0000    0.6175   -0.0060
    3 O1     3s         0.0046   -0.0000    0.0000   -0.0486   -0.0963   -0.9163   -0.5159    0.0000    0.4501    0.0263
    4 O1     4s         0.0013   -0.0000    0.0000   -0.0050   -0.0151   -0.2068   -0.1125    0.0000    0.1031    0.0115
    5 O1     2px       -0.6338    0.0000   -0.0000    0.0578    0.3128    0.3108    0.0851   -0.0000   -0.1481   -0.1886
    6 O1     3px       -0.0002    0.0000   -0.0000    0.0306   -0.0755    0.3682    0.3921   -0.0000    0.1937   -0.8477
    7 O1     4px        0.0065   -0.0000    0.0000   -0.0027    0.0107    0.0472    0.1412   -0.0000    0.1435   -0.3357
    8 O1     2py        0.3297   -0.0000   -0.0000    0.6883    0.5961    0.5083    0.5352   -0.0000   -0.5568   -0.1634
    9 O1     3py        0.0008    0.0000    0.0000   -0.0750   -0.0227    0.7544    0.6262   -0.0000   -0.9646   -0.1512
   10 O1     4py       -0.0035    0.0000    0.0000   -0.0069   -0.0139    0.1133    0.0699    0.0000   -0.2305   -0.0250
   11 O1     2pz       -0.0000   -0.7043    0.6524    0.0000    0.0000   -0.0000    0.0000   -0.0463   -0.0000    0.0000
   12 O1     3pz        0.0000    0.0003    0.0127   -0.0000    0.0000   -0.0000    0.0000    0.4057    0.0000    0.0000
   13 O1     4pz        0.0000    0.0085   -0.0035    0.0000   -0.0000   -0.0000    0.0000    0.2099    0.0000    0.0000
   14 O1     3d2-       0.0109   -0.0000    0.0000   -0.0109    0.0089   -0.0769   -0.0435    0.0000    0.0360    0.0174
   15 O1     4d2-       0.0020   -0.0000   -0.0000   -0.0018   -0.0007   -0.0479   -0.0292    0.0000    0.0228    0.0211
   16 O1     3d1-       0.0000    0.0169    0.0055   -0.0000   -0.0000    0.0000    0.0000    0.0055    0.0000   -0.0000
   17 O1     4d1-       0.0000    0.0028    0.0009    0.0000   -0.0000    0.0000   -0.0000   -0.0014    0.0000   -0.0000
   18 O1     3d0        0.0031   -0.0000    0.0000    0.0104    0.0074    0.0595    0.0525   -0.0000   -0.0453   -0.0177
   19 O1     4d0        0.0006   -0.0000    0.0000    0.0026    0.0055    0.0363    0.0334   -0.0000   -0.0307   -0.0154
   20 O1     3d1+       0.0000    0.0052    0.0028   -0.0000   -0.0000    0.0000    0.0000    0.0033   -0.0000   -0.0000
   21 O1     4d1+       0.0000    0.0006    0.0003    0.0000   -0.0000    0.0000    0.0000   -0.0000   -0.0000   -0.0000
   22 O1     3d2+       0.0140   -0.0000   -0.0000    0.0194    0.0205    0.0723    0.0781   -0.0000   -0.0716   -0.0042
   23 O1     4d2+       0.0023   -0.0000    0.0000    0.0074    0.0102    0.0421    0.0489   -0.0000   -0.0521   -0.0043
   24 O1     4f3-      -0.0041    0.0000    0.0000   -0.0022   -0.0051   -0.0058   -0.0014   -0.0000    0.0100   -0.0030
   25 O1     4f2-      -0.0000   -0.0021   -0.0007    0.0000    0.0000   -0.0000    0.0000    0.0019    0.0000    0.0000
   26 O1     4f1-      -0.0013    0.0000    0.0000   -0.0030   -0.0033   -0.0059   -0.0062    0.0000    0.0085    0.0058
   27 O1     4f0        0.0000    0.0025    0.0018   -0.0000   -0.0000    0.0000   -0.0000   -0.0021   -0.0000   -0.0000
   28 O1     4f1+       0.0005   -0.0000    0.0000   -0.0011   -0.0003   -0.0016   -0.0029    0.0000    0.0020    0.0044
   29 O1     4f2+       0.0000    0.0029    0.0001    0.0000    0.0000   -0.0000   -0.0000   -0.0023   -0.0000   -0.0000
   30 O1     4f3+       0.0018   -0.0000    0.0000   -0.0026    0.0001   -0.0078   -0.0069    0.0000    0.0064    0.0099
   31 O2     1s         0.0000    0.0000   -0.0000    0.0793   -0.0000    0.0000    0.2715   -0.0000   -0.2710    0.0000
   32 O2     2s        -0.0000    0.0000   -0.0000    0.8212   -0.0000    0.0000    1.8648   -0.0000   -1.8145    0.0000
   33 O2     3s         0.0000    0.0000   -0.0000    0.0774   -0.0000    0.0000    1.1412   -0.0000   -1.0720    0.0000
   34 O2     4s         0.0000    0.0000   -0.0000    0.0268   -0.0000    0.0000    0.2411   -0.0000   -0.2156    0.0000
   35 O2     2px       -0.0000    0.0000   -0.0000    0.5921   -0.0000    0.0000    0.3238    0.0000   -0.4708    0.0000
   36 O2     3px        0.0000   -0.0000    0.0000   -0.1434    0.0000   -0.0000    0.6493   -0.0000   -0.4153   -0.0000
   37 O2     4px        0.0000   -0.0000    0.0000    0.0206   -0.0000   -0.0000    0.1636   -0.0000    0.0265   -0.0000
   38 O2     2py       -0.0195    0.0000    0.0000    0.0000    1.0746    1.3559    0.0000   -0.0000    0.0000   -0.0708
   39 O2     3py       -0.0149   -0.0000    0.0000   -0.0000   -0.0926    1.5382    0.0000   -0.0000    0.0000    0.2359
   40 O2     4py       -0.0027    0.0000   -0.0000   -0.0000    0.0034    0.1635    0.0000   -0.0000    0.0000    0.1594
   41 O2     2pz       -0.0000    0.0000   -0.7451   -0.0000    0.0000   -0.0000   -0.0000   -0.1289    0.0000   -0.0000
   42 O2     3pz       -0.0000   -0.0000   -0.0300    0.0000   -0.0000    0.0000    0.0000    0.2332    0.0000   -0.0000
   43 O2     4pz       -0.0000   -0.0000    0.0024    0.0000    0.0000    0.0000    0.0000    0.1659    0.0000   -0.0000
   44 O2     3d2-      -0.0388    0.0000    0.0000    0.0000    0.0224    0.1410    0.0000   -0.0000    0.0000    0.0686
   45 O2     4d2-      -0.0068    0.0000   -0.0000   -0.0000   -0.0060    0.0838    0.0000   -0.0000    0.0000    0.0534
   46 O2     3d1-      -0.0000   -0.0420   -0.0000    0.0000    0.0000   -0.0000    0.0000   -0.0000    0.0000   -0.0000
   47 O2     4d1-      -0.0000   -0.0073   -0.0000   -0.0000    0.0000    0.0000    0.0000    0.0000    0.0000   -0.0000
   48 O2     3d0        0.0000   -0.0000   -0.0000    0.0044   -0.0000   -0.0000   -0.0918    0.0000    0.0865   -0.0000
   49 O2     4d0        0.0000   -0.0000   -0.0000   -0.0012    0.0000   -0.0000   -0.0515    0.0000    0.0427   -0.0000
[...]

>>> EXPORT i = B

>>> EXPORT j = P

>>> IF (-FILE GMJ_e2_${i}_${j}_${k}_.csv)

>>> COPY /lustre/isaac/scratch/gjones39/scpfiles/ANO-RCC-VTZP/ozone_137.75/3252786/GMJ_RHS_B_P_3_.csv /lustre/isaac/scratch/gjones39/scpfiles/ANO-RCC-VTZP/ozone_137.75/GMJ_RHS_B_P_3_.csv

>>> COPY /lustre/isaac/scratch/gjones39/scpfiles/ANO-RCC-VTZP/ozone_137.75/3252786/GMJ_IVECW_B_P_3_.csv /lustre/isaac/scratch/gjones39/scpfiles/ANO-RCC-VTZP/ozone_137.75/GMJ_IVECW_B_P_3_.csv

>>> COPY /lustre/isaac/scratch/gjones39/scpfiles/ANO-RCC-VTZP/ozone_137.75/3252786/GMJ_IVECX_B_P_3_.csv /lustre/isaac/scratch/gjones39/scpfiles/ANO-RCC-VTZP/ozone_137.75/GMJ_IVECX_B_P_3_.csv

>>> COPY /lustre/isaac/scratch/gjones39/scpfiles/ANO-RCC-VTZP/ozone_137.75/3252786/GMJ_IVECC2_B_P_3_.csv /lustre/isaac/scratch/gjones39/scpfiles/ANO-RCC-VTZP/ozone_137.75/GMJ_IVECC2_B_P_3_.csv

>>> COPY /lustre/isaac/scratch/gjones39/scpfiles/ANO-RCC-VTZP/ozone_137.75/3252786/GMJ_e2_B_P_3_.csv /lustre/isaac/scratch/gjones39/scpfiles/ANO-RCC-VTZP/ozone_137.75/GMJ_e2_B_P_3_.csv

>>> END FOREACH

>>> EXPORT j = M

>>> IF (-FILE GMJ_e2_${i}_${j}_${k}_.csv)

>>> COPY /lustre/isaac/scratch/gjones39/scpfiles/ANO-RCC-VTZP/ozone_137.75/3252786/GMJ_RHS_B_M_3_.csv /lustre/isaac/scratch/gjones39/scpfiles/ANO-RCC-VTZP/ozone_137.75/GMJ_RHS_B_M_3_.csv

>>> COPY /lustre/isaac/scratch/gjones39/scpfiles/ANO-RCC-VTZP/ozone_137.75/3252786/GMJ_IVECW_B_M_3_.csv /lustre/isaac/scratch/gjones39/scpfiles/ANO-RCC-VTZP/ozone_137.75/GMJ_IVECW_B_M_3_.csv

>>> COPY /lustre/isaac/scratch/gjones39/scpfiles/ANO-RCC-VTZP/ozone_137.75/3252786/GMJ_IVECX_B_M_3_.csv /lustre/isaac/scratch/gjones39/scpfiles/ANO-RCC-VTZP/ozone_137.75/GMJ_IVECX_B_M_3_.csv

>>> COPY /lustre/isaac/scratch/gjones39/scpfiles/ANO-RCC-VTZP/ozone_137.75/3252786/GMJ_IVECC2_B_M_3_.csv /lustre/isaac/scratch/gjones39/scpfiles/ANO-RCC-VTZP/ozone_137.75/GMJ_IVECC2_B_M_3_.csv

>>> COPY /lustre/isaac/scratch/gjones39/scpfiles/ANO-RCC-VTZP/ozone_137.75/3252786/GMJ_e2_B_M_3_.csv /lustre/isaac/scratch/gjones39/scpfiles/ANO-RCC-VTZP/ozone_137.75/GMJ_e2_B_M_3_.csv

>>> END FOREACH

>>> END FOREACH

>>> EXPORT i = E

>>> EXPORT j = P

>>> IF (-FILE GMJ_e2_${i}_${j}_${k}_.csv)

>>> COPY /lustre/isaac/scratch/gjones39/scpfiles/ANO-RCC-VTZP/ozone_137.75/3252786/GMJ_RHS_E_P_3_.csv /lustre/isaac/scratch/gjones39/scpfiles/ANO-RCC-VTZP/ozone_137.75/GMJ_RHS_E_P_3_.csv

>>> COPY /lustre/isaac/scratch/gjones39/scpfiles/ANO-RCC-VTZP/ozone_137.75/3252786/GMJ_IVECW_E_P_3_.csv /lustre/isaac/scratch/gjones39/scpfiles/ANO-RCC-VTZP/ozone_137.75/GMJ_IVECW_E_P_3_.csv

>>> COPY /lustre/isaac/scratch/gjones39/scpfiles/ANO-RCC-VTZP/ozone_137.75/3252786/GMJ_IVECX_E_P_3_.csv /lustre/isaac/scratch/gjones39/scpfiles/ANO-RCC-VTZP/ozone_137.75/GMJ_IVECX_E_P_3_.csv

>>> COPY /lustre/isaac/scratch/gjones39/scpfiles/ANO-RCC-VTZP/ozone_137.75/3252786/GMJ_IVECC2_E_P_3_.csv /lustre/isaac/scratch/gjones39/scpfiles/ANO-RCC-VTZP/ozone_137.75/GMJ_IVECC2_E_P_3_.csv

>>> COPY /lustre/isaac/scratch/gjones39/scpfiles/ANO-RCC-VTZP/ozone_137.75/3252786/GMJ_e2_E_P_3_.csv /lustre/isaac/scratch/gjones39/scpfiles/ANO-RCC-VTZP/ozone_137.75/GMJ_e2_E_P_3_.csv

>>> END FOREACH

>>> EXPORT j = M

>>> IF (-FILE GMJ_e2_${i}_${j}_${k}_.csv)

>>> COPY /lustre/isaac/scratch/gjones39/scpfiles/ANO-RCC-VTZP/ozone_137.75/3252786/GMJ_RHS_E_M_3_.csv /lustre/isaac/scratch/gjones39/scpfiles/ANO-RCC-VTZP/ozone_137.75/GMJ_RHS_E_M_3_.csv

>>> COPY /lustre/isaac/scratch/gjones39/scpfiles/ANO-RCC-VTZP/ozone_137.75/3252786/GMJ_IVECW_E_M_3_.csv /lustre/isaac/scratch/gjones39/scpfiles/ANO-RCC-VTZP/ozone_137.75/GMJ_IVECW_E_M_3_.csv

>>> COPY /lustre/isaac/scratch/gjones39/scpfiles/ANO-RCC-VTZP/ozone_137.75/3252786/GMJ_IVECX_E_M_3_.csv /lustre/isaac/scratch/gjones39/scpfiles/ANO-RCC-VTZP/ozone_137.75/GMJ_IVECX_E_M_3_.csv

>>> COPY /lustre/isaac/scratch/gjones39/scpfiles/ANO-RCC-VTZP/ozone_137.75/3252786/GMJ_IVECC2_E_M_3_.csv /lustre/isaac/scratch/gjones39/scpfiles/ANO-RCC-VTZP/ozone_137.75/GMJ_IVECC2_E_M_3_.csv

>>> COPY /lustre/isaac/scratch/gjones39/scpfiles/ANO-RCC-VTZP/ozone_137.75/3252786/GMJ_e2_E_M_3_.csv /lustre/isaac/scratch/gjones39/scpfiles/ANO-RCC-VTZP/ozone_137.75/GMJ_e2_E_M_3_.csv

>>> END FOREACH

>>> END FOREACH

>>> EXPORT i = F

>>> EXPORT j = P

>>> IF (-FILE GMJ_e2_${i}_${j}_${k}_.csv)

>>> COPY /lustre/isaac/scratch/gjones39/scpfiles/ANO-RCC-VTZP/ozone_137.75/3252786/GMJ_RHS_F_P_3_.csv /lustre/isaac/scratch/gjones39/scpfiles/ANO-RCC-VTZP/ozone_137.75/GMJ_RHS_F_P_3_.csv

>>> COPY /lustre/isaac/scratch/gjones39/scpfiles/ANO-RCC-VTZP/ozone_137.75/3252786/GMJ_IVECW_F_P_3_.csv /lustre/isaac/scratch/gjones39/scpfiles/ANO-RCC-VTZP/ozone_137.75/GMJ_IVECW_F_P_3_.csv

>>> COPY /lustre/isaac/scratch/gjones39/scpfiles/ANO-RCC-VTZP/ozone_137.75/3252786/GMJ_IVECX_F_P_3_.csv /lustre/isaac/scratch/gjones39/scpfiles/ANO-RCC-VTZP/ozone_137.75/GMJ_IVECX_F_P_3_.csv

>>> COPY /lustre/isaac/scratch/gjones39/scpfiles/ANO-RCC-VTZP/ozone_137.75/3252786/GMJ_IVECC2_F_P_3_.csv /lustre/isaac/scratch/gjones39/scpfiles/ANO-RCC-VTZP/ozone_137.75/GMJ_IVECC2_F_P_3_.csv

>>> COPY /lustre/isaac/scratch/gjones39/scpfiles/ANO-RCC-VTZP/ozone_137.75/3252786/GMJ_e2_F_P_3_.csv /lustre/isaac/scratch/gjones39/scpfiles/ANO-RCC-VTZP/ozone_137.75/GMJ_e2_F_P_3_.csv

>>> END FOREACH

>>> EXPORT j = M

>>> IF (-FILE GMJ_e2_${i}_${j}_${k}_.csv)

>>> COPY /lustre/isaac/scratch/gjones39/scpfiles/ANO-RCC-VTZP/ozone_137.75/3252786/GMJ_RHS_F_M_3_.csv /lustre/isaac/scratch/gjones39/scpfiles/ANO-RCC-VTZP/ozone_137.75/GMJ_RHS_F_M_3_.csv

>>> COPY /lustre/isaac/scratch/gjones39/scpfiles/ANO-RCC-VTZP/ozone_137.75/3252786/GMJ_IVECW_F_M_3_.csv /lustre/isaac/scratch/gjones39/scpfiles/ANO-RCC-VTZP/ozone_137.75/GMJ_IVECW_F_M_3_.csv

>>> COPY /lustre/isaac/scratch/gjones39/scpfiles/ANO-RCC-VTZP/ozone_137.75/3252786/GMJ_IVECX_F_M_3_.csv /lustre/isaac/scratch/gjones39/scpfiles/ANO-RCC-VTZP/ozone_137.75/GMJ_IVECX_F_M_3_.csv

>>> COPY /lustre/isaac/scratch/gjones39/scpfiles/ANO-RCC-VTZP/ozone_137.75/3252786/GMJ_IVECC2_F_M_3_.csv /lustre/isaac/scratch/gjones39/scpfiles/ANO-RCC-VTZP/ozone_137.75/GMJ_IVECC2_F_M_3_.csv

>>> COPY /lustre/isaac/scratch/gjones39/scpfiles/ANO-RCC-VTZP/ozone_137.75/3252786/GMJ_e2_F_M_3_.csv /lustre/isaac/scratch/gjones39/scpfiles/ANO-RCC-VTZP/ozone_137.75/GMJ_e2_F_M_3_.csv

>>> END FOREACH

>>> END FOREACH

>>> EXPORT i = G

>>> EXPORT j = P

>>> IF (-FILE GMJ_e2_${i}_${j}_${k}_.csv)

>>> COPY /lustre/isaac/scratch/gjones39/scpfiles/ANO-RCC-VTZP/ozone_137.75/3252786/GMJ_RHS_G_P_3_.csv /lustre/isaac/scratch/gjones39/scpfiles/ANO-RCC-VTZP/ozone_137.75/GMJ_RHS_G_P_3_.csv

>>> COPY /lustre/isaac/scratch/gjones39/scpfiles/ANO-RCC-VTZP/ozone_137.75/3252786/GMJ_IVECW_G_P_3_.csv /lustre/isaac/scratch/gjones39/scpfiles/ANO-RCC-VTZP/ozone_137.75/GMJ_IVECW_G_P_3_.csv

>>> COPY /lustre/isaac/scratch/gjones39/scpfiles/ANO-RCC-VTZP/ozone_137.75/3252786/GMJ_IVECX_G_P_3_.csv /lustre/isaac/scratch/gjones39/scpfiles/ANO-RCC-VTZP/ozone_137.75/GMJ_IVECX_G_P_3_.csv

>>> COPY /lustre/isaac/scratch/gjones39/scpfiles/ANO-RCC-VTZP/ozone_137.75/3252786/GMJ_IVECC2_G_P_3_.csv /lustre/isaac/scratch/gjones39/scpfiles/ANO-RCC-VTZP/ozone_137.75/GMJ_IVECC2_G_P_3_.csv

>>> COPY /lustre/isaac/scratch/gjones39/scpfiles/ANO-RCC-VTZP/ozone_137.75/3252786/GMJ_e2_G_P_3_.csv /lustre/isaac/scratch/gjones39/scpfiles/ANO-RCC-VTZP/ozone_137.75/GMJ_e2_G_P_3_.csv

>>> END FOREACH

>>> EXPORT j = M

>>> IF (-FILE GMJ_e2_${i}_${j}_${k}_.csv)

>>> COPY /lustre/isaac/scratch/gjones39/scpfiles/ANO-RCC-VTZP/ozone_137.75/3252786/GMJ_RHS_G_M_3_.csv /lustre/isaac/scratch/gjones39/scpfiles/ANO-RCC-VTZP/ozone_137.75/GMJ_RHS_G_M_3_.csv

>>> COPY /lustre/isaac/scratch/gjones39/scpfiles/ANO-RCC-VTZP/ozone_137.75/3252786/GMJ_IVECW_G_M_3_.csv /lustre/isaac/scratch/gjones39/scpfiles/ANO-RCC-VTZP/ozone_137.75/GMJ_IVECW_G_M_3_.csv

>>> COPY /lustre/isaac/scratch/gjones39/scpfiles/ANO-RCC-VTZP/ozone_137.75/3252786/GMJ_IVECX_G_M_3_.csv /lustre/isaac/scratch/gjones39/scpfiles/ANO-RCC-VTZP/ozone_137.75/GMJ_IVECX_G_M_3_.csv

>>> COPY /lustre/isaac/scratch/gjones39/scpfiles/ANO-RCC-VTZP/ozone_137.75/3252786/GMJ_IVECC2_G_M_3_.csv /lustre/isaac/scratch/gjones39/scpfiles/ANO-RCC-VTZP/ozone_137.75/GMJ_IVECC2_G_M_3_.csv

>>> COPY /lustre/isaac/scratch/gjones39/scpfiles/ANO-RCC-VTZP/ozone_137.75/3252786/GMJ_e2_G_M_3_.csv /lustre/isaac/scratch/gjones39/scpfiles/ANO-RCC-VTZP/ozone_137.75/GMJ_e2_G_M_3_.csv

>>> END FOREACH

>>> END FOREACH

>>> EXPORT i = H

>>> EXPORT j = P

>>> IF (-FILE GMJ_e2_${i}_${j}_${k}_.csv)

>>> COPY /lustre/isaac/scratch/gjones39/scpfiles/ANO-RCC-VTZP/ozone_137.75/3252786/GMJ_RHS_H_P_3_.csv /lustre/isaac/scratch/gjones39/scpfiles/ANO-RCC-VTZP/ozone_137.75/GMJ_RHS_H_P_3_.csv

>>> COPY /lustre/isaac/scratch/gjones39/scpfiles/ANO-RCC-VTZP/ozone_137.75/3252786/GMJ_IVECW_H_P_3_.csv /lustre/isaac/scratch/gjones39/scpfiles/ANO-RCC-VTZP/ozone_137.75/GMJ_IVECW_H_P_3_.csv

>>> COPY /lustre/isaac/scratch/gjones39/scpfiles/ANO-RCC-VTZP/ozone_137.75/3252786/GMJ_IVECX_H_P_3_.csv /lustre/isaac/scratch/gjones39/scpfiles/ANO-RCC-VTZP/ozone_137.75/GMJ_IVECX_H_P_3_.csv

>>> COPY /lustre/isaac/scratch/gjones39/scpfiles/ANO-RCC-VTZP/ozone_137.75/3252786/GMJ_IVECC2_H_P_3_.csv /lustre/isaac/scratch/gjones39/scpfiles/ANO-RCC-VTZP/ozone_137.75/GMJ_IVECC2_H_P_3_.csv

>>> COPY /lustre/isaac/scratch/gjones39/scpfiles/ANO-RCC-VTZP/ozone_137.75/3252786/GMJ_e2_H_P_3_.csv /lustre/isaac/scratch/gjones39/scpfiles/ANO-RCC-VTZP/ozone_137.75/GMJ_e2_H_P_3_.csv

>>> END FOREACH

>>> EXPORT j = M

>>> IF (-FILE GMJ_e2_${i}_${j}_${k}_.csv)

>>> COPY /lustre/isaac/scratch/gjones39/scpfiles/ANO-RCC-VTZP/ozone_137.75/3252786/GMJ_RHS_H_M_3_.csv /lustre/isaac/scratch/gjones39/scpfiles/ANO-RCC-VTZP/ozone_137.75/GMJ_RHS_H_M_3_.csv

>>> COPY /lustre/isaac/scratch/gjones39/scpfiles/ANO-RCC-VTZP/ozone_137.75/3252786/GMJ_IVECW_H_M_3_.csv /lustre/isaac/scratch/gjones39/scpfiles/ANO-RCC-VTZP/ozone_137.75/GMJ_IVECW_H_M_3_.csv

>>> COPY /lustre/isaac/scratch/gjones39/scpfiles/ANO-RCC-VTZP/ozone_137.75/3252786/GMJ_IVECX_H_M_3_.csv /lustre/isaac/scratch/gjones39/scpfiles/ANO-RCC-VTZP/ozone_137.75/GMJ_IVECX_H_M_3_.csv

>>> COPY /lustre/isaac/scratch/gjones39/scpfiles/ANO-RCC-VTZP/ozone_137.75/3252786/GMJ_IVECC2_H_M_3_.csv /lustre/isaac/scratch/gjones39/scpfiles/ANO-RCC-VTZP/ozone_137.75/GMJ_IVECC2_H_M_3_.csv

>>> COPY /lustre/isaac/scratch/gjones39/scpfiles/ANO-RCC-VTZP/ozone_137.75/3252786/GMJ_e2_H_M_3_.csv /lustre/isaac/scratch/gjones39/scpfiles/ANO-RCC-VTZP/ozone_137.75/GMJ_e2_H_M_3_.csv

>>> END FOREACH

>>> END FOREACH

>>> END FOREACH

>>> EXPORT j = 1

>>> EXPORT i = A

>>> IF (-FILE GMJ_e2_${i}_${j}_.csv)

>>> COPY /lustre/isaac/scratch/gjones39/scpfiles/ANO-RCC-VTZP/ozone_137.75/3252786/GMJ_RHS_A_1_.csv /lustre/isaac/scratch/gjones39/scpfiles/ANO-RCC-VTZP/ozone_137.75/GMJ_RHS_A_1_.csv

>>> COPY /lustre/isaac/scratch/gjones39/scpfiles/ANO-RCC-VTZP/ozone_137.75/3252786/GMJ_IVECW_A_1_.csv /lustre/isaac/scratch/gjones39/scpfiles/ANO-RCC-VTZP/ozone_137.75/GMJ_IVECW_A_1_.csv

>>> COPY /lustre/isaac/scratch/gjones39/scpfiles/ANO-RCC-VTZP/ozone_137.75/3252786/GMJ_IVECX_A_1_.csv /lustre/isaac/scratch/gjones39/scpfiles/ANO-RCC-VTZP/ozone_137.75/GMJ_IVECX_A_1_.csv

>>> COPY /lustre/isaac/scratch/gjones39/scpfiles/ANO-RCC-VTZP/ozone_137.75/3252786/GMJ_IVECC2_A_1_.csv /lustre/isaac/scratch/gjones39/scpfiles/ANO-RCC-VTZP/ozone_137.75/GMJ_IVECC2_A_1_.csv

>>> COPY /lustre/isaac/scratch/gjones39/scpfiles/ANO-RCC-VTZP/ozone_137.75/3252786/GMJ_e2_A_1_.csv /lustre/isaac/scratch/gjones39/scpfiles/ANO-RCC-VTZP/ozone_137.75/GMJ_e2_A_1_.csv

>>> END FOREACH

>>> EXPORT i = C

>>> IF (-FILE GMJ_e2_${i}_${j}_.csv)

>>> COPY /lustre/isaac/scratch/gjones39/scpfiles/ANO-RCC-VTZP/ozone_137.75/3252786/GMJ_RHS_C_1_.csv /lustre/isaac/scratch/gjones39/scpfiles/ANO-RCC-VTZP/ozone_137.75/GMJ_RHS_C_1_.csv

>>> COPY /lustre/isaac/scratch/gjones39/scpfiles/ANO-RCC-VTZP/ozone_137.75/3252786/GMJ_IVECW_C_1_.csv /lustre/isaac/scratch/gjones39/scpfiles/ANO-RCC-VTZP/ozone_137.75/GMJ_IVECW_C_1_.csv

>>> COPY /lustre/isaac/scratch/gjones39/scpfiles/ANO-RCC-VTZP/ozone_137.75/3252786/GMJ_IVECX_C_1_.csv /lustre/isaac/scratch/gjones39/scpfiles/ANO-RCC-VTZP/ozone_137.75/GMJ_IVECX_C_1_.csv

>>> COPY /lustre/isaac/scratch/gjones39/scpfiles/ANO-RCC-VTZP/ozone_137.75/3252786/GMJ_IVECC2_C_1_.csv /lustre/isaac/scratch/gjones39/scpfiles/ANO-RCC-VTZP/ozone_137.75/GMJ_IVECC2_C_1_.csv

>>> COPY /lustre/isaac/scratch/gjones39/scpfiles/ANO-RCC-VTZP/ozone_137.75/3252786/GMJ_e2_C_1_.csv /lustre/isaac/scratch/gjones39/scpfiles/ANO-RCC-VTZP/ozone_137.75/GMJ_e2_C_1_.csv

>>> END FOREACH

>>> EXPORT i = D

>>> IF (-FILE GMJ_e2_${i}_${j}_.csv)

>>> COPY /lustre/isaac/scratch/gjones39/scpfiles/ANO-RCC-VTZP/ozone_137.75/3252786/GMJ_RHS_D_1_.csv /lustre/isaac/scratch/gjones39/scpfiles/ANO-RCC-VTZP/ozone_137.75/GMJ_RHS_D_1_.csv

>>> COPY /lustre/isaac/scratch/gjones39/scpfiles/ANO-RCC-VTZP/ozone_137.75/3252786/GMJ_IVECW_D_1_.csv /lustre/isaac/scratch/gjones39/scpfiles/ANO-RCC-VTZP/ozone_137.75/GMJ_IVECW_D_1_.csv

>>> COPY /lustre/isaac/scratch/gjones39/scpfiles/ANO-RCC-VTZP/ozone_137.75/3252786/GMJ_IVECX_D_1_.csv /lustre/isaac/scratch/gjones39/scpfiles/ANO-RCC-VTZP/ozone_137.75/GMJ_IVECX_D_1_.csv

>>> COPY /lustre/isaac/scratch/gjones39/scpfiles/ANO-RCC-VTZP/ozone_137.75/3252786/GMJ_IVECC2_D_1_.csv /lustre/isaac/scratch/gjones39/scpfiles/ANO-RCC-VTZP/ozone_137.75/GMJ_IVECC2_D_1_.csv

>>> COPY /lustre/isaac/scratch/gjones39/scpfiles/ANO-RCC-VTZP/ozone_137.75/3252786/GMJ_e2_D_1_.csv /lustre/isaac/scratch/gjones39/scpfiles/ANO-RCC-VTZP/ozone_137.75/GMJ_e2_D_1_.csv

>>> END FOREACH

>>> END FOREACH

>>> EXPORT j = 2

>>> EXPORT i = A

>>> IF (-FILE GMJ_e2_${i}_${j}_.csv)

>>> COPY /lustre/isaac/scratch/gjones39/scpfiles/ANO-RCC-VTZP/ozone_137.75/3252786/GMJ_RHS_A_2_.csv /lustre/isaac/scratch/gjones39/scpfiles/ANO-RCC-VTZP/ozone_137.75/GMJ_RHS_A_2_.csv

>>> COPY /lustre/isaac/scratch/gjones39/scpfiles/ANO-RCC-VTZP/ozone_137.75/3252786/GMJ_IVECW_A_2_.csv /lustre/isaac/scratch/gjones39/scpfiles/ANO-RCC-VTZP/ozone_137.75/GMJ_IVECW_A_2_.csv

>>> COPY /lustre/isaac/scratch/gjones39/scpfiles/ANO-RCC-VTZP/ozone_137.75/3252786/GMJ_IVECX_A_2_.csv /lustre/isaac/scratch/gjones39/scpfiles/ANO-RCC-VTZP/ozone_137.75/GMJ_IVECX_A_2_.csv

>>> COPY /lustre/isaac/scratch/gjones39/scpfiles/ANO-RCC-VTZP/ozone_137.75/3252786/GMJ_IVECC2_A_2_.csv /lustre/isaac/scratch/gjones39/scpfiles/ANO-RCC-VTZP/ozone_137.75/GMJ_IVECC2_A_2_.csv

>>> COPY /lustre/isaac/scratch/gjones39/scpfiles/ANO-RCC-VTZP/ozone_137.75/3252786/GMJ_e2_A_2_.csv /lustre/isaac/scratch/gjones39/scpfiles/ANO-RCC-VTZP/ozone_137.75/GMJ_e2_A_2_.csv

>>> END FOREACH

>>> EXPORT i = C

>>> IF (-FILE GMJ_e2_${i}_${j}_.csv)

>>> COPY /lustre/isaac/scratch/gjones39/scpfiles/ANO-RCC-VTZP/ozone_137.75/3252786/GMJ_RHS_C_2_.csv /lustre/isaac/scratch/gjones39/scpfiles/ANO-RCC-VTZP/ozone_137.75/GMJ_RHS_C_2_.csv

>>> COPY /lustre/isaac/scratch/gjones39/scpfiles/ANO-RCC-VTZP/ozone_137.75/3252786/GMJ_IVECW_C_2_.csv /lustre/isaac/scratch/gjones39/scpfiles/ANO-RCC-VTZP/ozone_137.75/GMJ_IVECW_C_2_.csv

>>> COPY /lustre/isaac/scratch/gjones39/scpfiles/ANO-RCC-VTZP/ozone_137.75/3252786/GMJ_IVECX_C_2_.csv /lustre/isaac/scratch/gjones39/scpfiles/ANO-RCC-VTZP/ozone_137.75/GMJ_IVECX_C_2_.csv

>>> COPY /lustre/isaac/scratch/gjones39/scpfiles/ANO-RCC-VTZP/ozone_137.75/3252786/GMJ_IVECC2_C_2_.csv /lustre/isaac/scratch/gjones39/scpfiles/ANO-RCC-VTZP/ozone_137.75/GMJ_IVECC2_C_2_.csv

>>> COPY /lustre/isaac/scratch/gjones39/scpfiles/ANO-RCC-VTZP/ozone_137.75/3252786/GMJ_e2_C_2_.csv /lustre/isaac/scratch/gjones39/scpfiles/ANO-RCC-VTZP/ozone_137.75/GMJ_e2_C_2_.csv

>>> END FOREACH

>>> EXPORT i = D

>>> IF (-FILE GMJ_e2_${i}_${j}_.csv)

>>> COPY /lustre/isaac/scratch/gjones39/scpfiles/ANO-RCC-VTZP/ozone_137.75/3252786/GMJ_RHS_D_2_.csv /lustre/isaac/scratch/gjones39/scpfiles/ANO-RCC-VTZP/ozone_137.75/GMJ_RHS_D_2_.csv

>>> COPY /lustre/isaac/scratch/gjones39/scpfiles/ANO-RCC-VTZP/ozone_137.75/3252786/GMJ_IVECW_D_2_.csv /lustre/isaac/scratch/gjones39/scpfiles/ANO-RCC-VTZP/ozone_137.75/GMJ_IVECW_D_2_.csv

>>> COPY /lustre/isaac/scratch/gjones39/scpfiles/ANO-RCC-VTZP/ozone_137.75/3252786/GMJ_IVECX_D_2_.csv /lustre/isaac/scratch/gjones39/scpfiles/ANO-RCC-VTZP/ozone_137.75/GMJ_IVECX_D_2_.csv

>>> COPY /lustre/isaac/scratch/gjones39/scpfiles/ANO-RCC-VTZP/ozone_137.75/3252786/GMJ_IVECC2_D_2_.csv /lustre/isaac/scratch/gjones39/scpfiles/ANO-RCC-VTZP/ozone_137.75/GMJ_IVECC2_D_2_.csv

>>> COPY /lustre/isaac/scratch/gjones39/scpfiles/ANO-RCC-VTZP/ozone_137.75/3252786/GMJ_e2_D_2_.csv /lustre/isaac/scratch/gjones39/scpfiles/ANO-RCC-VTZP/ozone_137.75/GMJ_e2_D_2_.csv

>>> END FOREACH

>>> END FOREACH

>>> EXPORT j = 3

>>> EXPORT i = A

>>> IF (-FILE GMJ_e2_${i}_${j}_.csv)

>>> COPY /lustre/isaac/scratch/gjones39/scpfiles/ANO-RCC-VTZP/ozone_137.75/3252786/GMJ_RHS_A_3_.csv /lustre/isaac/scratch/gjones39/scpfiles/ANO-RCC-VTZP/ozone_137.75/GMJ_RHS_A_3_.csv

>>> COPY /lustre/isaac/scratch/gjones39/scpfiles/ANO-RCC-VTZP/ozone_137.75/3252786/GMJ_IVECW_A_3_.csv /lustre/isaac/scratch/gjones39/scpfiles/ANO-RCC-VTZP/ozone_137.75/GMJ_IVECW_A_3_.csv

>>> COPY /lustre/isaac/scratch/gjones39/scpfiles/ANO-RCC-VTZP/ozone_137.75/3252786/GMJ_IVECX_A_3_.csv /lustre/isaac/scratch/gjones39/scpfiles/ANO-RCC-VTZP/ozone_137.75/GMJ_IVECX_A_3_.csv

>>> COPY /lustre/isaac/scratch/gjones39/scpfiles/ANO-RCC-VTZP/ozone_137.75/3252786/GMJ_IVECC2_A_3_.csv /lustre/isaac/scratch/gjones39/scpfiles/ANO-RCC-VTZP/ozone_137.75/GMJ_IVECC2_A_3_.csv

>>> COPY /lustre/isaac/scratch/gjones39/scpfiles/ANO-RCC-VTZP/ozone_137.75/3252786/GMJ_e2_A_3_.csv /lustre/isaac/scratch/gjones39/scpfiles/ANO-RCC-VTZP/ozone_137.75/GMJ_e2_A_3_.csv

>>> END FOREACH

>>> EXPORT i = C

>>> IF (-FILE GMJ_e2_${i}_${j}_.csv)

>>> COPY /lustre/isaac/scratch/gjones39/scpfiles/ANO-RCC-VTZP/ozone_137.75/3252786/GMJ_RHS_C_3_.csv /lustre/isaac/scratch/gjones39/scpfiles/ANO-RCC-VTZP/ozone_137.75/GMJ_RHS_C_3_.csv

>>> COPY /lustre/isaac/scratch/gjones39/scpfiles/ANO-RCC-VTZP/ozone_137.75/3252786/GMJ_IVECW_C_3_.csv /lustre/isaac/scratch/gjones39/scpfiles/ANO-RCC-VTZP/ozone_137.75/GMJ_IVECW_C_3_.csv

>>> COPY /lustre/isaac/scratch/gjones39/scpfiles/ANO-RCC-VTZP/ozone_137.75/3252786/GMJ_IVECX_C_3_.csv /lustre/isaac/scratch/gjones39/scpfiles/ANO-RCC-VTZP/ozone_137.75/GMJ_IVECX_C_3_.csv

>>> COPY /lustre/isaac/scratch/gjones39/scpfiles/ANO-RCC-VTZP/ozone_137.75/3252786/GMJ_IVECC2_C_3_.csv /lustre/isaac/scratch/gjones39/scpfiles/ANO-RCC-VTZP/ozone_137.75/GMJ_IVECC2_C_3_.csv

>>> COPY /lustre/isaac/scratch/gjones39/scpfiles/ANO-RCC-VTZP/ozone_137.75/3252786/GMJ_e2_C_3_.csv /lustre/isaac/scratch/gjones39/scpfiles/ANO-RCC-VTZP/ozone_137.75/GMJ_e2_C_3_.csv

>>> END FOREACH

>>> EXPORT i = D

>>> IF (-FILE GMJ_e2_${i}_${j}_.csv)

>>> COPY /lustre/isaac/scratch/gjones39/scpfiles/ANO-RCC-VTZP/ozone_137.75/3252786/GMJ_RHS_D_3_.csv /lustre/isaac/scratch/gjones39/scpfiles/ANO-RCC-VTZP/ozone_137.75/GMJ_RHS_D_3_.csv

>>> COPY /lustre/isaac/scratch/gjones39/scpfiles/ANO-RCC-VTZP/ozone_137.75/3252786/GMJ_IVECW_D_3_.csv /lustre/isaac/scratch/gjones39/scpfiles/ANO-RCC-VTZP/ozone_137.75/GMJ_IVECW_D_3_.csv

>>> COPY /lustre/isaac/scratch/gjones39/scpfiles/ANO-RCC-VTZP/ozone_137.75/3252786/GMJ_IVECX_D_3_.csv /lustre/isaac/scratch/gjones39/scpfiles/ANO-RCC-VTZP/ozone_137.75/GMJ_IVECX_D_3_.csv

>>> COPY /lustre/isaac/scratch/gjones39/scpfiles/ANO-RCC-VTZP/ozone_137.75/3252786/GMJ_IVECC2_D_3_.csv /lustre/isaac/scratch/gjones39/scpfiles/ANO-RCC-VTZP/ozone_137.75/GMJ_IVECC2_D_3_.csv

>>> COPY /lustre/isaac/scratch/gjones39/scpfiles/ANO-RCC-VTZP/ozone_137.75/3252786/GMJ_e2_D_3_.csv /lustre/isaac/scratch/gjones39/scpfiles/ANO-RCC-VTZP/ozone_137.75/GMJ_e2_D_3_.csv

>>> END FOREACH

>>> END FOREACH

    Timing: Wall=66.08 User=42.39 System=20.34
****************************************************************************************************
*** WorkDir at /lustre/isaac/scratch/gjones39/scpfiles/ANO-RCC-VTZP/ozone_137.75/3252786 cleaned ***
****************************************************************************************************
