   This run of MOLCAS is using the pymolcas driver

                             OPE
                             OPE          NMOL  CASOP  ENMOLC A   SO
                 OPE        NMOLC        AS  OP EN  MO LC     AS  OP
                OPENM       OL CA        SO  PE NM  OL CA     SOP EN
                OP EN      MO   LC       AS  OP ENMOL  CASO   PENMOL
                OP  EN     MO   LC       AS  OP EN     MO     LC ASO
               OP   E  NMOL  C  AS       OP  EN MO     LC     AS  OP
               OP  E   NMO   LC AS        OPEN  MO     LCASOP EN   M
               O  PEN   MO  LCA  SO
            OPE   NMO   L   CAS    OP
        OPENMOL  CASOP     ENMOL   CASOPE
     OPENMOLCA   SOPENMOLCASOPEN   MOLCASOPE
    OPENMOLCAS   OP           EN   MOL    CAS
    OPENMOLCAS       OP  ENM        O     LCA
    OPENMOLCAS    OPEN  MOLCASO     P  E  NMO
    OPENMOLCAS     OP               E  N  MOL
    OPENMOLCA   SO           PENM   O  L  CAS    OPEN    MO    LCAS
    OPENMOLCA   SOP           ENM   O  L  CAS   OP  EN  MOLC  AS   O
    OPENMOLCA   SOPE           NM      O  LCA   S      OP  EN MO
    OPENMOLC                AS         O  PEN   M      OL  CA  SOPE
    OPENMO        LCASOPE  NMOL        C  ASO   P      ENMOLC     AS
    OPE     NMO      LCA  SO     P     E   NM   OL  CA SO  PE N   MO
          OPENMOLCA            SOPE   NMO        LCAS  O    P  ENMO
     OPENMOLCASOPENMOLCASOPENMOLCASOPENMOLCA
        OPENMOLCASOPENMOLCASOPENMOLCASOPE
            OPENMOLCASOPENMOLCASOPENM
               OPENMOLCASOPENMOLCA        version: 24.02
                   OPENMOLCASO
                       OPE                tag: 126-g611b04c8f

 OpenMolcas is free software; you can redistribute it and/or modify it
 under the terms of the GNU Lesser General Public License version 2.1.
 OpenMolcas is distributed in the hope that it will be useful, but it
 is provided "as is" and without any express or implied warranties.
 For more details see the full text of the license in the file
 LICENSE or in <http://www.gnu.org/licenses/>.

                 Copyright (C) The OpenMolcas Authors
           For the author list and the recommended citation,
                   consult the file CONTRIBUTORS.md

           *************************************************
           * pymolcas version py2.28                       *
           *   build c4a6d18ded8cb6cad61d2372a9abd97c      *
           *   (after the EMIL interpreter by V. Veryazov) *
           *************************************************

configuration info
------------------
Host name: debian (Linux)
C Compiler ID: GNU
C flags: -std=gnu99
Fortran Compiler ID: Intel
Fortran flags: -fpp -i8 -heap-arrays
Definitions: _MOLCAS_;_I8_;_LINUX_
Parallel: OFF (GA=OFF)


   ------------------------------------------------------------------
  |
  |              Project: 2.50
  |       Submitted from: /home/grierjones/DDCASPT2/delta_ML/CLi/2.50
  |         Scratch area: /tmp/2.50
  |      Save outputs to: /home/grierjones/DDCASPT2/delta_ML/CLi/2.50
  |               Molcas: /usr/local
  |
  | Scratch area is empty
  |
  |       MOLCAS_DRIVER = /usr/local/pymolcas
  | MOLCAS_KEEP_WORKDIR = NO
  |  MOLCAS_NEW_WORKDIR = YES
  |       MOLCAS_NPROCS = 1
  |       MOLCAS_SOURCE = /usr/local
  |    MOLCAS_STRUCTURE = 0
  |
   ------------------------------------------------------------------

++ ---------   Input file   ---------

&GATEWAY
coord=2.50.xyz
Basis = ANO-RCC-MB
Group = nosymm
End of Input

&SEWARD
End of Input

&SCF
UHF

&MBPT2
Frozen
0

&RASSCF
Title= RASSCF
FileOrb
/home/grierjones/DDCASPT2/delta_ML/CLi/2.40/2.40.RasOrb

NACTEL
1 0 0
Inactive
4
RAS2
2
Symmetry
1
Spin
2
orblisting
all
ITERation
200 100
CIMX
200
SDAV
500

&CASPT2
Imaginary Shift
0.0
Frozen
0

-- ----------------------------------

--- Start Module: gateway at Thu Apr 25 13:50:27 2024 ---
 
()()()()()()()()()()()()()()()()()()()()()()()()()()()()()()()()()()()()()()()()()()()()()()()()()()

                                              &GATEWAY

                                   only a single process is used
                       available to each process: 2.0 GB of memory, 1 thread?
                                            pid: 105656
()()()()()()()()()()()()()()()()()()()()()()()()()()()()()()()()()()()()()()()()()()()()()()()()()()
 
 
++    Symmetry information:
      ---------------------
 
                    Character Table for C1 
 
                             E  
                    a        1  x, y, xy, Rz, z, xz, Ry, yz, Rx, I
--
 
 
++    Basis set information:
      ----------------------
 
 
      Basis set label: C.ANO-RCC...2S1P.
 
      Electronic valence basis set:
      ------------------
      Associated Effective Charge   6.000000 au
      Associated Actual Charge      6.000000 au
      Nuclear Model: Point charge
 
      Shell  nPrim  nBasis  Cartesian Spherical Contaminant
         s      14       2        X                  
         p       9       1        X                  
 
 
      Basis set label: LI.ANO-RCC...2S1P.
 
      Electronic valence basis set:
      ------------------
      Associated Effective Charge   3.000000 au
      Associated Actual Charge      3.000000 au
      Nuclear Model: Point charge
 
      Shell  nPrim  nBasis  Cartesian Spherical Contaminant
         s      14       2        X                  
         p       9       1        X                  
--
 
 
++    Molecular structure info:
      -------------------------
 
                    ************************************************ 
                    **** Cartesian Coordinates / Bohr, Angstrom **** 
                    ************************************************ 
 
     Center  Label                x              y              z                     x              y              z
        1      C1               0.000000       0.000000       0.000000              0.000000       0.000000       0.000000
        2      LI2              0.000000       0.000000       4.724315              0.000000       0.000000       2.500000
--
 
 
            Nuclear Potential Energy              3.81007592 au
 
--- Stop Module: gateway at Thu Apr 25 13:50:27 2024 /rc=_RC_ALL_IS_WELL_ ---
*** files: xmldump
    saved to directory /home/grierjones/DDCASPT2/delta_ML/CLi/2.50

--- Start Module: seward at Thu Apr 25 13:50:27 2024 ---
 
()()()()()()()()()()()()()()()()()()()()()()()()()()()()()()()()()()()()()()()()()()()()()()()()()()

                                              &SEWARD

                                   only a single process is used
                       available to each process: 2.0 GB of memory, 1 thread?
                                            pid: 105659
()()()()()()()()()()()()()()()()()()()()()()()()()()()()()()()()()()()()()()()()()()()()()()()()()()
 
               SEWARD will generate:
                  Multipole Moment integrals up to order  2
                  Kinetic Energy integrals
                  Nuclear Attraction integrals (point charge)
                  One-Electron Hamiltonian integrals
                  Velocity integrals
                  Relativistic Douglas-Kroll-Hess integrals:
                    - Parametrization         : EXP
                    - DKH order of Hamiltonian: 2
                    - DKH order of Properties : 0
                         - multipole moment operators
                         - electric potential operators
                         - contact operators
                  Orbital angular momentum around ( 0.0000  0.0000  1.7430 )
                  Velocity quadrupole around ( 0.0000  0.0000  1.7430 )
                  Atomic mean-field integrals
                  Two-Electron Repulsion integrals
 
                   Integrals are discarded if absolute value <: 1.00E-14
                   Integral cutoff threshold is set to       <: 1.00E-16
 
            Nuclear Potential Energy              3.81007592 au
 
 
      Basis set specifications :
      Symmetry species         a  
      Basis functions           10
 
 
      Input file to MOLDEN was generated!
 
--- Stop Module: seward at Thu Apr 25 13:50:27 2024 /rc=_RC_ALL_IS_WELL_ ---
*** files: 2.50.GssOrb 2.50.guessorb.h5 2.50.guessorb.molden xmldump
    saved to directory /home/grierjones/DDCASPT2/delta_ML/CLi/2.50

*** symbolic link created: INPORB -> 2.50.GssOrb
--- Start Module: scf at Thu Apr 25 13:50:27 2024 ---
 
()()()()()()()()()()()()()()()()()()()()()()()()()()()()()()()()()()()()()()()()()()()()()()()()()()

                                                &SCF

                                   only a single process is used
                       available to each process: 2.0 GB of memory, 1 thread?
                                            pid: 105662
()()()()()()()()()()()()()()()()()()()()()()()()()()()()()()()()()()()()()()()()()()()()()()()()()()
 
++    Input section:
      --------------
 
      Header of the integral files:
      
       Integrals generated by Gateway/Seward, Thu Apr 25 13:50:27 2024
 
 
      Cartesian coordinates in Angstrom:
      -----------------------------------------------------
      No.  Label        X            Y            Z        
      -----------------------------------------------------
       1   C1         0.00000000   0.00000000   0.00000000
       2   LI2        0.00000000   0.00000000   2.50000000
      -----------------------------------------------------
      Nuclear repulsion energy =    3.81007592
--
 
++    Orbital specifications:
      -----------------------
 
      Symmetry species               1
                                     a
      Frozen orbitals                0
      Occupied orbitals alpha        5
      Occupied orbitals beta         4
      Secondary orbitals alpha       5
      Secondary orbitals beta        6
      Deleted orbitals               0
      Total number of orbitals      10
      Number of basis functions     10
--
 
      Molecular charge                           0.000
 
++    Optimization specifications:
      ----------------------------
 
      SCF Algorithm: Conventional USCF
      D(i)-D(i-1) density differences are used
      Number of density matrices in core                 5
      Maximum number of NDDO SCF iterations            400
      Maximum number of HF SCF iterations              400
      Threshold for SCF energy change             1.00E-09
      Threshold for density matrix                1.00E-04
      Threshold for Fock matrix                   1.50E-04
      Threshold for linear dependence             1.00E-09
      Threshold at which DIIS is turned on        1.50E-01
      Maximum depth in the DIIS procedure                5
      Maximum depth in the BFGS Hessian update          30
      Threshold at which QNR/C2DIIS is turned on  7.50E-02
      Threshold for Norm(delta) (QNR/C2DIIS)      1.00E-03
      All orbitals punched on: UHFORB
--
 
      Input vectors read from INPORB
      Orbital file label: *Guess orbitals
 
 
++ Convergence information
                               UHF SCF        iterations: Energy and convergence statistics
 
Iter     Tot. SCF        One-elec.       Two-elec.     Energy      Max Dij or  Max Fij      DNorm      TNorm      AccCon     Time
         Energy          Energy          Energy        Change      Delta Norm                                                in Sec.
   1   -44.968230066   -69.968414970    21.190108986   0.00E+00    8.51E-01*   7.25E-02*    4.29E+00   1.28E+01   None         0.
   2   -45.035464185   -67.569297008    18.723756905  -6.72E-02*   4.99E-01*   8.36E-02*    2.10E+00   1.20E+01   EDIIS        0.
   3   -45.072881807   -68.883153415    20.000195690  -3.74E-02*   2.71E-01*   3.85E-02*    1.00E+00   1.24E+01   EDIIS        0.
   4   -45.085612160   -68.329701921    19.434013843  -1.27E-02*   1.53E-01*   2.27E-02*    4.60E-01   1.22E+01   EDIIS        0.
   5   -45.094523403   -68.363563169    19.458963848  -8.91E-03*   1.93E-01*   2.21E-02*    3.02E-01   1.23E+01   EDIIS        0.
   6   -45.104687187   -68.222043856    19.307280750  -1.02E-02*   1.92E-01*   2.20E-02*    3.24E-01   1.22E+01   EDIIS        0.
   7   -45.114384597   -68.102786582    19.178326066  -9.70E-03*   1.73E-01*   2.08E-02*    3.39E-01   1.22E+01   EDIIS        0.
   8   -45.121401525   -68.001452051    19.069974608  -7.02E-03*   1.39E-01*   1.72E-02*    3.08E-01   1.21E+01   EDIIS        0.
   9   -45.125399850   -67.927859045    18.992383277  -4.00E-03*   2.73E-02*   4.40E-02*    2.45E-01   1.21E+01   c2DIIS       0.
  10   -45.128756074   -67.797649388    18.858817395  -3.36E-03*   3.32E-02*   4.34E-03*    1.30E-01   1.21E+01   QNRc2DIIS    0.
  11   -45.128945531   -67.783971649    18.844950199  -1.89E-04*   3.06E-02*   2.00E-03*    6.01E-02   1.21E+01   QNRc2DIIS    0.
  12   -45.129004589   -67.773508723    18.834428215  -5.91E-05*   3.03E-03*   7.98E-04*    5.43E-02   1.21E+01   QNRc2DIIS    0.
  13   -45.129006318   -67.772832811    18.833750575  -1.73E-06*   7.71E-03*   5.10E-04*    4.82E-03   1.21E+01   QNRc2DIIS    0.
  14   -45.129008357   -67.770742139    18.831657864  -2.04E-06*   2.78E-04    4.39E-05     1.15E-02   1.21E+01   QNRc2DIIS    0.
  15   -45.129008367   -67.770755398    18.831671112  -1.08E-08*   2.97E-04    1.98E-05     5.10E-04   1.21E+01   QNRc2DIIS    0.
  16   -45.129008371   -67.770660490    18.831576200  -4.04E-09*   2.46E-05    3.34E-06     5.16E-04   1.21E+01   QNRc2DIIS    0.
  17   -45.129008372   -67.770646937    18.831562647  -5.52E-11    6.91E-06    8.89E-07     3.75E-05   1.21E+01   QNRc2DIIS    0.
 
       Convergence after  17 Macro Iterations
--
 
 *****************************************************************************************************************************
 *                                                                                                                           *
 *                                             SCF/KS-DFT Program, Final results                                             *
 *                                                                                                                           *
 *                                                                                                                           *
 *                                                                                                                           *
 *                                                       Final Results                                                       *
 *                                                                                                                           *
 *****************************************************************************************************************************
 
::    Total SCF energy                                -45.1290083715
      One-electron energy                             -67.7706469366
      Two-electron energy                              18.8315626465
      Nuclear repulsion energy                          3.8100759185
      Kinetic energy (interpolated)                    45.5195411695
      Virial theorem                                    0.9914205463
      Total spin, S(S+1)                                1.6704235236
      Total spin, S                                     0.8857934635
      Max non-diagonal density matrix element           0.0000040522
      Max non-diagonal Fock matrix element              0.0000004689
 
 
      All orbitals with orbital energies smaller than  E(LUMO)+0.5 are printed
 
++    Molecular orbitals:
      -------------------
 
      Title: UHF orbitals (alpha)

      Molecular orbitals for symmetry species 1: a  
 
          Orbital            1         2         3         4         5         6         7         8         9        10    
          Energy          -11.3286   -2.4613   -0.8462   -0.4640   -0.4583    0.0287    0.0665    0.0958    0.1236    0.1505
          Occ. No.          1.0000    1.0000    1.0000    1.0000    1.0000    0.0000    0.0000    0.0000    0.0000    0.0000
 
        1 C1     1s         1.0001   -0.0001   -0.0008   -0.0047    0.0000    0.0000   -0.0187    0.0000    0.0000    0.0639
        2 C1     2s         0.0009    0.0006    0.9922   -0.0586    0.0000    0.0000   -0.2000    0.0000    0.0000    0.5609
        3 C1     2px       -0.0000    0.0000    0.0000   -0.0000   -0.8321    0.4161   -0.0000   -0.1634   -0.3685   -0.0000
        4 C1     2py        0.0000   -0.0000    0.0000    0.0000    0.5454    0.6348    0.0000    0.1071   -0.5622   -0.0000
        5 C1     2pz        0.0006    0.0012    0.0142    0.9787   -0.0000   -0.0000   -0.1859    0.0000    0.0000    0.2909
        6 LI2    1s        -0.0002    0.9999   -0.0165   -0.0364    0.0000    0.0000   -0.0033   -0.0000   -0.0000   -0.0133
        7 LI2    2s        -0.0013    0.0132    0.0083    0.0562   -0.0000   -0.0000    1.0118   -0.0000    0.0000   -0.3508
        8 LI2    2px       -0.0000    0.0000    0.0000   -0.0000   -0.0237    0.2947    0.0000    0.8476    0.4713   -0.0000
        9 LI2    2py       -0.0000    0.0000   -0.0000    0.0000    0.0155    0.4496   -0.0000   -0.5556    0.7190   -0.0000
       10 LI2    2pz        0.0015   -0.0011   -0.0132   -0.0614    0.0000    0.0000    0.1921   -0.0000    0.0000    1.1098
--
 
 
      Input file to MOLDEN was generated!
 
 
++    Static properties:
      ------------------
 
 
      LoProp Charges per center
 

                   C1       LI2   
      Nuclear      6.0000   3.0000
      Electronic  -5.9797  -3.0203
 
      Total        0.0203  -0.0203
--
 
 
      All orbitals with orbital energies smaller than  E(LUMO)+0.5 are printed
 
++    Molecular orbitals:
      -------------------
 
      Title: UHF orbitals (beta)

      Molecular orbitals for symmetry species 1: a  
 
          Orbital            1         2         3         4         5         6         7         8         9        10    
          Energy          -11.2815   -2.4734   -0.6131   -0.1811    0.0275    0.0372    0.0761    0.1455    0.2010    0.2291
          Occ. No.          1.0000    1.0000    1.0000    1.0000    0.0000    0.0000    0.0000    0.0000    0.0000    0.0000
 
        1 C1     1s         1.0000   -0.0000    0.0000   -0.0156    0.0000    0.0000    0.0485   -0.0000    0.0000    0.0450
        2 C1     2s        -0.0045    0.0006    0.9524   -0.2201    0.0000    0.0000    0.4831   -0.0000    0.0000    0.3917
        3 C1     2px       -0.0000    0.0000    0.0000    0.0000    0.1899    0.1780   -0.0000   -0.5224   -0.8291    0.0000
        4 C1     2py        0.0000   -0.0000   -0.0000    0.0000    0.2897   -0.1167   -0.0000   -0.7970    0.5435   -0.0000
        5 C1     2pz        0.0003    0.0002    0.0427    0.1192   -0.0000   -0.0000   -0.4545    0.0000    0.0000    0.9244
        6 LI2    1s        -0.0001    0.9999   -0.0171   -0.0126    0.0000   -0.0000    0.0114   -0.0000   -0.0000   -0.0332
        7 LI2    2s        -0.0006    0.0122    0.0678    0.9588   -0.0000    0.0000   -0.1458    0.0000   -0.0000   -0.4526
        8 LI2    2px       -0.0000    0.0000   -0.0000   -0.0000    0.4839    0.7883   -0.0000    0.2736    0.3125   -0.0000
        9 LI2    2py       -0.0000    0.0000    0.0000    0.0000    0.7382   -0.5167    0.0000    0.4173   -0.2048    0.0000
       10 LI2    2pz        0.0006   -0.0005   -0.0592    0.2400    0.0000    0.0000    0.8861   -0.0000    0.0000    0.6528
--
 
 
++    Molecular charges:
      ------------------
 
      Mulliken charges per centre and basis function type
      ---------------------------------------------------
 
                            C1                      LI2   
                     alpha        beta       alpha        beta
      1s           1.0001      1.0000      1.0000      1.0001
      2s           0.9929      0.9603      0.0145      0.9047
      2px          0.6956      0.0000      0.0038      0.0000
      2pz          0.9757      0.0329      0.0168      0.1020
      2py          0.2989      0.0000      0.0016      0.0000
      Total        3.9632      1.9932      1.0368      2.0068
      Total              5.9565                  3.0435
 
      Charge            0.0435                 -0.0435
 
      Total electronic charge=    9.000000
 
      Total            charge=   -0.000000
--
 
 
      Input file to MOLDEN was generated!
 
 
++    Static properties:
      ------------------
 
 
      LoProp Charges per center
 

                   C1       LI2   
      Nuclear      6.0000   3.0000
      Electronic  -5.9797  -3.0203
 
      Total        0.0203  -0.0203
--
 
 
++    Natural Bond Order analysis
      ---------------------------
      Based on LoProp computed density
      -------------------------------------------------------------------------------------
      Atom A       Atom B       Bond Order
      -------------------------------------------------------------------------------------
      NBO located      1.000 non-bonded electrons on atom C1        
      NBO located      0.979 non-bonded electrons on atom C1        
      The remaining    2.570 electrons are to be considered as diffuse
--
 
 
++    Molecular orbitals:
      -------------------
 
      Title: Natural orbitals

      Molecular orbitals for symmetry species 1: a  
 
          Orbital            1         2         3         4         5         6         7         8         9        10    
          Energy          -11.2994   -2.4671   -0.7344   -0.1679   -0.1414   -0.0434    0.1487    0.0415    0.0792    0.1211
          Occ. No.          2.0000    2.0000    1.9988    1.2862    1.0000    0.7138    0.0012    0.0000    0.0000    0.0000
 
        1 C1     1s         0.9998   -0.0003    0.0227   -0.0126   -0.0000    0.0086   -0.0656   -0.0000   -0.0000   -0.0000
        2 C1     2s        -0.0241    0.0132    0.9746   -0.1750   -0.0000    0.0715   -0.5968   -0.0000   -0.0000   -0.0000
        3 C1     2px       -0.0000    0.0000    0.0000    0.0000    0.8321    0.0000   -0.0000    0.4161   -0.1634    0.3685
        4 C1     2py        0.0000   -0.0000   -0.0000    0.0000   -0.5454   -0.0000   -0.0000    0.6348    0.1071    0.5622
        5 C1     2pz       -0.0005    0.0008    0.0455    0.6846   -0.0000    0.7169   -0.3039   -0.0000   -0.0000   -0.0000
        6 LI2    1s         0.0008    0.9996   -0.0302   -0.0302   -0.0000   -0.0173    0.0138    0.0000   -0.0000    0.0000
        7 LI2    2s        -0.0016    0.0133    0.0204    0.6338    0.0000   -0.7574    0.4175    0.0000    0.0000    0.0000
        8 LI2    2px       -0.0000    0.0000    0.0000   -0.0000    0.0237    0.0000   -0.0000    0.2947    0.8476   -0.4713
        9 LI2    2py        0.0000    0.0000   -0.0000    0.0000   -0.0155   -0.0000   -0.0000    0.4496   -0.5556   -0.7190
       10 LI2    2pz        0.0019   -0.0012   -0.0420    0.1102   -0.0000   -0.2497   -1.0937   -0.0000    0.0000   -0.0000
--
 
 
++    Molecular properties:
      ---------------------
 
      Charge (e):
                      =   -0.0000
      Dipole Moment (Debye):
      Origin of the operator (Ang)=    0.0000    0.0000    0.0000
                   X=  4.8494E-13               Y= -7.3198E-13               Z= -3.0167E+00           Total=  3.0167E+00
      Quadrupole Moment (Debye*Ang):
      Origin of the operator (Ang)=    0.0000    0.0000    0.9224
                  XX= -1.4101E+01              XY=  8.4297E-01              XZ=  1.1456E-12              YY= -1.3367E+01
                  YZ= -1.5721E-12              ZZ= -2.3343E+01
      In traceless form (Debye*Ang)
                  XX=  4.2544E+00              XY=  1.2645E+00              XZ=  1.7184E-12              YY=  5.3545E+00
                  YZ= -2.3582E-12              ZZ= -9.6090E+00
--
 
 
      Input file to MOLDEN was generated!
 
 ###############################################################################
 ###############################################################################
 ###                                                                         ###
 ###                                                                         ###
 ###    WARNING: RunFile label nBas                                          ###
 ###    was used       87 times                                              ###
 ###                                                                         ###
 ###                                                                         ###
 ###############################################################################
 ###############################################################################
--- Stop Module: scf at Thu Apr 25 13:50:28 2024 /rc=_RC_ALL_IS_WELL_ ---
*** files: 2.50.LprOrb 2.50.LoProp.molden 2.50.scf.molden 2.50.scf.h5 2.50.UhfOrb 2.50.UnaOrb xmldump
    saved to directory /home/grierjones/DDCASPT2/delta_ML/CLi/2.50

*** symbolic link created: INPORB -> 2.50.UnaOrb
--- Start Module: mbpt2 at Thu Apr 25 13:50:28 2024 ---
 
()()()()()()()()()()()()()()()()()()()()()()()()()()()()()()()()()()()()()()()()()()()()()()()()()()

                                               &MBPT2

                                   only a single process is used
                       available to each process: 2.0 GB of memory, 1 thread?
                                            pid: 105667
()()()()()()()()()()()()()()()()()()()()()()()()()()()()()()()()()()()()()()()()()()()()()()()()()()
 
 
 ###############################################################################
 ###############################################################################
 ###                                                                         ###
 ###                                                                         ###
 ###    WARNING: MP2 implementation intended for RHF references only         ###
 ###                                                                         ###
 ###                                                                         ###
 ###############################################################################
 ###############################################################################
MBPT2 WARNING: Reference function according to RunFile:UHF-SCF 
I'll assume you know what you're doing and continue
 
 
WARNING!
Default frozen orbitals as non valence orbitals is overwritten by user input.
Default values:   2
 
 
      Cartesian coordinates in Angstrom:
      -----------------------------------------------------
      No.  Label        X            Y            Z        
      -----------------------------------------------------
       1   C1         0.00000000   0.00000000   0.00000000
       2   LI2        0.00000000   0.00000000   2.50000000
      -----------------------------------------------------
      Nuclear repulsion energy =    3.81007592
 
      Contents of RUNFILE file:
      -------------------------
 
      Symmetry species                           1
                                                 a
      Number of basis functions                 10
      Frozen occupied orbitals                   0
      Active occupied orbitals                   5
      Active external orbitals                   5
      Deleted external orbitals                  0
 
 
      Energies of the active occupied orbitals
 
      symmetry species 1                   -11.328560     -2.461295     -0.846243     -0.463977     -0.458291
 
 
      Energies of the active external orbitals
 
      symmetry species 1                     0.028723      0.066468      0.095773      0.123605      0.150516
 
 
      ********************************************************************************************************
      *                                               Results                                                *
      ********************************************************************************************************
 
 Conventional algorithm used...

       SCF energy                           =      -45.1290083715 a.u.
       Second-order correlation energy      =       -0.0120827000 a.u.

       Total energy                         =      -45.1410910716 a.u.
       Reference weight ( Cref**2 )         =        0.99234
 
::    Total MBPT2 energy                              -45.1410910716
 
 
       Zeroth-order energy (E0)             =      -27.3066550418 a.u.
 
       Shanks-type energy S1(E)             =      -45.1410992686 a.u.
 
 


       Data processing and timing information:

       Section                                              time(sec)
                                                          CPU  Elapsed

      Input data processing                              0.02      0.04
      Transformation of integrals                        0.00      0.00
      MBPT2 calculations (BJAI)                          0.00      0.00
      Total MBPT2 calculations                           0.02      0.04
 
 
--- Stop Module: mbpt2 at Thu Apr 25 13:50:28 2024 /rc=_RC_ALL_IS_WELL_ ---
*** files: xmldump
    saved to directory /home/grierjones/DDCASPT2/delta_ML/CLi/2.50

*** symbolic link created: INPORB -> 2.50.UnaOrb
--- Start Module: rasscf at Thu Apr 25 13:50:28 2024 ---
 
()()()()()()()()()()()()()()()()()()()()()()()()()()()()()()()()()()()()()()()()()()()()()()()()()()

                                              &RASSCF

                                   only a single process is used
                       available to each process: 2.0 GB of memory, 1 thread?
                                            pid: 105670
()()()()()()()()()()()()()()()()()()()()()()()()()()()()()()()()()()()()()()()()()()()()()()()()()()
 
 
      Header of the ONEINT file:
      --------------------------
      
      Integrals generated by Gateway/Seward, Thu Apr 25 13:50:27 2024
 
 
      OrdInt status: non-squared
 
 
      Cartesian coordinates in Angstrom:
      -----------------------------------------------------
      No.  Label        X            Y            Z        
      -----------------------------------------------------
       1   C1         0.00000000   0.00000000   0.00000000
       2   LI2        0.00000000   0.00000000   2.50000000
      -----------------------------------------------------
      Nuclear repulsion energy =    3.81007592
 
++    Wave function specifications:
      -----------------------------
 
      Number of closed shell electrons           8
      Number of electrons in active shells       1
      Max number of holes in RAS1 space          0
      Max nr of electrons in RAS3 space          0
      Number of inactive orbitals                4
      Number of active orbitals                  2
      Number of secondary orbitals               4
      Spin quantum number                      0.5
      State symmetry                             1
--
 
++    Orbital specifications:
      -----------------------
 
      Symmetry species                           1
                                                 a
      Frozen orbitals                            0
      Inactive orbitals                          4
      Active orbitals                            2
      RAS1 orbitals                              0
      RAS2 orbitals                              2
      RAS3 orbitals                              0
      Secondary orbitals                         4
      Deleted orbitals                           0
      Number of basis functions                 10
--
 
++    CI expansion specifications:
      ----------------------------
 
      Number of CSFs                             2
      Number of determinants                     2
      Number of root(s) required                 1
      Root chosen for geometry opt.              1
      CI root used                               1
         
      highest root included in the CI            1
      max. size of the explicit Hamiltonian      2
--
 
++    Optimization specifications:
      ----------------------------
 
      RASSCF algorithm: Conventional
      Maximum number of macro iterations       200
      Maximum number of SX iterations          100
      Threshold for RASSCF energy            1.000E-08
      Threshold for max MO rotation          1.000E-01
      Threshold for max BLB element          1.000E-04
      Level shift parameter                  5.000E-01
      Make Quasi-Newton update
--
 
      The MO-coefficients are taken from the file:
      /home/grierjones/DDCASPT2/delta_ML/CLi/2.40/2.40.RasOrb                                                                                                                                                                                                         
      Title: RASSCF average (pseudo-natural) orbitals                                      
 
      Total molecular charge    0.00
 
      ************************************************************************************************************************
      *                                                                                                                      *
      *                                            Wave function control section                                             *
      *                                                                                                                      *
      ************************************************************************************************************************
 
 
                                         RASSCF iterations: Energy and convergence statistics
                                         ----------------------------------------------------
 
      Iter CI   SX   CI       RASSCF       Energy    max ROT     max BLB   max BLB  Level Ln srch  Step   QN   Walltime
          iter iter root      energy       change     param      element    value   shift minimum  type update hh:mm:ss
 Nr of preliminary CI iterations:   1
 ###############################################################################
 ###############################################################################
 ###                                                                         ###
 ###                                                                         ###
 ###    WARNING: Problems in orbital optimization.                           ###
 ###                                                                         ###
 ###                                                                         ###
 ###############################################################################
 ###############################################################################
  Warning: In symmetry  1, orbital p=   6 has diagonal density matrix element D(p,p) close to zero. D(p,p)=  5.339488E-29
        1   1    4    1   -45.01806050    0.00E+00   2.42E-03    3   9 1 -3.79E-03*  0.50   0.00    SX    NO    0:00:00
 ###############################################################################
 ###############################################################################
 ###                                                                         ###
 ###                                                                         ###
 ###    WARNING: Problems in orbital optimization.                           ###
 ###                                                                         ###
 ###                                                                         ###
 ###############################################################################
 ###############################################################################
  Warning: In symmetry  1, orbital p=   6 has diagonal density matrix element D(p,p) close to zero. D(p,p)=  4.833492E-29
        2   1    4    1   -45.01809376   -3.33E-05*  1.80E-03    3   9 1 -2.81E-03*  0.50   0.00    SX    NO    0:00:00
 ###############################################################################
 ###############################################################################
 ###                                                                         ###
 ###                                                                         ###
 ###    WARNING: Problems in orbital optimization.                           ###
 ###                                                                         ###
 ###                                                                         ###
 ###############################################################################
 ###############################################################################
  Warning: In symmetry  1, orbital p=   6 has diagonal density matrix element D(p,p) close to zero. D(p,p)=  4.510250E-29
        3   1    4    1   -45.01811127   -1.75E-05*  1.41E-03    4   8 1  2.15E-03*  0.50   0.00    SX    NO    0:00:00
 ###############################################################################
 ###############################################################################
 ###                                                                         ###
 ###                                                                         ###
 ###    WARNING: Problems in orbital optimization.                           ###
 ###                                                                         ###
 ###                                                                         ###
 ###############################################################################
 ###############################################################################
  Warning: In symmetry  1, orbital p=   6 has diagonal density matrix element D(p,p) close to zero. D(p,p)=  4.280218E-29
        4   1    4    1   -45.01812166   -1.04E-05*  1.14E-03    4   8 1  1.73E-03*  0.50   0.00    SX    NO    0:00:00
 ###############################################################################
 ###############################################################################
 ###                                                                         ###
 ###                                                                         ###
 ###    WARNING: Problems in orbital optimization.                           ###
 ###                                                                         ###
 ###                                                                         ###
 ###############################################################################
 ###############################################################################
  Warning: In symmetry  1, orbital p=   6 has diagonal density matrix element D(p,p) close to zero. D(p,p)=  4.106759E-29
        5   1    4    1   -45.01812821   -6.56E-06* -1.70E-03    4   8 1  1.40E-03*  0.50   2.50    LS   YES    0:00:00
 ###############################################################################
 ###############################################################################
 ###                                                                         ###
 ###                                                                         ###
 ###    WARNING: Problems in orbital optimization.                           ###
 ###                                                                         ###
 ###                                                                         ###
 ###############################################################################
 ###############################################################################
  Warning: In symmetry  1, orbital p=   6 has diagonal density matrix element D(p,p) close to zero. D(p,p)=  3.856256E-29
        6   1    4    1   -45.01813533   -7.11E-06*  2.53E-03    4   8 1  9.11E-04*  0.50   2.50    LS   YES    0:00:00
 ###############################################################################
 ###############################################################################
 ###                                                                         ###
 ###                                                                         ###
 ###    WARNING: Problems in orbital optimization.                           ###
 ###                                                                         ###
 ###                                                                         ###
 ###############################################################################
 ###############################################################################
  Warning: In symmetry  1, orbital p=   6 has diagonal density matrix element D(p,p) close to zero. D(p,p)=  3.501486E-29
        7   1    3    1   -45.01813994   -4.61E-06* -8.50E-04    3  10 1  6.95E-04*  0.50   1.14    QN   YES    0:00:00
 ###############################################################################
 ###############################################################################
 ###                                                                         ###
 ###                                                                         ###
 ###    WARNING: Problems in orbital optimization.                           ###
 ###                                                                         ###
 ###                                                                         ###
 ###############################################################################
 ###############################################################################
  Warning: In symmetry  1, orbital p=   6 has diagonal density matrix element D(p,p) close to zero. D(p,p)=  3.443143E-29
        8   1    3    1   -45.01814064   -6.99E-07* -9.02E-04    3  10 1  4.11E-04*  0.50   2.06    LS   YES    0:00:00
 ###############################################################################
 ###############################################################################
 ###                                                                         ###
 ###                                                                         ###
 ###    WARNING: Problems in orbital optimization.                           ###
 ###                                                                         ###
 ###                                                                         ###
 ###############################################################################
 ###############################################################################
  Warning: In symmetry  1, orbital p=   6 has diagonal density matrix element D(p,p) close to zero. D(p,p)=  3.381932E-29
        9   1    4    1   -45.01814089   -2.53E-07*  2.57E-04    3   9 1  3.07E-04*  0.50   1.00    QN   YES    0:00:00
 ###############################################################################
 ###############################################################################
 ###                                                                         ###
 ###                                                                         ###
 ###    WARNING: Problems in orbital optimization.                           ###
 ###                                                                         ###
 ###                                                                         ###
 ###############################################################################
 ###############################################################################
  Warning: In symmetry  1, orbital p=   6 has diagonal density matrix element D(p,p) close to zero. D(p,p)=  3.414578E-29
       10   1    3    1   -45.01814103   -1.38E-07* -1.10E-04    3   9 1  1.08E-04*  0.50   1.35    QN   YES    0:00:00
 ###############################################################################
 ###############################################################################
 ###                                                                         ###
 ###                                                                         ###
 ###    WARNING: Problems in orbital optimization.                           ###
 ###                                                                         ###
 ###                                                                         ###
 ###############################################################################
 ###############################################################################
  Warning: In symmetry  1, orbital p=   6 has diagonal density matrix element D(p,p) close to zero. D(p,p)=  3.423692E-29
       11   1    3    1   -45.01814105   -1.83E-08*  5.77E-05    3  10 1 -5.33E-05   0.50   1.25    QN   YES    0:00:00
 ###############################################################################
 ###############################################################################
 ###                                                                         ###
 ###                                                                         ###
 ###    WARNING: Problems in orbital optimization.                           ###
 ###                                                                         ###
 ###                                                                         ###
 ###############################################################################
 ###############################################################################
  Warning: In symmetry  1, orbital p=   6 has diagonal density matrix element D(p,p) close to zero. D(p,p)=  3.423847E-29
       12   1    3    1   -45.01814105   -3.60E-09  -4.41E-05    3  10 1 -2.84E-05   0.50   1.57    QN   YES    0:00:00
      Convergence after 12 iterations
       13   1    3    1   -45.01814105   -9.92E-10  -4.41E-05    3   9 1 -4.51E-06   0.50   1.57    QN   YES    0:00:00
 
      ************************************************************************************************************************
                                                      Wave function printout:
                       occupation of active orbitals, and spin coupling of open shells (u,d: Spin up or down)
      ************************************************************************************************************************
 
      Note: transformation to natural orbitals
      has been made, which may change the order of the CSFs.
 
      printout of CI-coefficients larger than  0.05 for root  1
      energy=     -45.018141
      conf/sym  11     Coeff  Weight
             1  u0   1.00000 1.00000
 
      Natural orbitals and occupation numbers for root  1
      sym 1:   1.000000   0.000000
 
      ************************************************************************************************************************
      *                                                                                                                      *
      *                                                    Final results                                                     *
      *                                                                                                                      *
      ************************************************************************************************************************
 
 
++    Wave function specifications:
      -----------------------------
 
      Number of closed shell electrons           8
      Number of electrons in active shells       1
      Max number of holes in RAS1 space          0
      Max nr of electrons in RAS3 space          0
      Number of inactive orbitals                4
      Number of active orbitals                  2
      Number of secondary orbitals               4
      Spin quantum number                      0.5
      State symmetry                             1
--
 
++    Orbital specifications:
      -----------------------
 
      Symmetry species                           1
                                                 a
      Frozen orbitals                            0
      Inactive orbitals                          4
      Active orbitals                            2
      RAS1 orbitals                              0
      RAS2 orbitals                              2
      RAS3 orbitals                              0
      Secondary orbitals                         4
      Deleted orbitals                           0
      Number of basis functions                 10
--
 
++    CI expansion specifications:
      ----------------------------
 
      Number of CSFs                             2
      Number of determinants                     2
      Number of root(s) required                 1
      CI root used                               1
      highest root included in the CI            1
      Root passed to geometry opt.               1
--
 
++    Final optimization conditions:
      ------------------------------
 
      Average CI energy                             -45.01814105
      RASSCF energy for state  1                    -45.01814105
      Super-CI energy                                -0.00000000
      RASSCF energy change                           -0.00000000
      Max change in MO coefficients              -3.279E-05
      Max non-diagonal density matrix element    -4.414E-05
      Maximum BLB matrix element                 -4.507E-06
      (orbital pair   3,   9 in symmetry   1)
      Norm of electronic gradient            5.635E-06
--
 
 
      Final state energy(ies):
      ------------------------
 
::    RASSCF root number  1 Total energy:    -45.01814105
 
++    Molecular orbitals:
      -------------------
 
      Pseudonatural active orbitals and approximate occupation numbers
 
 
 
 
      Molecular orbitals for symmetry species 1: a  
 
 
      Orbital                 1         2         3         4         5         6         7         8         9        10
      Energy           -11.1173   -2.5475   -0.6043   -0.1773   -0.0200    0.0000    0.0728    0.0835    0.0932    0.2665
      Occ. No.           2.0000    2.0000    2.0000    2.0000    1.0000    0.0000    0.0000    0.0000    0.0000    0.0000
 
     1 C1     1s         1.0001   -0.0000    0.0042    0.0000   -0.0000    0.0132    0.0000    0.0000   -0.0524    0.0398
     2 C1     2s        -0.0011    0.0011   -0.9406    0.0000   -0.0000    0.0729    0.0000    0.0000   -0.5649    0.3650
     3 C1     2px        0.0000    0.0000   -0.0000   -0.5981    0.6528   -0.0000   -0.2004   -0.4516   -0.0000    0.0000
     4 C1     2py       -0.0000   -0.0000   -0.0000    0.5450    0.7164   -0.0000   -0.2200    0.4115    0.0000   -0.0000
     5 C1     2pz        0.0002    0.0003   -0.0294    0.0000    0.0000    0.0441   -0.0000   -0.0000    0.3957    0.9580
     6 LI2    1s        -0.0001    0.9999    0.0167    0.0000   -0.0000   -0.0126    0.0000    0.0000   -0.0129   -0.0335
     7 LI2    2s        -0.0010    0.0128   -0.0764   -0.0000    0.0000    0.7302   -0.0000   -0.0000    0.5822   -0.5217
     8 LI2    2px       -0.0000   -0.0000   -0.0000   -0.3466    0.0899   -0.0000    0.6770    0.6645    0.0000   -0.0000
     9 LI2    2py       -0.0000   -0.0000    0.0000    0.3159    0.0986   -0.0000    0.7429   -0.6055    0.0000    0.0000
    10 LI2    2pz        0.0012    0.0008    0.0801    0.0000    0.0000    0.6849    0.0000    0.0000   -0.7325    0.5102
--
 
      Von Neumann Entropy (Root   1) =  0.50000
 

      Mulliken population analysis for root number:  1
      -----------------------------------------------
 
 
++    Molecular charges:
      ------------------
 
      Mulliken charges per centre and basis function type
      ---------------------------------------------------
 
                C1      LI2   
      1s       2.0001  1.9998
      2s       1.8700  0.0518
      2px      1.2198  0.3266
      2pz      0.0032  0.0750
      2py      1.1759  0.2778
      Total    6.2690  2.7310
 
      N-E     -0.2690  0.2690
 
      Total electronic charge=    9.000000
 
      Total            charge=   -0.000000
--
 
 

      Expectation values of various properties for root number:  1
      -----------------------------------------------------------
 
 
++    Molecular properties:
      ---------------------
 
      Charge (e):
                      =   -0.0000
      Dipole Moment (Debye):
      Origin of the operator (Ang)=    0.0000    0.0000    0.0000
                   X= -2.3883E-13               Y= -1.9512E-13               Z=  4.9125E+00           Total=  4.9125E+00
      Quadrupole Moment (Debye*Ang):
      Origin of the operator (Ang)=    0.0000    0.0000    0.9224
                  XX= -1.5943E+01              XY=  3.8303E+00              XZ=  3.6833E-14              YY= -1.5230E+01
                  YZ=  9.5126E-14              ZZ= -3.3941E+00
      In traceless form (Debye*Ang)
                  XX= -6.6312E+00              XY=  5.7454E+00              XZ=  5.5250E-14              YY= -5.5613E+00
                  YZ=  1.4269E-13              ZZ=  1.2193E+01
--
 

      Mulliken spin population analysis for root number:  1
      ---------------------------------------------------
 
 
++    Molecular charges:
      ------------------
 
      Mulliken spin population per centre and basis function type
      ---------------------------------------------------
 
                C1      LI2   
      1s       0.0000  0.0000
      2s       0.0000  0.0000
      2px      0.4359  0.0178
      2pz      0.0000  0.0000
      2py      0.5250  0.0214
      Total    0.9608  0.0392
 
      Total electronic spin=    1.000000
--
 
 

      LoProp population analysis for root number:  1
      -----------------------------------------------
 
 
++    LoProp analysis:
      ----------------
 
 
 
      Input file to MOLDEN was generated!
 
 
++    Static properties:
      ------------------
 
 
      LoProp Charges per center
 

                   C1       LI2   
      Nuclear      6.0000   3.0000
      Electronic  -6.4636  -2.5364
 
      Total       -0.4636   0.4636
--
 
 
      Natural Bond Order analysis for root number:  1
 
++    Natural Bond Order analysis
      ---------------------------
      Based on LoProp computed density
      -------------------------------------------------------------------------------------
      Atom A       Atom B       Bond Order
        C1           LI2            0.767
      -------------------------------------------------------------------------------------
      NBO located      1.533 electrons involved in    1 bonds.
      NBO located      0.996 non-bonded electrons on atom C1        
      NBO located      0.995 non-bonded electrons on atom C1        
      The remaining    1.224 electrons are to be considered as diffuse
--
 
--
 
 
      Input file to MOLDEN was generated!
 
 
      Input file to MOLDEN was generated!
 
      Average orbitals are written to the RASORB file
      Natural orbitals for root   1 are written to the RASORB.1 file
      Spin density orbitals for root   1 are written to the SPDORB.1 file
 
--- Stop Module: rasscf at Thu Apr 25 13:50:29 2024 /rc=_RC_ALL_IS_WELL_ ---
*** files: 2.50.LprOrb 2.50.rasscf.molden.1 2.50.rasscf.molden 2.50.LoProp.molden 2.50.RasOrb.1 2.50.RasOrb 2.50.rasscf.h5 2.50.SpdOrb.1 xmldump
    saved to directory /home/grierjones/DDCASPT2/delta_ML/CLi/2.50

*** symbolic link created: INPORB -> 2.50.RasOrb
--- Start Module: caspt2 at Thu Apr 25 13:50:29 2024 ---
 
()()()()()()()()()()()()()()()()()()()()()()()()()()()()()()()()()()()()()()()()()()()()()()()()()()

                                              &CASPT2

                                   only a single process is used
                       available to each process: 2.0 GB of memory, 1 thread?
                                            pid: 105677
()()()()()()()()()()()()()()()()()()()()()()()()()()()()()()()()()()()()()()()()()()()()()()()()()()
 
 ###############################################################################
 ###############################################################################
 ###                                                                         ###
 ###                                                                         ###
 ###    WARNING: User changed nr of frozen orbitals.                         ###
 ###                                                                         ###
 ###                                                                         ###
 ###############################################################################
 ###############################################################################
 
++    Wave function specifications:
      -----------------------------
 
      Number of closed shell electrons           8
      Number of electrons in active shells       1
      Max number of holes in RAS1 space          0
      Max number of electrons in RAS3 space      0
      Number of inactive orbitals                4
      Number of active orbitals                  2
      Number of secondary orbitals               4
      Spin quantum number                      0.5
      State symmetry                             1
      Number of CSFs                             2
      Number of CASSCF root(s) available         1
      CASPT2 state passed to geometry opt.       1
      A file JOBMIX will be created
      This is a CASSCF or RASSCF reference function
--
 
++    Orbital specifications:
      -----------------------
 
      Symmetry species                           1
                                                 a
      Frozen orbitals                            0
      Inactive orbitals                          4
      Active orbitals                            2
      Secondary orbitals                         4
      Deleted orbitals                           0
      Number of basis functions                 10
--
 
++    CASPT2 specifications:
      ----------------------
 
      Type of calculation                        SS-CASPT2
      Fock operator                              state-specific
      IPEA shift                                 0.25
      Real shift                                 0.00
      Imaginary shift                            0.00
      The input orbitals will be transformed to quasi-canonical
--
 
--------------------------------------------------------------------------------
 Estimated memory requirements:
  POLY3 :                   250056
  RHS:                      250492
  SIGMA :                   250512
  PRPCTL:                        0
 Available workspace:    230392719
 
++ CASPT2 computation for group   1
 
********************************************************************************
 Multi-State initialization phase begins for group   1
--------------------------------------------------------------------------------
********************************************************************************
 Compute H0 matrices for state    1
--------------------------------------------------------------------------------
--------------------------------------------------------------------------------
 H0 matrices have been computed.
 
********************************************************************************
  CASPT2 EQUATION SOLUTION
--------------------------------------------------------------------------------
 
  Total nr of CASPT2 parameters:
   Before reduction:         656
   After  reduction:         438
 
 Variance of |WF0>:       0.0444881424
 
 The contributions to the second order correlation energy in atomic units.
-----------------------------------------------------------------------------------------------------------------------------
  IT.      VJTU        VJTI        ATVX        AIVX        VJAI        BVAT        BJAT        BJAI        TOTAL       RNORM  
-----------------------------------------------------------------------------------------------------------------------------
   1     0.000000   -0.000171   -0.000000   -0.001189   -0.000577    0.000000   -0.007563   -0.040098   -0.049598    0.000775
   2     0.000000   -0.000177   -0.000000   -0.001195   -0.000580    0.000000   -0.007626   -0.040125   -0.049702    0.000062
   3     0.000000   -0.000177   -0.000000   -0.001195   -0.000580    0.000000   -0.007624   -0.040124   -0.049701    0.000007
-----------------------------------------------------------------------------------------------------------------------------
 
  FINAL CASPT2 RESULT:
 
      Reference energy:         -45.0181410522
      E2 (Non-variational):      -0.0497002063
      E2 (Variational):          -0.0497002119
      Total energy:             -45.0678412641
      Residual norm:              0.0000005492
      Reference weight:           0.93110
 
      Contributions to the CASPT2 correlation energy
      Active & Virtual Only:         -0.0000000000
      One Inactive Excited:          -0.0088185667
      Two Inactive Excited:          -0.0408816397
 
 
++ Denominators, etc.
--------------------------------------------------------------------------------------------------------------
 Report on small energy denominators, large coefficients, and large energy contributions.
CASE  SYMM ACTIVE-MIX  NON-ACTIVE INDICES          DENOMINATOR     RHS VALUE       COEFFICIENT     CONTRIBUTION
ATVX     1  Mu1.0001  Se1.007                       0.28032140      0.00000090     -0.00000273     -0.00000000
ATVX     1  Mu1.0001  Se1.008                       0.29105778     -0.00000000      0.00000000     -0.00000000
AIVX     1  Mu1.0002  In1.004 Se1.008               0.42749632     -0.00814218      0.02952940     -0.00024043
BJATP    1  Mu1.0001  In1.004 Se1.008 Se1.007       0.47865106     -0.03174397      0.06491965     -0.00206081
BJATM    1  Mu1.0001  In1.004 Se1.008 Se1.007       0.47865106      0.04546820     -0.09781878     -0.00444764
BJAIP    1  Se1.009 In1.003 Se1.009 In1.003         1.39498869      0.05666372     -0.04073178     -0.00230801
BJAIP    1  Se1.009 In1.003 Se1.010 In1.003         1.56827428      0.05275028     -0.03366402     -0.00177579
BJAIP    1  Se1.010 In1.003 Se1.010 In1.003         1.74155987      0.09324745     -0.05346536     -0.00498551
BJAIP    1  Se1.008 In1.003 Se1.009 In1.004         0.95832400      0.05795098     -0.06061653     -0.00351279
BJAIP    1  Se1.008 In1.004 Se1.008 In1.004         0.52165931      0.10306429     -0.19757010     -0.02036242
BJAIP    1  Se1.009 In1.004 Se1.009 In1.004         0.54108026      0.01950341     -0.03768479     -0.00073498
BJAIM    1  Se1.008 In1.003 Se1.008 In1.004         0.95832400     -0.06039302      0.06313470     -0.00381290
--
 
   (Skipping property calculation,
    use PROP keyword to activate)
--
 
  Total CASPT2 energies:
::    CASPT2 Root  1     Total energy:    -45.06784126
 
  A NEW JOBIPH FILE NAMED 'JOBMIX' IS PREPARED.
********************************************************************************
--- Stop Module: caspt2 at Thu Apr 25 13:50:29 2024 /rc=_RC_ALL_IS_WELL_ ---
*** files: xmldump
    saved to directory /home/grierjones/DDCASPT2/delta_ML/CLi/2.50

.##################.
.# Happy landing! #.
.##################.

    Timing: Wall=2.41 User=1.71 System=0.26
************************************
*** WorkDir at /tmp/2.50 removed ***
************************************
