[Molden Format]
[N_Atoms]
                     2
[Atoms] (AU)
C1          1      6           0.00000000      0.00000000      0.00000000
LI2         2      3           0.00000000      0.00000000      4.72431531
[Charge] (Mulliken)
  4.353403035350389E-002
 -4.353403035354964E-002
[GTO] (AU)
   1
   s  14
  5.055750100E+04  1.128874000E-04
  7.524785600E+03  5.295373000E-04
  1.694327600E+03  2.450038300E-03
  4.728227900E+02  1.005398470E-02
  1.517107500E+02  3.545398060E-02
  5.391874600E+01  1.044071086E-01
  2.065931100E+01  2.412894918E-01
  8.383976000E+00  3.834225483E-01
  3.577015000E+00  3.078514393E-01
  1.547118000E+00  6.872442990E-02
  6.130130000E-01  2.224445000E-04
  2.460680000E-01  1.976748900E-03
  9.908700000E-02  2.057859400E-03
  3.468000000E-02  4.182020000E-04
   s  14
  5.055750100E+04 -2.507420000E-05
  7.524785600E+03 -1.175945000E-04
  1.694327600E+03 -5.456275000E-04
  4.728227900E+02 -2.245077100E-03
  1.517107500E+02 -8.043471800E-03
  5.391874600E+01 -2.442588710E-02
  2.065931100E+01 -6.136791180E-02
  8.383976000E+00 -1.177767835E-01
  3.577015000E+00 -1.550487783E-01
  1.547118000E+00 -1.933316860E-02
  6.130130000E-01  3.996930678E-01
  2.460680000E-01  5.589420949E-01
  9.908700000E-02  1.711195023E-01
  3.468000000E-02  7.456244600E-03
   p   9
  8.333315500E+01  1.344656000E-03
  1.955761100E+01  1.023555500E-02
  6.080365000E+00  4.520067100E-02
  2.179317000E+00  1.410756198E-01
  8.651500000E-01  3.047388085E-01
  3.619440000E-01  3.995281011E-01
  1.547400000E-01  2.719163432E-01
  6.542900000E-02  5.857669330E-02
  2.290000000E-02 -1.263813000E-04
 
   2
   s  14
  9.497934400E+03  9.668999974E-05
  1.416811200E+03  6.087099984E-04
  3.214599400E+02  3.101519992E-03
  9.112416300E+01  1.266904997E-02
  2.999989100E+01  4.248012989E-02
  1.101763100E+01  1.150183297E-01
  4.372801000E+00  2.398650094E-01
  1.831256000E+00  3.584300090E-01
  8.022610000E-01  3.048527792E-01
  3.626480000E-01  8.824261976E-02
  1.139950000E-01 -8.445899977E-04
  5.123700000E-02 -7.943959979E-03
  2.246800000E-02 -3.764419990E-03
  7.860000000E-03 -8.868999976E-05
   s  14
  9.497934400E+03 -1.244999993E-05
  1.416811200E+03 -7.838999954E-05
  3.214599400E+02 -4.007099976E-04
  9.112416300E+01 -1.645249990E-03
  2.999989100E+01 -5.634599967E-03
  1.101763100E+01 -1.590780991E-02
  4.372801000E+00 -3.612581979E-02
  1.831256000E+00 -6.459927962E-02
  8.022610000E-01 -1.008321794E-01
  3.626480000E-01 -9.757613942E-02
  1.139950000E-01  2.301215886E-01
  5.123700000E-02  6.102389764E-01
  2.246800000E-02  2.849406083E-01
  7.860000000E-03  4.026899976E-03
   p   9
  1.311950400E+01  1.524940000E-03
  3.077424200E+00  8.314830000E-03
  1.098800500E+00  1.933203000E-02
  4.357784000E-01  4.934293000E-02
  1.802432000E-01  1.623554000E-01
  7.613330000E-02  3.847505400E-01
  3.254650000E-02  4.336100400E-01
  1.401820000E-02  1.287005900E-01
  4.906400000E-03 -1.018520000E-03
 
[MO]
Sym=     1a  
Ene=   -11.3290
Spin= Alpha
Occup=    1.00000
   1         1.00011303
   2         0.00090810
   3        -0.00000000
   4         0.00000000
   5         0.00056779
   6        -0.00016891
   7        -0.00132145
   8        -0.00000000
   9        -0.00000000
  10         0.00153398
Sym=     1a  
Ene=   -11.2820
Spin= Beta
Occup=    1.00000
   1         1.00003418
   2        -0.00449330
   3        -0.00000000
   4         0.00000000
   5         0.00034704
   6        -0.00009984
   7        -0.00059231
   8        -0.00000000
   9        -0.00000000
  10         0.00058973
Sym=     2a  
Ene=    -2.4613
Spin= Alpha
Occup=    1.00000
   1        -0.00011046
   2         0.00063023
   3         0.00000000
   4        -0.00000000
   5         0.00118711
   6         0.99985917
   7         0.01318208
   8         0.00000000
   9         0.00000000
  10        -0.00109611
Sym=     2a  
Ene=    -2.4734
Spin= Beta
Occup=    1.00000
   1        -0.00004008
   2         0.00063094
   3         0.00000000
   4        -0.00000000
   5         0.00019341
   6         0.99990928
   7         0.01217588
   8         0.00000000
   9         0.00000000
  10        -0.00048509
Sym=     3a  
Ene=    -0.8462
Spin= Alpha
Occup=    1.00000
   1        -0.00080172
   2         0.99215711
   3         0.00000000
   4         0.00000000
   5         0.01423623
   6        -0.01649360
   7         0.00832291
   8         0.00000000
   9        -0.00000000
  10        -0.01318846
Sym=     3a  
Ene=    -0.6131
Spin= Beta
Occup=    1.00000
   1         0.00000772
   2         0.95244076
   3         0.00000000
   4        -0.00000000
   5         0.04274448
   6        -0.01712248
   7         0.06783943
   8        -0.00000000
   9         0.00000000
  10        -0.05919411
Sym=     4a  
Ene=    -0.4640
Spin= Alpha
Occup=    1.00000
   1        -0.00466954
   2        -0.05859874
   3        -0.00000000
   4         0.00000000
   5         0.97866968
   6        -0.03636452
   7         0.05618486
   8        -0.00000000
   9         0.00000000
  10        -0.06140992
Sym=     4a  
Ene=    -0.1811
Spin= Beta
Occup=    1.00000
   1        -0.01557423
   2        -0.22007490
   3         0.00000000
   4         0.00000000
   5         0.11915972
   6        -0.01257490
   7         0.95883255
   8        -0.00000000
   9         0.00000000
  10         0.23999355
Sym=     5a  
Ene=    -0.4583
Spin= Alpha
Occup=    1.00000
   1         0.00000000
   2         0.00000000
   3        -0.83209243
   4         0.54544426
   5        -0.00000000
   6         0.00000000
   7        -0.00000000
   8        -0.02369267
   9         0.01553077
  10         0.00000000
Sym=     5a  
Ene=     0.0275
Spin= Beta
Occup=    0.00000
   1         0.00000000
   2         0.00000000
   3         0.18989284
   4         0.28968752
   5        -0.00000000
   6         0.00000000
   7        -0.00000000
   8         0.48387843
   9         0.73817182
  10         0.00000000
Sym=     6a  
Ene=     0.0287
Spin= Alpha
Occup=    0.00000
   1         0.00000000
   2         0.00000000
   3         0.41613601
   4         0.63482861
   5        -0.00000000
   6         0.00000000
   7        -0.00000000
   8         0.29473170
   9         0.44962251
  10         0.00000000
Sym=     6a  
Ene=     0.0372
Spin= Beta
Occup=    0.00000
   1         0.00000000
   2         0.00000000
   3         0.17799563
   4        -0.11667778
   5        -0.00000000
   6        -0.00000000
   7         0.00000000
   8         0.78830231
   9        -0.51673943
  10         0.00000000
Sym=     7a  
Ene=     0.0665
Spin= Alpha
Occup=    0.00000
   1        -0.01872188
   2        -0.19997301
   3        -0.00000000
   4         0.00000000
   5        -0.18586154
   6        -0.00331495
   7         1.01180581
   8         0.00000000
   9        -0.00000000
  10         0.19206703
Sym=     7a  
Ene=     0.0761
Spin= Beta
Occup=    0.00000
   1         0.04848820
   2         0.48305407
   3        -0.00000000
   4        -0.00000000
   5        -0.45448638
   6         0.01137534
   7        -0.14582975
   8        -0.00000000
   9         0.00000000
  10         0.88612868
Sym=     8a  
Ene=     0.0958
Spin= Alpha
Occup=    0.00000
   1         0.00000000
   2         0.00000000
   3        -0.16336324
   4         0.10708611
   5         0.00000000
   6        -0.00000000
   7        -0.00000000
   8         0.84764616
   9        -0.55563988
  10        -0.00000000
Sym=     8a  
Ene=     0.1455
Spin= Beta
Occup=    0.00000
   1        -0.00000000
   2        -0.00000000
   3        -0.52241515
   4        -0.79696079
   5         0.00000000
   6        -0.00000000
   7         0.00000000
   8         0.27356633
   9         0.41733407
  10        -0.00000000
Sym=     9a  
Ene=     0.1236
Spin= Alpha
Occup=    0.00000
   1         0.00000000
   2         0.00000000
   3        -0.36852096
   4        -0.56219036
   5         0.00000000
   6        -0.00000000
   7         0.00000000
   8         0.47128558
   9         0.71896103
  10         0.00000000
Sym=     9a  
Ene=     0.2010
Spin= Beta
Occup=    0.00000
   1         0.00000000
   2         0.00000000
   3        -0.82908559
   4         0.54347325
   5         0.00000000
   6        -0.00000000
   7        -0.00000000
   8         0.31248173
   9        -0.20483466
  10         0.00000000
Sym=    10a  
Ene=     0.1505
Spin= Alpha
Occup=    0.00000
   1         0.06394650
   2         0.56089640
   3        -0.00000000
   4        -0.00000000
   5         0.29085783
   6        -0.01333774
   7        -0.35084636
   8        -0.00000000
   9        -0.00000000
  10         1.10979669
Sym=    10a  
Ene=     0.2291
Spin= Beta
Occup=    0.00000
   1         0.04501303
   2         0.39174809
   3         0.00000000
   4        -0.00000000
   5         0.92442273
   6        -0.03320254
   7        -0.45262426
   8        -0.00000000
   9         0.00000000
  10         0.65281057
