[Molden Format]
[N_Atoms]
                     2
[Atoms] (AU)
N1          1      7           0.00000000      0.00000000      0.00000000
N2          2      7           0.00000000      0.00000000      4.53534270
[Charge] (Mulliken)
   1.00002279290262     
  0.999977207097366     
[GTO] (AU)
   1
   s  14
  7.476171500E+04  1.182599996E-04
  1.112365400E+04  5.172899983E-04
  2.512685700E+03  2.266659992E-03
  7.037772900E+02  9.145289970E-03
  2.254787900E+02  3.239342989E-02
  7.961581000E+01  9.770792967E-02
  3.023728300E+01  2.317036792E-01
  1.226362200E+01  3.768898887E-01
  5.265086000E+00  3.177420689E-01
  2.333471000E+00  8.211308973E-02
  9.018560000E-01  3.312089989E-03
  3.583360000E-01  3.720819988E-03
  1.410930000E-01  3.165419989E-03
  4.938300000E-02  4.595799985E-04
   s  14
  7.476171500E+04 -2.707000010E-05
  1.112365400E+04 -1.183700004E-04
  2.512685700E+03 -5.203800020E-04
  7.037772900E+02 -2.102930008E-03
  2.254787900E+02 -7.568200028E-03
  7.961581000E+01 -2.346767009E-02
  3.023728300E+01 -6.042901023E-02
  1.226362200E+01 -1.170549104E-01
  5.265086000E+00 -1.555321506E-01
  2.333471000E+00 -2.468935009E-02
  9.018560000E-01  3.625054514E-01
  3.583360000E-01  5.550845021E-01
  1.410930000E-01  2.148376908E-01
  4.938300000E-02  8.983850034E-03
   p   9
  1.266665700E+02  1.233630000E-03
  2.983738900E+01  9.493409996E-03
  9.394038000E+00  4.293961998E-02
  3.405104000E+00  1.362925399E-01
  1.350000000E+00  2.921362499E-01
  5.576960000E-01  3.887887598E-01
  2.324490000E-01  2.946801399E-01
  9.426400000E-02  8.012875997E-02
  3.299200000E-02  5.405199998E-04
 
   2
   s  14
  7.476171500E+04  1.182599996E-04
  1.112365400E+04  5.172899983E-04
  2.512685700E+03  2.266659992E-03
  7.037772900E+02  9.145289970E-03
  2.254787900E+02  3.239342989E-02
  7.961581000E+01  9.770792967E-02
  3.023728300E+01  2.317036792E-01
  1.226362200E+01  3.768898887E-01
  5.265086000E+00  3.177420689E-01
  2.333471000E+00  8.211308973E-02
  9.018560000E-01  3.312089989E-03
  3.583360000E-01  3.720819988E-03
  1.410930000E-01  3.165419989E-03
  4.938300000E-02  4.595799985E-04
   s  14
  7.476171500E+04 -2.707000010E-05
  1.112365400E+04 -1.183700004E-04
  2.512685700E+03 -5.203800020E-04
  7.037772900E+02 -2.102930008E-03
  2.254787900E+02 -7.568200028E-03
  7.961581000E+01 -2.346767009E-02
  3.023728300E+01 -6.042901023E-02
  1.226362200E+01 -1.170549104E-01
  5.265086000E+00 -1.555321506E-01
  2.333471000E+00 -2.468935009E-02
  9.018560000E-01  3.625054514E-01
  3.583360000E-01  5.550845021E-01
  1.410930000E-01  2.148376908E-01
  4.938300000E-02  8.983850034E-03
   p   9
  1.266665700E+02  1.233630000E-03
  2.983738900E+01  9.493409996E-03
  9.394038000E+00  4.293961998E-02
  3.405104000E+00  1.362925399E-01
  1.350000000E+00  2.921362499E-01
  5.576960000E-01  3.887887598E-01
  2.324490000E-01  2.946801399E-01
  9.426400000E-02  8.012875997E-02
  3.299200000E-02  5.405199998E-04
 
[MO]
Sym=     1a  
Ene=   -16.7330
Spin= Alpha
Occup=    2.00000
   1        -0.00123573
   2        -0.00020323
   3         0.00000000
   4        -0.00000000
   5        -0.00019959
   6         0.99997204
   7        -0.00760351
   8         0.00000000
   9        -0.00000000
  10         0.00008723
Sym=     2a  
Ene=   -16.7290
Spin= Alpha
Occup=    2.00000
   1        -0.99979087
   2         0.02042493
   3        -0.00000000
   4         0.00000000
   5         0.00068305
   6        -0.00122558
   7        -0.00038927
   8        -0.00000000
   9         0.00000000
  10        -0.00025297
Sym=     3a  
Ene=    -1.7519
Spin= Alpha
Occup=    2.00000
   1         0.00250934
   2         0.01517121
   3        -0.00000000
   4         0.00000000
   5        -0.00527692
   6        -0.00763382
   7        -0.99881106
   8        -0.00000000
   9         0.00000000
  10         0.05355060
Sym=     4a  
Ene=    -1.2696
Spin= Alpha
Occup=    2.00000
   1         0.00000000
   2        -0.00000000
   3        -0.00507096
   4         0.01565235
   5        -0.00000000
   6         0.00000000
   7         0.00000000
   8        -0.30957882
   9         0.95013589
  10         0.00000001
Sym=     5a  
Ene=    -1.2680
Spin= Alpha
Occup=    2.00000
   1         0.00000000
   2         0.00000000
   3         0.95011814
   4         0.30957833
   5         0.00000000
   6        -0.00000000
   7        -0.00000000
   8         0.01596961
   9         0.00517407
  10        -0.00000000
Sym=     6a  
Ene=    -0.7430
Spin= Alpha
Occup=    0.03635
   1        -0.00017711
   2         0.04038669
   3         0.00000000
   4        -0.00000000
   5        -1.00597618
   6         0.00656796
   7         0.10153943
   8         0.00000000
   9        -0.00000000
  10        -0.02724676
Sym=     7a  
Ene=    -0.1927
Spin= Alpha
Occup=    1.96365
   1        -0.02054809
   2        -1.00006516
   3         0.00000000
   4        -0.00000000
   5        -0.04808802
   6         0.00277493
   7         0.05075886
   8         0.00000000
   9        -0.00000000
  10         0.00342929
Sym=     8a  
Ene=    -0.7279
Spin= Alpha
Occup=    0.00000
   1         0.00657001
   2         0.09847371
   3         0.00000001
   4        -0.00000002
   5         0.09235608
   6        -0.00058091
   7         0.03921300
   8         0.00000000
   9        -0.00000001
  10         1.00957251
Sym=     9a  
Ene=    -0.7242
Spin= Alpha
Occup=    0.00000
   1         0.00000000
   2         0.00000000
   3         0.04868589
   4         0.01590619
   5         0.00000000
   6        -0.00000000
   7         0.00000000
   8        -0.95123222
   9        -0.30993871
  10         0.00000000
Sym=    10a  
Ene=    -0.7226
Spin= Alpha
Occup=    0.00000
   1        -0.00000000
   2        -0.00000000
   3         0.30994521
   4        -0.95123593
   5        -0.00000000
   6         0.00000000
   7        -0.00000000
   8        -0.01580288
   9         0.04836910
  10        -0.00000002
