[Molden Format]
[N_Atoms]
                     2
[Atoms] (AU)
N1          1      7           0.00000000      0.00000000      0.00000000
N2          2      7           0.00000000      0.00000000      4.53534270
[Charge] (Mulliken)
  2.028457402047934E-010
 -2.028546219889904E-010
[GTO] (AU)
   1
   s  14
  7.476171500E+04  1.182599996E-04
  1.112365400E+04  5.172899983E-04
  2.512685700E+03  2.266659992E-03
  7.037772900E+02  9.145289970E-03
  2.254787900E+02  3.239342989E-02
  7.961581000E+01  9.770792967E-02
  3.023728300E+01  2.317036792E-01
  1.226362200E+01  3.768898887E-01
  5.265086000E+00  3.177420689E-01
  2.333471000E+00  8.211308973E-02
  9.018560000E-01  3.312089989E-03
  3.583360000E-01  3.720819988E-03
  1.410930000E-01  3.165419989E-03
  4.938300000E-02  4.595799985E-04
   s  14
  7.476171500E+04 -2.707000010E-05
  1.112365400E+04 -1.183700004E-04
  2.512685700E+03 -5.203800020E-04
  7.037772900E+02 -2.102930008E-03
  2.254787900E+02 -7.568200028E-03
  7.961581000E+01 -2.346767009E-02
  3.023728300E+01 -6.042901023E-02
  1.226362200E+01 -1.170549104E-01
  5.265086000E+00 -1.555321506E-01
  2.333471000E+00 -2.468935009E-02
  9.018560000E-01  3.625054514E-01
  3.583360000E-01  5.550845021E-01
  1.410930000E-01  2.148376908E-01
  4.938300000E-02  8.983850034E-03
   p   9
  1.266665700E+02  1.233630000E-03
  2.983738900E+01  9.493409996E-03
  9.394038000E+00  4.293961998E-02
  3.405104000E+00  1.362925399E-01
  1.350000000E+00  2.921362499E-01
  5.576960000E-01  3.887887598E-01
  2.324490000E-01  2.946801399E-01
  9.426400000E-02  8.012875997E-02
  3.299200000E-02  5.405199998E-04
 
   2
   s  14
  7.476171500E+04  1.182599996E-04
  1.112365400E+04  5.172899983E-04
  2.512685700E+03  2.266659992E-03
  7.037772900E+02  9.145289970E-03
  2.254787900E+02  3.239342989E-02
  7.961581000E+01  9.770792967E-02
  3.023728300E+01  2.317036792E-01
  1.226362200E+01  3.768898887E-01
  5.265086000E+00  3.177420689E-01
  2.333471000E+00  8.211308973E-02
  9.018560000E-01  3.312089989E-03
  3.583360000E-01  3.720819988E-03
  1.410930000E-01  3.165419989E-03
  4.938300000E-02  4.595799985E-04
   s  14
  7.476171500E+04 -2.707000010E-05
  1.112365400E+04 -1.183700004E-04
  2.512685700E+03 -5.203800020E-04
  7.037772900E+02 -2.102930008E-03
  2.254787900E+02 -7.568200028E-03
  7.961581000E+01 -2.346767009E-02
  3.023728300E+01 -6.042901023E-02
  1.226362200E+01 -1.170549104E-01
  5.265086000E+00 -1.555321506E-01
  2.333471000E+00 -2.468935009E-02
  9.018560000E-01  3.625054514E-01
  3.583360000E-01  5.550845021E-01
  1.410930000E-01  2.148376908E-01
  4.938300000E-02  8.983850034E-03
   p   9
  1.266665700E+02  1.233630000E-03
  2.983738900E+01  9.493409996E-03
  9.394038000E+00  4.293961998E-02
  3.405104000E+00  1.362925399E-01
  1.350000000E+00  2.921362499E-01
  5.576960000E-01  3.887887598E-01
  2.324490000E-01  2.946801399E-01
  9.426400000E-02  8.012875997E-02
  3.299200000E-02  5.405199998E-04
 
[MO]
Sym=     1a  
Ene=   -15.6170
Spin= Alpha
Occup=    1.00000
   1         0.70707455
   2        -0.00436543
   3        -0.00000000
   4         0.00000000
   5         0.00016291
   6         0.70707466
   7        -0.00436543
   8         0.00000000
   9        -0.00000000
  10        -0.00016291
Sym=     1a  
Ene=   -15.6170
Spin= Beta
Occup=    1.00000
   1         0.70707455
   2        -0.00436543
   3        -0.00000000
   4         0.00000000
   5         0.00016291
   6         0.70707466
   7        -0.00436543
   8         0.00000000
   9        -0.00000000
  10        -0.00016291
Sym=     2a  
Ene=   -15.6170
Spin= Alpha
Occup=    1.00000
   1        -0.70711688
   2         0.00398910
   3        -0.00000000
   4         0.00000000
   5        -0.00045556
   6         0.70711677
   7        -0.00398910
   8         0.00000000
   9        -0.00000000
  10        -0.00045556
Sym=     2a  
Ene=   -15.6170
Spin= Beta
Occup=    1.00000
   1        -0.70711688
   2         0.00398910
   3        -0.00000000
   4         0.00000000
   5        -0.00045556
   6         0.70711677
   7        -0.00398910
   8         0.00000000
   9        -0.00000000
  10        -0.00045556
Sym=     3a  
Ene=    -0.9788
Spin= Alpha
Occup=    1.00000
   1         0.00234595
   2         0.68454794
   3         0.00000000
   4         0.00000000
   5         0.03225127
   6         0.00234595
   7         0.68454794
   8        -0.00000000
   9         0.00000000
  10        -0.03225127
Sym=     3a  
Ene=    -0.9788
Spin= Beta
Occup=    1.00000
   1         0.00234595
   2         0.68454794
   3         0.00000000
   4         0.00000000
   5         0.03225127
   6         0.00234595
   7         0.68454794
   8        -0.00000000
   9         0.00000000
  10        -0.03225127
Sym=     4a  
Ene=    -0.9122
Spin= Alpha
Occup=    1.00000
   1        -0.00561761
   2        -0.72165241
   3        -0.00000000
   4        -0.00000000
   5         0.04701401
   6         0.00561761
   7         0.72165241
   8         0.00000000
   9        -0.00000000
  10         0.04701401
Sym=     4a  
Ene=    -0.9122
Spin= Beta
Occup=    1.00000
   1        -0.00561761
   2        -0.72165241
   3        -0.00000000
   4        -0.00000000
   5         0.04701401
   6         0.00561761
   7         0.72165241
   8         0.00000000
   9        -0.00000000
  10         0.04701401
Sym=     5a  
Ene=    -0.3417
Spin= Alpha
Occup=    1.00000
   1         0.00466368
   2         0.09191447
   3        -0.00000000
   4         0.00000000
   5        -0.67103507
   6         0.00466368
   7         0.09191447
   8         0.00000000
   9        -0.00000000
  10         0.67103507
Sym=     5a  
Ene=    -0.3417
Spin= Beta
Occup=    1.00000
   1         0.00466368
   2         0.09191447
   3        -0.00000000
   4         0.00000000
   5        -0.67103507
   6         0.00466368
   7         0.09191447
   8         0.00000000
   9        -0.00000000
  10         0.67103507
Sym=     6a  
Ene=    -0.2925
Spin= Alpha
Occup=    1.00000
   1        -0.00000000
   2        -0.00000000
   3         0.24729272
   4         0.64977397
   5        -0.00000000
   6         0.00000000
   7         0.00000000
   8         0.24729272
   9         0.64977397
  10        -0.00000000
Sym=     6a  
Ene=    -0.2925
Spin= Beta
Occup=    1.00000
   1        -0.00000000
   2        -0.00000000
   3         0.24729272
   4         0.64977397
   5        -0.00000000
   6         0.00000000
   7         0.00000000
   8         0.24729272
   9         0.64977397
  10        -0.00000000
Sym=     7a  
Ene=    -0.2925
Spin= Alpha
Occup=    1.00000
   1         0.00000000
   2         0.00000000
   3         0.64977397
   4        -0.24729272
   5         0.00000000
   6         0.00000000
   7        -0.00000000
   8         0.64977397
   9        -0.24729272
  10         0.00000000
Sym=     7a  
Ene=    -0.2925
Spin= Beta
Occup=    1.00000
   1         0.00000000
   2         0.00000000
   3         0.64977397
   4        -0.24729272
   5         0.00000000
   6         0.00000000
   7        -0.00000000
   8         0.64977397
   9        -0.24729272
  10         0.00000000
Sym=     8a  
Ene=    -0.0469
Spin= Alpha
Occup=    0.00000
   1         0.00000000
   2         0.00000000
   3        -0.17914815
   4        -0.69694518
   5        -0.00000000
   6         0.00000000
   7         0.00000000
   8         0.17914815
   9         0.69694518
  10         0.00000000
Sym=     8a  
Ene=    -0.0469
Spin= Beta
Occup=    0.00000
   1         0.00000000
   2         0.00000000
   3        -0.17914815
   4        -0.69694518
   5        -0.00000000
   6         0.00000000
   7         0.00000000
   8         0.17914815
   9         0.69694518
  10         0.00000000
Sym=     9a  
Ene=    -0.0469
Spin= Alpha
Occup=    0.00000
   1        -0.00000000
   2        -0.00000000
   3        -0.69694518
   4         0.17914815
   5         0.00000000
   6        -0.00000000
   7        -0.00000000
   8         0.69694518
   9        -0.17914815
  10        -0.00000000
Sym=     9a  
Ene=    -0.0469
Spin= Beta
Occup=    0.00000
   1        -0.00000000
   2        -0.00000000
   3        -0.69694518
   4         0.17914815
   5         0.00000000
   6        -0.00000000
   7        -0.00000000
   8         0.69694518
   9        -0.17914815
  10        -0.00000000
Sym=    10a  
Ene=     0.0280
Spin= Alpha
Occup=    0.00000
   1         0.00524533
   2         0.11930863
   3        -0.00000000
   4         0.00000000
   5         0.75453282
   6        -0.00524533
   7        -0.11930863
   8        -0.00000000
   9         0.00000000
  10         0.75453282
Sym=    10a  
Ene=     0.0280
Spin= Beta
Occup=    0.00000
   1         0.00524533
   2         0.11930863
   3        -0.00000000
   4         0.00000000
   5         0.75453282
   6        -0.00524533
   7        -0.11930863
   8        -0.00000000
   9         0.00000000
  10         0.75453282
