[Molden Format]
[N_Atoms]
                     2
[Atoms] (AU)
N1          1      7           0.00000000      0.00000000      0.00000000
N2          2      7           0.00000000      0.00000000      4.53534270
[Charge] (Mulliken)
 -1.525530092082228E-003
  1.525530092047589E-003
[GTO] (AU)
   1
   s  14
  7.476171500E+04  1.182599996E-04
  1.112365400E+04  5.172899983E-04
  2.512685700E+03  2.266659992E-03
  7.037772900E+02  9.145289970E-03
  2.254787900E+02  3.239342989E-02
  7.961581000E+01  9.770792967E-02
  3.023728300E+01  2.317036792E-01
  1.226362200E+01  3.768898887E-01
  5.265086000E+00  3.177420689E-01
  2.333471000E+00  8.211308973E-02
  9.018560000E-01  3.312089989E-03
  3.583360000E-01  3.720819988E-03
  1.410930000E-01  3.165419989E-03
  4.938300000E-02  4.595799985E-04
   s  14
  7.476171500E+04 -2.707000010E-05
  1.112365400E+04 -1.183700004E-04
  2.512685700E+03 -5.203800020E-04
  7.037772900E+02 -2.102930008E-03
  2.254787900E+02 -7.568200028E-03
  7.961581000E+01 -2.346767009E-02
  3.023728300E+01 -6.042901023E-02
  1.226362200E+01 -1.170549104E-01
  5.265086000E+00 -1.555321506E-01
  2.333471000E+00 -2.468935009E-02
  9.018560000E-01  3.625054514E-01
  3.583360000E-01  5.550845021E-01
  1.410930000E-01  2.148376908E-01
  4.938300000E-02  8.983850034E-03
   p   9
  1.266665700E+02  1.233630000E-03
  2.983738900E+01  9.493409996E-03
  9.394038000E+00  4.293961998E-02
  3.405104000E+00  1.362925399E-01
  1.350000000E+00  2.921362499E-01
  5.576960000E-01  3.887887598E-01
  2.324490000E-01  2.946801399E-01
  9.426400000E-02  8.012875997E-02
  3.299200000E-02  5.405199998E-04
 
   2
   s  14
  7.476171500E+04  1.182599996E-04
  1.112365400E+04  5.172899983E-04
  2.512685700E+03  2.266659992E-03
  7.037772900E+02  9.145289970E-03
  2.254787900E+02  3.239342989E-02
  7.961581000E+01  9.770792967E-02
  3.023728300E+01  2.317036792E-01
  1.226362200E+01  3.768898887E-01
  5.265086000E+00  3.177420689E-01
  2.333471000E+00  8.211308973E-02
  9.018560000E-01  3.312089989E-03
  3.583360000E-01  3.720819988E-03
  1.410930000E-01  3.165419989E-03
  4.938300000E-02  4.595799985E-04
   s  14
  7.476171500E+04 -2.707000010E-05
  1.112365400E+04 -1.183700004E-04
  2.512685700E+03 -5.203800020E-04
  7.037772900E+02 -2.102930008E-03
  2.254787900E+02 -7.568200028E-03
  7.961581000E+01 -2.346767009E-02
  3.023728300E+01 -6.042901023E-02
  1.226362200E+01 -1.170549104E-01
  5.265086000E+00 -1.555321506E-01
  2.333471000E+00 -2.468935009E-02
  9.018560000E-01  3.625054514E-01
  3.583360000E-01  5.550845021E-01
  1.410930000E-01  2.148376908E-01
  4.938300000E-02  8.983850034E-03
   p   9
  1.266665700E+02  1.233630000E-03
  2.983738900E+01  9.493409996E-03
  9.394038000E+00  4.293961998E-02
  3.405104000E+00  1.362925399E-01
  1.350000000E+00  2.921362499E-01
  5.576960000E-01  3.887887598E-01
  2.324490000E-01  2.946801399E-01
  9.426400000E-02  8.012875997E-02
  3.299200000E-02  5.405199998E-04
 
[MO]
Sym=     1a  
Ene=   -15.5890
Spin= Alpha
Occup=    2.00000
   1         0.99913773
   2        -0.00578467
   3        -0.00000000
   4        -0.00000000
   5         0.00045764
   6         0.04111590
   7        -0.00107085
   8         0.00000000
   9         0.00000000
  10         0.00015345
Sym=     2a  
Ene=   -15.5880
Spin= Alpha
Occup=    2.00000
   1        -0.04115901
   2         0.00053548
   3         0.00000000
   4        -0.00000000
   5         0.00040547
   6         0.99896187
   7        -0.01934760
   8        -0.00000000
   9        -0.00000000
  10        -0.00187930
Sym=     3a  
Ene=    -0.9363
Spin= Alpha
Occup=    2.00000
   1        -0.00542459
   2        -0.99242482
   3        -0.00000000
   4        -0.00000000
   5        -0.00124115
   6         0.00211961
   7        -0.00731521
   8         0.00000000
   9         0.00000000
  10         0.05850844
Sym=     4a  
Ene=    -0.4331
Spin= Alpha
Occup=    2.00000
   1        -0.00000000
   2        -0.00000000
   3        -0.00226244
   4         0.03469742
   5         0.00000000
   6         0.00000000
   7         0.00000000
   8        -0.06494940
   9         0.99608373
  10        -0.00000000
Sym=     5a  
Ene=    -0.4326
Spin= Alpha
Occup=    2.00000
   1        -0.00000000
   2        -0.00000000
   3         0.99621713
   4         0.06495810
   5         0.00000000
   6        -0.00000000
   7         0.00000000
   8         0.03274135
   9         0.00213489
  10        -0.00000000
Sym=     6a  
Ene=    -0.3444
Spin= Alpha
Occup=    2.00000
   1         0.00502552
   2         0.10942124
   3         0.00000000
   4         0.00000000
   5        -0.67156582
   6         0.00362214
   7        -0.06159474
   8         0.00000000
   9         0.00000000
  10         0.66089039
Sym=     7a  
Ene=    -0.9132
Spin= Alpha
Occup=    1.96635
   1        -0.00178535
   2        -0.04563379
   3        -0.00000000
   4        -0.00000000
   5        -0.05183290
   6         0.01987923
   7         0.99753851
   8         0.00000000
   9         0.00000000
  10         0.11033152
Sym=     8a  
Ene=     0.0000
Spin= Alpha
Occup=    0.03365
   1        -0.00000000
   2        -0.00000000
   3        -0.06707676
   4        -0.00437372
   5        -0.00000000
   6         0.00000000
   7         0.00000000
   8         0.99793580
   9         0.06507016
  10        -0.00000000
Sym=     9a  
Ene=     0.0385
Spin= Alpha
Occup=    0.00000
   1         0.00518575
   2         0.11449736
   3        -0.00000000
   4        -0.00000000
   5         0.75443311
   6        -0.00518637
   7        -0.11313665
   8         0.00000000
   9         0.00000000
  10         0.75530298
Sym=    10a  
Ene=     0.1129
Spin= Alpha
Occup=    0.00000
   1        -0.00000000
   2         0.00000000
   3         0.06506585
   4        -0.99786971
   5         0.00000000
   6        -0.00000000
   7        -0.00000000
   8        -0.00450105
   9         0.06902940
  10         0.00000000
