[Molden Format]
[N_Atoms]
                     2
[Atoms] (AU)
B1          1      5           0.00000000      0.00000000      0.00000000
LI2         2      3           0.00000000      0.00000000      1.13383567
[Charge] (Mulliken)
 -0.698952601930184     
  0.698952601930172     
[GTO] (AU)
   1
   s  14
  3.336021700E+04  1.039699991E-04
  4.972095200E+03  5.254399956E-04
  1.125641700E+03  2.509059979E-03
  3.164913600E+02  1.031887991E-02
  1.020072600E+02  3.636632969E-02
  3.629587300E+01  1.064607991E-01
  1.397141000E+01  2.403999880E-01
  5.741156000E+00  3.748581168E-01
  2.494268000E+00  3.100066974E-01
  1.114202000E+00  7.922455933E-02
  4.215490000E-01 -4.947589958E-03
  1.696330000E-01 -7.737119935E-03
  6.853500000E-02 -1.501079987E-03
  2.398700000E-02 -1.333299989E-04
   s  14
  3.336021700E+04 -2.030000008E-05
  4.972095200E+03 -1.025700004E-04
  1.125641700E+03 -4.911300020E-04
  3.164913600E+02 -2.026570008E-03
  1.020072600E+02 -7.261010030E-03
  3.629587300E+01 -2.197722009E-02
  1.397141000E+01 -5.408428022E-02
  5.741156000E+00 -1.022402604E-01
  2.494268000E+00 -1.423595206E-01
  1.114202000E+00 -4.658690019E-02
  4.215490000E-01  3.799402916E-01
  1.696330000E-01  5.890463624E-01
  6.853500000E-02  1.749075107E-01
  2.398700000E-02 -1.142030005E-03
   p   9
  5.500000000E+01  1.229800005E-03
  1.336610100E+01  8.827380035E-03
  4.135394000E+00  3.843340015E-02
  1.481256000E+00  1.150031805E-01
  6.021360000E-01  2.733674011E-01
  2.556360000E-01  4.061972116E-01
  1.111510000E-01  3.014967912E-01
  4.764800000E-02  7.684809030E-02
  1.667700000E-02 -8.170000032E-06
 
   2
   s  14
  9.497934400E+03  9.668999974E-05
  1.416811200E+03  6.087099984E-04
  3.214599400E+02  3.101519992E-03
  9.112416300E+01  1.266904997E-02
  2.999989100E+01  4.248012989E-02
  1.101763100E+01  1.150183297E-01
  4.372801000E+00  2.398650094E-01
  1.831256000E+00  3.584300090E-01
  8.022610000E-01  3.048527792E-01
  3.626480000E-01  8.824261976E-02
  1.139950000E-01 -8.445899977E-04
  5.123700000E-02 -7.943959979E-03
  2.246800000E-02 -3.764419990E-03
  7.860000000E-03 -8.868999976E-05
   s  14
  9.497934400E+03 -1.244999993E-05
  1.416811200E+03 -7.838999954E-05
  3.214599400E+02 -4.007099976E-04
  9.112416300E+01 -1.645249990E-03
  2.999989100E+01 -5.634599967E-03
  1.101763100E+01 -1.590780991E-02
  4.372801000E+00 -3.612581979E-02
  1.831256000E+00 -6.459927962E-02
  8.022610000E-01 -1.008321794E-01
  3.626480000E-01 -9.757613942E-02
  1.139950000E-01  2.301215886E-01
  5.123700000E-02  6.102389764E-01
  2.246800000E-02  2.849406083E-01
  7.860000000E-03  4.026899976E-03
   p   9
  1.311950400E+01  1.524940000E-03
  3.077424200E+00  8.314830000E-03
  1.098800500E+00  1.933203000E-02
  4.357784000E-01  4.934293000E-02
  1.802432000E-01  1.623554000E-01
  7.613330000E-02  3.847505400E-01
  3.254650000E-02  4.336100400E-01
  1.401820000E-02  1.287005900E-01
  4.906400000E-03 -1.018520000E-03
 
[MO]
Sym=     1a  
Ene=    -8.0788
Spin= Alpha
Occup=    1.00000
   1         0.98785788
   2        -0.00247321
   3        -0.00000000
   4        -0.00000000
   5         0.00373499
   6         0.05266064
   7         0.00605057
   8         0.00000000
   9        -0.00000000
  10        -0.00765091
Sym=     1a  
Ene=    -8.0788
Spin= Beta
Occup=    1.00000
   1         0.98785788
   2        -0.00247321
   3        -0.00000000
   4        -0.00000000
   5         0.00373499
   6         0.05266064
   7         0.00605057
   8         0.00000000
   9        -0.00000000
  10        -0.00765091
Sym=     2a  
Ene=    -3.2826
Spin= Alpha
Occup=    1.00000
   1        -0.25080466
   2        -0.09323654
   3        -0.00000000
   4        -0.00000000
   5         0.01750901
   6         1.04542462
   7         0.04085764
   8        -0.00000000
   9         0.00000000
  10        -0.03767936
Sym=     2a  
Ene=    -3.2826
Spin= Beta
Occup=    1.00000
   1        -0.25080466
   2        -0.09323654
   3        -0.00000000
   4        -0.00000000
   5         0.01750901
   6         1.04542462
   7         0.04085764
   8        -0.00000000
   9         0.00000000
  10        -0.03767936
Sym=     3a  
Ene=    -0.4538
Spin= Alpha
Occup=    1.00000
   1         0.03339257
   2         0.91271675
   3        -0.00000000
   4         0.00000000
   5        -0.20690882
   6        -0.23012080
   7         0.17222862
   8         0.00000000
   9         0.00000000
  10         0.04400778
Sym=     3a  
Ene=    -0.4538
Spin= Beta
Occup=    1.00000
   1         0.03339257
   2         0.91271675
   3        -0.00000000
   4         0.00000000
   5        -0.20690882
   6        -0.23012080
   7         0.17222862
   8         0.00000000
   9         0.00000000
  10         0.04400778
Sym=     4a  
Ene=    -0.3912
Spin= Alpha
Occup=    1.00000
   1         0.00000000
   2         0.00000000
   3         0.92843846
   4        -0.31083482
   5        -0.00000000
   6        -0.00000000
   7        -0.00000000
   8         0.03002809
   9        -0.01005320
  10         0.00000000
Sym=     4a  
Ene=    -0.3912
Spin= Beta
Occup=    1.00000
   1         0.00000000
   2         0.00000000
   3         0.92843846
   4        -0.31083482
   5        -0.00000000
   6        -0.00000000
   7        -0.00000000
   8         0.03002809
   9        -0.01005320
  10         0.00000000
Sym=     5a  
Ene=    -0.0589
Spin= Alpha
Occup=    0.00000
   1         0.00000000
   2        -0.00000000
   3         0.22115520
   4         0.66057270
   5         0.00000000
   6         0.00000000
   7         0.00000000
   8         0.12546341
   9         0.37474907
  10         0.00000000
Sym=     5a  
Ene=    -0.0589
Spin= Beta
Occup=    0.00000
   1         0.00000000
   2        -0.00000000
   3         0.22115520
   4         0.66057270
   5         0.00000000
   6         0.00000000
   7         0.00000000
   8         0.12546341
   9         0.37474907
  10         0.00000000
Sym=     6a  
Ene=     0.0014
Spin= Alpha
Occup=    0.00000
   1         0.04884013
   2        -0.17075643
   3         0.00000000
   4        -0.00000000
   5         0.08804739
   6         0.01902016
   7         0.60266880
   8        -0.00000000
   9        -0.00000000
  10         0.76018595
Sym=     6a  
Ene=     0.0014
Spin= Beta
Occup=    0.00000
   1         0.04884013
   2        -0.17075643
   3         0.00000000
   4        -0.00000000
   5         0.08804739
   6         0.01902016
   7         0.60266880
   8        -0.00000000
   9        -0.00000000
  10         0.76018595
Sym=     7a  
Ene=     0.1511
Spin= Alpha
Occup=    0.00000
   1        -0.00000000
   2        -0.00000000
   3        -0.83628189
   4         0.27998143
   5        -0.00000000
   6         0.00000000
   7         0.00000000
   8         1.24918521
   9        -0.41821863
  10         0.00000000
Sym=     7a  
Ene=     0.1511
Spin= Beta
Occup=    0.00000
   1        -0.00000000
   2        -0.00000000
   3        -0.83628189
   4         0.27998143
   5        -0.00000000
   6         0.00000000
   7         0.00000000
   8         1.24918521
   9        -0.41821863
  10         0.00000000
Sym=     8a  
Ene=     0.1739
Spin= Alpha
Occup=    0.00000
   1         0.00000000
   2         0.00000000
   3        -0.35510317
   4        -1.06066446
   5        -0.00000000
   6        -0.00000000
   7        -0.00000000
   8         0.39908247
   9         1.19202706
  10         0.00000000
Sym=     8a  
Ene=     0.1739
Spin= Beta
Occup=    0.00000
   1         0.00000000
   2         0.00000000
   3        -0.35510317
   4        -1.06066446
   5        -0.00000000
   6        -0.00000000
   7        -0.00000000
   8         0.39908247
   9         1.19202706
  10         0.00000000
Sym=     9a  
Ene=     0.2131
Spin= Alpha
Occup=    0.00000
   1         0.21593814
   2         1.29782094
   3         0.00000000
   4         0.00000000
   5        -0.46971890
   6        -0.29928382
   7        -1.25202716
   8        -0.00000000
   9        -0.00000000
  10         1.03932756
Sym=     9a  
Ene=     0.2131
Spin= Beta
Occup=    0.00000
   1         0.21593814
   2         1.29782094
   3         0.00000000
   4         0.00000000
   5        -0.46971890
   6        -0.29928382
   7        -1.25202716
   8        -0.00000000
   9        -0.00000000
  10         1.03932756
Sym=    10a  
Ene=     0.6932
Spin= Alpha
Occup=    0.00000
   1        -0.15849113
   2        -0.78641660
   3         0.00000000
   4         0.00000000
   5        -1.35950961
   6         0.98396265
   7         0.60061115
   8        -0.00000000
   9        -0.00000000
  10         0.46514593
Sym=    10a  
Ene=     0.6932
Spin= Beta
Occup=    0.00000
   1        -0.15849113
   2        -0.78641660
   3         0.00000000
   4         0.00000000
   5        -1.35950961
   6         0.98396265
   7         0.60061115
   8        -0.00000000
   9        -0.00000000
  10         0.46514593
