   This run of MOLCAS is using the pymolcas driver

                             OPE
                             OPE          NMOL  CASOP  ENMOLC A   SO
                 OPE        NMOLC        AS  OP EN  MO LC     AS  OP
                OPENM       OL CA        SO  PE NM  OL CA     SOP EN
                OP EN      MO   LC       AS  OP ENMOL  CASO   PENMOL
                OP  EN     MO   LC       AS  OP EN     MO     LC ASO
               OP   E  NMOL  C  AS       OP  EN MO     LC     AS  OP
               OP  E   NMO   LC AS        OPEN  MO     LCASOP EN   M
               O  PEN   MO  LCA  SO
            OPE   NMO   L   CAS    OP
        OPENMOL  CASOP     ENMOL   CASOPE
     OPENMOLCA   SOPENMOLCASOPEN   MOLCASOPE
    OPENMOLCAS   OP           EN   MOL    CAS
    OPENMOLCAS       OP  ENM        O     LCA
    OPENMOLCAS    OPEN  MOLCASO     P  E  NMO
    OPENMOLCAS     OP               E  N  MOL
    OPENMOLCA   SO           PENM   O  L  CAS    OPEN    MO    LCAS
    OPENMOLCA   SOP           ENM   O  L  CAS   OP  EN  MOLC  AS   O
    OPENMOLCA   SOPE           NM      O  LCA   S      OP  EN MO
    OPENMOLC                AS         O  PEN   M      OL  CA  SOPE
    OPENMO        LCASOPE  NMOL        C  ASO   P      ENMOLC     AS
    OPE     NMO      LCA  SO     P     E   NM   OL  CA SO  PE N   MO
          OPENMOLCA            SOPE   NMO        LCAS  O    P  ENMO
     OPENMOLCASOPENMOLCASOPENMOLCASOPENMOLCA
        OPENMOLCASOPENMOLCASOPENMOLCASOPE
            OPENMOLCASOPENMOLCASOPENM
               OPENMOLCASOPENMOLCA        version: f37762c57
                   OPENMOLCASO
                       OPE                tag:

 OpenMolcas is free software; you can redistribute it and/or modify it
 under the terms of the GNU Lesser General Public License version 2.1.
 OpenMolcas is distributed in the hope that it will be useful, but it
 is provided "as is" and without any express or implied warranties.
 For more details see the full text of the license in the file
 LICENSE or in <http://www.gnu.org/licenses/>.

                 Copyright (C) The OpenMolcas Authors
           For the author list and the recommended citation,
                   consult the file CONTRIBUTORS.md

           *************************************************
           * pymolcas version py2.28                       *
           *   build c4a6d18ded8cb6cad61d2372a9abd97c      *
           *   (after the EMIL interpreter by V. Veryazov) *
           *************************************************

configuration info
------------------
C Compiler ID: Intel
C flags: -std=gnu99 -gcc-sys
Fortran Compiler ID: IntelLLVM
Fortran flags: -standard-semantics -fltconsistency -fpp -i8 -heap-arrays
Definitions: _MOLCAS_;_I8_;_LINUX_
Parallel: OFF (GA=OFF)


   ------------------------------------------------------------------------------------
  |
  |              Project: 1.44
  |       Submitted from: /home/grierjones/DDCASPT2/iron_oxo_DDCASPT2/MScaspt2iron/1.44
  |         Scratch area: /tmp/1.44
  |      Save outputs to: /home/grierjones/DDCASPT2/iron_oxo_DDCASPT2/MScaspt2iron/1.44
  |               Molcas: /home/grierjones/Test/build
  |
  | Scratch area is empty
  |
  |       MOLCAS_DRIVER = /usr/local/pymolcas
  | MOLCAS_KEEP_WORKDIR = NO
  |  MOLCAS_NEW_WORKDIR = YES
  |       MOLCAS_NPROCS = 1
  |        MOLCAS_PRINT = NORMAL
  |       MOLCAS_SOURCE = /home/grierjones/Test
  |    MOLCAS_STRUCTURE = 0
  |
   ------------------------------------------------------------------------------------

++ ---------   Input file   ---------

&GATEWAY
coord=1.44.xyz
Basis = ANO-RCC-VTZP
Group = nosymm
End of Input

&SEWARD
End of Input

&SCF
UHF
charge
2
spin
5
FileOrb
/home/grierjones/DDCASPT2/iron_oxo_DDCASPT2/MScaspt2iron/1.42/1.42.UhfOrb

>>> COPY $WorkDir/1.44.scf.h5 $CurrDir/

&RASSCF
Title= RASSCF
FileOrb
/home/grierjones/DDCASPT2/iron_oxo_DDCASPT2/MScaspt2iron/1.42/1.42.RasOrb
CIROOT
3 3 1
NACTEL
10 0 0
RAS2
14
Symmetry
1
Spin
5
charge
2
orblisting
all

>>> COPY $WorkDir/1.44.rasscf.h5 $CurrDir/

>>> COPY $WorkDir/GMJ_Fock_MO.csv $CurrDir/1.44.GMJ_Fock_MO.csv

&MOTRA
Frozen=0
LUMORB

>>> COPY $WorkDir/GMJ_one_int_indx.csv $CurrDir/1.44.GMJ_one_int_indx.csv

>>> COPY $WorkDir/GMJ_one_int.csv $CurrDir/1.44.GMJ_one_int.csv

>>> COPY $WorkDir/GMJ_two_int_indx.csv $CurrDir/1.44.GMJ_two_int_indx.csv

>>> COPY $WorkDir/GMJ_two_int.csv $CurrDir/1.44.GMJ_two_int.csv

&CASPT2

Imaginary Shift
0.2
IPEA
0.25

Frozen
0

MAXITER
50

>>> FOREACH k IN (1,2,3)

  >>> FOREACH i IN (B,E,F,G,H)

    >>> FOREACH j IN (P,M)

      >>> IF (-FILE GMJ_e2_${i}_${j}_${k}_.csv)

        >>> COPY $WorkDir/GMJ_RHS_${i}_${j}_${k}_.csv $CurrDir/GMJ_RHS_${i}_${j}_${k}_.csv

        >>> COPY $WorkDir/GMJ_IVECW_${i}_${j}_${k}_.csv $CurrDir/GMJ_IVECW_${i}_${j}_${k}_.csv

        >>> COPY $WorkDir/GMJ_IVECX_${i}_${j}_${k}_.csv $CurrDir/GMJ_IVECX_${i}_${j}_${k}_.csv

        >>> COPY $WorkDir/GMJ_IVECC2_${i}_${j}_${k}_.csv $CurrDir/GMJ_IVECC2_${i}_${j}_${k}_.csv

        >>> COPY $WorkDir/GMJ_e2_${i}_${j}_${k}_.csv $CurrDir/GMJ_e2_${i}_${j}_${k}_.csv

      >>> END IF

    >>> END FOREACH

  >>> END FOREACH

>>> END FOREACH

>>> FOREACH j IN (1,2,3)

  >>> FOREACH i IN (A,C,D)

    >>> IF (-FILE GMJ_e2_${i}_${j}_.csv)

      >>> COPY $WorkDir/GMJ_RHS_${i}_${j}_.csv $CurrDir/GMJ_RHS_${i}_${j}_.csv

      >>> COPY $WorkDir/GMJ_IVECW_${i}_${j}_.csv $CurrDir/GMJ_IVECW_${i}_${j}_.csv

      >>> COPY $WorkDir/GMJ_IVECX_${i}_${j}_.csv $CurrDir/GMJ_IVECX_${i}_${j}_.csv

      >>> COPY $WorkDir/GMJ_IVECC2_${i}_${j}_.csv $CurrDir/GMJ_IVECC2_${i}_${j}_.csv

      >>> COPY $WorkDir/GMJ_e2_${i}_${j}_.csv $CurrDir/GMJ_e2_${i}_${j}_.csv

    >>> END IF

  >>> END FOREACH

>>> END FOREACH

-- ----------------------------------

--- Start Module: gateway at Wed Apr 16 21:46:02 2025 ---
 
()()()()()()()()()()()()()()()()()()()()()()()()()()()()()()()()()()()()()()()()()()()()()()()()()()

                                              &GATEWAY

                                   only a single process is used
                       available to each process: 2.0 GB of memory, 1 thread?
()()()()()()()()()()()()()()()()()()()()()()()()()()()()()()()()()()()()()()()()()()()()()()()()()()
 
 
++    Symmetry information:
      ---------------------
 
                    Character Table for C1 
 
                             E  
                    a        1  x, y, xy, Rz, z, xz, Ry, yz, Rx, I
--
 
 
++    Basis set information:
      ----------------------
 
 
      Basis set label: O.ANO-RCC...4S3P2D1F.
 
      Electronic valence basis set:
      ------------------
      Associated Effective Charge   8.000000 au
      Associated Actual Charge      8.000000 au
      Nuclear Model: Point charge
 
      Shell  nPrim  nBasis  Cartesian Spherical Contaminant
         s      14       4        X                  
         p       9       3        X                  
         d       4       2                 X         
         f       3       1                 X         
 
 
      Basis set label: FE.ANO-RCC...6S5P3D2F1G.
 
      Electronic valence basis set:
      ------------------
      Associated Effective Charge  26.000000 au
      Associated Actual Charge     26.000000 au
      Nuclear Model: Point charge
 
      Shell  nPrim  nBasis  Cartesian Spherical Contaminant
         s      21       6        X                  
         p      15       5        X                  
         d      10       3                 X         
         f       6       2                 X         
         g       4       1                 X         
--
 
 
++    Molecular structure info:
      -------------------------
 
                    ************************************************ 
                    **** Cartesian Coordinates / Bohr, Angstrom **** 
                    ************************************************ 
 
     Center  Label                x              y              z                     x              y              z
        1      O1               0.000000       0.000000       2.872384              0.000000       0.000000       1.520000
        2      FE2              0.000000       0.000000       0.151178              0.000000       0.000000       0.080000
--
 
 
            Nuclear Potential Energy             76.43670821 au
 
--- Stop Module: gateway at Wed Apr 16 21:46:02 2025 /rc=_RC_ALL_IS_WELL_ ---
*** files: xmldump
    saved to directory /home/grierjones/DDCASPT2/iron_oxo_DDCASPT2/MScaspt2iron/1.44

--- Start Module: seward at Wed Apr 16 21:46:02 2025 ---
 
()()()()()()()()()()()()()()()()()()()()()()()()()()()()()()()()()()()()()()()()()()()()()()()()()()

                                              &SEWARD

                                   only a single process is used
                       available to each process: 2.0 GB of memory, 1 thread?
()()()()()()()()()()()()()()()()()()()()()()()()()()()()()()()()()()()()()()()()()()()()()()()()()()
 
               SEWARD will generate:
                  Multipole Moment integrals up to order  2
                  Kinetic Energy integrals
                  Nuclear Attraction integrals (point charge)
                  One-Electron Hamiltonian integrals
                  Velocity integrals
                  Relativistic Douglas-Kroll-Hess integrals:
                    - Parametrization         : EXP
                    - DKH order of Hamiltonian: 2
                    - DKH order of Properties : 0
                         - multipole moment operators
                         - electric potential operators
                         - contact operators
                  Atomic mean-field integrals
                  Two-Electron Repulsion integrals
 
                   Integrals are discarded if absolute value <: 0.10E-13
                   Integral cutoff threshold is set to       <: 0.10E-15
 
            Nuclear Potential Energy             76.43670821 au
 
 
      Basis set specifications :
      Symmetry species         a  
      Basis functions           89
 
 
  Input file to MOLDEN was generated!
 
forrtl: warning (525): IEEE_DIVIDE_BY_ZERO is signaling
forrtl: warning (526): IEEE_INVALID is signaling
forrtl: warning (528): IEEE_UNDERFLOW is signaling
--- Stop Module: seward at Wed Apr 16 21:46:06 2025 /rc=_RC_ALL_IS_WELL_ ---
*** files: 1.44.GssOrb 1.44.guessorb.h5 1.44.guessorb.molden xmldump
    saved to directory /home/grierjones/DDCASPT2/iron_oxo_DDCASPT2/MScaspt2iron/1.44
--- Module seward spent 3 seconds ---

*** symbolic link created: INPORB -> 1.44.GssOrb
--- Start Module: scf at Wed Apr 16 21:46:06 2025 ---
 
()()()()()()()()()()()()()()()()()()()()()()()()()()()()()()()()()()()()()()()()()()()()()()()()()()

                                                &SCF

                                   only a single process is used
                       available to each process: 2.0 GB of memory, 1 thread?
()()()()()()()()()()()()()()()()()()()()()()()()()()()()()()()()()()()()()()()()()()()()()()()()()()
 
 *** Possible bug in opening file
 *** isFreeUnit resets the unit number
++    Input section:
      --------------
 
      Header of the integral files:
      
       Integrals generated by seward 4.2.0  , Wed Apr 16 21:46:03 2025
 
 
      Cartesian coordinates in Angstrom:
      -----------------------------------------------------
      No.  Label        X            Y            Z        
      -----------------------------------------------------
       1   O1         0.00000000   0.00000000   1.52000000
       2   FE2        0.00000000   0.00000000   0.08000000
      -----------------------------------------------------
      Nuclear repulsion energy =   76.43670821
--
 
++    Orbital specifications:
      -----------------------
 
      Symmetry species               1
                                     a
      Frozen orbitals                0
      Occupied orbitals alpha       18
      Occupied orbitals beta        14
      Secondary orbitals alpha      71
      Secondary orbitals beta       75
      Deleted orbitals               0
      Total number of orbitals      89
      Number of basis functions     89
--
 
      Molecular charge                           2.000
 
++    Optimization specifications:
      ----------------------------
 
      SCF Algorithm: Conventional USCF
      D(i)-D(i-1) density differences are used
      Number of density matrices in core                5
      Maximum number of NDDO SCF iterations           400
      Maximum number of HF SCF iterations             400
      Threshold for SCF energy change            0.10E-08
      Threshold for density matrix               0.10E-03
      Threshold for Fock matrix                  0.15E-03
      Threshold for linear dependence            0.10E-08
      Threshold at which DIIS is turned on       0.15E+00
      Threshold at which QNR/C2DIIS is turned on 0.75E-01
      Threshold for Norm(delta) (QNR/C2DIIS)     0.20E-04
      DIIS extrapolation of the SCF procedure
      All orbitals punched on: UHFORB
--
 
      Input vectors read from INPORB
      Orbital file label: * UHF orbitals
 
 
++ Convergence information
                               UHF SCF        iterations: Energy and convergence statistics
 
Iter     Tot. SCF        One-elec.       Two-elec.     Energy      Max Dij or  Max Fij      DNorm      TNorm      AccCon     Time
         Energy          Energy          Energy        Change      Delta Norm                                                in Sec.
 
 The total and one-electron energies are shifted by a value of      1000. a.u.
 
   1  -345.264430186  -986.861335582   565.160197188   0.00E+00    0.10E-01*   0.50E-02*    0.82E+01   0.23E+03   None         0.
   2  -345.264674029  -986.866930724   565.165548487  -0.24E-03*   0.69E-02*   0.29E-02*    0.45E-01   0.23E+03   EDIIS        0.
   3  -345.264720354  -986.776173235   565.074744673  -0.46E-04*   0.42E-02*   0.16E-02*    0.20E-01   0.23E+03   c2DIIS       0.
   4  -345.264743166  -986.858876174   565.157424800  -0.23E-04*   0.61E-02*   0.12E-02*    0.13E-01   0.23E+03   QNRc2DIIS    0.
   5  -345.264750380  -986.799270408   565.097811820  -0.72E-05*   0.42E-02*   0.98E-03*    0.82E-02   0.23E+03   QNRc2DIIS    0.
   6  -345.264756272  -986.820835328   565.119370848  -0.59E-05*   0.27E-02*   0.31E-03*    0.70E-02   0.23E+03   QNRc2DIIS    0.
   7  -345.264757195  -986.826796369   565.125330966  -0.92E-06*   0.63E-03*   0.63E-04     0.45E-02   0.23E+03   QNRc2DIIS    0.
   8  -345.264757255  -986.826295376   565.124829913  -0.60E-07*   0.59E-04*   0.10E-04     0.89E-03   0.23E+03   QNRc2DIIS    0.
   9  -345.264757256  -986.826104811   565.124639346  -0.14E-08*   0.15E-03*   0.72E-05     0.75E-04   0.23E+03   QNRc2DIIS    0.
  10  -345.264757258  -986.826065781   565.124600315  -0.18E-08*   0.53E-04*   0.42E-05     0.19E-03   0.23E+03   QNRc2DIIS    0.
  11  -345.264757258  -986.825801394   565.124335927  -0.29E-09    0.25E-04*   0.24E-05     0.69E-04   0.23E+03   QNRc2DIIS    0.
  12  -345.264757259  -986.825840708   565.124375242  -0.76E-10    0.37E-05    0.53E-06     0.34E-04   0.23E+03   QNRc2DIIS    0.
 
       Convergence after 12 Macro Iterations
--
 
 *****************************************************************************************************************************
 *                                                                                                                           *
 *                                             SCF/KS-DFT Program, Final results                                             *
 *                                                                                                                           *
 *                                                                                                                           *
 *                                                                                                                           *
 *                                                       Final Results                                                       *
 *                                                                                                                           *
 *****************************************************************************************************************************
 
::    Total SCF energy                              -1345.2647572585
      One-electron energy                           -1986.8258407080
      Two-electron energy                             565.1243752416
      Nuclear repulsion energy                         76.4367082079
      Kinetic energy (interpolated)                  1399.9999876908
      Virial theorem                                    0.9609034065
      Total spin, S(S+1)                                6.7389334133
      Total spin, S                                     2.1436590955
      Max non-diagonal density matrix element           0.0000012919
      Max non-diagonal Fock matrix element              0.0000002853
 
 
      All orbitals with orbital energies smaller than  E(LUMO)+0.5 are printed
 
++    Molecular orbitals:
      -------------------
 
      Title: UHF orbitals (alpha)

      Molecular orbitals for symmetry species 1: a  
 
          Orbital            1         2         3         4         5         6         7         8         9        10    
          Energy         -264.4822  -33.3318  -28.4032  -28.4032  -28.3948  -21.2267   -5.2629   -3.8155   -3.8155   -3.8111
          Occ. No.          1.0000    1.0000    1.0000    1.0000    1.0000    1.0000    1.0000    1.0000    1.0000    1.0000
 
        1 O1     1s         0.0000   -0.0003   -0.0000    0.0000   -0.0001    0.9999   -0.0036   -0.0000    0.0000   -0.0058
        2 O1     2s         0.0000   -0.0023   -0.0000   -0.0000   -0.0009   -0.0008   -0.0090    0.0000   -0.0000    0.0231
        3 O1     3s         0.0000   -0.0018   -0.0000   -0.0000   -0.0007   -0.0010   -0.0124   -0.0000    0.0000   -0.0097
        4 O1     4s         0.0000   -0.0005   -0.0000   -0.0000   -0.0002   -0.0001   -0.0025   -0.0000    0.0000   -0.0008
        5 O1     2px        0.0000   -0.0000    0.0000   -0.0000    0.0000   -0.0000    0.0000    0.0047   -0.0002   -0.0000
        6 O1     3px       -0.0000    0.0000    0.0001   -0.0000   -0.0000    0.0000    0.0000   -0.0018    0.0001    0.0000
        7 O1     4px        0.0000   -0.0000    0.0001   -0.0000    0.0000    0.0000    0.0000   -0.0014    0.0001   -0.0000
        8 O1     2py        0.0000   -0.0000    0.0000    0.0000    0.0000    0.0000   -0.0000    0.0002    0.0047   -0.0000
        9 O1     3py       -0.0000    0.0000    0.0000    0.0001    0.0000    0.0000   -0.0000   -0.0001   -0.0018   -0.0000
       10 O1     4py        0.0000   -0.0000    0.0000    0.0001   -0.0000   -0.0000    0.0000   -0.0001   -0.0014   -0.0000
       11 O1     2pz       -0.0000    0.0015    0.0000   -0.0000    0.0003   -0.0004    0.0043   -0.0000    0.0000   -0.0145
       12 O1     3pz       -0.0000    0.0013    0.0000    0.0000    0.0004   -0.0000    0.0088    0.0000   -0.0000    0.0084
       13 O1     4pz        0.0000   -0.0002   -0.0000    0.0000    0.0001   -0.0004   -0.0029   -0.0000    0.0000   -0.0053
       14 O1     3d2-       0.0000   -0.0000    0.0000   -0.0000   -0.0000   -0.0000   -0.0000   -0.0000    0.0000   -0.0000
       15 O1     4d2-       0.0000   -0.0000   -0.0000    0.0000   -0.0000    0.0000   -0.0000    0.0000   -0.0000   -0.0000
       16 O1     3d1-       0.0000   -0.0000   -0.0000   -0.0001   -0.0000    0.0000    0.0000   -0.0001   -0.0016    0.0000
       17 O1     4d1-       0.0000   -0.0000   -0.0000   -0.0000   -0.0000   -0.0000    0.0000    0.0000    0.0002    0.0000
       18 O1     3d0        0.0000   -0.0006    0.0000    0.0000    0.0000   -0.0009   -0.0030   -0.0000    0.0000    0.0004
       19 O1     4d0        0.0000   -0.0005    0.0000    0.0000   -0.0000    0.0007   -0.0033   -0.0000    0.0000   -0.0036
       20 O1     3d1+       0.0000   -0.0000   -0.0001    0.0000   -0.0000   -0.0000   -0.0000   -0.0016    0.0001   -0.0000
       21 O1     4d1+       0.0000   -0.0000   -0.0000    0.0000   -0.0000    0.0000   -0.0000    0.0002   -0.0000   -0.0000
       22 O1     3d2+      -0.0000   -0.0000    0.0000   -0.0000   -0.0000   -0.0000    0.0000    0.0000    0.0000   -0.0000
       23 O1     4d2+       0.0000    0.0000   -0.0000   -0.0000    0.0000    0.0000   -0.0000    0.0000    0.0000    0.0000
       24 O1     4f3-      -0.0000   -0.0000    0.0000    0.0000   -0.0000    0.0000   -0.0000   -0.0000    0.0000    0.0000
       25 O1     4f2-       0.0000   -0.0000   -0.0000    0.0000   -0.0000    0.0000   -0.0000    0.0000   -0.0000   -0.0000
       26 O1     4f1-      -0.0000    0.0000    0.0000    0.0001   -0.0000    0.0000   -0.0000    0.0000    0.0002   -0.0000
       27 O1     4f0       -0.0000    0.0003    0.0000    0.0000   -0.0000   -0.0000    0.0009   -0.0000   -0.0000   -0.0004
       28 O1     4f1+      -0.0000    0.0000    0.0001   -0.0000    0.0000   -0.0000   -0.0000    0.0002   -0.0000   -0.0000
       29 O1     4f2+      -0.0000    0.0000    0.0000    0.0000    0.0000   -0.0000   -0.0000   -0.0000   -0.0000   -0.0000
       30 O1     4f3+      -0.0000    0.0000    0.0000    0.0000    0.0000   -0.0000    0.0000   -0.0000   -0.0000    0.0000
       31 FE2    1s         1.0000    0.0000    0.0000    0.0000    0.0000   -0.0000    0.0003    0.0000   -0.0000    0.0001
       32 FE2    2s         0.0000    1.0004   -0.0000   -0.0000   -0.0004   -0.0000   -0.0010    0.0000   -0.0000    0.0004
       33 FE2    3s        -0.0000    0.0048    0.0000    0.0000    0.0007    0.0000    1.0087    0.0000    0.0000   -0.0105
       34 FE2    4s        -0.0000    0.0020    0.0000    0.0000    0.0009    0.0003    0.0101    0.0000   -0.0000    0.0009
       35 FE2    5s         0.0000   -0.0007   -0.0000    0.0000   -0.0002    0.0000   -0.0012   -0.0000   -0.0000    0.0008
       36 FE2    6s        -0.0000   -0.0000    0.0000   -0.0000   -0.0000    0.0000   -0.0006    0.0000    0.0000   -0.0004
       37 FE2    2px       -0.0000    0.0000    0.9998   -0.0205    0.0000    0.0000   -0.0000   -0.0030    0.0001    0.0000
       38 FE2    3px       -0.0000   -0.0000    0.0029   -0.0001    0.0000    0.0000   -0.0000    0.9987   -0.0371   -0.0000
       39 FE2    4px       -0.0000   -0.0000   -0.0006    0.0000   -0.0000   -0.0000   -0.0000   -0.0158    0.0006    0.0000
       40 FE2    5px       -0.0000    0.0000    0.0011   -0.0000    0.0000   -0.0000   -0.0000    0.0141   -0.0005   -0.0000
       41 FE2    6px       -0.0000    0.0000   -0.0007    0.0000   -0.0000   -0.0000   -0.0000    0.0045   -0.0002   -0.0000
       42 FE2    2py       -0.0000    0.0000    0.0205    0.9998   -0.0000   -0.0000   -0.0000   -0.0001   -0.0030   -0.0000
       43 FE2    3py        0.0000   -0.0000    0.0001    0.0029   -0.0000   -0.0000    0.0000    0.0371    0.9987    0.0000
       44 FE2    4py       -0.0000    0.0000   -0.0000   -0.0006    0.0000   -0.0000    0.0000   -0.0006   -0.0158   -0.0000
       45 FE2    5py       -0.0000    0.0000    0.0000    0.0011   -0.0000    0.0000   -0.0000    0.0005    0.0141    0.0000
       46 FE2    6py       -0.0000    0.0000   -0.0000   -0.0007    0.0000    0.0000    0.0000    0.0002    0.0045    0.0000
       47 FE2    2pz       -0.0000    0.0006   -0.0000    0.0000    1.0000   -0.0000    0.0002   -0.0000    0.0000   -0.0029
       48 FE2    3pz       -0.0000    0.0011   -0.0000    0.0000    0.0031    0.0002    0.0156    0.0000   -0.0000    0.9968
       49 FE2    4pz       -0.0000    0.0015    0.0000   -0.0000    0.0001    0.0007    0.0084    0.0000    0.0000   -0.0121
       50 FE2    5pz        0.0000   -0.0005   -0.0000    0.0000    0.0011    0.0001   -0.0008    0.0000   -0.0000    0.0118
       51 FE2    6pz        0.0000   -0.0004    0.0000   -0.0000   -0.0008    0.0000   -0.0023    0.0000   -0.0000    0.0033
       52 FE2    3d2-       0.0000   -0.0000    0.0000    0.0000   -0.0000    0.0000   -0.0000    0.0000   -0.0000   -0.0000
       53 FE2    4d2-      -0.0000    0.0000   -0.0000    0.0000    0.0000    0.0000    0.0000   -0.0000   -0.0000   -0.0000
       54 FE2    5d2-      -0.0000    0.0000    0.0000    0.0000    0.0000   -0.0000    0.0000   -0.0000   -0.0000   -0.0000
       55 FE2    3d1-       0.0000    0.0000    0.0000    0.0000   -0.0000   -0.0000   -0.0000    0.0001    0.0025    0.0000
       56 FE2    4d1-       0.0000   -0.0000   -0.0000   -0.0001   -0.0000   -0.0000    0.0000   -0.0001   -0.0039    0.0000
       57 FE2    5d1-      -0.0000    0.0000    0.0000    0.0000   -0.0000   -0.0000   -0.0000    0.0001    0.0027    0.0000
       58 FE2    3d0       -0.0000    0.0003    0.0000    0.0000    0.0002    0.0003    0.0018    0.0000   -0.0000    0.0080
       59 FE2    4d0       -0.0000    0.0005    0.0000    0.0000    0.0001    0.0003    0.0038    0.0000    0.0000   -0.0005
       60 FE2    5d0        0.0000   -0.0002    0.0000    0.0000    0.0001    0.0001   -0.0004    0.0000   -0.0000    0.0001
       61 FE2    3d1+       0.0000   -0.0000    0.0000   -0.0000   -0.0000    0.0000    0.0000    0.0025   -0.0001   -0.0000
       62 FE2    4d1+      -0.0000   -0.0000   -0.0001    0.0000   -0.0000    0.0000   -0.0000   -0.0039    0.0001    0.0000
       63 FE2    5d1+      -0.0000    0.0000    0.0000   -0.0000   -0.0000   -0.0000    0.0000    0.0027   -0.0001   -0.0000
       64 FE2    3d2+      -0.0000    0.0000    0.0000   -0.0000   -0.0000    0.0000    0.0000   -0.0000   -0.0000   -0.0000
       65 FE2    4d2+       0.0000   -0.0000    0.0000    0.0000    0.0000   -0.0000   -0.0000   -0.0000    0.0000    0.0000
       66 FE2    5d2+      -0.0000    0.0000   -0.0000   -0.0000   -0.0000   -0.0000   -0.0000    0.0000    0.0000   -0.0000
       67 FE2    4f3-       0.0000   -0.0000   -0.0000   -0.0000    0.0000    0.0000   -0.0000    0.0000    0.0000   -0.0000
       68 FE2    5f3-       0.0000   -0.0000   -0.0000    0.0000    0.0000   -0.0000   -0.0000    0.0000   -0.0000   -0.0000
       69 FE2    4f2-       0.0000    0.0000   -0.0000    0.0000   -0.0000    0.0000   -0.0000    0.0000   -0.0000   -0.0000
       70 FE2    5f2-      -0.0000    0.0000   -0.0000    0.0000    0.0000    0.0000   -0.0000    0.0000   -0.0000   -0.0000
       71 FE2    4f1-       0.0000   -0.0000   -0.0000   -0.0000   -0.0000   -0.0000    0.0000   -0.0001   -0.0015    0.0000
       72 FE2    5f1-       0.0000    0.0000   -0.0000   -0.0000    0.0000   -0.0000    0.0000   -0.0000   -0.0006    0.0000
       73 FE2    4f0       -0.0000    0.0001    0.0000   -0.0000   -0.0001    0.0001    0.0020    0.0000   -0.0000    0.0006
       74 FE2    5f0       -0.0000    0.0001   -0.0000    0.0000    0.0001    0.0001    0.0013    0.0000   -0.0000    0.0018
       75 FE2    4f1+       0.0000   -0.0000   -0.0000    0.0000   -0.0000    0.0000   -0.0000   -0.0015    0.0001   -0.0000
       76 FE2    5f1+       0.0000   -0.0000   -0.0000    0.0000   -0.0000    0.0000   -0.0000   -0.0006    0.0000   -0.0000
       77 FE2    4f2+       0.0000   -0.0000    0.0000   -0.0000    0.0000    0.0000    0.0000   -0.0000   -0.0000    0.0000
       78 FE2    5f2+       0.0000   -0.0000    0.0000    0.0000    0.0000   -0.0000    0.0000   -0.0000   -0.0000   -0.0000
       79 FE2    4f3+      -0.0000    0.0000   -0.0000    0.0000   -0.0000    0.0000   -0.0000    0.0000    0.0000    0.0000
       80 FE2    5f3+      -0.0000    0.0000    0.0000   -0.0000    0.0000    0.0000   -0.0000    0.0000   -0.0000    0.0000
       81 FE2    5g4-       0.0000   -0.0000    0.0000   -0.0000   -0.0000    0.0000    0.0000   -0.0000    0.0000   -0.0000
       82 FE2    5g3-       0.0000   -0.0000   -0.0000   -0.0000    0.0000   -0.0000    0.0000   -0.0000   -0.0000   -0.0000
       83 FE2    5g2-       0.0000    0.0000   -0.0000    0.0000   -0.0000    0.0000   -0.0000    0.0000   -0.0000   -0.0000
       84 FE2    5g1-      -0.0000   -0.0000   -0.0000   -0.0000    0.0000    0.0000    0.0000    0.0000    0.0003    0.0000
       85 FE2    5g0       -0.0000    0.0000    0.0000   -0.0000    0.0000    0.0001    0.0006    0.0000   -0.0000    0.0014
       86 FE2    5g1+      -0.0000    0.0000   -0.0000    0.0000   -0.0000   -0.0000   -0.0000    0.0003   -0.0000   -0.0000
       87 FE2    5g2+       0.0000   -0.0000   -0.0000    0.0000   -0.0000   -0.0000    0.0000    0.0000   -0.0000    0.0000
       88 FE2    5g3+      -0.0000    0.0000   -0.0000   -0.0000   -0.0000   -0.0000    0.0000   -0.0000   -0.0000    0.0000
       89 FE2    5g4+      -0.0000   -0.0000    0.0000    0.0000   -0.0000    0.0000   -0.0000   -0.0000   -0.0000   -0.0000
 
          Orbital           11        12        13        14        15        16        17        18        19        20    
          Energy           -1.8872   -1.5256   -1.5256   -1.5052   -1.5052   -1.4323   -1.1347   -1.1347   -0.5833   -0.4397
          Occ. No.          1.0000    1.0000    1.0000    1.0000    1.0000    1.0000    1.0000    1.0000    0.0000    0.0000
 
        1 O1     1s        -0.0130   -0.0000    0.0000   -0.0000   -0.0000   -0.0358    0.0000   -0.0000    0.0185    0.0060
        2 O1     2s         0.8529   -0.0000    0.0000    0.0000   -0.0000   -0.5828   -0.0000    0.0000    0.2664    0.0981
        3 O1     3s        -0.0286   -0.0000    0.0000   -0.0000    0.0000   -0.1133    0.0000   -0.0000    0.0508    0.0292
        4 O1     4s        -0.0087   -0.0000    0.0000   -0.0000    0.0000   -0.0181    0.0000   -0.0000    0.0133    0.0095
        5 O1     2px        0.0000    0.2075    0.0180   -0.0000    0.0000    0.0000    0.0674   -0.9424    0.0000    0.0000
        6 O1     3px       -0.0000   -0.0183   -0.0016    0.0000   -0.0000   -0.0000   -0.0034    0.0476   -0.0000    0.0000
        7 O1     4px        0.0000    0.0089    0.0008    0.0000    0.0000   -0.0000   -0.0021    0.0295    0.0000    0.0000
        8 O1     2py       -0.0000   -0.0180    0.2075    0.0000    0.0000   -0.0000   -0.9424   -0.0674   -0.0000   -0.0000
        9 O1     3py        0.0000    0.0016   -0.0183    0.0000   -0.0000    0.0000    0.0476    0.0034   -0.0000   -0.0000
       10 O1     4py        0.0000   -0.0008    0.0089    0.0000    0.0000    0.0000    0.0295    0.0021    0.0000    0.0000
       11 O1     2pz       -0.1444   -0.0000    0.0000    0.0000   -0.0000   -0.0114   -0.0000    0.0000    0.3554    0.8205
       12 O1     3pz        0.0197    0.0000   -0.0000    0.0000   -0.0000    0.0910    0.0000   -0.0000    0.0154    0.1438
       13 O1     4pz        0.0137   -0.0000    0.0000    0.0000   -0.0000   -0.0155    0.0000    0.0000   -0.0196   -0.0064
       14 O1     3d2-      -0.0000   -0.0000    0.0000    0.0021   -0.0000   -0.0000    0.0000    0.0000    0.0000    0.0000
       15 O1     4d2-      -0.0000   -0.0000   -0.0000   -0.0011    0.0000   -0.0000    0.0000    0.0000    0.0000   -0.0000
       16 O1     3d1-       0.0000    0.0013   -0.0151   -0.0000   -0.0000   -0.0000    0.0452    0.0032    0.0000    0.0000
       17 O1     4d1-       0.0000   -0.0001    0.0016   -0.0000   -0.0000    0.0000    0.0170    0.0012    0.0000    0.0000
       18 O1     3d0       -0.0023    0.0000   -0.0000   -0.0000    0.0000    0.0125    0.0000   -0.0000   -0.0301   -0.0372
       19 O1     4d0        0.0070   -0.0000    0.0000   -0.0000    0.0000   -0.0103    0.0000   -0.0000   -0.0117   -0.0149
       20 O1     3d1+      -0.0000   -0.0151   -0.0013    0.0000   -0.0000    0.0000   -0.0032    0.0452   -0.0000   -0.0000
       21 O1     4d1+      -0.0000    0.0016    0.0001    0.0000   -0.0000   -0.0000   -0.0012    0.0170    0.0000    0.0000
       22 O1     3d2+      -0.0000   -0.0000    0.0000    0.0000    0.0021    0.0000    0.0000    0.0000   -0.0000   -0.0000
       23 O1     4d2+       0.0000   -0.0000    0.0000   -0.0000   -0.0011   -0.0000   -0.0000   -0.0000    0.0000    0.0000
       24 O1     4f3-       0.0000    0.0000   -0.0000    0.0000   -0.0000    0.0000    0.0000   -0.0000   -0.0000    0.0000
       25 O1     4f2-      -0.0000    0.0000   -0.0000   -0.0003    0.0000   -0.0000    0.0000   -0.0000    0.0000    0.0000
       26 O1     4f1-      -0.0000   -0.0003    0.0037    0.0000    0.0000    0.0000   -0.0028   -0.0002    0.0000    0.0000
       27 O1     4f0       -0.0040    0.0000   -0.0000    0.0000    0.0000   -0.0026   -0.0000   -0.0000    0.0021    0.0009
       28 O1     4f1+       0.0000    0.0037    0.0003   -0.0000    0.0000   -0.0000    0.0002   -0.0028   -0.0000    0.0000
       29 O1     4f2+      -0.0000   -0.0000   -0.0000   -0.0000   -0.0003   -0.0000    0.0000    0.0000   -0.0000    0.0000
       30 O1     4f3+      -0.0000    0.0000   -0.0000    0.0000    0.0000    0.0000    0.0000   -0.0000    0.0000    0.0000
       31 FE2    1s        -0.0022    0.0000   -0.0000    0.0000    0.0000    0.0030   -0.0000    0.0000    0.0015    0.0059
       32 FE2    2s        -0.0160    0.0000   -0.0000    0.0000   -0.0000    0.0217   -0.0000    0.0000    0.0103    0.0423
       33 FE2    3s        -0.1023    0.0000   -0.0000    0.0000   -0.0000    0.1056   -0.0000    0.0000    0.0417    0.1932
       34 FE2    4s         0.0394    0.0000   -0.0000    0.0000    0.0000    0.0743    0.0000    0.0000   -0.8469    0.4236
       35 FE2    5s        -0.0204   -0.0000    0.0000   -0.0000   -0.0000   -0.0200   -0.0000    0.0000    0.2347    0.0164
       36 FE2    6s         0.0032   -0.0000    0.0000    0.0000    0.0000   -0.0007    0.0000   -0.0000   -0.0227   -0.0218
       37 FE2    2px       -0.0000   -0.0007   -0.0001    0.0000   -0.0000    0.0000   -0.0002    0.0031   -0.0000   -0.0000
       38 FE2    3px       -0.0000   -0.0172   -0.0015   -0.0000    0.0000   -0.0000   -0.0043    0.0608   -0.0000    0.0000
       39 FE2    4px       -0.0000   -0.0192   -0.0017    0.0000   -0.0000   -0.0000    0.0062   -0.0863    0.0000    0.0000
       40 FE2    5px       -0.0000    0.0041    0.0004   -0.0000    0.0000    0.0000   -0.0019    0.0266    0.0000    0.0000
       41 FE2    6px        0.0000   -0.0004   -0.0000   -0.0000    0.0000    0.0000   -0.0014    0.0195    0.0000    0.0000
       42 FE2    2py        0.0000    0.0001   -0.0007   -0.0000   -0.0000    0.0000    0.0031    0.0002    0.0000    0.0000
       43 FE2    3py        0.0000    0.0015   -0.0172    0.0000    0.0000    0.0000    0.0608    0.0043    0.0000    0.0000
       44 FE2    4py       -0.0000    0.0017   -0.0192   -0.0000   -0.0000   -0.0000   -0.0863   -0.0062   -0.0000   -0.0000
       45 FE2    5py        0.0000   -0.0004    0.0041   -0.0000    0.0000    0.0000    0.0266    0.0019    0.0000   -0.0000
       46 FE2    6py        0.0000    0.0000   -0.0004   -0.0000    0.0000    0.0000    0.0195    0.0014    0.0000   -0.0000
       47 FE2    2pz       -0.0058    0.0000   -0.0000    0.0000    0.0000    0.0045   -0.0000    0.0000    0.0029    0.0088
       48 FE2    3pz       -0.1491    0.0000   -0.0000    0.0000    0.0000    0.0759   -0.0000    0.0000    0.0372    0.1309
       49 FE2    4pz        0.0263    0.0000   -0.0000    0.0000    0.0000    0.0495    0.0000   -0.0000    0.2250   -0.4849
       50 FE2    5pz       -0.0151   -0.0000    0.0000   -0.0000    0.0000   -0.0075   -0.0000    0.0000   -0.0103    0.0050
       51 FE2    6pz       -0.0115   -0.0000    0.0000   -0.0000    0.0000   -0.0127   -0.0000    0.0000   -0.0192    0.0211
       52 FE2    3d2-      -0.0000    0.0000    0.0000    0.9921   -0.0185    0.0000   -0.0000   -0.0000   -0.0000    0.0000
       53 FE2    4d2-      -0.0000   -0.0000   -0.0000   -0.1203    0.0022   -0.0000    0.0000    0.0000    0.0000   -0.0000
       54 FE2    5d2-      -0.0000   -0.0000   -0.0000   -0.0287    0.0005   -0.0000    0.0000    0.0000    0.0000   -0.0000
       55 FE2    3d1-       0.0000   -0.0816    0.9411    0.0000    0.0000    0.0000    0.3214    0.0230    0.0000    0.0000
       56 FE2    4d1-      -0.0000    0.0101   -0.1169   -0.0000   -0.0000   -0.0000   -0.0590   -0.0042   -0.0000    0.0000
       57 FE2    5d1-      -0.0000    0.0027   -0.0314   -0.0000   -0.0000   -0.0000   -0.0077   -0.0006   -0.0000    0.0000
       58 FE2    3d0        0.3250    0.0000   -0.0000   -0.0000    0.0000    0.9357   -0.0000    0.0000    0.0470    0.1921
       59 FE2    4d0       -0.0356   -0.0000    0.0000    0.0000    0.0000   -0.0816    0.0000   -0.0000    0.0357    0.0750
       60 FE2    5d0       -0.0139   -0.0000    0.0000   -0.0000    0.0000   -0.0279    0.0000   -0.0000    0.0099    0.0447
       61 FE2    3d1+       0.0000    0.9411    0.0816   -0.0000    0.0000   -0.0000   -0.0230    0.3214   -0.0000    0.0000
       62 FE2    4d1+      -0.0000   -0.1169   -0.0101    0.0000   -0.0000    0.0000    0.0042   -0.0590    0.0000    0.0000
       63 FE2    5d1+      -0.0000   -0.0314   -0.0027    0.0000   -0.0000    0.0000    0.0006   -0.0077    0.0000    0.0000
       64 FE2    3d2+       0.0000   -0.0000   -0.0000    0.0185    0.9921   -0.0000    0.0000    0.0000    0.0000    0.0000
       65 FE2    4d2+       0.0000    0.0000    0.0000   -0.0022   -0.1203    0.0000   -0.0000    0.0000   -0.0000   -0.0000
       66 FE2    5d2+       0.0000   -0.0000    0.0000   -0.0005   -0.0287    0.0000   -0.0000    0.0000   -0.0000   -0.0000
       67 FE2    4f3-      -0.0000    0.0000   -0.0000   -0.0000    0.0000   -0.0000    0.0000    0.0000   -0.0000   -0.0000
       68 FE2    5f3-       0.0000   -0.0000   -0.0000   -0.0000    0.0000   -0.0000    0.0000    0.0000   -0.0000   -0.0000
       69 FE2    4f2-      -0.0000    0.0000   -0.0000   -0.0036    0.0001   -0.0000    0.0000    0.0000    0.0000   -0.0000
       70 FE2    5f2-      -0.0000    0.0000   -0.0000   -0.0033    0.0001   -0.0000    0.0000    0.0000    0.0000   -0.0000
       71 FE2    4f1-       0.0000   -0.0002    0.0025    0.0000    0.0000    0.0000   -0.0194   -0.0014   -0.0000   -0.0000
       72 FE2    5f1-      -0.0000   -0.0000    0.0006   -0.0000   -0.0000    0.0000   -0.0107   -0.0008   -0.0000   -0.0000
       73 FE2    4f0        0.0120    0.0000   -0.0000    0.0000    0.0000    0.0045    0.0000   -0.0000   -0.0016   -0.0127
       74 FE2    5f0        0.0043    0.0000   -0.0000    0.0000    0.0000    0.0032    0.0000    0.0000    0.0011   -0.0034
       75 FE2    4f1+      -0.0000    0.0025    0.0002   -0.0000   -0.0000   -0.0000    0.0014   -0.0194    0.0000   -0.0000
       76 FE2    5f1+       0.0000    0.0006    0.0000    0.0000   -0.0000   -0.0000    0.0008   -0.0107    0.0000   -0.0000
       77 FE2    4f2+       0.0000   -0.0000   -0.0000   -0.0001   -0.0036    0.0000   -0.0000   -0.0000   -0.0000   -0.0000
       78 FE2    5f2+       0.0000   -0.0000   -0.0000   -0.0001   -0.0033    0.0000   -0.0000   -0.0000   -0.0000   -0.0000
       79 FE2    4f3+      -0.0000    0.0000   -0.0000   -0.0000   -0.0000   -0.0000    0.0000   -0.0000    0.0000    0.0000
       80 FE2    5f3+       0.0000    0.0000    0.0000   -0.0000   -0.0000    0.0000   -0.0000   -0.0000    0.0000    0.0000
       81 FE2    5g4-      -0.0000    0.0000   -0.0000    0.0000   -0.0000   -0.0000    0.0000    0.0000    0.0000   -0.0000
       82 FE2    5g3-       0.0000   -0.0000    0.0000    0.0000    0.0000    0.0000    0.0000   -0.0000   -0.0000   -0.0000
       83 FE2    5g2-      -0.0000    0.0000    0.0000   -0.0008    0.0000   -0.0000   -0.0000    0.0000    0.0000   -0.0000
       84 FE2    5g1-       0.0000   -0.0000    0.0004    0.0000    0.0000    0.0000   -0.0023   -0.0002   -0.0000   -0.0000
       85 FE2    5g0        0.0012    0.0000   -0.0000    0.0000    0.0000    0.0003    0.0000   -0.0000    0.0002   -0.0012
       86 FE2    5g1+      -0.0000    0.0004    0.0000   -0.0000   -0.0000   -0.0000    0.0002   -0.0023    0.0000    0.0000
       87 FE2    5g2+       0.0000   -0.0000   -0.0000   -0.0000   -0.0008    0.0000   -0.0000   -0.0000    0.0000   -0.0000
       88 FE2    5g3+      -0.0000    0.0000    0.0000   -0.0000   -0.0000    0.0000    0.0000    0.0000    0.0000    0.0000
       89 FE2    5g4+       0.0000   -0.0000   -0.0000    0.0000    0.0000    0.0000    0.0000    0.0000   -0.0000   -0.0000
 
          Orbital           21        22        23        24        25        26        27        28        29    
          Energy           -0.3787   -0.3787   -0.2727   -0.2156   -0.1575   -0.1575   -0.1233   -0.1159   -0.1159
          Occ. No.          0.0000    0.0000    0.0000    0.0000    0.0000    0.0000    0.0000    0.0000    0.0000
 
        1 O1     1s         0.0000    0.0000   -0.0475   -0.0771    0.0000   -0.0000   -0.1980    0.0000    0.0000
        2 O1     2s         0.0000    0.0000   -0.4459   -0.5788    0.0000   -0.0000   -1.3871    0.0000    0.0000
        3 O1     3s         0.0000    0.0000   -0.1243   -0.3132    0.0000   -0.0000   -0.8732    0.0000    0.0000
        4 O1     4s         0.0000    0.0000   -0.0289   -0.0712    0.0000   -0.0000   -0.1927    0.0000    0.0000
        5 O1     2px       -0.2004    0.2480    0.0000    0.0000    0.0000    0.0000    0.0000    0.1713   -0.2374
        6 O1     3px       -0.0617    0.0764    0.0000    0.0000    0.0000    0.0000   -0.0000   -0.1120    0.1552
        7 O1     4px       -0.0072    0.0089    0.0000    0.0000   -0.0000    0.0000   -0.0000   -0.0985    0.1364
        8 O1     2py       -0.2480   -0.2004   -0.0000   -0.0000   -0.0000   -0.0000   -0.0000   -0.2374   -0.1713
        9 O1     3py       -0.0764   -0.0617   -0.0000   -0.0000    0.0000    0.0000    0.0000    0.1552    0.1120
       10 O1     4py       -0.0089   -0.0072   -0.0000   -0.0000    0.0000    0.0000    0.0000    0.1364    0.0985
       11 O1     2pz        0.0000    0.0000    0.1528    0.4789   -0.0000    0.0000    0.4391   -0.0000   -0.0000
       12 O1     3pz        0.0000    0.0000    0.0161    0.3346   -0.0000    0.0000    0.6997   -0.0000   -0.0000
       13 O1     4pz        0.0000    0.0000    0.0099    0.0438   -0.0000    0.0000    0.0846   -0.0000   -0.0000
       14 O1     3d2-      -0.0000    0.0000   -0.0000    0.0000   -0.0013    0.0168    0.0000    0.0000    0.0000
       15 O1     4d2-      -0.0000    0.0000   -0.0000   -0.0000   -0.0002    0.0024    0.0000    0.0000    0.0000
       16 O1     3d1-       0.0010    0.0008   -0.0000   -0.0000   -0.0000   -0.0000    0.0000    0.0598    0.0432
       17 O1     4d1-       0.0035    0.0028    0.0000   -0.0000   -0.0000   -0.0000    0.0000    0.0322    0.0232
       18 O1     3d0       -0.0000   -0.0000    0.0263   -0.0232   -0.0000   -0.0000   -0.1060    0.0000    0.0000
       19 O1     4d0       -0.0000   -0.0000    0.0154   -0.0163   -0.0000   -0.0000   -0.0664    0.0000    0.0000
       20 O1     3d1+       0.0008   -0.0010    0.0000    0.0000   -0.0000    0.0000   -0.0000   -0.0432    0.0598
       21 O1     4d1+       0.0028   -0.0035   -0.0000   -0.0000   -0.0000    0.0000   -0.0000   -0.0232    0.0322
       22 O1     3d2+       0.0000    0.0000    0.0000    0.0000    0.0168    0.0013   -0.0000    0.0000    0.0000
       23 O1     4d2+       0.0000    0.0000    0.0000    0.0000    0.0024    0.0002   -0.0000    0.0000    0.0000
       24 O1     4f3-      -0.0000   -0.0000    0.0000    0.0000   -0.0000    0.0000    0.0000   -0.0000    0.0000
       25 O1     4f2-       0.0000   -0.0000   -0.0000   -0.0000   -0.0005    0.0060   -0.0000    0.0000   -0.0000
       26 O1     4f1-       0.0006    0.0005    0.0000    0.0000   -0.0000   -0.0000   -0.0000   -0.0091   -0.0066
       27 O1     4f0        0.0000    0.0000   -0.0073    0.0013    0.0000    0.0000    0.0185   -0.0000   -0.0000
       28 O1     4f1+       0.0005   -0.0006   -0.0000   -0.0000   -0.0000    0.0000    0.0000    0.0066   -0.0091
       29 O1     4f2+       0.0000   -0.0000    0.0000   -0.0000    0.0060    0.0005    0.0000    0.0000    0.0000
       30 O1     4f3+      -0.0000   -0.0000    0.0000    0.0000    0.0000    0.0000   -0.0000    0.0000    0.0000
       31 FE2    1s         0.0000    0.0000    0.0024    0.0101   -0.0000    0.0000    0.0212   -0.0000   -0.0000
       32 FE2    2s         0.0000    0.0000    0.0173    0.0722   -0.0000    0.0000    0.1506   -0.0000   -0.0000
       33 FE2    3s         0.0000    0.0000    0.0923    0.3222   -0.0000    0.0000    0.6509   -0.0000   -0.0000
       34 FE2    4s         0.0000    0.0000    0.5933    0.4718   -0.0000    0.0000    1.2552   -0.0000   -0.0000
       35 FE2    5s         0.0000    0.0000    0.3611   -1.0142    0.0000   -0.0000   -0.4577    0.0000    0.0000
       36 FE2    6s        -0.0000   -0.0000    0.0128   -0.2220   -0.0000    0.0000    0.7708   -0.0000   -0.0000
       37 FE2    2px        0.0012   -0.0015   -0.0000   -0.0000   -0.0000    0.0000   -0.0000   -0.0005    0.0007
       38 FE2    3px        0.0280   -0.0347   -0.0000   -0.0000   -0.0000   -0.0000   -0.0000   -0.0101    0.0140
       39 FE2    4px        0.6753   -0.8357   -0.0000   -0.0000    0.0000   -0.0000   -0.0000   -0.0437    0.0605
       40 FE2    5px        0.0756   -0.0935   -0.0000   -0.0000   -0.0000    0.0000   -0.0000   -0.1044    0.1446
       41 FE2    6px        0.0322   -0.0398   -0.0000   -0.0000   -0.0000    0.0000   -0.0000   -0.0910    0.1262
       42 FE2    2py        0.0015    0.0012    0.0000    0.0000   -0.0000   -0.0000    0.0000    0.0007    0.0005
       43 FE2    3py        0.0347    0.0280    0.0000    0.0000   -0.0000   -0.0000    0.0000    0.0140    0.0101
       44 FE2    4py        0.8357    0.6753    0.0000    0.0000    0.0000   -0.0000    0.0000    0.0605    0.0437
       45 FE2    5py        0.0935    0.0756    0.0000    0.0000   -0.0000   -0.0000    0.0000    0.1446    0.1044
       46 FE2    6py        0.0398    0.0322    0.0000    0.0000   -0.0000   -0.0000    0.0000    0.1262    0.0910
       47 FE2    2pz        0.0000    0.0000    0.0039    0.0120   -0.0000    0.0000    0.0244   -0.0000   -0.0000
       48 FE2    3pz        0.0000    0.0000    0.0863    0.1786   -0.0000    0.0000    0.3330   -0.0000   -0.0000
       49 FE2    4pz       -0.0000   -0.0000    0.8092    0.5173   -0.0000    0.0000    0.8988   -0.0000   -0.0000
       50 FE2    5pz       -0.0000   -0.0000    0.2695    0.2171   -0.0000    0.0000    0.0174    0.0000    0.0000
       51 FE2    6pz       -0.0000   -0.0000    0.1830    0.1636   -0.0000    0.0000   -0.0069    0.0000    0.0000
       52 FE2    3d2-       0.0000   -0.0000   -0.0000   -0.0000   -0.0088    0.1156   -0.0000   -0.0000   -0.0000
       53 FE2    4d2-       0.0000   -0.0000   -0.0000   -0.0000   -0.0633    0.8335   -0.0000   -0.0000   -0.0000
       54 FE2    5d2-       0.0000   -0.0000   -0.0000   -0.0000   -0.0402    0.5290   -0.0000   -0.0000   -0.0000
       55 FE2    3d1-       0.0478    0.0386    0.0000    0.0000    0.0000    0.0000    0.0000    0.1392    0.1005
       56 FE2    4d1-      -0.0846   -0.0683   -0.0000   -0.0000    0.0000    0.0000    0.0000    0.5811    0.4194
       57 FE2    5d1-      -0.0428   -0.0346   -0.0000   -0.0000    0.0000    0.0000    0.0000    0.3707    0.2675
       58 FE2    3d0        0.0000    0.0000    0.0877    0.1332   -0.0000    0.0000    0.2277   -0.0000   -0.0000
       59 FE2    4d0        0.0000    0.0000   -0.2625   -0.0064    0.0000    0.0000    0.6145   -0.0000   -0.0000
       60 FE2    5d0        0.0000    0.0000   -0.1336   -0.0127    0.0000    0.0000    0.3153   -0.0000   -0.0000
       61 FE2    3d1+       0.0386   -0.0478   -0.0000    0.0000   -0.0000   -0.0000   -0.0000   -0.1005    0.1392
       62 FE2    4d1+      -0.0683    0.0846    0.0000    0.0000   -0.0000   -0.0000   -0.0000   -0.4194    0.5811
       63 FE2    5d1+      -0.0346    0.0428    0.0000    0.0000   -0.0000   -0.0000   -0.0000   -0.2675    0.3707
       64 FE2    3d2+      -0.0000   -0.0000    0.0000   -0.0000    0.1156    0.0088   -0.0000   -0.0000   -0.0000
       65 FE2    4d2+      -0.0000   -0.0000    0.0000   -0.0000    0.8335    0.0633   -0.0000   -0.0000   -0.0000
       66 FE2    5d2+      -0.0000   -0.0000    0.0000   -0.0000    0.5290    0.0402   -0.0000   -0.0000   -0.0000
       67 FE2    4f3-      -0.0000   -0.0000   -0.0000   -0.0000    0.0000    0.0000   -0.0000   -0.0000   -0.0000
       68 FE2    5f3-      -0.0000   -0.0000   -0.0000   -0.0000    0.0000    0.0000   -0.0000   -0.0000    0.0000
       69 FE2    4f2-       0.0000   -0.0000   -0.0000   -0.0000    0.0002   -0.0032    0.0000    0.0000    0.0000
       70 FE2    5f2-      -0.0000   -0.0000   -0.0000   -0.0000    0.0002   -0.0026    0.0000   -0.0000    0.0000
       71 FE2    4f1-      -0.0077   -0.0062   -0.0000   -0.0000   -0.0000   -0.0000   -0.0000   -0.0088   -0.0064
       72 FE2    5f1-      -0.0049   -0.0039   -0.0000   -0.0000   -0.0000   -0.0000   -0.0000   -0.0031   -0.0023
       73 FE2    4f0       -0.0000   -0.0000   -0.0219   -0.0038    0.0000    0.0000    0.0286   -0.0000   -0.0000
       74 FE2    5f0       -0.0000   -0.0000   -0.0142    0.0006    0.0000    0.0000    0.0241   -0.0000   -0.0000
       75 FE2    4f1+      -0.0062    0.0077    0.0000    0.0000   -0.0000    0.0000    0.0000    0.0064   -0.0088
       76 FE2    5f1+      -0.0039    0.0049    0.0000    0.0000    0.0000    0.0000    0.0000    0.0023   -0.0031
       77 FE2    4f2+      -0.0000   -0.0000   -0.0000    0.0000   -0.0032   -0.0002    0.0000   -0.0000   -0.0000
       78 FE2    5f2+      -0.0000   -0.0000   -0.0000    0.0000   -0.0026   -0.0002    0.0000   -0.0000   -0.0000
       79 FE2    4f3+       0.0000   -0.0000    0.0000    0.0000   -0.0000   -0.0000   -0.0000    0.0000    0.0000
       80 FE2    5f3+      -0.0000   -0.0000    0.0000    0.0000   -0.0000   -0.0000   -0.0000    0.0000   -0.0000
       81 FE2    5g4-       0.0000    0.0000    0.0000   -0.0000    0.0000    0.0000    0.0000    0.0000    0.0000
       82 FE2    5g3-       0.0000   -0.0000    0.0000   -0.0000    0.0000    0.0000   -0.0000    0.0000    0.0000
       83 FE2    5g2-      -0.0000   -0.0000   -0.0000   -0.0000   -0.0000    0.0006    0.0000    0.0000   -0.0000
       84 FE2    5g1-      -0.0003   -0.0002   -0.0000   -0.0000    0.0000    0.0000    0.0000    0.0019    0.0013
       85 FE2    5g0       -0.0000   -0.0000   -0.0020   -0.0008   -0.0000    0.0000    0.0025   -0.0000   -0.0000
       86 FE2    5g1+      -0.0002    0.0003   -0.0000    0.0000   -0.0000   -0.0000   -0.0000   -0.0013    0.0019
       87 FE2    5g2+      -0.0000   -0.0000   -0.0000    0.0000    0.0006    0.0000   -0.0000    0.0000    0.0000
       88 FE2    5g3+      -0.0000   -0.0000    0.0000    0.0000   -0.0000   -0.0000    0.0000    0.0000    0.0000
       89 FE2    5g4+       0.0000    0.0000   -0.0000   -0.0000   -0.0000   -0.0000   -0.0000   -0.0000   -0.0000
--
 
 
  Input file to MOLDEN was generated!
 
 
++    Static properties:
      ------------------
 
 
      LoProp Charges per center
 

                   O1       FE2   
      Nuclear      8.0000  26.0000
      Electronic  -8.2701 -23.7299
 
      Total       -0.2701   2.2701
--
 
 
      All orbitals with orbital energies smaller than  E(LUMO)+0.5 are printed
 
++    Molecular orbitals:
      -------------------
 
      Title: UHF orbitals (beta)

      Molecular orbitals for symmetry species 1: a  
 
          Orbital            1         2         3         4         5         6         7         8         9        10    
          Energy         -264.4808  -33.1858  -28.2583  -28.2538  -28.2538  -21.2342   -4.8620   -3.3676   -3.3162   -3.3162
          Occ. No.          1.0000    1.0000    1.0000    1.0000    1.0000    1.0000    1.0000    1.0000    1.0000    1.0000
 
        1 O1     1s         0.0000    0.0002    0.0002   -0.0000    0.0000    1.0000   -0.0027   -0.0078   -0.0000   -0.0000
        2 O1     2s         0.0000    0.0015    0.0011    0.0000   -0.0000    0.0005    0.0059    0.0582   -0.0000    0.0000
        3 O1     3s         0.0000    0.0012    0.0008    0.0000   -0.0000   -0.0009   -0.0043   -0.0096   -0.0000   -0.0000
        4 O1     4s         0.0000    0.0003    0.0003   -0.0000   -0.0000   -0.0001   -0.0009   -0.0023    0.0000   -0.0000
        5 O1     2px        0.0000   -0.0000    0.0000    0.0000   -0.0000   -0.0000    0.0000   -0.0000    0.0129    0.0012
        6 O1     3px       -0.0000    0.0000    0.0000   -0.0001    0.0000    0.0000    0.0000   -0.0000   -0.0024   -0.0002
        7 O1     4px        0.0000   -0.0000    0.0000   -0.0001    0.0000    0.0000    0.0000   -0.0000   -0.0003   -0.0000
        8 O1     2py        0.0000   -0.0000    0.0000    0.0000    0.0000   -0.0000    0.0000    0.0000    0.0012   -0.0129
        9 O1     3py       -0.0000    0.0000    0.0000   -0.0000   -0.0001   -0.0000   -0.0000    0.0000   -0.0002    0.0024
       10 O1     4py        0.0000   -0.0000   -0.0000   -0.0000   -0.0001   -0.0000    0.0000   -0.0000   -0.0000    0.0003
       11 O1     2pz       -0.0000   -0.0010   -0.0006   -0.0000    0.0000   -0.0002   -0.0086   -0.0507   -0.0000   -0.0000
       12 O1     3pz       -0.0000   -0.0009   -0.0006   -0.0000    0.0000    0.0007    0.0039    0.0122    0.0000    0.0000
       13 O1     4pz        0.0000    0.0002   -0.0001   -0.0000    0.0000    0.0000   -0.0004   -0.0005   -0.0000   -0.0000
       14 O1     3d2-       0.0000   -0.0000   -0.0000    0.0000   -0.0000   -0.0000   -0.0000   -0.0000    0.0000   -0.0000
       15 O1     4d2-       0.0000   -0.0000   -0.0000   -0.0000    0.0000    0.0000   -0.0000   -0.0000    0.0000    0.0000
       16 O1     3d1-       0.0000   -0.0000   -0.0000    0.0000    0.0000   -0.0000   -0.0000   -0.0000   -0.0004    0.0038
       17 O1     4d1-       0.0000   -0.0000   -0.0000    0.0000    0.0000    0.0000    0.0000    0.0000   -0.0000    0.0002
       18 O1     3d0        0.0000    0.0004    0.0001    0.0000   -0.0000    0.0006    0.0028    0.0126   -0.0000    0.0000
       19 O1     4d0        0.0000    0.0003    0.0001    0.0000   -0.0000   -0.0009   -0.0003   -0.0000   -0.0000   -0.0000
       20 O1     3d1+       0.0000   -0.0000   -0.0000    0.0000   -0.0000    0.0000   -0.0000    0.0000   -0.0038   -0.0004
       21 O1     4d1+       0.0000   -0.0000   -0.0000    0.0000   -0.0000   -0.0000   -0.0000   -0.0000   -0.0002   -0.0000
       22 O1     3d2+      -0.0000   -0.0000   -0.0000    0.0000   -0.0000    0.0000    0.0000   -0.0000   -0.0000    0.0000
       23 O1     4d2+       0.0000    0.0000    0.0000   -0.0000   -0.0000   -0.0000   -0.0000   -0.0000    0.0000    0.0000
       24 O1     4f3-      -0.0000   -0.0000   -0.0000    0.0000    0.0000    0.0000   -0.0000    0.0000   -0.0000   -0.0000
       25 O1     4f2-       0.0000   -0.0000   -0.0000   -0.0000    0.0000    0.0000   -0.0000   -0.0000   -0.0000    0.0000
       26 O1     4f1-      -0.0000    0.0000   -0.0000   -0.0000   -0.0000   -0.0000    0.0000    0.0000    0.0002   -0.0016
       27 O1     4f0       -0.0000   -0.0002    0.0000    0.0000    0.0000   -0.0000   -0.0011   -0.0041   -0.0000   -0.0000
       28 O1     4f1+      -0.0000    0.0000    0.0000   -0.0000    0.0000   -0.0000   -0.0000   -0.0000    0.0016    0.0002
       29 O1     4f2+      -0.0000    0.0000    0.0000    0.0000    0.0000    0.0000   -0.0000   -0.0000    0.0000   -0.0000
       30 O1     4f3+      -0.0000    0.0000    0.0000    0.0000    0.0000   -0.0000    0.0000    0.0000   -0.0000   -0.0000
       31 FE2    1s         1.0000   -0.0000   -0.0000   -0.0000    0.0000    0.0000    0.0000   -0.0003    0.0000   -0.0000
       32 FE2    2s        -0.0000    0.9997   -0.0007   -0.0000   -0.0000    0.0001    0.0009   -0.0020    0.0000    0.0000
       33 FE2    3s        -0.0000   -0.0021   -0.0010   -0.0000    0.0000    0.0003    0.9991   -0.0106    0.0000    0.0000
       34 FE2    4s        -0.0000   -0.0014   -0.0010   -0.0000    0.0000    0.0003    0.0041    0.0072    0.0000    0.0000
       35 FE2    5s         0.0000    0.0004    0.0003    0.0000   -0.0000   -0.0002   -0.0001   -0.0014   -0.0000   -0.0000
       36 FE2    6s        -0.0000    0.0000    0.0000    0.0000   -0.0000    0.0001   -0.0002   -0.0005    0.0000   -0.0000
       37 FE2    2px        0.0000    0.0000   -0.0000    0.9998   -0.0202    0.0000   -0.0000   -0.0000    0.0029    0.0003
       38 FE2    3px       -0.0000   -0.0000    0.0000   -0.0029    0.0001   -0.0000   -0.0000   -0.0000    0.9943    0.0925
       39 FE2    4px       -0.0000    0.0000   -0.0000    0.0005   -0.0000   -0.0000    0.0000    0.0000   -0.0072   -0.0007
       40 FE2    5px       -0.0000    0.0000    0.0000   -0.0010    0.0000   -0.0000   -0.0000   -0.0000    0.0034    0.0003
       41 FE2    6px       -0.0000    0.0000   -0.0000    0.0006   -0.0000   -0.0000   -0.0000    0.0000    0.0024    0.0002
       42 FE2    2py       -0.0000    0.0000    0.0000    0.0202    0.9998   -0.0000   -0.0000    0.0000    0.0003   -0.0029
       43 FE2    3py        0.0000    0.0000   -0.0000   -0.0001   -0.0029    0.0000    0.0000    0.0000    0.0925   -0.9943
       44 FE2    4py       -0.0000   -0.0000    0.0000    0.0000    0.0005    0.0000    0.0000   -0.0000   -0.0007    0.0072
       45 FE2    5py       -0.0000    0.0000   -0.0000   -0.0000   -0.0010    0.0000   -0.0000    0.0000    0.0003   -0.0034
       46 FE2    6py       -0.0000    0.0000    0.0000    0.0000    0.0006    0.0000    0.0000    0.0000    0.0002   -0.0024
       47 FE2    2pz        0.0000    0.0005    1.0000    0.0000   -0.0000   -0.0000    0.0003    0.0018    0.0000    0.0000
       48 FE2    3pz       -0.0000   -0.0009   -0.0031   -0.0000    0.0000    0.0001   -0.0057    0.9797    0.0000    0.0000
       49 FE2    4pz       -0.0000   -0.0010   -0.0002    0.0000    0.0000   -0.0002    0.0038    0.0024    0.0000    0.0000
       50 FE2    5pz        0.0000    0.0003   -0.0010   -0.0000    0.0000   -0.0001   -0.0005   -0.0011    0.0000   -0.0000
       51 FE2    6pz        0.0000    0.0003    0.0008    0.0000   -0.0000   -0.0001   -0.0012   -0.0003    0.0000   -0.0000
       52 FE2    3d2-       0.0000    0.0000   -0.0000    0.0000    0.0000   -0.0000    0.0000   -0.0000    0.0000    0.0000
       53 FE2    4d2-      -0.0000    0.0000    0.0000   -0.0000    0.0000    0.0000   -0.0000   -0.0000   -0.0000    0.0000
       54 FE2    5d2-      -0.0000    0.0000    0.0000    0.0000    0.0000   -0.0000    0.0000   -0.0000   -0.0000    0.0000
       55 FE2    3d1-       0.0000    0.0000    0.0000    0.0000    0.0001    0.0000    0.0000    0.0000   -0.0007    0.0077
       56 FE2    4d1-       0.0000   -0.0000   -0.0000    0.0000    0.0000    0.0000   -0.0000   -0.0000    0.0002   -0.0019
       57 FE2    5d1-      -0.0000    0.0000    0.0000    0.0000    0.0001    0.0000    0.0000    0.0000    0.0000   -0.0000
       58 FE2    3d0       -0.0000   -0.0002   -0.0001    0.0000    0.0000   -0.0000    0.0003   -0.0034    0.0000    0.0000
       59 FE2    4d0       -0.0000   -0.0003   -0.0002    0.0000    0.0000   -0.0003    0.0035    0.0066    0.0000    0.0000
       60 FE2    5d0        0.0000    0.0001    0.0001    0.0000   -0.0000   -0.0001   -0.0012   -0.0019    0.0000   -0.0000
       61 FE2    3d1+       0.0000   -0.0000   -0.0000    0.0001   -0.0000   -0.0000   -0.0000   -0.0000   -0.0077   -0.0007
       62 FE2    4d1+      -0.0000   -0.0000   -0.0000    0.0000   -0.0000   -0.0000    0.0000    0.0000    0.0019    0.0002
       63 FE2    5d1+      -0.0000    0.0000   -0.0000    0.0001   -0.0000   -0.0000   -0.0000    0.0000    0.0000    0.0000
       64 FE2    3d2+      -0.0000    0.0000   -0.0000    0.0000   -0.0000    0.0000   -0.0000    0.0000   -0.0000    0.0000
       65 FE2    4d2+       0.0000   -0.0000   -0.0000    0.0000    0.0000    0.0000   -0.0000   -0.0000   -0.0000   -0.0000
       66 FE2    5d2+      -0.0000    0.0000   -0.0000   -0.0000   -0.0000    0.0000   -0.0000   -0.0000    0.0000   -0.0000
       67 FE2    4f3-       0.0000   -0.0000    0.0000   -0.0000   -0.0000    0.0000   -0.0000   -0.0000    0.0000   -0.0000
       68 FE2    5f3-       0.0000   -0.0000    0.0000   -0.0000    0.0000   -0.0000   -0.0000   -0.0000    0.0000   -0.0000
       69 FE2    4f2-       0.0000    0.0000   -0.0000    0.0000    0.0000    0.0000   -0.0000   -0.0000    0.0000    0.0000
       70 FE2    5f2-      -0.0000    0.0000    0.0000   -0.0000    0.0000    0.0000   -0.0000   -0.0000    0.0000    0.0000
       71 FE2    4f1-       0.0000   -0.0000   -0.0000    0.0000    0.0001    0.0000    0.0000   -0.0000    0.0002   -0.0020
       72 FE2    5f1-       0.0000   -0.0000   -0.0000   -0.0000   -0.0000    0.0000   -0.0000    0.0000    0.0001   -0.0011
       73 FE2    4f0       -0.0000   -0.0001   -0.0000   -0.0000   -0.0000   -0.0001    0.0014    0.0029    0.0000    0.0000
       74 FE2    5f0       -0.0000   -0.0000    0.0000    0.0000    0.0000   -0.0002    0.0011    0.0026    0.0000    0.0000
       75 FE2    4f1+       0.0000   -0.0000   -0.0000    0.0001   -0.0000    0.0000   -0.0000   -0.0000    0.0020    0.0002
       76 FE2    5f1+       0.0000   -0.0000    0.0000   -0.0000    0.0000    0.0000    0.0000   -0.0000    0.0011    0.0001
       77 FE2    4f2+       0.0000   -0.0000   -0.0000    0.0000   -0.0000    0.0000    0.0000   -0.0000   -0.0000    0.0000
       78 FE2    5f2+       0.0000   -0.0000    0.0000    0.0000    0.0000   -0.0000    0.0000   -0.0000   -0.0000    0.0000
       79 FE2    4f3+      -0.0000    0.0000   -0.0000   -0.0000    0.0000    0.0000   -0.0000    0.0000    0.0000    0.0000
       80 FE2    5f3+      -0.0000    0.0000    0.0000   -0.0000   -0.0000    0.0000   -0.0000    0.0000    0.0000   -0.0000
       81 FE2    5g4-       0.0000   -0.0000   -0.0000    0.0000   -0.0000    0.0000    0.0000    0.0000   -0.0000   -0.0000
       82 FE2    5g3-       0.0000   -0.0000    0.0000   -0.0000   -0.0000   -0.0000   -0.0000   -0.0000   -0.0000   -0.0000
       83 FE2    5g2-       0.0000    0.0000   -0.0000   -0.0000    0.0000    0.0000   -0.0000   -0.0000    0.0000    0.0000
       84 FE2    5g1-      -0.0000   -0.0000    0.0000    0.0000    0.0000   -0.0000   -0.0000    0.0000    0.0001   -0.0006
       85 FE2    5g0       -0.0000   -0.0000    0.0000    0.0000   -0.0000   -0.0001    0.0003    0.0012    0.0000    0.0000
       86 FE2    5g1+      -0.0000    0.0000   -0.0000    0.0000   -0.0000    0.0000   -0.0000   -0.0000    0.0006    0.0001
       87 FE2    5g2+       0.0000   -0.0000   -0.0000   -0.0000   -0.0000   -0.0000   -0.0000    0.0000   -0.0000    0.0000
       88 FE2    5g3+      -0.0000    0.0000   -0.0000   -0.0000   -0.0000   -0.0000    0.0000    0.0000   -0.0000   -0.0000
       89 FE2    5g4+      -0.0000   -0.0000   -0.0000    0.0000    0.0000    0.0000   -0.0000   -0.0000   -0.0000    0.0000
 
          Orbital           11        12        13        14        15        16        17        18        19        20    
          Energy           -1.9022   -1.2819   -1.1334   -1.1334   -0.5442   -0.4869   -0.4869   -0.4838   -0.4838   -0.4443
          Occ. No.          1.0000    1.0000    1.0000    1.0000    0.0000    0.0000    0.0000    0.0000    0.0000    0.0000
 
        1 O1     1s         0.0076    0.0164    0.0000   -0.0000    0.0169   -0.0000    0.0000    0.0000    0.0000   -0.0070
        2 O1     2s        -0.9407    0.2727    0.0000   -0.0000    0.1714   -0.0000    0.0000    0.0000    0.0000   -0.0945
        3 O1     3s         0.0131    0.0119    0.0000   -0.0000    0.0575   -0.0000   -0.0000   -0.0000    0.0000   -0.0272
        4 O1     4s         0.0082    0.0054    0.0000   -0.0000    0.0138   -0.0000   -0.0000   -0.0000    0.0000   -0.0044
        5 O1     2px       -0.0000    0.0000   -0.0922   -0.7792    0.0000   -0.1161   -0.5035   -0.0000   -0.0000   -0.0000
        6 O1     3px        0.0000   -0.0000    0.0045    0.0380   -0.0000   -0.0282   -0.1220   -0.0000   -0.0000   -0.0000
        7 O1     4px       -0.0000    0.0000    0.0035    0.0294    0.0000   -0.0022   -0.0097   -0.0000   -0.0000    0.0000
        8 O1     2py        0.0000   -0.0000    0.7792   -0.0922    0.0000   -0.5035    0.1161   -0.0000   -0.0000    0.0000
        9 O1     3py       -0.0000    0.0000   -0.0380    0.0045    0.0000   -0.1220    0.0282   -0.0000   -0.0000    0.0000
       10 O1     4py       -0.0000    0.0000   -0.0294    0.0035    0.0000   -0.0097    0.0022   -0.0000   -0.0000    0.0000
       11 O1     2pz        0.1307    0.8796    0.0000   -0.0000    0.0211   -0.0000    0.0000   -0.0000    0.0000    0.3444
       12 O1     3pz        0.0083   -0.0987   -0.0000    0.0000   -0.0316   -0.0000    0.0000   -0.0000   -0.0000    0.0563
       13 O1     4pz       -0.0184   -0.0286   -0.0000    0.0000   -0.0063    0.0000    0.0000    0.0000   -0.0000   -0.0041
       14 O1     3d2-       0.0000    0.0000    0.0000    0.0000    0.0000    0.0000    0.0000    0.0007   -0.0159   -0.0000
       15 O1     4d2-       0.0000    0.0000   -0.0000   -0.0000    0.0000    0.0000    0.0000    0.0002   -0.0042   -0.0000
       16 O1     3d1-       0.0000    0.0000   -0.0608    0.0072   -0.0000   -0.0094    0.0022   -0.0000   -0.0000   -0.0000
       17 O1     4d1-       0.0000    0.0000   -0.0202    0.0024   -0.0000    0.0035   -0.0008    0.0000    0.0000   -0.0000
       18 O1     3d0       -0.0533   -0.0392   -0.0000    0.0000    0.0275   -0.0000    0.0000    0.0000    0.0000    0.0215
       19 O1     4d0       -0.0097   -0.0152   -0.0000    0.0000    0.0078    0.0000    0.0000    0.0000    0.0000    0.0016
       20 O1     3d1+      -0.0000    0.0000    0.0072    0.0608    0.0000   -0.0022   -0.0094   -0.0000   -0.0000   -0.0000
       21 O1     4d1+      -0.0000   -0.0000    0.0024    0.0202    0.0000    0.0008    0.0035    0.0000    0.0000    0.0000
       22 O1     3d2+      -0.0000    0.0000    0.0000   -0.0000   -0.0000   -0.0000    0.0000    0.0159    0.0007   -0.0000
       23 O1     4d2+       0.0000    0.0000   -0.0000    0.0000   -0.0000   -0.0000    0.0000    0.0042    0.0002   -0.0000
       24 O1     4f3-       0.0000   -0.0000    0.0000   -0.0000   -0.0000   -0.0000   -0.0000    0.0000   -0.0000    0.0000
       25 O1     4f2-      -0.0000    0.0000    0.0000    0.0000   -0.0000   -0.0000   -0.0000   -0.0002    0.0039   -0.0000
       26 O1     4f1-      -0.0000   -0.0000    0.0195   -0.0023    0.0000   -0.0013    0.0003   -0.0000   -0.0000   -0.0000
       27 O1     4f0        0.0059    0.0200    0.0000   -0.0000   -0.0055   -0.0000    0.0000    0.0000   -0.0000   -0.0015
       28 O1     4f1+       0.0000    0.0000   -0.0023   -0.0195    0.0000   -0.0003   -0.0013   -0.0000   -0.0000    0.0000
       29 O1     4f2+      -0.0000    0.0000    0.0000   -0.0000   -0.0000    0.0000   -0.0000   -0.0039   -0.0002    0.0000
       30 O1     4f3+       0.0000    0.0000   -0.0000   -0.0000    0.0000   -0.0000   -0.0000   -0.0000    0.0000    0.0000
       31 FE2    1s         0.0031    0.0035    0.0000    0.0000   -0.0014   -0.0000    0.0000   -0.0000   -0.0000    0.0026
       32 FE2    2s         0.0232    0.0257    0.0000   -0.0000   -0.0096   -0.0000    0.0000   -0.0000   -0.0000    0.0190
       33 FE2    3s         0.1421    0.1317    0.0000    0.0000   -0.0428   -0.0000    0.0000   -0.0000   -0.0000    0.0937
       34 FE2    4s        -0.0207   -0.0662   -0.0000    0.0000   -0.9439   -0.0000   -0.0000   -0.0000   -0.0000    0.3350
       35 FE2    5s         0.0115    0.0267    0.0000    0.0000    0.2058   -0.0000    0.0000    0.0000   -0.0000   -0.0127
       36 FE2    6s        -0.0018   -0.0018   -0.0000   -0.0000   -0.0017    0.0000   -0.0000   -0.0000   -0.0000   -0.0084
       37 FE2    2px        0.0000   -0.0000    0.0004    0.0034   -0.0000    0.0006    0.0025    0.0000    0.0000    0.0000
       38 FE2    3px       -0.0000    0.0000    0.0079    0.0668   -0.0000    0.0118    0.0512    0.0000    0.0000    0.0000
       39 FE2    4px        0.0000    0.0000   -0.0088   -0.0747    0.0000   -0.0578   -0.2504   -0.0000   -0.0000    0.0000
       40 FE2    5px       -0.0000    0.0000    0.0022    0.0189    0.0000   -0.0002   -0.0009   -0.0000   -0.0000    0.0000
       41 FE2    6px       -0.0000    0.0000    0.0018    0.0154    0.0000    0.0038    0.0165    0.0000    0.0000    0.0000
       42 FE2    2py        0.0000    0.0000   -0.0034    0.0004   -0.0000    0.0025   -0.0006    0.0000    0.0000    0.0000
       43 FE2    3py        0.0000    0.0000   -0.0668    0.0079   -0.0000    0.0512   -0.0118    0.0000    0.0000   -0.0000
       44 FE2    4py        0.0000   -0.0000    0.0747   -0.0088   -0.0000   -0.2504    0.0578   -0.0000   -0.0000   -0.0000
       45 FE2    5py        0.0000   -0.0000   -0.0189    0.0022   -0.0000   -0.0009    0.0002   -0.0000    0.0000   -0.0000
       46 FE2    6py        0.0000   -0.0000   -0.0154    0.0018    0.0000    0.0165   -0.0038    0.0000    0.0000   -0.0000
       47 FE2    2pz        0.0084    0.0088    0.0000   -0.0000   -0.0019   -0.0000    0.0000   -0.0000    0.0000    0.0045
       48 FE2    3pz        0.2179    0.1595    0.0000   -0.0000   -0.0205   -0.0000    0.0000   -0.0000    0.0000    0.0815
       49 FE2    4pz       -0.0194   -0.0192   -0.0000   -0.0000    0.1102    0.0000   -0.0000    0.0000   -0.0000   -0.6072
       50 FE2    5pz        0.0107    0.0130    0.0000    0.0000    0.0166    0.0000    0.0000    0.0000   -0.0000   -0.0405
       51 FE2    6pz        0.0078    0.0094   -0.0000    0.0000    0.0072   -0.0000    0.0000    0.0000   -0.0000    0.0031
       52 FE2    3d2-       0.0000    0.0000   -0.0000   -0.0000   -0.0000    0.0000    0.0000    0.0405   -0.9740    0.0000
       53 FE2    4d2-       0.0000    0.0000   -0.0000   -0.0000   -0.0000    0.0000    0.0000    0.0085   -0.2034    0.0000
       54 FE2    5d2-       0.0000   -0.0000    0.0000    0.0000   -0.0000    0.0000    0.0000    0.0017   -0.0400    0.0000
       55 FE2    3d1-       0.0000   -0.0000    0.4184   -0.0495    0.0000    0.8463   -0.1952    0.0000    0.0000    0.0000
       56 FE2    4d1-       0.0000   -0.0000    0.0369   -0.0044    0.0000    0.1528   -0.0352    0.0000    0.0000    0.0000
       57 FE2    5d1-       0.0000   -0.0000   -0.0178    0.0021   -0.0000    0.0332   -0.0077    0.0000    0.0000    0.0000
       58 FE2    3d0       -0.1453   -0.3127   -0.0000    0.0000    0.4082   -0.0000    0.0000   -0.0000    0.0000    0.6605
       59 FE2    4d0        0.0027    0.0048   -0.0000    0.0000    0.0626   -0.0000    0.0000    0.0000    0.0000    0.1651
       60 FE2    5d0        0.0107    0.0225    0.0000   -0.0000    0.0088   -0.0000    0.0000    0.0000    0.0000    0.0508
       61 FE2    3d1+      -0.0000    0.0000   -0.0495   -0.4184   -0.0000    0.1952    0.8463    0.0000    0.0000    0.0000
       62 FE2    4d1+       0.0000    0.0000   -0.0044   -0.0369   -0.0000    0.0352    0.1528    0.0000    0.0000    0.0000
       63 FE2    5d1+       0.0000    0.0000    0.0021    0.0178   -0.0000    0.0077    0.0332    0.0000    0.0000    0.0000
       64 FE2    3d2+       0.0000   -0.0000   -0.0000    0.0000   -0.0000   -0.0000    0.0000    0.9740    0.0405    0.0000
       65 FE2    4d2+      -0.0000   -0.0000   -0.0000    0.0000   -0.0000   -0.0000    0.0000    0.2034    0.0085    0.0000
       66 FE2    5d2+      -0.0000   -0.0000    0.0000    0.0000   -0.0000   -0.0000    0.0000    0.0400    0.0017    0.0000
       67 FE2    4f3-      -0.0000   -0.0000   -0.0000    0.0000   -0.0000    0.0000    0.0000    0.0000    0.0000   -0.0000
       68 FE2    5f3-      -0.0000   -0.0000   -0.0000    0.0000   -0.0000    0.0000    0.0000    0.0000    0.0000   -0.0000
       69 FE2    4f2-       0.0000    0.0000   -0.0000   -0.0000   -0.0000   -0.0000   -0.0000   -0.0001    0.0033   -0.0000
       70 FE2    5f2-       0.0000    0.0000   -0.0000   -0.0000   -0.0000   -0.0000   -0.0000   -0.0001    0.0023   -0.0000
       71 FE2    4f1-      -0.0000   -0.0000    0.0237   -0.0028    0.0000   -0.0135    0.0031   -0.0000   -0.0000    0.0000
       72 FE2    5f1-      -0.0000   -0.0000    0.0131   -0.0016    0.0000   -0.0081    0.0019   -0.0000   -0.0000    0.0000
       73 FE2    4f0       -0.0123   -0.0168   -0.0000    0.0000   -0.0002    0.0000    0.0000    0.0000   -0.0000   -0.0096
       74 FE2    5f0       -0.0049   -0.0068   -0.0000    0.0000   -0.0009    0.0000    0.0000    0.0000   -0.0000   -0.0051
       75 FE2    4f1+       0.0000    0.0000   -0.0028   -0.0237    0.0000   -0.0031   -0.0135   -0.0000   -0.0000   -0.0000
       76 FE2    5f1+       0.0000   -0.0000   -0.0016   -0.0131    0.0000   -0.0019   -0.0081   -0.0000   -0.0000   -0.0000
       77 FE2    4f2+      -0.0000   -0.0000   -0.0000    0.0000    0.0000    0.0000   -0.0000   -0.0033   -0.0001   -0.0000
       78 FE2    5f2+      -0.0000   -0.0000   -0.0000    0.0000    0.0000    0.0000   -0.0000   -0.0023   -0.0001   -0.0000
       79 FE2    4f3+       0.0000    0.0000    0.0000   -0.0000   -0.0000   -0.0000    0.0000   -0.0000    0.0000    0.0000
       80 FE2    5f3+       0.0000    0.0000    0.0000   -0.0000    0.0000   -0.0000    0.0000   -0.0000    0.0000    0.0000
       81 FE2    5g4-       0.0000   -0.0000   -0.0000    0.0000    0.0000    0.0000    0.0000   -0.0000    0.0000   -0.0000
       82 FE2    5g3-      -0.0000   -0.0000   -0.0000    0.0000   -0.0000   -0.0000   -0.0000    0.0000    0.0000    0.0000
       83 FE2    5g2-       0.0000    0.0000   -0.0000   -0.0000    0.0000    0.0000    0.0000    0.0000   -0.0004   -0.0000
       84 FE2    5g1-      -0.0000   -0.0000    0.0028   -0.0003    0.0000   -0.0004    0.0001   -0.0000   -0.0000    0.0000
       85 FE2    5g0       -0.0013   -0.0020   -0.0000    0.0000    0.0006   -0.0000    0.0000    0.0000   -0.0000   -0.0001
       86 FE2    5g1+       0.0000    0.0000   -0.0003   -0.0028   -0.0000   -0.0001   -0.0004   -0.0000   -0.0000   -0.0000
       87 FE2    5g2+       0.0000   -0.0000   -0.0000    0.0000    0.0000   -0.0000    0.0000    0.0004    0.0000   -0.0000
       88 FE2    5g3+       0.0000    0.0000    0.0000    0.0000    0.0000    0.0000   -0.0000   -0.0000    0.0000    0.0000
       89 FE2    5g4+       0.0000   -0.0000    0.0000    0.0000    0.0000   -0.0000    0.0000    0.0000   -0.0000   -0.0000
 
          Orbital           21        22        23        24        25        26        27        28        29        30    
          Energy           -0.3369   -0.3369   -0.2396   -0.1946   -0.1176   -0.0989   -0.0989   -0.0969   -0.0969   -0.0699
          Occ. No.          0.0000    0.0000    0.0000    0.0000    0.0000    0.0000    0.0000    0.0000    0.0000    0.0000
 
        1 O1     1s         0.0000   -0.0000   -0.0339   -0.1314   -0.2058   -0.0000   -0.0000   -0.0000   -0.0000   -0.1882
        2 O1     2s         0.0000   -0.0000   -0.3224   -1.0187   -1.4089   -0.0000   -0.0000   -0.0000   -0.0000   -1.2108
        3 O1     3s         0.0000   -0.0000   -0.0714   -0.5042   -0.9083   -0.0000   -0.0000   -0.0000   -0.0000   -0.6564
        4 O1     4s         0.0000   -0.0000   -0.0174   -0.1141   -0.1965   -0.0000   -0.0000   -0.0000   -0.0000   -0.1179
        5 O1     2px       -0.5319   -0.1317    0.0000   -0.0000    0.0000    0.1330   -0.1557   -0.0000   -0.0000   -0.0000
        6 O1     3px       -0.2006   -0.0497    0.0000    0.0000   -0.0000   -0.1945    0.2277    0.0000    0.0000    0.0000
        7 O1     4px       -0.0264   -0.0065    0.0000   -0.0000   -0.0000   -0.1346    0.1576    0.0000    0.0000    0.0000
        8 O1     2py        0.1317   -0.5319   -0.0000   -0.0000    0.0000   -0.1557   -0.1330   -0.0000   -0.0000   -0.0000
        9 O1     3py        0.0497   -0.2006   -0.0000   -0.0000   -0.0000    0.2277    0.1945    0.0000   -0.0000    0.0000
       10 O1     4py        0.0065   -0.0264   -0.0000   -0.0000   -0.0000    0.1576    0.1346    0.0000   -0.0000    0.0000
       11 O1     2pz       -0.0000   -0.0000   -0.0307    0.4553    0.5822    0.0000    0.0000    0.0000    0.0000    0.1513
       12 O1     3pz       -0.0000    0.0000   -0.0584    0.3605    0.8557    0.0000    0.0000    0.0000    0.0000    0.3909
       13 O1     4pz        0.0000    0.0000    0.0086    0.0503    0.0953   -0.0000    0.0000   -0.0000   -0.0000    0.0070
       14 O1     3d2-       0.0000    0.0000   -0.0000   -0.0000    0.0000   -0.0000    0.0000   -0.0034   -0.0052   -0.0000
       15 O1     4d2-       0.0000    0.0000   -0.0000   -0.0000    0.0000    0.0000    0.0000    0.0009    0.0013    0.0000
       16 O1     3d1-       0.0014   -0.0058    0.0000    0.0000   -0.0000    0.0647    0.0553    0.0000   -0.0000    0.0000
       17 O1     4d1-      -0.0013    0.0051   -0.0000   -0.0000   -0.0000    0.0326    0.0279    0.0000   -0.0000    0.0000
       18 O1     3d0        0.0000   -0.0000    0.0451   -0.0042   -0.1502   -0.0000   -0.0000   -0.0000   -0.0000   -0.0862
       19 O1     4d0        0.0000   -0.0000    0.0281   -0.0058   -0.0870   -0.0000   -0.0000   -0.0000   -0.0000   -0.0301
       20 O1     3d1+      -0.0058   -0.0014    0.0000   -0.0000   -0.0000   -0.0553    0.0647    0.0000    0.0000    0.0000
       21 O1     4d1+       0.0051    0.0013    0.0000   -0.0000   -0.0000   -0.0279    0.0326    0.0000    0.0000    0.0000
       22 O1     3d2+       0.0000   -0.0000    0.0000   -0.0000   -0.0000   -0.0000   -0.0000    0.0052   -0.0034    0.0000
       23 O1     4d2+       0.0000   -0.0000    0.0000   -0.0000   -0.0000    0.0000    0.0000   -0.0013    0.0009   -0.0000
       24 O1     4f3-       0.0000   -0.0000    0.0000    0.0000   -0.0000   -0.0000   -0.0000   -0.0000   -0.0000    0.0000
       25 O1     4f2-       0.0000    0.0000   -0.0000   -0.0000    0.0000   -0.0000    0.0000   -0.0051   -0.0076   -0.0000
       26 O1     4f1-       0.0006   -0.0023   -0.0000   -0.0000    0.0000   -0.0105   -0.0090   -0.0000   -0.0000    0.0000
       27 O1     4f0        0.0000   -0.0000   -0.0108   -0.0022    0.0235    0.0000    0.0000    0.0000    0.0000   -0.0058
       28 O1     4f1+      -0.0023   -0.0006    0.0000    0.0000    0.0000    0.0090   -0.0105   -0.0000   -0.0000   -0.0000
       29 O1     4f2+       0.0000   -0.0000    0.0000   -0.0000    0.0000   -0.0000   -0.0000    0.0076   -0.0051   -0.0000
       30 O1     4f3+      -0.0000   -0.0000    0.0000    0.0000   -0.0000    0.0000   -0.0000   -0.0000   -0.0000   -0.0000
       31 FE2    1s        -0.0000    0.0000   -0.0004    0.0123    0.0246    0.0000    0.0000    0.0000    0.0000    0.0134
       32 FE2    2s        -0.0000    0.0000   -0.0024    0.0879    0.1743    0.0000    0.0000    0.0000    0.0000    0.0955
       33 FE2    3s        -0.0000    0.0000    0.0042    0.4004    0.7468    0.0000    0.0000    0.0000    0.0000    0.4209
       34 FE2    4s        -0.0000   -0.0000    0.4298    0.8855    1.3517    0.0000    0.0000    0.0000    0.0000    0.9767
       35 FE2    5s         0.0000   -0.0000    0.7639   -0.7843   -0.5798   -0.0000   -0.0000   -0.0000   -0.0000   -0.0373
       36 FE2    6s        -0.0000    0.0000    0.1309   -0.2321    0.7304    0.0000    0.0000    0.0000    0.0000   -0.6331
       37 FE2    2px        0.0028    0.0007   -0.0000    0.0000   -0.0000   -0.0002    0.0003   -0.0000    0.0000   -0.0000
       38 FE2    3px        0.0650    0.0161   -0.0000   -0.0000   -0.0000   -0.0028    0.0032   -0.0000   -0.0000   -0.0000
       39 FE2    4px        1.0508    0.2602   -0.0000    0.0000    0.0000    0.0331   -0.0387   -0.0000   -0.0000   -0.0000
       40 FE2    5px        0.1987    0.0492   -0.0000    0.0000   -0.0000   -0.1045    0.1223    0.0000    0.0000    0.0000
       41 FE2    6px        0.1131    0.0280   -0.0000    0.0000   -0.0000   -0.0977    0.1143    0.0000    0.0000    0.0000
       42 FE2    2py       -0.0007    0.0028    0.0000    0.0000   -0.0000    0.0003    0.0002    0.0000    0.0000    0.0000
[...]

>>> COPY /tmp/1.44/GMJ_e2_B_P_2_.csv /home/grierjones/DDCASPT2/iron_oxo_DDCASPT2/MScaspt2iron/1.44/GMJ_e2_B_P_2_.csv

>>> END FOREACH

>>> EXPORT j = M

>>> IF (-FILE GMJ_e2_${i}_${j}_${k}_.csv)

>>> COPY /tmp/1.44/GMJ_RHS_B_M_2_.csv /home/grierjones/DDCASPT2/iron_oxo_DDCASPT2/MScaspt2iron/1.44/GMJ_RHS_B_M_2_.csv

>>> COPY /tmp/1.44/GMJ_IVECW_B_M_2_.csv /home/grierjones/DDCASPT2/iron_oxo_DDCASPT2/MScaspt2iron/1.44/GMJ_IVECW_B_M_2_.csv

>>> COPY /tmp/1.44/GMJ_IVECX_B_M_2_.csv /home/grierjones/DDCASPT2/iron_oxo_DDCASPT2/MScaspt2iron/1.44/GMJ_IVECX_B_M_2_.csv

>>> COPY /tmp/1.44/GMJ_IVECC2_B_M_2_.csv /home/grierjones/DDCASPT2/iron_oxo_DDCASPT2/MScaspt2iron/1.44/GMJ_IVECC2_B_M_2_.csv

>>> COPY /tmp/1.44/GMJ_e2_B_M_2_.csv /home/grierjones/DDCASPT2/iron_oxo_DDCASPT2/MScaspt2iron/1.44/GMJ_e2_B_M_2_.csv

>>> END FOREACH

>>> END FOREACH

>>> EXPORT i = E

>>> EXPORT j = P

>>> IF (-FILE GMJ_e2_${i}_${j}_${k}_.csv)

>>> COPY /tmp/1.44/GMJ_RHS_E_P_2_.csv /home/grierjones/DDCASPT2/iron_oxo_DDCASPT2/MScaspt2iron/1.44/GMJ_RHS_E_P_2_.csv

>>> COPY /tmp/1.44/GMJ_IVECW_E_P_2_.csv /home/grierjones/DDCASPT2/iron_oxo_DDCASPT2/MScaspt2iron/1.44/GMJ_IVECW_E_P_2_.csv

>>> COPY /tmp/1.44/GMJ_IVECX_E_P_2_.csv /home/grierjones/DDCASPT2/iron_oxo_DDCASPT2/MScaspt2iron/1.44/GMJ_IVECX_E_P_2_.csv

>>> COPY /tmp/1.44/GMJ_IVECC2_E_P_2_.csv /home/grierjones/DDCASPT2/iron_oxo_DDCASPT2/MScaspt2iron/1.44/GMJ_IVECC2_E_P_2_.csv

>>> COPY /tmp/1.44/GMJ_e2_E_P_2_.csv /home/grierjones/DDCASPT2/iron_oxo_DDCASPT2/MScaspt2iron/1.44/GMJ_e2_E_P_2_.csv

>>> END FOREACH

>>> EXPORT j = M

>>> IF (-FILE GMJ_e2_${i}_${j}_${k}_.csv)

>>> COPY /tmp/1.44/GMJ_RHS_E_M_2_.csv /home/grierjones/DDCASPT2/iron_oxo_DDCASPT2/MScaspt2iron/1.44/GMJ_RHS_E_M_2_.csv

>>> COPY /tmp/1.44/GMJ_IVECW_E_M_2_.csv /home/grierjones/DDCASPT2/iron_oxo_DDCASPT2/MScaspt2iron/1.44/GMJ_IVECW_E_M_2_.csv

>>> COPY /tmp/1.44/GMJ_IVECX_E_M_2_.csv /home/grierjones/DDCASPT2/iron_oxo_DDCASPT2/MScaspt2iron/1.44/GMJ_IVECX_E_M_2_.csv

>>> COPY /tmp/1.44/GMJ_IVECC2_E_M_2_.csv /home/grierjones/DDCASPT2/iron_oxo_DDCASPT2/MScaspt2iron/1.44/GMJ_IVECC2_E_M_2_.csv

>>> COPY /tmp/1.44/GMJ_e2_E_M_2_.csv /home/grierjones/DDCASPT2/iron_oxo_DDCASPT2/MScaspt2iron/1.44/GMJ_e2_E_M_2_.csv

>>> END FOREACH

>>> END FOREACH

>>> EXPORT i = F

>>> EXPORT j = P

>>> IF (-FILE GMJ_e2_${i}_${j}_${k}_.csv)

>>> COPY /tmp/1.44/GMJ_RHS_F_P_2_.csv /home/grierjones/DDCASPT2/iron_oxo_DDCASPT2/MScaspt2iron/1.44/GMJ_RHS_F_P_2_.csv

>>> COPY /tmp/1.44/GMJ_IVECW_F_P_2_.csv /home/grierjones/DDCASPT2/iron_oxo_DDCASPT2/MScaspt2iron/1.44/GMJ_IVECW_F_P_2_.csv

>>> COPY /tmp/1.44/GMJ_IVECX_F_P_2_.csv /home/grierjones/DDCASPT2/iron_oxo_DDCASPT2/MScaspt2iron/1.44/GMJ_IVECX_F_P_2_.csv

>>> COPY /tmp/1.44/GMJ_IVECC2_F_P_2_.csv /home/grierjones/DDCASPT2/iron_oxo_DDCASPT2/MScaspt2iron/1.44/GMJ_IVECC2_F_P_2_.csv

>>> COPY /tmp/1.44/GMJ_e2_F_P_2_.csv /home/grierjones/DDCASPT2/iron_oxo_DDCASPT2/MScaspt2iron/1.44/GMJ_e2_F_P_2_.csv

>>> END FOREACH

>>> EXPORT j = M

>>> IF (-FILE GMJ_e2_${i}_${j}_${k}_.csv)

>>> COPY /tmp/1.44/GMJ_RHS_F_M_2_.csv /home/grierjones/DDCASPT2/iron_oxo_DDCASPT2/MScaspt2iron/1.44/GMJ_RHS_F_M_2_.csv

>>> COPY /tmp/1.44/GMJ_IVECW_F_M_2_.csv /home/grierjones/DDCASPT2/iron_oxo_DDCASPT2/MScaspt2iron/1.44/GMJ_IVECW_F_M_2_.csv

>>> COPY /tmp/1.44/GMJ_IVECX_F_M_2_.csv /home/grierjones/DDCASPT2/iron_oxo_DDCASPT2/MScaspt2iron/1.44/GMJ_IVECX_F_M_2_.csv

>>> COPY /tmp/1.44/GMJ_IVECC2_F_M_2_.csv /home/grierjones/DDCASPT2/iron_oxo_DDCASPT2/MScaspt2iron/1.44/GMJ_IVECC2_F_M_2_.csv

>>> COPY /tmp/1.44/GMJ_e2_F_M_2_.csv /home/grierjones/DDCASPT2/iron_oxo_DDCASPT2/MScaspt2iron/1.44/GMJ_e2_F_M_2_.csv

>>> END FOREACH

>>> END FOREACH

>>> EXPORT i = G

>>> EXPORT j = P

>>> IF (-FILE GMJ_e2_${i}_${j}_${k}_.csv)

>>> COPY /tmp/1.44/GMJ_RHS_G_P_2_.csv /home/grierjones/DDCASPT2/iron_oxo_DDCASPT2/MScaspt2iron/1.44/GMJ_RHS_G_P_2_.csv

>>> COPY /tmp/1.44/GMJ_IVECW_G_P_2_.csv /home/grierjones/DDCASPT2/iron_oxo_DDCASPT2/MScaspt2iron/1.44/GMJ_IVECW_G_P_2_.csv

>>> COPY /tmp/1.44/GMJ_IVECX_G_P_2_.csv /home/grierjones/DDCASPT2/iron_oxo_DDCASPT2/MScaspt2iron/1.44/GMJ_IVECX_G_P_2_.csv

>>> COPY /tmp/1.44/GMJ_IVECC2_G_P_2_.csv /home/grierjones/DDCASPT2/iron_oxo_DDCASPT2/MScaspt2iron/1.44/GMJ_IVECC2_G_P_2_.csv

>>> COPY /tmp/1.44/GMJ_e2_G_P_2_.csv /home/grierjones/DDCASPT2/iron_oxo_DDCASPT2/MScaspt2iron/1.44/GMJ_e2_G_P_2_.csv

>>> END FOREACH

>>> EXPORT j = M

>>> IF (-FILE GMJ_e2_${i}_${j}_${k}_.csv)

>>> COPY /tmp/1.44/GMJ_RHS_G_M_2_.csv /home/grierjones/DDCASPT2/iron_oxo_DDCASPT2/MScaspt2iron/1.44/GMJ_RHS_G_M_2_.csv

>>> COPY /tmp/1.44/GMJ_IVECW_G_M_2_.csv /home/grierjones/DDCASPT2/iron_oxo_DDCASPT2/MScaspt2iron/1.44/GMJ_IVECW_G_M_2_.csv

>>> COPY /tmp/1.44/GMJ_IVECX_G_M_2_.csv /home/grierjones/DDCASPT2/iron_oxo_DDCASPT2/MScaspt2iron/1.44/GMJ_IVECX_G_M_2_.csv

>>> COPY /tmp/1.44/GMJ_IVECC2_G_M_2_.csv /home/grierjones/DDCASPT2/iron_oxo_DDCASPT2/MScaspt2iron/1.44/GMJ_IVECC2_G_M_2_.csv

>>> COPY /tmp/1.44/GMJ_e2_G_M_2_.csv /home/grierjones/DDCASPT2/iron_oxo_DDCASPT2/MScaspt2iron/1.44/GMJ_e2_G_M_2_.csv

>>> END FOREACH

>>> END FOREACH

>>> EXPORT i = H

>>> EXPORT j = P

>>> IF (-FILE GMJ_e2_${i}_${j}_${k}_.csv)

>>> COPY /tmp/1.44/GMJ_RHS_H_P_2_.csv /home/grierjones/DDCASPT2/iron_oxo_DDCASPT2/MScaspt2iron/1.44/GMJ_RHS_H_P_2_.csv

>>> COPY /tmp/1.44/GMJ_IVECW_H_P_2_.csv /home/grierjones/DDCASPT2/iron_oxo_DDCASPT2/MScaspt2iron/1.44/GMJ_IVECW_H_P_2_.csv

>>> COPY /tmp/1.44/GMJ_IVECX_H_P_2_.csv /home/grierjones/DDCASPT2/iron_oxo_DDCASPT2/MScaspt2iron/1.44/GMJ_IVECX_H_P_2_.csv

>>> COPY /tmp/1.44/GMJ_IVECC2_H_P_2_.csv /home/grierjones/DDCASPT2/iron_oxo_DDCASPT2/MScaspt2iron/1.44/GMJ_IVECC2_H_P_2_.csv

>>> COPY /tmp/1.44/GMJ_e2_H_P_2_.csv /home/grierjones/DDCASPT2/iron_oxo_DDCASPT2/MScaspt2iron/1.44/GMJ_e2_H_P_2_.csv

>>> END FOREACH

>>> EXPORT j = M

>>> IF (-FILE GMJ_e2_${i}_${j}_${k}_.csv)

>>> COPY /tmp/1.44/GMJ_RHS_H_M_2_.csv /home/grierjones/DDCASPT2/iron_oxo_DDCASPT2/MScaspt2iron/1.44/GMJ_RHS_H_M_2_.csv

>>> COPY /tmp/1.44/GMJ_IVECW_H_M_2_.csv /home/grierjones/DDCASPT2/iron_oxo_DDCASPT2/MScaspt2iron/1.44/GMJ_IVECW_H_M_2_.csv

>>> COPY /tmp/1.44/GMJ_IVECX_H_M_2_.csv /home/grierjones/DDCASPT2/iron_oxo_DDCASPT2/MScaspt2iron/1.44/GMJ_IVECX_H_M_2_.csv

>>> COPY /tmp/1.44/GMJ_IVECC2_H_M_2_.csv /home/grierjones/DDCASPT2/iron_oxo_DDCASPT2/MScaspt2iron/1.44/GMJ_IVECC2_H_M_2_.csv

>>> COPY /tmp/1.44/GMJ_e2_H_M_2_.csv /home/grierjones/DDCASPT2/iron_oxo_DDCASPT2/MScaspt2iron/1.44/GMJ_e2_H_M_2_.csv

>>> END FOREACH

>>> END FOREACH

>>> END FOREACH

>>> EXPORT k = 3

>>> EXPORT i = B

>>> EXPORT j = P

>>> IF (-FILE GMJ_e2_${i}_${j}_${k}_.csv)

>>> COPY /tmp/1.44/GMJ_RHS_B_P_3_.csv /home/grierjones/DDCASPT2/iron_oxo_DDCASPT2/MScaspt2iron/1.44/GMJ_RHS_B_P_3_.csv

>>> COPY /tmp/1.44/GMJ_IVECW_B_P_3_.csv /home/grierjones/DDCASPT2/iron_oxo_DDCASPT2/MScaspt2iron/1.44/GMJ_IVECW_B_P_3_.csv

>>> COPY /tmp/1.44/GMJ_IVECX_B_P_3_.csv /home/grierjones/DDCASPT2/iron_oxo_DDCASPT2/MScaspt2iron/1.44/GMJ_IVECX_B_P_3_.csv

>>> COPY /tmp/1.44/GMJ_IVECC2_B_P_3_.csv /home/grierjones/DDCASPT2/iron_oxo_DDCASPT2/MScaspt2iron/1.44/GMJ_IVECC2_B_P_3_.csv

>>> COPY /tmp/1.44/GMJ_e2_B_P_3_.csv /home/grierjones/DDCASPT2/iron_oxo_DDCASPT2/MScaspt2iron/1.44/GMJ_e2_B_P_3_.csv

>>> END FOREACH

>>> EXPORT j = M

>>> IF (-FILE GMJ_e2_${i}_${j}_${k}_.csv)

>>> COPY /tmp/1.44/GMJ_RHS_B_M_3_.csv /home/grierjones/DDCASPT2/iron_oxo_DDCASPT2/MScaspt2iron/1.44/GMJ_RHS_B_M_3_.csv

>>> COPY /tmp/1.44/GMJ_IVECW_B_M_3_.csv /home/grierjones/DDCASPT2/iron_oxo_DDCASPT2/MScaspt2iron/1.44/GMJ_IVECW_B_M_3_.csv

>>> COPY /tmp/1.44/GMJ_IVECX_B_M_3_.csv /home/grierjones/DDCASPT2/iron_oxo_DDCASPT2/MScaspt2iron/1.44/GMJ_IVECX_B_M_3_.csv

>>> COPY /tmp/1.44/GMJ_IVECC2_B_M_3_.csv /home/grierjones/DDCASPT2/iron_oxo_DDCASPT2/MScaspt2iron/1.44/GMJ_IVECC2_B_M_3_.csv

>>> COPY /tmp/1.44/GMJ_e2_B_M_3_.csv /home/grierjones/DDCASPT2/iron_oxo_DDCASPT2/MScaspt2iron/1.44/GMJ_e2_B_M_3_.csv

>>> END FOREACH

>>> END FOREACH

>>> EXPORT i = E

>>> EXPORT j = P

>>> IF (-FILE GMJ_e2_${i}_${j}_${k}_.csv)

>>> COPY /tmp/1.44/GMJ_RHS_E_P_3_.csv /home/grierjones/DDCASPT2/iron_oxo_DDCASPT2/MScaspt2iron/1.44/GMJ_RHS_E_P_3_.csv

>>> COPY /tmp/1.44/GMJ_IVECW_E_P_3_.csv /home/grierjones/DDCASPT2/iron_oxo_DDCASPT2/MScaspt2iron/1.44/GMJ_IVECW_E_P_3_.csv

>>> COPY /tmp/1.44/GMJ_IVECX_E_P_3_.csv /home/grierjones/DDCASPT2/iron_oxo_DDCASPT2/MScaspt2iron/1.44/GMJ_IVECX_E_P_3_.csv

>>> COPY /tmp/1.44/GMJ_IVECC2_E_P_3_.csv /home/grierjones/DDCASPT2/iron_oxo_DDCASPT2/MScaspt2iron/1.44/GMJ_IVECC2_E_P_3_.csv

>>> COPY /tmp/1.44/GMJ_e2_E_P_3_.csv /home/grierjones/DDCASPT2/iron_oxo_DDCASPT2/MScaspt2iron/1.44/GMJ_e2_E_P_3_.csv

>>> END FOREACH

>>> EXPORT j = M

>>> IF (-FILE GMJ_e2_${i}_${j}_${k}_.csv)

>>> COPY /tmp/1.44/GMJ_RHS_E_M_3_.csv /home/grierjones/DDCASPT2/iron_oxo_DDCASPT2/MScaspt2iron/1.44/GMJ_RHS_E_M_3_.csv

>>> COPY /tmp/1.44/GMJ_IVECW_E_M_3_.csv /home/grierjones/DDCASPT2/iron_oxo_DDCASPT2/MScaspt2iron/1.44/GMJ_IVECW_E_M_3_.csv

>>> COPY /tmp/1.44/GMJ_IVECX_E_M_3_.csv /home/grierjones/DDCASPT2/iron_oxo_DDCASPT2/MScaspt2iron/1.44/GMJ_IVECX_E_M_3_.csv

>>> COPY /tmp/1.44/GMJ_IVECC2_E_M_3_.csv /home/grierjones/DDCASPT2/iron_oxo_DDCASPT2/MScaspt2iron/1.44/GMJ_IVECC2_E_M_3_.csv

>>> COPY /tmp/1.44/GMJ_e2_E_M_3_.csv /home/grierjones/DDCASPT2/iron_oxo_DDCASPT2/MScaspt2iron/1.44/GMJ_e2_E_M_3_.csv

>>> END FOREACH

>>> END FOREACH

>>> EXPORT i = F

>>> EXPORT j = P

>>> IF (-FILE GMJ_e2_${i}_${j}_${k}_.csv)

>>> COPY /tmp/1.44/GMJ_RHS_F_P_3_.csv /home/grierjones/DDCASPT2/iron_oxo_DDCASPT2/MScaspt2iron/1.44/GMJ_RHS_F_P_3_.csv

>>> COPY /tmp/1.44/GMJ_IVECW_F_P_3_.csv /home/grierjones/DDCASPT2/iron_oxo_DDCASPT2/MScaspt2iron/1.44/GMJ_IVECW_F_P_3_.csv

>>> COPY /tmp/1.44/GMJ_IVECX_F_P_3_.csv /home/grierjones/DDCASPT2/iron_oxo_DDCASPT2/MScaspt2iron/1.44/GMJ_IVECX_F_P_3_.csv

>>> COPY /tmp/1.44/GMJ_IVECC2_F_P_3_.csv /home/grierjones/DDCASPT2/iron_oxo_DDCASPT2/MScaspt2iron/1.44/GMJ_IVECC2_F_P_3_.csv

>>> COPY /tmp/1.44/GMJ_e2_F_P_3_.csv /home/grierjones/DDCASPT2/iron_oxo_DDCASPT2/MScaspt2iron/1.44/GMJ_e2_F_P_3_.csv

>>> END FOREACH

>>> EXPORT j = M

>>> IF (-FILE GMJ_e2_${i}_${j}_${k}_.csv)

>>> COPY /tmp/1.44/GMJ_RHS_F_M_3_.csv /home/grierjones/DDCASPT2/iron_oxo_DDCASPT2/MScaspt2iron/1.44/GMJ_RHS_F_M_3_.csv

>>> COPY /tmp/1.44/GMJ_IVECW_F_M_3_.csv /home/grierjones/DDCASPT2/iron_oxo_DDCASPT2/MScaspt2iron/1.44/GMJ_IVECW_F_M_3_.csv

>>> COPY /tmp/1.44/GMJ_IVECX_F_M_3_.csv /home/grierjones/DDCASPT2/iron_oxo_DDCASPT2/MScaspt2iron/1.44/GMJ_IVECX_F_M_3_.csv

>>> COPY /tmp/1.44/GMJ_IVECC2_F_M_3_.csv /home/grierjones/DDCASPT2/iron_oxo_DDCASPT2/MScaspt2iron/1.44/GMJ_IVECC2_F_M_3_.csv

>>> COPY /tmp/1.44/GMJ_e2_F_M_3_.csv /home/grierjones/DDCASPT2/iron_oxo_DDCASPT2/MScaspt2iron/1.44/GMJ_e2_F_M_3_.csv

>>> END FOREACH

>>> END FOREACH

>>> EXPORT i = G

>>> EXPORT j = P

>>> IF (-FILE GMJ_e2_${i}_${j}_${k}_.csv)

>>> COPY /tmp/1.44/GMJ_RHS_G_P_3_.csv /home/grierjones/DDCASPT2/iron_oxo_DDCASPT2/MScaspt2iron/1.44/GMJ_RHS_G_P_3_.csv

>>> COPY /tmp/1.44/GMJ_IVECW_G_P_3_.csv /home/grierjones/DDCASPT2/iron_oxo_DDCASPT2/MScaspt2iron/1.44/GMJ_IVECW_G_P_3_.csv

>>> COPY /tmp/1.44/GMJ_IVECX_G_P_3_.csv /home/grierjones/DDCASPT2/iron_oxo_DDCASPT2/MScaspt2iron/1.44/GMJ_IVECX_G_P_3_.csv

>>> COPY /tmp/1.44/GMJ_IVECC2_G_P_3_.csv /home/grierjones/DDCASPT2/iron_oxo_DDCASPT2/MScaspt2iron/1.44/GMJ_IVECC2_G_P_3_.csv

>>> COPY /tmp/1.44/GMJ_e2_G_P_3_.csv /home/grierjones/DDCASPT2/iron_oxo_DDCASPT2/MScaspt2iron/1.44/GMJ_e2_G_P_3_.csv

>>> END FOREACH

>>> EXPORT j = M

>>> IF (-FILE GMJ_e2_${i}_${j}_${k}_.csv)

>>> COPY /tmp/1.44/GMJ_RHS_G_M_3_.csv /home/grierjones/DDCASPT2/iron_oxo_DDCASPT2/MScaspt2iron/1.44/GMJ_RHS_G_M_3_.csv

>>> COPY /tmp/1.44/GMJ_IVECW_G_M_3_.csv /home/grierjones/DDCASPT2/iron_oxo_DDCASPT2/MScaspt2iron/1.44/GMJ_IVECW_G_M_3_.csv

>>> COPY /tmp/1.44/GMJ_IVECX_G_M_3_.csv /home/grierjones/DDCASPT2/iron_oxo_DDCASPT2/MScaspt2iron/1.44/GMJ_IVECX_G_M_3_.csv

>>> COPY /tmp/1.44/GMJ_IVECC2_G_M_3_.csv /home/grierjones/DDCASPT2/iron_oxo_DDCASPT2/MScaspt2iron/1.44/GMJ_IVECC2_G_M_3_.csv

>>> COPY /tmp/1.44/GMJ_e2_G_M_3_.csv /home/grierjones/DDCASPT2/iron_oxo_DDCASPT2/MScaspt2iron/1.44/GMJ_e2_G_M_3_.csv

>>> END FOREACH

>>> END FOREACH

>>> EXPORT i = H

>>> EXPORT j = P

>>> IF (-FILE GMJ_e2_${i}_${j}_${k}_.csv)

>>> COPY /tmp/1.44/GMJ_RHS_H_P_3_.csv /home/grierjones/DDCASPT2/iron_oxo_DDCASPT2/MScaspt2iron/1.44/GMJ_RHS_H_P_3_.csv

>>> COPY /tmp/1.44/GMJ_IVECW_H_P_3_.csv /home/grierjones/DDCASPT2/iron_oxo_DDCASPT2/MScaspt2iron/1.44/GMJ_IVECW_H_P_3_.csv

>>> COPY /tmp/1.44/GMJ_IVECX_H_P_3_.csv /home/grierjones/DDCASPT2/iron_oxo_DDCASPT2/MScaspt2iron/1.44/GMJ_IVECX_H_P_3_.csv

>>> COPY /tmp/1.44/GMJ_IVECC2_H_P_3_.csv /home/grierjones/DDCASPT2/iron_oxo_DDCASPT2/MScaspt2iron/1.44/GMJ_IVECC2_H_P_3_.csv

>>> COPY /tmp/1.44/GMJ_e2_H_P_3_.csv /home/grierjones/DDCASPT2/iron_oxo_DDCASPT2/MScaspt2iron/1.44/GMJ_e2_H_P_3_.csv

>>> END FOREACH

>>> EXPORT j = M

>>> IF (-FILE GMJ_e2_${i}_${j}_${k}_.csv)

>>> COPY /tmp/1.44/GMJ_RHS_H_M_3_.csv /home/grierjones/DDCASPT2/iron_oxo_DDCASPT2/MScaspt2iron/1.44/GMJ_RHS_H_M_3_.csv

>>> COPY /tmp/1.44/GMJ_IVECW_H_M_3_.csv /home/grierjones/DDCASPT2/iron_oxo_DDCASPT2/MScaspt2iron/1.44/GMJ_IVECW_H_M_3_.csv

>>> COPY /tmp/1.44/GMJ_IVECX_H_M_3_.csv /home/grierjones/DDCASPT2/iron_oxo_DDCASPT2/MScaspt2iron/1.44/GMJ_IVECX_H_M_3_.csv

>>> COPY /tmp/1.44/GMJ_IVECC2_H_M_3_.csv /home/grierjones/DDCASPT2/iron_oxo_DDCASPT2/MScaspt2iron/1.44/GMJ_IVECC2_H_M_3_.csv

>>> COPY /tmp/1.44/GMJ_e2_H_M_3_.csv /home/grierjones/DDCASPT2/iron_oxo_DDCASPT2/MScaspt2iron/1.44/GMJ_e2_H_M_3_.csv

>>> END FOREACH

>>> END FOREACH

>>> END FOREACH

>>> EXPORT j = 1

>>> EXPORT i = A

>>> IF (-FILE GMJ_e2_${i}_${j}_.csv)

>>> COPY /tmp/1.44/GMJ_RHS_A_1_.csv /home/grierjones/DDCASPT2/iron_oxo_DDCASPT2/MScaspt2iron/1.44/GMJ_RHS_A_1_.csv

>>> COPY /tmp/1.44/GMJ_IVECW_A_1_.csv /home/grierjones/DDCASPT2/iron_oxo_DDCASPT2/MScaspt2iron/1.44/GMJ_IVECW_A_1_.csv

>>> COPY /tmp/1.44/GMJ_IVECX_A_1_.csv /home/grierjones/DDCASPT2/iron_oxo_DDCASPT2/MScaspt2iron/1.44/GMJ_IVECX_A_1_.csv

>>> COPY /tmp/1.44/GMJ_IVECC2_A_1_.csv /home/grierjones/DDCASPT2/iron_oxo_DDCASPT2/MScaspt2iron/1.44/GMJ_IVECC2_A_1_.csv

>>> COPY /tmp/1.44/GMJ_e2_A_1_.csv /home/grierjones/DDCASPT2/iron_oxo_DDCASPT2/MScaspt2iron/1.44/GMJ_e2_A_1_.csv

>>> END FOREACH

>>> EXPORT i = C

>>> IF (-FILE GMJ_e2_${i}_${j}_.csv)

>>> COPY /tmp/1.44/GMJ_RHS_C_1_.csv /home/grierjones/DDCASPT2/iron_oxo_DDCASPT2/MScaspt2iron/1.44/GMJ_RHS_C_1_.csv

>>> COPY /tmp/1.44/GMJ_IVECW_C_1_.csv /home/grierjones/DDCASPT2/iron_oxo_DDCASPT2/MScaspt2iron/1.44/GMJ_IVECW_C_1_.csv

>>> COPY /tmp/1.44/GMJ_IVECX_C_1_.csv /home/grierjones/DDCASPT2/iron_oxo_DDCASPT2/MScaspt2iron/1.44/GMJ_IVECX_C_1_.csv

>>> COPY /tmp/1.44/GMJ_IVECC2_C_1_.csv /home/grierjones/DDCASPT2/iron_oxo_DDCASPT2/MScaspt2iron/1.44/GMJ_IVECC2_C_1_.csv

>>> COPY /tmp/1.44/GMJ_e2_C_1_.csv /home/grierjones/DDCASPT2/iron_oxo_DDCASPT2/MScaspt2iron/1.44/GMJ_e2_C_1_.csv

>>> END FOREACH

>>> EXPORT i = D

>>> IF (-FILE GMJ_e2_${i}_${j}_.csv)

>>> COPY /tmp/1.44/GMJ_RHS_D_1_.csv /home/grierjones/DDCASPT2/iron_oxo_DDCASPT2/MScaspt2iron/1.44/GMJ_RHS_D_1_.csv

>>> COPY /tmp/1.44/GMJ_IVECW_D_1_.csv /home/grierjones/DDCASPT2/iron_oxo_DDCASPT2/MScaspt2iron/1.44/GMJ_IVECW_D_1_.csv

>>> COPY /tmp/1.44/GMJ_IVECX_D_1_.csv /home/grierjones/DDCASPT2/iron_oxo_DDCASPT2/MScaspt2iron/1.44/GMJ_IVECX_D_1_.csv

>>> COPY /tmp/1.44/GMJ_IVECC2_D_1_.csv /home/grierjones/DDCASPT2/iron_oxo_DDCASPT2/MScaspt2iron/1.44/GMJ_IVECC2_D_1_.csv

>>> COPY /tmp/1.44/GMJ_e2_D_1_.csv /home/grierjones/DDCASPT2/iron_oxo_DDCASPT2/MScaspt2iron/1.44/GMJ_e2_D_1_.csv

>>> END FOREACH

>>> END FOREACH

>>> EXPORT j = 2

>>> EXPORT i = A

>>> IF (-FILE GMJ_e2_${i}_${j}_.csv)

>>> COPY /tmp/1.44/GMJ_RHS_A_2_.csv /home/grierjones/DDCASPT2/iron_oxo_DDCASPT2/MScaspt2iron/1.44/GMJ_RHS_A_2_.csv

>>> COPY /tmp/1.44/GMJ_IVECW_A_2_.csv /home/grierjones/DDCASPT2/iron_oxo_DDCASPT2/MScaspt2iron/1.44/GMJ_IVECW_A_2_.csv

>>> COPY /tmp/1.44/GMJ_IVECX_A_2_.csv /home/grierjones/DDCASPT2/iron_oxo_DDCASPT2/MScaspt2iron/1.44/GMJ_IVECX_A_2_.csv

>>> COPY /tmp/1.44/GMJ_IVECC2_A_2_.csv /home/grierjones/DDCASPT2/iron_oxo_DDCASPT2/MScaspt2iron/1.44/GMJ_IVECC2_A_2_.csv

>>> COPY /tmp/1.44/GMJ_e2_A_2_.csv /home/grierjones/DDCASPT2/iron_oxo_DDCASPT2/MScaspt2iron/1.44/GMJ_e2_A_2_.csv

>>> END FOREACH

>>> EXPORT i = C

>>> IF (-FILE GMJ_e2_${i}_${j}_.csv)

>>> COPY /tmp/1.44/GMJ_RHS_C_2_.csv /home/grierjones/DDCASPT2/iron_oxo_DDCASPT2/MScaspt2iron/1.44/GMJ_RHS_C_2_.csv

>>> COPY /tmp/1.44/GMJ_IVECW_C_2_.csv /home/grierjones/DDCASPT2/iron_oxo_DDCASPT2/MScaspt2iron/1.44/GMJ_IVECW_C_2_.csv

>>> COPY /tmp/1.44/GMJ_IVECX_C_2_.csv /home/grierjones/DDCASPT2/iron_oxo_DDCASPT2/MScaspt2iron/1.44/GMJ_IVECX_C_2_.csv

>>> COPY /tmp/1.44/GMJ_IVECC2_C_2_.csv /home/grierjones/DDCASPT2/iron_oxo_DDCASPT2/MScaspt2iron/1.44/GMJ_IVECC2_C_2_.csv

>>> COPY /tmp/1.44/GMJ_e2_C_2_.csv /home/grierjones/DDCASPT2/iron_oxo_DDCASPT2/MScaspt2iron/1.44/GMJ_e2_C_2_.csv

>>> END FOREACH

>>> EXPORT i = D

>>> IF (-FILE GMJ_e2_${i}_${j}_.csv)

>>> COPY /tmp/1.44/GMJ_RHS_D_2_.csv /home/grierjones/DDCASPT2/iron_oxo_DDCASPT2/MScaspt2iron/1.44/GMJ_RHS_D_2_.csv

>>> COPY /tmp/1.44/GMJ_IVECW_D_2_.csv /home/grierjones/DDCASPT2/iron_oxo_DDCASPT2/MScaspt2iron/1.44/GMJ_IVECW_D_2_.csv

>>> COPY /tmp/1.44/GMJ_IVECX_D_2_.csv /home/grierjones/DDCASPT2/iron_oxo_DDCASPT2/MScaspt2iron/1.44/GMJ_IVECX_D_2_.csv

>>> COPY /tmp/1.44/GMJ_IVECC2_D_2_.csv /home/grierjones/DDCASPT2/iron_oxo_DDCASPT2/MScaspt2iron/1.44/GMJ_IVECC2_D_2_.csv

>>> COPY /tmp/1.44/GMJ_e2_D_2_.csv /home/grierjones/DDCASPT2/iron_oxo_DDCASPT2/MScaspt2iron/1.44/GMJ_e2_D_2_.csv

>>> END FOREACH

>>> END FOREACH

>>> EXPORT j = 3

>>> EXPORT i = A

>>> IF (-FILE GMJ_e2_${i}_${j}_.csv)

>>> COPY /tmp/1.44/GMJ_RHS_A_3_.csv /home/grierjones/DDCASPT2/iron_oxo_DDCASPT2/MScaspt2iron/1.44/GMJ_RHS_A_3_.csv

>>> COPY /tmp/1.44/GMJ_IVECW_A_3_.csv /home/grierjones/DDCASPT2/iron_oxo_DDCASPT2/MScaspt2iron/1.44/GMJ_IVECW_A_3_.csv

>>> COPY /tmp/1.44/GMJ_IVECX_A_3_.csv /home/grierjones/DDCASPT2/iron_oxo_DDCASPT2/MScaspt2iron/1.44/GMJ_IVECX_A_3_.csv

>>> COPY /tmp/1.44/GMJ_IVECC2_A_3_.csv /home/grierjones/DDCASPT2/iron_oxo_DDCASPT2/MScaspt2iron/1.44/GMJ_IVECC2_A_3_.csv

>>> COPY /tmp/1.44/GMJ_e2_A_3_.csv /home/grierjones/DDCASPT2/iron_oxo_DDCASPT2/MScaspt2iron/1.44/GMJ_e2_A_3_.csv

>>> END FOREACH

>>> EXPORT i = C

>>> IF (-FILE GMJ_e2_${i}_${j}_.csv)

>>> COPY /tmp/1.44/GMJ_RHS_C_3_.csv /home/grierjones/DDCASPT2/iron_oxo_DDCASPT2/MScaspt2iron/1.44/GMJ_RHS_C_3_.csv

>>> COPY /tmp/1.44/GMJ_IVECW_C_3_.csv /home/grierjones/DDCASPT2/iron_oxo_DDCASPT2/MScaspt2iron/1.44/GMJ_IVECW_C_3_.csv

>>> COPY /tmp/1.44/GMJ_IVECX_C_3_.csv /home/grierjones/DDCASPT2/iron_oxo_DDCASPT2/MScaspt2iron/1.44/GMJ_IVECX_C_3_.csv

>>> COPY /tmp/1.44/GMJ_IVECC2_C_3_.csv /home/grierjones/DDCASPT2/iron_oxo_DDCASPT2/MScaspt2iron/1.44/GMJ_IVECC2_C_3_.csv

>>> COPY /tmp/1.44/GMJ_e2_C_3_.csv /home/grierjones/DDCASPT2/iron_oxo_DDCASPT2/MScaspt2iron/1.44/GMJ_e2_C_3_.csv

>>> END FOREACH

>>> EXPORT i = D

>>> IF (-FILE GMJ_e2_${i}_${j}_.csv)

>>> COPY /tmp/1.44/GMJ_RHS_D_3_.csv /home/grierjones/DDCASPT2/iron_oxo_DDCASPT2/MScaspt2iron/1.44/GMJ_RHS_D_3_.csv

>>> COPY /tmp/1.44/GMJ_IVECW_D_3_.csv /home/grierjones/DDCASPT2/iron_oxo_DDCASPT2/MScaspt2iron/1.44/GMJ_IVECW_D_3_.csv

>>> COPY /tmp/1.44/GMJ_IVECX_D_3_.csv /home/grierjones/DDCASPT2/iron_oxo_DDCASPT2/MScaspt2iron/1.44/GMJ_IVECX_D_3_.csv

>>> COPY /tmp/1.44/GMJ_IVECC2_D_3_.csv /home/grierjones/DDCASPT2/iron_oxo_DDCASPT2/MScaspt2iron/1.44/GMJ_IVECC2_D_3_.csv

>>> COPY /tmp/1.44/GMJ_e2_D_3_.csv /home/grierjones/DDCASPT2/iron_oxo_DDCASPT2/MScaspt2iron/1.44/GMJ_e2_D_3_.csv

>>> END FOREACH

>>> END FOREACH

.########################.
.# Non-zero return code #.
.########################.

    Timing: Wall=3476.63 User=3454.68 System=21.08
************************************
*** WorkDir at /tmp/1.44 cleaned ***
************************************
