[Molden Format]
[N_Atoms]
                     2
[Atoms] (AU)
B1          1      5           0.00000000      0.00000000      0.00000000
O2          2      8           0.00000000      0.00000000      1.70075351
[Charge] (Mulliken)
  0.814238310905046     
 -0.814238310905072     
[GTO] (AU)
   1
   s  14
  3.336021700E+04  1.039699991E-04
  4.972095200E+03  5.254399956E-04
  1.125641700E+03  2.509059979E-03
  3.164913600E+02  1.031887991E-02
  1.020072600E+02  3.636632969E-02
  3.629587300E+01  1.064607991E-01
  1.397141000E+01  2.403999880E-01
  5.741156000E+00  3.748581168E-01
  2.494268000E+00  3.100066974E-01
  1.114202000E+00  7.922455933E-02
  4.215490000E-01 -4.947589958E-03
  1.696330000E-01 -7.737119935E-03
  6.853500000E-02 -1.501079987E-03
  2.398700000E-02 -1.333299989E-04
   s  14
  3.336021700E+04 -2.030000008E-05
  4.972095200E+03 -1.025700004E-04
  1.125641700E+03 -4.911300020E-04
  3.164913600E+02 -2.026570008E-03
  1.020072600E+02 -7.261010030E-03
  3.629587300E+01 -2.197722009E-02
  1.397141000E+01 -5.408428022E-02
  5.741156000E+00 -1.022402604E-01
  2.494268000E+00 -1.423595206E-01
  1.114202000E+00 -4.658690019E-02
  4.215490000E-01  3.799402916E-01
  1.696330000E-01  5.890463624E-01
  6.853500000E-02  1.749075107E-01
  2.398700000E-02 -1.142030005E-03
   p   9
  5.500000000E+01  1.229800005E-03
  1.336610100E+01  8.827380035E-03
  4.135394000E+00  3.843340015E-02
  1.481256000E+00  1.150031805E-01
  6.021360000E-01  2.733674011E-01
  2.556360000E-01  4.061972116E-01
  1.111510000E-01  3.014967912E-01
  4.764800000E-02  7.684809030E-02
  1.667700000E-02 -8.170000032E-06
 
   2
   s  14
  1.053749500E+05  1.238600013E-04
  1.567924000E+04  5.120100053E-04
  3.534544700E+03  2.152910022E-03
  9.873651600E+02  8.528440089E-03
  3.159787500E+02  3.018049031E-02
  1.116542800E+02  9.099702095E-02
  4.269945100E+01  2.177936423E-01
  1.739559600E+01  3.686245738E-01
  7.438309000E+00  3.366707335E-01
  3.222862000E+00  9.657630101E-02
  1.253877000E+00  2.144520022E-03
  4.951550000E-01  1.194350012E-03
  1.916650000E-01  5.390200056E-04
  6.708300000E-02  2.103400022E-04
   s  14
  1.053749500E+05 -2.815000008E-05
  1.567924000E+04 -1.163000003E-04
  3.534544700E+03 -4.909200013E-04
  9.873651600E+02 -1.946160005E-03
  3.159787500E+02 -7.005300019E-03
  1.116542800E+02 -2.167814006E-02
  4.269945100E+01 -5.641213015E-02
  1.739559600E+01 -1.127053003E-01
  7.438309000E+00 -1.589119704E-01
  3.222862000E+00 -3.355083009E-02
  1.253877000E+00  3.531902810E-01
  4.951550000E-01  5.534199315E-01
  1.916650000E-01  2.301839106E-01
  6.708300000E-02  1.127267003E-02
   p   9
  2.000000000E+02  9.173000030E-04
  4.653336700E+01  7.377140024E-03
  1.462180900E+01  3.483515011E-02
  5.313064000E+00  1.144397004E-01
  2.102525000E+00  2.554966408E-01
  8.502230000E-01  3.722557412E-01
  3.375970000E-01  3.323314911E-01
  1.288920000E-01  1.400847905E-01
  4.511200000E-02  2.395784008E-02
 
[MO]
Sym=     1a  
Ene=   -20.7060
Spin= Alpha
Occup=    1.00000
   1        -0.00109414
   2        -0.00299401
   3        -0.00000000
   4         0.00000000
   5        -0.00128656
   6         1.00041351
   7         0.00356546
   8         0.00000000
   9         0.00000000
  10        -0.00363244
Sym=     1a  
Ene=   -20.7120
Spin= Beta
Occup=    1.00000
   1        -0.00122063
   2        -0.00325293
   3        -0.00000000
   4         0.00000000
   5        -0.00153189
   6         1.00046632
   7         0.00424125
   8         0.00000000
   9         0.00000000
  10        -0.00372083
Sym=     2a  
Ene=    -7.9327
Spin= Alpha
Occup=    1.00000
   1         0.99550921
   2         0.00875498
   3         0.00000000
   4        -0.00000000
   5         0.00092715
   6        -0.00357721
   7         0.01165613
   8        -0.00000000
   9        -0.00000000
  10        -0.01259758
Sym=     2a  
Ene=    -7.9045
Spin= Beta
Occup=    1.00000
   1         0.99572257
   2         0.00820868
   3         0.00000000
   4        -0.00000000
   5         0.00222543
   6        -0.00368276
   7         0.01081648
   8         0.00000000
   9        -0.00000000
  10        -0.01220194
Sym=     3a  
Ene=    -1.5746
Spin= Alpha
Occup=    1.00000
   1        -0.21284979
   2         0.00488883
   3        -0.00000000
   4         0.00000000
   5         0.13664895
   6        -0.01920072
   7         0.85607579
   8         0.00000000
   9         0.00000000
  10        -0.37885890
Sym=     3a  
Ene=    -1.5844
Spin= Beta
Occup=    1.00000
   1        -0.21221486
   2        -0.01448327
   3        -0.00000000
   4         0.00000000
   5         0.13108730
   6        -0.01718310
   7         0.87744995
   8         0.00000000
   9         0.00000000
  10        -0.36615202
Sym=     4a  
Ene=    -0.7051
Spin= Alpha
Occup=    1.00000
   1         0.15432192
   2        -0.01300732
   3        -0.00000000
   4         0.00000000
   5        -0.10656371
   6         0.01626606
   7         0.42954493
   8        -0.00000000
   9         0.00000000
  10         0.93722498
Sym=     4a  
Ene=    -0.7126
Spin= Beta
Occup=    1.00000
   1        -0.00000000
   2        -0.00000000
   3         0.28518834
   4        -0.08742490
   5         0.00000000
   6        -0.00000000
   7        -0.00000000
   8         0.78367848
   9        -0.24023777
  10        -0.00000000
Sym=     5a  
Ene=    -0.7003
Spin= Alpha
Occup=    1.00000
   1         0.00000000
   2        -0.00000000
   3         0.37294683
   4        -0.14369264
   5        -0.00000000
   6         0.00000000
   7         0.00000000
   8         0.69219702
   9        -0.26669651
  10         0.00000000
Sym=     5a  
Ene=    -0.7126
Spin= Beta
Occup=    1.00000
   1        -0.00000000
   2        -0.00000000
   3         0.08742490
   4         0.28518834
   5         0.00000000
   6        -0.00000000
   7        -0.00000000
   8         0.24023777
   9         0.78367848
  10        -0.00000000
Sym=     6a  
Ene=    -0.7003
Spin= Alpha
Occup=    1.00000
   1        -0.00000000
   2        -0.00000000
   3         0.14369264
   4         0.37294683
   5         0.00000000
   6        -0.00000000
   7        -0.00000000
   8         0.26669651
   9         0.69219702
  10        -0.00000000
Sym=     6a  
Ene=    -0.7113
Spin= Beta
Occup=    1.00000
   1         0.16007837
   2         0.02720105
   3         0.00000000
   4        -0.00000000
   5        -0.14029736
   6         0.01712496
   7         0.40973709
   8         0.00000000
   9        -0.00000000
  10         0.95299845
Sym=     7a  
Ene=    -0.5727
Spin= Alpha
Occup=    1.00000
   1         0.05287615
   2         0.87333342
   3        -0.00000000
   4         0.00000000
   5        -0.58644730
   6         0.00269567
   7        -0.10697477
   8         0.00000000
   9         0.00000000
  10         0.21705710
Sym=     7a  
Ene=    -0.0080
Spin= Beta
Occup=    0.00000
   1         0.06319074
   2         0.95012477
   3        -0.00000000
   4        -0.00000000
   5        -0.50158144
   6        -0.01467958
   7        -0.21101030
   8         0.00000000
   9         0.00000000
  10         0.19948097
Sym=     8a  
Ene=     0.2647
Spin= Alpha
Occup=    0.00000
   1         0.00000000
   2         0.00000000
   3         0.60985699
   4        -0.88472611
   5        -0.00000000
   6         0.00000000
   7         0.00000000
   8        -0.49611920
   9         0.71972547
  10         0.00000000
Sym=     8a  
Ene=     0.3177
Spin= Beta
Occup=    0.00000
   1        -0.00000000
   2         0.00000000
   3         0.63942346
   4        -0.90363980
   5        -0.00000000
   6         0.00000000
   7        -0.00000000
   8        -0.46301359
   9         0.65433555
  10        -0.00000000
Sym=     9a  
Ene=     0.2647
Spin= Alpha
Occup=    0.00000
   1        -0.00000000
   2        -0.00000000
   3        -0.88472611
   4        -0.60985699
   5         0.00000000
   6         0.00000000
   7        -0.00000000
   8         0.71972547
   9         0.49611920
  10        -0.00000000
Sym=     9a  
Ene=     0.3177
Spin= Beta
Occup=    0.00000
   1        -0.00000000
   2        -0.00000000
   3        -0.90363980
   4        -0.63942346
   5         0.00000000
   6         0.00000000
   7         0.00000000
   8         0.65433555
   9         0.46301359
  10        -0.00000000
Sym=    10a  
Ene=     0.8166
Spin= Alpha
Occup=    0.00000
   1         0.36331063
   2         1.48506420
   3        -0.00000000
   4        -0.00000000
   5         1.44896419
   6        -0.30953071
   7        -1.77434598
   8        -0.00000000
   9        -0.00000000
  10         0.62692464
Sym=    10a  
Ene=     0.8539
Spin= Beta
Occup=    0.00000
   1         0.35893225
   2         1.43688584
   3        -0.00000000
   4        -0.00000000
   5         1.47817133
   6        -0.30909439
   7        -1.75920641
   8        -0.00000000
   9         0.00000000
  10         0.61645453
