   This run of MOLCAS is using the pymolcas driver

                             OPE
                             OPE          NMOL  CASOP  ENMOLC A   SO
                 OPE        NMOLC        AS  OP EN  MO LC     AS  OP
                OPENM       OL CA        SO  PE NM  OL CA     SOP EN
                OP EN      MO   LC       AS  OP ENMOL  CASO   PENMOL
                OP  EN     MO   LC       AS  OP EN     MO     LC ASO
               OP   E  NMOL  C  AS       OP  EN MO     LC     AS  OP
               OP  E   NMO   LC AS        OPEN  MO     LCASOP EN   M
               O  PEN   MO  LCA  SO
            OPE   NMO   L   CAS    OP
        OPENMOL  CASOP     ENMOL   CASOPE
     OPENMOLCA   SOPENMOLCASOPEN   MOLCASOPE
    OPENMOLCAS   OP           EN   MOL    CAS
    OPENMOLCAS       OP  ENM        O     LCA
    OPENMOLCAS    OPEN  MOLCASO     P  E  NMO
    OPENMOLCAS     OP               E  N  MOL
    OPENMOLCA   SO           PENM   O  L  CAS    OPEN    MO    LCAS
    OPENMOLCA   SOP           ENM   O  L  CAS   OP  EN  MOLC  AS   O
    OPENMOLCA   SOPE           NM      O  LCA   S      OP  EN MO
    OPENMOLC                AS         O  PEN   M      OL  CA  SOPE
    OPENMO        LCASOPE  NMOL        C  ASO   P      ENMOLC     AS
    OPE     NMO      LCA  SO     P     E   NM   OL  CA SO  PE N   MO
          OPENMOLCA            SOPE   NMO        LCAS  O    P  ENMO
     OPENMOLCASOPENMOLCASOPENMOLCASOPENMOLCA
        OPENMOLCASOPENMOLCASOPENMOLCASOPE
            OPENMOLCASOPENMOLCASOPENM
               OPENMOLCASOPENMOLCA        version: ea724fe96-dirty
                   OPENMOLCASO
                       OPE                tag:

 OpenMolcas is free software; you can redistribute it and/or modify it
 under the terms of the GNU Lesser General Public License version 2.1.
 OpenMolcas is distributed in the hope that it will be useful, but it
 is provided "as is" and without any express or implied warranties.
 For more details see the full text of the license in the file
 LICENSE or in <http://www.gnu.org/licenses/>.

                 Copyright (C) The OpenMolcas Authors
           For the author list and the recommended citation,
                   consult the file CONTRIBUTORS.md

           *************************************************
           * pymolcas version py2.28                       *
           *   build c4a6d18ded8cb6cad61d2372a9abd97c      *
           *   (after the EMIL interpreter by V. Veryazov) *
           *************************************************

configuration info
------------------
C Compiler ID: Intel
C flags: -std=gnu99
Fortran Compiler ID: Intel
Fortran flags: -fpp -i8 -r8 -heap-arrays
Definitions: _MOLCAS_;_I8_;_LINUX_
Parallel: OFF (GA=OFF)


   -------------------------------------------------------------------------------
  |
  |              Project: 5.29
  |       Submitted from: /home/grierjones/DDCASPT2/iron_oxo_DDCASPT2/cluster/5.29
  |         Scratch area: /tmp/5.29
  |      Save outputs to: /home/grierjones/DDCASPT2/iron_oxo_DDCASPT2/cluster/5.29
  |               Molcas: /home/grierjones/Test/build
  |
  | Scratch area is empty
  |
  |       MOLCAS_DRIVER = /usr/local/pymolcas
  | MOLCAS_KEEP_WORKDIR = NO
  |  MOLCAS_NEW_WORKDIR = YES
  |       MOLCAS_NPROCS = 1
  |        MOLCAS_PRINT = NORMAL
  |       MOLCAS_SOURCE = /home/grierjones/Test/build
  |    MOLCAS_STRUCTURE = 0
  |
   -------------------------------------------------------------------------------

++ ---------   Input file   ---------

&GATEWAY
coord=5.29.xyz
Basis = ANO-RCC-VDZP
Group = nosymm
Expert
End of Input

&SEWARD
End of Input

&SCF
UHF
charge
2
spin
5

>>> COPY $WorkDir/5.29.scf.h5 $CurrDir/

&RASSCF
Title= RASSCF
FileOrb
/home/grierjones/DDCASPT2/iron_oxo_DDCASPT2/cluster/5.28/5.28.RasOrb
NACTEL
10 0 0
RAS2
14
Symmetry
1
Spin
5
charge
2
orblisting
all
ITERation
300 200

>>> COPY $WorkDir/5.29.rasscf.h5 $CurrDir/

>>> COPY $WorkDir/GMJ_Fock_MO.csv $CurrDir/5.29.GMJ_Fock_MO.csv

>>> COPY $WorkDir/GMJ_PT2_Fock_MO.csv $CurrDir/5.29.GMJ_PT2_Fock_MO.csv

&MOTRA
Frozen=0
LUMORB

>>> COPY $WorkDir/GMJ_one_int_indx.csv $CurrDir/5.29.GMJ_one_int_indx.csv

>>> COPY $WorkDir/GMJ_one_int.csv $CurrDir/5.29.GMJ_one_int.csv

>>> COPY $WorkDir/GMJ_two_int_indx.csv $CurrDir/5.29.GMJ_two_int_indx.csv

>>> COPY $WorkDir/GMJ_two_int.csv $CurrDir/5.29.GMJ_two_int.csv

&CASPT2
Frozen
0
MAXITER
50

>>> FOREACH i IN (B,E,F,G,H)

  >>> FOREACH j IN (P,M)

    >>> IF (-FILE GMJ_e2_${i}_${j}.csv)

      >>> COPY $WorkDir/GMJ_RHS_${i}_${j}.csv $CurrDir/GMJ_RHS_${i}_${j}.csv

      >>> COPY $WorkDir/GMJ_IVECW_${i}_${j}.csv $CurrDir/GMJ_IVECW_${i}_${j}.csv

      >>> COPY $WorkDir/GMJ_IVECX_${i}_${j}.csv $CurrDir/GMJ_IVECX_${i}_${j}.csv

      >>> COPY $WorkDir/GMJ_IVECC2_${i}_${j}.csv $CurrDir/GMJ_IVECC2_${i}_${j}.csv

      >>> COPY $WorkDir/GMJ_e2_${i}_${j}.csv $CurrDir/GMJ_e2_${i}_${j}.csv

    >>> END IF

  >>> END FOREACH

>>> END FOREACH

>>> FOREACH i IN (A,C,D)

  >>> IF (-FILE GMJ_e2_$i.csv)

    >>> COPY $WorkDir/GMJ_RHS_$i.csv $CurrDir/GMJ_RHS_$i.csv

    >>> COPY $WorkDir/GMJ_IVECW_$i.csv $CurrDir/GMJ_IVECW_$i.csv

    >>> COPY $WorkDir/GMJ_IVECX_$i.csv $CurrDir/GMJ_IVECX_$i.csv

    >>> COPY $WorkDir/GMJ_IVECC2_$i.csv $CurrDir/GMJ_IVECC2_$i.csv

    >>> COPY $WorkDir/GMJ_e2_$i.csv $CurrDir/GMJ_e2_$i.csv

  >>> END IF

>>> END FOREACH

-- ----------------------------------

--- Start Module: gateway at Sun Dec 22 22:12:02 2024 ---
 
()()()()()()()()()()()()()()()()()()()()()()()()()()()()()()()()()()()()()()()()()()()()()()()()()()

                                              &GATEWAY

                                   only a single process is used
                       available to each process: 2.0 GB of memory, 1 thread?
()()()()()()()()()()()()()()()()()()()()()()()()()()()()()()()()()()()()()()()()()()()()()()()()()()
 
 ###############################################################################
 ###############################################################################
 ###                                                                         ###
 ###                                                                         ###
 ###                                                                         ###
 ###    WARNING: EXPERT option is ON!                                        ###
 ###                                                                         ###
 ###                                                                         ###
 ###############################################################################
 ###############################################################################
 
++    Symmetry information:
      ---------------------
 
                    Character Table for C1 
 
                             E  
                    a        1  x, y, xy, Rz, z, xz, Ry, yz, Rx, I
--
 
 
++    Basis set information:
      ----------------------
 
 
      Basis set label: O.ANO-RCC...3S2P1D.
 
      Electronic valence basis set:
      ------------------
      Associated Effective Charge   8.000000 au
      Associated Actual Charge      8.000000 au
      Nuclear Model: Point charge
 
      Shell  nPrim  nBasis  Cartesian Spherical Contaminant
         s      14       3        X                  
         p       9       2        X                  
         d       4       1                 X         
 
 
      Basis set label: FE.ANO-RCC...5S4P2D1F.
 
      Electronic valence basis set:
      ------------------
      Associated Effective Charge  26.000000 au
      Associated Actual Charge     26.000000 au
      Nuclear Model: Point charge
 
      Shell  nPrim  nBasis  Cartesian Spherical Contaminant
         s      21       5        X                  
         p      15       4        X                  
         d      10       2                 X         
         f       6       1                 X         
--
 
 
++    Molecular structure info:
      -------------------------
 
                    ************************************************ 
                    **** Cartesian Coordinates / Bohr, Angstrom **** 
                    ************************************************ 
 
     Center  Label                x              y              z                     x              y              z
        1      O1               0.000000       0.000000       6.508765              0.000000       0.000000       3.444290
        2      FE2              0.000000       0.000000      -3.485203              0.000000       0.000000      -1.844290
--
 
 
            Nuclear Potential Energy             20.81255456 au
 
 ###############################################################################
 ###############################################################################
 ###                                                                         ###
 ###                                                                         ###
 ###    There were warnings during the execution                             ###
 ###    Please, check the output with care!                                  ###
 ###                                                                         ###
 ###                                                                         ###
 ###############################################################################
 ###############################################################################
--- Stop Module: gateway at Sun Dec 22 22:12:02 2024 /rc=_RC_ALL_IS_WELL_ ---
*** files: xmldump
    saved to directory /home/grierjones/DDCASPT2/iron_oxo_DDCASPT2/cluster/5.29

--- Start Module: seward at Sun Dec 22 22:12:02 2024 ---
 
()()()()()()()()()()()()()()()()()()()()()()()()()()()()()()()()()()()()()()()()()()()()()()()()()()

                                              &SEWARD

                                   only a single process is used
                       available to each process: 2.0 GB of memory, 1 thread?
()()()()()()()()()()()()()()()()()()()()()()()()()()()()()()()()()()()()()()()()()()()()()()()()()()
 
 ###############################################################################
 ###############################################################################
 ###                                                                         ###
 ###                                                                         ###
 ###                                                                         ###
 ###    WARNING: EXPERT option is ON!                                        ###
 ###                                                                         ###
 ###                                                                         ###
 ###############################################################################
 ###############################################################################
               SEWARD will generate:
                  Multipole Moment integrals up to order  2
                  Kinetic Energy integrals
                  Nuclear Attraction integrals (point charge)
                  One-Electron Hamiltonian integrals
                  Velocity integrals
                  Relativistic Douglas-Kroll-Hess integrals:
                    - Parametrization         : EXP
                    - DKH order of Hamiltonian: 2
                    - DKH order of Properties : 0
                         - multipole moment operators
                         - electric potential operators
                         - contact operators
                  Atomic mean-field integrals
                  Two-Electron Repulsion integrals
 
                   Integrals are discarded if absolute value <: 0.10E-13
                   Integral cutoff threshold is set to       <: 0.10E-15
 
            Nuclear Potential Energy             20.81255456 au
 
 
      Basis set specifications :
      Symmetry species         a  
      Basis functions           48
 
 
  Input file to MOLDEN was generated!
 
 ###############################################################################
 ###############################################################################
 ###                                                                         ###
 ###                                                                         ###
 ###    There were warnings during the execution                             ###
 ###    Please, check the output with care!                                  ###
 ###                                                                         ###
 ###                                                                         ###
 ###############################################################################
 ###############################################################################
--- Stop Module: seward at Sun Dec 22 22:12:03 2024 /rc=_RC_ALL_IS_WELL_ ---
*** files: 5.29.GssOrb 5.29.guessorb.h5 5.29.guessorb.molden xmldump
    saved to directory /home/grierjones/DDCASPT2/iron_oxo_DDCASPT2/cluster/5.29

*** symbolic link created: INPORB -> 5.29.GssOrb
--- Start Module: scf at Sun Dec 22 22:12:03 2024 ---
 
()()()()()()()()()()()()()()()()()()()()()()()()()()()()()()()()()()()()()()()()()()()()()()()()()()

                                                &SCF

                                   only a single process is used
                       available to each process: 2.0 GB of memory, 1 thread?
()()()()()()()()()()()()()()()()()()()()()()()()()()()()()()()()()()()()()()()()()()()()()()()()()()
 
 *** Possible bug in opening file
 *** isFreeUnit resets the unit number
++    Input section:
      --------------
 
      Header of the integral files:
      
       Integrals generated by seward 4.2.0  , Sun Dec 22 22:12:02 2024
 
 
      Cartesian coordinates in Angstrom:
      -----------------------------------------------------
      No.  Label        X            Y            Z        
      -----------------------------------------------------
       1   O1         0.00000000   0.00000000   3.44429000
       2   FE2        0.00000000   0.00000000  -1.84429000
      -----------------------------------------------------
      Nuclear repulsion energy =   20.81255456
--
 
++    Orbital specifications:
      -----------------------
 
      Symmetry species               1
                                     a
      Frozen orbitals                0
      Start temperature = 0.500
      End temperature   = 0.010
      Temperature Factor= 0.460
      Deleted orbitals               0
      Total number of orbitals      48
      Number of basis functions     48
--
 
      Molecular charge                           2.000
 
++    Optimization specifications:
      ----------------------------
 
      SCF Algorithm: Conventional USCF
      D(i)-D(i-1) density differences are used
      Number of density matrices in core                5
      Maximum number of NDDO SCF iterations           400
      Maximum number of HF SCF iterations             400
      Threshold for SCF energy change            0.10E-08
      Threshold for density matrix               0.10E-03
      Threshold for Fock matrix                  0.15E-03
      Threshold for linear dependence            0.10E-08
      Threshold at which DIIS is turned on       0.15E+00
      Threshold at which QNR/C2DIIS is turned on 0.75E-01
      Threshold for Norm(delta) (QNR/C2DIIS)     0.20E-04
      DIIS extrapolation of the SCF procedure
      All orbitals punched on: UHFORB
--
 
      Input vectors read from INPORB
      Orbital file label: *Guess orbitals
 
 
++ Convergence information
                               UHF SCF        iterations: Energy and convergence statistics
 
Iter     Tot. SCF        One-elec.       Two-elec.     Energy      Max Dij or  Max Fij      DNorm      TNorm      AccCon     Time
         Energy          Energy          Energy        Change      Delta Norm                                                in Sec.
 
 The total and one-electron energies are shifted by a value of      1000. a.u.
 
   1  -343.302185329  -875.365586310   511.250846417   0.00E+00    0.16E+00*   0.36E+00*    0.75E+01   0.18E+03   None         0.
   2  -343.481151581  -871.257763711   506.964057565  -0.18E+00*   0.11E+00*   0.14E+00*    0.10E+01   0.18E+03   EDIIS        0.
   3  -341.595049198  -919.413889900   557.006286138   0.19E+01*   0.62E-01*   0.17E+00*    0.18E+01   0.19E+03   EDIIS        0.
   4  -342.893050730  -859.359254840   495.653649545  -0.13E+01*   0.74E-01*   0.61E-01*    0.15E+01   0.17E+03   EDIIS        0.
   5  -344.053659906  -893.332817192   528.466602721  -0.12E+01*   0.23E-01*   0.36E-01*    0.85E+00   0.18E+03   EDIIS        0.
   6  -344.155905965  -865.116269207   500.147808677  -0.10E+00*   0.19E+00*   0.17E+00*    0.18E+01   0.17E+03   EDIIS        0.
   7  -343.475703006  -905.423205689   541.134948118   0.68E+00*   0.52E-01*   0.43E-01*    0.18E+01   0.18E+03   EDIIS        0.
   8  -344.888838308  -883.422511423   517.721118550  -0.14E+01*   0.26E+00*   0.16E+00*    0.22E+01   0.18E+03   EDIIS        0.
   9  -345.208305467  -871.546972196   505.526112164  -0.32E+00*   0.24E+00*   0.34E+00*    0.16E+01   0.18E+03   EDIIS        0.
  10  -345.289430669  -876.772862746   510.670877513  -0.81E-01*   0.67E-01*   0.95E-01*    0.73E+00   0.18E+03   EDIIS        0.
  11  -345.298429815  -874.832386473   508.721402093  -0.90E-02*   0.34E-01*   0.34E-01*    0.22E+00   0.18E+03   EDIIS        0.
 
       Fermi aufbau procedure completed!
      nOcc(alpha)=   18
      nOcc(beta) =   14
 
  12  -345.299802562  -875.678055351   509.565698224  -0.14E-02*   0.96E-02*   0.87E-02*    0.85E-01   0.18E+03   EDIIS        0.
  13  -345.300069359  -875.351866085   509.239242162  -0.27E-03*   0.82E-02*   0.47E-02*    0.35E-01   0.18E+03   EDIIS        0.
  14  -345.300134715  -875.483297184   509.370607904  -0.65E-04*   0.41E-02*   0.23E-02*    0.17E-01   0.18E+03   EDIIS        0.
  15  -345.300153510  -875.432325230   509.319617155  -0.19E-04*   0.26E-02*   0.15E-02*    0.91E-02   0.18E+03   EDIIS        0.
  16  -345.300159473  -875.452184143   509.339470105  -0.60E-05*   0.61E-03*   0.15E-02*    0.52E-02   0.18E+03   c2DIIS       0.
  17  -345.300162161  -875.438448104   509.325731378  -0.27E-05*   0.80E-03*   0.25E-03*    0.23E-02   0.18E+03   QNRc2DIIS    0.
  18  -345.300162412  -875.449621420   509.336904443  -0.25E-06*   0.48E-03*   0.13E-03     0.11E-02   0.18E+03   QNRc2DIIS    0.
  19  -345.300162490  -875.447710247   509.334993192  -0.78E-07*   0.42E-03*   0.60E-04     0.66E-03   0.18E+03   QNRc2DIIS    0.
  20  -345.300162511  -875.446466764   509.333749689  -0.20E-07*   0.29E-05    0.69E-06     0.57E-03   0.18E+03   QNRc2DIIS    0.
  21  -345.300162511  -875.446459445   509.333742370  -0.23E-11    0.27E-05    0.26E-06     0.40E-05   0.18E+03   QNRc2DIIS    0.
 
       Convergence after 21 Macro Iterations
--
 
 *****************************************************************************************************************************
 *                                                                                                                           *
 *                                             SCF/KS-DFT Program, Final results                                             *
 *                                                                                                                           *
 *                                                                                                                           *
 *                                                                                                                           *
 *                                                       Final Results                                                       *
 *                                                                                                                           *
 *****************************************************************************************************************************
 
::    Total SCF energy                              -1345.3001625105
      One-electron energy                           -1875.4464594451
      Two-electron energy                             509.3337423700
      Nuclear repulsion energy                         20.8125545646
      Kinetic energy (interpolated)                  1399.7961469813
      Virial theorem                                    0.9610686280
      Total spin, S(S+1)                                8.0096220756
      Total spin, S                                     2.3739558235
      Max non-diagonal density matrix element           0.0000022682
      Max non-diagonal Fock matrix element              0.0000002726
 
 
      All orbitals with orbital energies smaller than  E(LUMO)+0.5 are printed
 
++    Molecular orbitals:
      -------------------
 
      Title: UHF orbitals (alpha)

      Molecular orbitals for symmetry species 1: a  
 
          Orbital            1         2         3         4         5         6         7         8         9        10    
          Energy         -264.6170  -33.4946  -28.5584  -28.5584  -28.5584  -20.8356   -5.4427   -3.9827   -3.9827   -3.9827
          Occ. No.          1.0000    1.0000    1.0000    1.0000    1.0000    1.0000    1.0000    1.0000    1.0000    1.0000
 
        1 O1     1s         0.0000   -0.0000   -0.0000   -0.0000   -0.0000    1.0000   -0.0000    0.0000    0.0000   -0.0000
        2 O1     2s        -0.0000   -0.0000   -0.0000   -0.0000   -0.0000   -0.0022   -0.0002    0.0000    0.0000   -0.0001
        3 O1     3s         0.0000   -0.0000   -0.0001   -0.0000   -0.0000    0.0004   -0.0003    0.0000    0.0000   -0.0002
        4 O1     2px        0.0000    0.0000    0.0000   -0.0000   -0.0000    0.0000    0.0000   -0.0000   -0.0000   -0.0000
        5 O1     3px       -0.0000   -0.0000    0.0000   -0.0000   -0.0000   -0.0000   -0.0000   -0.0001   -0.0000   -0.0000
        6 O1     2py       -0.0000   -0.0000    0.0000    0.0000   -0.0000   -0.0000   -0.0000    0.0000   -0.0000   -0.0000
        7 O1     3py       -0.0000    0.0000    0.0000    0.0000   -0.0000    0.0000   -0.0000    0.0000   -0.0001   -0.0000
        8 O1     2pz        0.0000    0.0000    0.0000    0.0000    0.0000   -0.0001    0.0002   -0.0000   -0.0000    0.0001
        9 O1     3pz        0.0000    0.0000    0.0001    0.0000    0.0000    0.0000    0.0005   -0.0000   -0.0000    0.0002
       10 O1     3d2-       0.0000   -0.0000   -0.0000   -0.0000   -0.0000   -0.0000    0.0000    0.0000   -0.0000    0.0000
       11 O1     3d1-      -0.0000    0.0000   -0.0000   -0.0000    0.0000    0.0000   -0.0000   -0.0000    0.0000    0.0000
       12 O1     3d0       -0.0000   -0.0000   -0.0000   -0.0000   -0.0000    0.0009   -0.0000    0.0000    0.0000   -0.0000
       13 O1     3d1+      -0.0000    0.0000   -0.0000    0.0000    0.0000   -0.0000    0.0000    0.0000    0.0000    0.0000
       14 O1     3d2+       0.0000   -0.0000    0.0000   -0.0000    0.0000   -0.0000   -0.0000   -0.0000    0.0000   -0.0000
       15 FE2    1s         1.0000   -0.0000   -0.0000    0.0000   -0.0000   -0.0000    0.0000   -0.0000    0.0000    0.0000
       16 FE2    2s         0.0000    1.0000   -0.0000   -0.0000   -0.0000    0.0000   -0.0035    0.0000    0.0000   -0.0000
       17 FE2    3s        -0.0000    0.0035    0.0000    0.0000    0.0000   -0.0000    0.9999    0.0000    0.0000   -0.0000
       18 FE2    4s         0.0000   -0.0003    0.0000    0.0000    0.0000   -0.0000   -0.0076   -0.0000   -0.0000    0.0000
       19 FE2    5s        -0.0000    0.0004    0.0000    0.0000    0.0000   -0.0000    0.0082   -0.0000   -0.0000    0.0000
       20 FE2    2px       -0.0000    0.0000   -0.0000    0.9391    0.3437   -0.0000    0.0000   -0.0035   -0.0004   -0.0000
       21 FE2    3px        0.0000   -0.0000   -0.0000    0.0032    0.0012    0.0000    0.0000    0.9923    0.1208    0.0000
       22 FE2    4px       -0.0000   -0.0000    0.0000   -0.0006   -0.0002    0.0000   -0.0000   -0.0190   -0.0023   -0.0000
       23 FE2    5px        0.0000    0.0000   -0.0000    0.0014    0.0005   -0.0000    0.0000    0.0181    0.0022    0.0000
       24 FE2    2py        0.0000    0.0000   -0.0000   -0.3437    0.9391   -0.0000    0.0000    0.0004   -0.0035   -0.0000
       25 FE2    3py       -0.0000    0.0000   -0.0000   -0.0012    0.0032   -0.0000   -0.0000   -0.1208    0.9923    0.0000
       26 FE2    4py        0.0000    0.0000    0.0000    0.0002   -0.0006    0.0000    0.0000    0.0023   -0.0190   -0.0000
       27 FE2    5py       -0.0000   -0.0000   -0.0000   -0.0005    0.0014    0.0000    0.0000   -0.0022    0.0181    0.0000
       28 FE2    2pz        0.0000    0.0000    1.0000    0.0000    0.0000    0.0000   -0.0000    0.0000    0.0000   -0.0035
       29 FE2    3pz       -0.0000    0.0000    0.0035    0.0000    0.0000   -0.0000    0.0000   -0.0000   -0.0000    0.9996
       30 FE2    4pz        0.0000    0.0000   -0.0006   -0.0000   -0.0000   -0.0000    0.0001    0.0000    0.0000   -0.0192
       31 FE2    5pz        0.0000    0.0000    0.0015    0.0000    0.0000   -0.0000    0.0000   -0.0000   -0.0000    0.0182
       32 FE2    3d2-      -0.0000   -0.0000    0.0000    0.0000    0.0000    0.0000   -0.0000    0.0000    0.0000    0.0000
       33 FE2    4d2-      -0.0000    0.0000    0.0000   -0.0000   -0.0000   -0.0000    0.0000    0.0000   -0.0000   -0.0000
       34 FE2    3d1-       0.0000   -0.0000   -0.0000   -0.0000    0.0000    0.0000   -0.0000   -0.0000    0.0000    0.0000
       35 FE2    4d1-       0.0000    0.0000   -0.0000   -0.0000    0.0000    0.0000    0.0000    0.0000   -0.0000   -0.0000
       36 FE2    3d0        0.0000    0.0000    0.0000    0.0000    0.0000   -0.0000   -0.0000   -0.0000   -0.0000    0.0000
       37 FE2    4d0        0.0000    0.0000    0.0000    0.0000    0.0000   -0.0000    0.0000    0.0000    0.0000   -0.0000
       38 FE2    3d1+       0.0000    0.0000   -0.0000    0.0000    0.0000   -0.0000   -0.0000    0.0000    0.0000    0.0000
       39 FE2    4d1+       0.0000   -0.0000   -0.0000    0.0000    0.0000    0.0000    0.0000   -0.0000   -0.0000   -0.0000
       40 FE2    3d2+       0.0000   -0.0000    0.0000   -0.0000    0.0000   -0.0000    0.0000    0.0000    0.0000    0.0000
       41 FE2    4d2+      -0.0000    0.0000   -0.0000   -0.0000   -0.0000   -0.0000   -0.0000    0.0000   -0.0000   -0.0000
       42 FE2    4f3-       0.0000   -0.0000    0.0000   -0.0000   -0.0000   -0.0000    0.0000   -0.0000   -0.0000   -0.0000
       43 FE2    4f2-      -0.0000    0.0000    0.0000   -0.0000    0.0000   -0.0000   -0.0000    0.0000   -0.0000   -0.0000
       44 FE2    4f1-       0.0000   -0.0000   -0.0000   -0.0000    0.0000    0.0000    0.0000    0.0000   -0.0000   -0.0000
       45 FE2    4f0        0.0000    0.0000    0.0000    0.0000    0.0000   -0.0000    0.0000    0.0000    0.0000   -0.0000
       46 FE2    4f1+      -0.0000    0.0000    0.0000    0.0000    0.0000   -0.0000   -0.0000   -0.0000   -0.0000   -0.0000
       47 FE2    4f2+       0.0000    0.0000    0.0000    0.0000    0.0000    0.0000   -0.0000   -0.0000   -0.0000   -0.0000
       48 FE2    4f3+       0.0000    0.0000    0.0000   -0.0000    0.0000   -0.0000    0.0000    0.0000   -0.0000    0.0000
 
          Orbital           11        12        13        14        15        16        17        18        19        20    
          Energy           -1.6634   -1.6633   -1.6633   -1.6633   -1.6633   -1.2802   -0.9505   -0.7201   -0.4823   -0.4823
          Occ. No.          1.0000    1.0000    1.0000    1.0000    1.0000    1.0000    1.0000    1.0000    0.0000    0.0000
 
        1 O1     1s         0.0000    0.0000    0.0000    0.0000   -0.0000    0.0021    0.0005    0.0001   -0.0000   -0.0000
        2 O1     2s         0.0004    0.0000    0.0000    0.0000   -0.0000    0.9992    0.0045    0.0164   -0.0000   -0.0000
        3 O1     3s         0.0005    0.0000    0.0000    0.0000   -0.0000    0.0222    0.0050   -0.0100   -0.0000   -0.0000
        4 O1     2px        0.0000   -0.0000    0.0000    0.0000    0.0001   -0.0000   -0.0000   -0.0000    0.0002   -0.0011
        5 O1     3px        0.0000   -0.0000    0.0000    0.0000    0.0004    0.0000    0.0000   -0.0000    0.0006   -0.0026
        6 O1     2py       -0.0000    0.0000   -0.0000    0.0001   -0.0000    0.0000   -0.0000    0.0000   -0.0011   -0.0002
        7 O1     3py       -0.0000    0.0000   -0.0000    0.0004   -0.0000   -0.0000   -0.0000    0.0000   -0.0026   -0.0006
        8 O1     2pz       -0.0005   -0.0000   -0.0000   -0.0000    0.0000   -0.0155   -0.0068    0.9981    0.0000    0.0000
        9 O1     3pz       -0.0009   -0.0000   -0.0000   -0.0000    0.0000   -0.0057   -0.0066    0.0504    0.0000    0.0000
       10 O1     3d2-      -0.0000    0.0000   -0.0000   -0.0000    0.0000   -0.0000    0.0000    0.0000    0.0000   -0.0000
       11 O1     3d1-      -0.0000   -0.0000    0.0000   -0.0000    0.0000    0.0000   -0.0000   -0.0000    0.0000    0.0000
       12 O1     3d0        0.0001    0.0000    0.0000    0.0000   -0.0000    0.0295    0.0002   -0.0049   -0.0000    0.0000
       13 O1     3d1+      -0.0000    0.0000   -0.0000   -0.0000   -0.0000   -0.0000    0.0000   -0.0000   -0.0000    0.0000
       14 O1     3d2+      -0.0000    0.0000    0.0000   -0.0000   -0.0000   -0.0000    0.0000    0.0000    0.0000    0.0000
       15 FE2    1s        -0.0000   -0.0000   -0.0000   -0.0000    0.0000   -0.0000   -0.0000    0.0000    0.0000    0.0000
       16 FE2    2s        -0.0000   -0.0000    0.0000    0.0000    0.0000   -0.0000    0.0004    0.0001    0.0000    0.0000
       17 FE2    3s         0.0000    0.0000   -0.0000    0.0000   -0.0000   -0.0000    0.0101    0.0006    0.0000    0.0000
       18 FE2    4s        -0.0001   -0.0000   -0.0000    0.0000    0.0000    0.0001    0.9282    0.0076    0.0000    0.0000
       19 FE2    5s        -0.0002   -0.0000   -0.0000   -0.0000    0.0000   -0.0005   -0.3715   -0.0040    0.0000   -0.0000
       20 FE2    2px       -0.0000    0.0000   -0.0000   -0.0000   -0.0000    0.0000    0.0000    0.0000   -0.0001    0.0005
       21 FE2    3px       -0.0000    0.0000   -0.0000   -0.0000   -0.0000   -0.0000   -0.0000    0.0000   -0.0038    0.0182
       22 FE2    4px       -0.0000    0.0000   -0.0000   -0.0000   -0.0001    0.0000   -0.0000    0.0000   -0.2049    0.9781
       23 FE2    5px        0.0000   -0.0000   -0.0000   -0.0000   -0.0000    0.0000    0.0000   -0.0000   -0.0066    0.0317
       24 FE2    2py       -0.0000   -0.0000   -0.0000   -0.0000    0.0000    0.0000   -0.0000   -0.0000    0.0005    0.0001
       25 FE2    3py        0.0000   -0.0000    0.0000   -0.0000    0.0000   -0.0000    0.0000    0.0000    0.0182    0.0038
       26 FE2    4py        0.0000   -0.0000   -0.0000   -0.0001    0.0000   -0.0000    0.0000    0.0000    0.9781    0.2049
       27 FE2    5py       -0.0000    0.0000    0.0000   -0.0000    0.0000   -0.0000    0.0000   -0.0000    0.0317    0.0066
       28 FE2    2pz       -0.0000   -0.0000   -0.0000    0.0000   -0.0000   -0.0000   -0.0000    0.0000    0.0000    0.0000
       29 FE2    3pz       -0.0000   -0.0000   -0.0000    0.0000    0.0000   -0.0000   -0.0001    0.0002    0.0000    0.0000
       30 FE2    4pz       -0.0003   -0.0000   -0.0000    0.0000    0.0000   -0.0000   -0.0044   -0.0112    0.0000    0.0000
       31 FE2    5pz       -0.0001   -0.0000    0.0000   -0.0000    0.0000   -0.0001   -0.0003   -0.0005    0.0000    0.0000
       32 FE2    3d2-      -0.0000    0.9900   -0.0367   -0.0000    0.0000    0.0000   -0.0000   -0.0000    0.0000   -0.0000
       33 FE2    4d2-       0.0000   -0.1363    0.0051    0.0000   -0.0000   -0.0000   -0.0000   -0.0000   -0.0000    0.0000
       34 FE2    3d1-      -0.0000    0.0000   -0.0000    0.9851   -0.1044   -0.0000   -0.0000   -0.0000    0.0000    0.0000
       35 FE2    4d1-       0.0000   -0.0000    0.0000   -0.1356    0.0144   -0.0000    0.0000    0.0000   -0.0005   -0.0001
       36 FE2    3d0        0.9906    0.0000    0.0000    0.0000   -0.0000   -0.0001   -0.0001    0.0003    0.0000    0.0000
       37 FE2    4d0       -0.1365   -0.0000   -0.0000   -0.0000    0.0000    0.0001   -0.0006   -0.0015   -0.0000   -0.0000
       38 FE2    3d1+       0.0000   -0.0000    0.0000    0.1044    0.9851    0.0000   -0.0000    0.0000   -0.0000    0.0000
       39 FE2    4d1+      -0.0000    0.0000   -0.0000   -0.0144   -0.1356    0.0000   -0.0000   -0.0000    0.0001   -0.0005
       40 FE2    3d2+      -0.0000    0.0367    0.9900    0.0000   -0.0000    0.0000    0.0000    0.0000    0.0000   -0.0000
       41 FE2    4d2+       0.0000   -0.0051   -0.1363   -0.0000    0.0000    0.0000    0.0000    0.0000   -0.0000   -0.0000
       42 FE2    4f3-      -0.0000    0.0000   -0.0000   -0.0000   -0.0000   -0.0000    0.0000    0.0000    0.0000    0.0000
       43 FE2    4f2-      -0.0000    0.0000   -0.0000   -0.0000    0.0000    0.0000    0.0000    0.0000   -0.0000    0.0000
       44 FE2    4f1-      -0.0000    0.0000   -0.0000    0.0000   -0.0000   -0.0000    0.0000    0.0000   -0.0000   -0.0000
       45 FE2    4f0        0.0000    0.0000    0.0000   -0.0000   -0.0000    0.0000   -0.0000   -0.0000   -0.0000   -0.0000
       46 FE2    4f1+       0.0000   -0.0000    0.0000    0.0000    0.0000    0.0000   -0.0000   -0.0000    0.0000   -0.0000
       47 FE2    4f2+      -0.0000    0.0000    0.0000    0.0000   -0.0000   -0.0000   -0.0000    0.0000   -0.0000   -0.0000
       48 FE2    4f3+       0.0000    0.0000    0.0000   -0.0000   -0.0000    0.0000   -0.0000    0.0000   -0.0000    0.0000
 
          Orbital           21        22        23        24    
          Energy           -0.4818   -0.2482   -0.1109   -0.1109
          Occ. No.          0.0000    0.0000    0.0000    0.0000
 
        1 O1     1s        -0.0010   -0.0030    0.0000   -0.0000
        2 O1     2s        -0.0151   -0.0401   -0.0000    0.0000
        3 O1     3s        -0.0061   -0.0084    0.0000   -0.0000
        4 O1     2px       -0.0000   -0.0000    0.0028    0.9449
        5 O1     3px       -0.0000   -0.0000    0.0010    0.3267
        6 O1     2py        0.0000    0.0000    0.9449   -0.0028
        7 O1     3py        0.0000    0.0000    0.3267   -0.0010
        8 O1     2pz        0.0370    0.0493   -0.0000    0.0000
        9 O1     3pz        0.0118    0.0101   -0.0000    0.0000
       10 O1     3d2-       0.0000    0.0000   -0.0000   -0.0000
       11 O1     3d1-      -0.0000   -0.0000   -0.0048    0.0000
       12 O1     3d0       -0.0002    0.0000    0.0000   -0.0000
       13 O1     3d1+       0.0000    0.0000   -0.0000   -0.0048
       14 O1     3d2+      -0.0000   -0.0000    0.0000    0.0000
       15 FE2    1s         0.0000    0.0000   -0.0000   -0.0000
       16 FE2    2s         0.0000   -0.0002   -0.0000    0.0000
       17 FE2    3s         0.0001   -0.0047   -0.0000    0.0000
       18 FE2    4s         0.0040    0.3719   -0.0000    0.0000
       19 FE2    5s        -0.0008    0.9321   -0.0000    0.0000
       20 FE2    2px        0.0000    0.0000   -0.0000   -0.0000
       21 FE2    3px        0.0000   -0.0000   -0.0000   -0.0004
       22 FE2    4px        0.0000    0.0000   -0.0000   -0.0093
       23 FE2    5px        0.0000    0.0000    0.0000    0.0018
       24 FE2    2py       -0.0000   -0.0000   -0.0000    0.0000
       25 FE2    3py       -0.0000   -0.0000   -0.0004    0.0000
       26 FE2    4py       -0.0000   -0.0000   -0.0093    0.0000
       27 FE2    5py       -0.0000    0.0000    0.0018   -0.0000
       28 FE2    2pz        0.0005    0.0000   -0.0000   -0.0000
       29 FE2    3pz        0.0187    0.0001   -0.0000    0.0000
       30 FE2    4pz        1.0008    0.0039   -0.0000    0.0000
       31 FE2    5pz        0.0324   -0.0004    0.0000   -0.0000
       32 FE2    3d2-       0.0000   -0.0000   -0.0000    0.0000
       33 FE2    4d2-       0.0000   -0.0000   -0.0000    0.0000
       34 FE2    3d1-      -0.0000    0.0000    0.0013   -0.0000
       35 FE2    4d1-       0.0000    0.0000    0.0111   -0.0000
       36 FE2    3d0        0.0001   -0.0001    0.0000   -0.0000
       37 FE2    4d0       -0.0008   -0.0013    0.0000   -0.0000
       38 FE2    3d1+      -0.0000   -0.0000    0.0000    0.0013
       39 FE2    4d1+      -0.0000   -0.0000    0.0000    0.0111
       40 FE2    3d2+       0.0000   -0.0000   -0.0000    0.0000
       41 FE2    4d2+       0.0000   -0.0000   -0.0000    0.0000
       42 FE2    4f3-      -0.0000   -0.0000    0.0000   -0.0000
       43 FE2    4f2-       0.0000   -0.0000    0.0000    0.0000
       44 FE2    4f1-       0.0000    0.0000    0.0001   -0.0000
       45 FE2    4f0       -0.0000   -0.0000    0.0000    0.0000
       46 FE2    4f1+      -0.0000   -0.0000    0.0000    0.0001
       47 FE2    4f2+      -0.0000   -0.0000    0.0000    0.0000
       48 FE2    4f3+      -0.0000    0.0000    0.0000   -0.0000
--
 
 
  Input file to MOLDEN was generated!
 
 
++    Static properties:
      ------------------
 
 
      LoProp Charges per center
 

                   O1       FE2   
      Nuclear      8.0000  26.0000
      Electronic  -8.0000 -24.0000
 
      Total       -0.0000   2.0000
--
 
 
      All orbitals with orbital energies smaller than  E(LUMO)+0.5 are printed
 
++    Molecular orbitals:
      -------------------
 
      Title: UHF orbitals (beta)

      Molecular orbitals for symmetry species 1: a  
 
          Orbital            1         2         3         4         5         6         7         8         9        10    
          Energy         -264.6091  -33.3179  -28.3859  -28.3859  -28.3859  -20.9207   -4.9686   -3.4202   -3.4202   -3.4202
          Occ. No.          1.0000    1.0000    1.0000    1.0000    1.0000    1.0000    1.0000    1.0000    1.0000    1.0000
 
        1 O1     1s         0.0000    0.0000    0.0000    0.0000    0.0000    1.0000   -0.0000   -0.0000   -0.0000    0.0000
        2 O1     2s        -0.0000    0.0000    0.0000    0.0000    0.0000    0.0019   -0.0001   -0.0000   -0.0000    0.0001
        3 O1     3s         0.0000    0.0000    0.0000    0.0000    0.0000   -0.0017   -0.0001   -0.0000   -0.0000    0.0001
        4 O1     2px        0.0000    0.0000   -0.0000    0.0000    0.0000    0.0000    0.0000    0.0000    0.0000    0.0000
        5 O1     3px       -0.0000   -0.0000   -0.0000    0.0000    0.0000   -0.0000   -0.0000    0.0001    0.0000    0.0000
        6 O1     2py       -0.0000   -0.0000   -0.0000   -0.0000    0.0000   -0.0000   -0.0000   -0.0000    0.0000    0.0000
        7 O1     3py       -0.0000    0.0000   -0.0000   -0.0000    0.0000    0.0000   -0.0000   -0.0000    0.0001    0.0000
        8 O1     2pz        0.0000   -0.0000   -0.0000   -0.0000   -0.0000   -0.0001    0.0001    0.0000    0.0000   -0.0001
        9 O1     3pz        0.0000   -0.0000   -0.0001   -0.0000   -0.0000    0.0001    0.0002    0.0000    0.0000   -0.0003
       10 O1     3d2-       0.0000   -0.0000   -0.0000   -0.0000   -0.0000   -0.0000    0.0000    0.0000   -0.0000    0.0000
       11 O1     3d1-      -0.0000    0.0000    0.0000    0.0000   -0.0000   -0.0000   -0.0000    0.0000   -0.0000   -0.0000
       12 O1     3d0       -0.0000    0.0000    0.0000    0.0000    0.0000   -0.0004   -0.0000   -0.0000   -0.0000    0.0000
       13 O1     3d1+      -0.0000    0.0000    0.0000   -0.0000   -0.0000    0.0000    0.0000   -0.0000   -0.0000   -0.0000
       14 O1     3d2+       0.0000   -0.0000    0.0000   -0.0000    0.0000    0.0000   -0.0000   -0.0000    0.0000   -0.0000
       15 FE2    1s         1.0000   -0.0000   -0.0000   -0.0000   -0.0000    0.0000    0.0000   -0.0000    0.0000   -0.0000
       16 FE2    2s         0.0000    1.0000   -0.0000   -0.0000   -0.0000    0.0000    0.0011    0.0000    0.0000   -0.0000
       17 FE2    3s        -0.0000   -0.0011    0.0000    0.0000    0.0000    0.0000    1.0000    0.0000    0.0000   -0.0001
       18 FE2    4s         0.0000    0.0002   -0.0000   -0.0000   -0.0000    0.0000   -0.0028    0.0000    0.0000   -0.0000
       19 FE2    5s        -0.0000   -0.0002   -0.0000   -0.0000   -0.0000    0.0000    0.0033    0.0000    0.0000   -0.0001
       20 FE2    2px       -0.0000    0.0000   -0.0000    0.8410    0.5411   -0.0000    0.0000    0.0032    0.0003    0.0000
       21 FE2    3px        0.0000   -0.0000    0.0000   -0.0027   -0.0017   -0.0000    0.0000    0.9963    0.0851    0.0000
       22 FE2    4px       -0.0000   -0.0000   -0.0000    0.0004    0.0002    0.0000   -0.0000   -0.0114   -0.0010   -0.0000
       23 FE2    5px        0.0000    0.0000    0.0000   -0.0009   -0.0006   -0.0000    0.0000    0.0055    0.0005    0.0000
       24 FE2    2py        0.0000   -0.0000   -0.0000   -0.5411    0.8410   -0.0000    0.0000   -0.0003    0.0032    0.0000
       25 FE2    3py       -0.0000    0.0000    0.0000    0.0017   -0.0027   -0.0000   -0.0000   -0.0851    0.9963    0.0000
       26 FE2    4py        0.0000    0.0000   -0.0000   -0.0002    0.0004   -0.0000    0.0000    0.0010   -0.0114   -0.0000
       27 FE2    5py       -0.0000   -0.0000    0.0000    0.0006   -0.0009   -0.0000   -0.0000   -0.0005    0.0055    0.0000
       28 FE2    2pz        0.0000    0.0000    1.0000    0.0000    0.0000    0.0000   -0.0000   -0.0000   -0.0000    0.0032
       29 FE2    3pz       -0.0000    0.0000   -0.0032   -0.0000   -0.0000    0.0000    0.0001   -0.0000   -0.0000    0.9999
       30 FE2    4pz        0.0000   -0.0000    0.0004    0.0000    0.0000    0.0000    0.0000    0.0000    0.0000   -0.0115
       31 FE2    5pz        0.0000   -0.0000   -0.0011   -0.0000   -0.0000    0.0000    0.0000   -0.0000   -0.0000    0.0055
       32 FE2    3d2-      -0.0000   -0.0000    0.0000   -0.0000    0.0000    0.0000   -0.0000    0.0000    0.0000    0.0000
       33 FE2    4d2-      -0.0000    0.0000   -0.0000    0.0000   -0.0000   -0.0000    0.0000   -0.0000   -0.0000   -0.0000
       34 FE2    3d1-       0.0000   -0.0000   -0.0000   -0.0000    0.0000   -0.0000   -0.0000   -0.0000    0.0000    0.0000
       35 FE2    4d1-       0.0000    0.0000    0.0000    0.0000   -0.0000   -0.0000    0.0000    0.0000   -0.0000   -0.0000
       36 FE2    3d0        0.0000   -0.0000   -0.0000   -0.0000   -0.0000    0.0000   -0.0000   -0.0000   -0.0000    0.0000
       37 FE2    4d0        0.0000   -0.0000   -0.0000   -0.0000   -0.0000    0.0000    0.0000    0.0000    0.0000   -0.0000
       38 FE2    3d1+       0.0000    0.0000   -0.0000    0.0000    0.0000   -0.0000   -0.0000    0.0000    0.0000    0.0000
       39 FE2    4d1+       0.0000   -0.0000    0.0000   -0.0000   -0.0000    0.0000    0.0000   -0.0000   -0.0000   -0.0000
       40 FE2    3d2+       0.0000   -0.0000    0.0000   -0.0000    0.0000   -0.0000    0.0000    0.0000    0.0000    0.0000
       41 FE2    4d2+      -0.0000    0.0000   -0.0000   -0.0000   -0.0000   -0.0000   -0.0000    0.0000   -0.0000   -0.0000
       42 FE2    4f3-       0.0000   -0.0000    0.0000    0.0000   -0.0000   -0.0000    0.0000   -0.0000   -0.0000   -0.0000
       43 FE2    4f2-      -0.0000    0.0000    0.0000   -0.0000    0.0000   -0.0000   -0.0000    0.0000   -0.0000   -0.0000
       44 FE2    4f1-       0.0000   -0.0000    0.0000    0.0000   -0.0000    0.0000   -0.0000    0.0000   -0.0000   -0.0000
       45 FE2    4f0        0.0000   -0.0000   -0.0000   -0.0000   -0.0000    0.0000   -0.0000    0.0000    0.0000   -0.0000
       46 FE2    4f1+      -0.0000    0.0000    0.0000   -0.0000   -0.0000   -0.0000   -0.0000   -0.0000   -0.0000   -0.0000
       47 FE2    4f2+       0.0000    0.0000    0.0000    0.0000    0.0000    0.0000   -0.0000   -0.0000   -0.0000    0.0000
       48 FE2    4f3+       0.0000    0.0000    0.0000   -0.0000    0.0000   -0.0000    0.0000    0.0000   -0.0000    0.0000
 
          Orbital           11        12        13        14        15        16        17        18        19        20    
          Energy           -1.6228   -0.9131   -0.9131   -0.8148   -0.5740   -0.5720   -0.5720   -0.5720   -0.5720   -0.5719
          Occ. No.          1.0000    1.0000    1.0000    1.0000    0.0000    0.0000    0.0000    0.0000    0.0000    0.0000
 
        1 O1     1s        -0.0020    0.0000   -0.0000    0.0000    0.0001    0.0000   -0.0000   -0.0000   -0.0000   -0.0001
        2 O1     2s         0.9993   -0.0000    0.0000    0.0122    0.0004    0.0000   -0.0000   -0.0000   -0.0000   -0.0015
        3 O1     3s        -0.0284    0.0000   -0.0000   -0.0094    0.0012    0.0000   -0.0000   -0.0000   -0.0000   -0.0006
        4 O1     2px       -0.0000    0.0447    0.9979   -0.0000    0.0000   -0.0000   -0.0000   -0.0002   -0.0007   -0.0000
        5 O1     3px        0.0000   -0.0021   -0.0474    0.0000   -0.0000   -0.0000   -0.0000   -0.0002   -0.0006    0.0000
        6 O1     2py       -0.0000    0.9979   -0.0447    0.0000    0.0000    0.0000    0.0000   -0.0007    0.0002    0.0000
        7 O1     3py        0.0000   -0.0474    0.0021   -0.0000    0.0000    0.0000    0.0000   -0.0006    0.0002    0.0000
        8 O1     2pz       -0.0127   -0.0000    0.0000    0.9998    0.0075   -0.0000    0.0000    0.0000    0.0000    0.0059
        9 O1     3pz       -0.0028    0.0000   -0.0000   -0.0090   -0.0017   -0.0000    0.0000    0.0000    0.0000    0.0020
       10 O1     3d2-      -0.0000    0.0000   -0.0000    0.0000    0.0000    0.0000   -0.0000    0.0000    0.0000   -0.0000
       11 O1     3d1-      -0.0000   -0.0045    0.0002   -0.0000   -0.0000   -0.0000    0.0000    0.0000   -0.0000   -0.0000
       12 O1     3d0       -0.0211    0.0000   -0.0000   -0.0059    0.0001    0.0000    0.0000   -0.0000   -0.0000   -0.0000
       13 O1     3d1+       0.0000   -0.0002   -0.0045    0.0000    0.0000   -0.0000   -0.0000    0.0000    0.0000   -0.0000
       14 O1     3d2+       0.0000    0.0000    0.0000    0.0000    0.0000    0.0000    0.0000   -0.0000   -0.0000   -0.0000
       15 FE2    1s        -0.0000   -0.0000   -0.0000    0.0000   -0.0000    0.0000   -0.0000    0.0000   -0.0000    0.0000
       16 FE2    2s        -0.0000   -0.0000   -0.0000    0.0001   -0.0002    0.0000   -0.0000    0.0000   -0.0000   -0.0000
       17 FE2    3s        -0.0000   -0.0000   -0.0000    0.0003    0.0035   -0.0000    0.0000    0.0000    0.0000    0.0002
       18 FE2    4s        -0.0003    0.0000   -0.0000   -0.0024    0.9671   -0.0000    0.0000    0.0000    0.0000    0.0568
       19 FE2    5s        -0.0009   -0.0000    0.0000    0.0014   -0.2473    0.0000   -0.0000   -0.0000   -0.0000   -0.0143
       20 FE2    2px        0.0000   -0.0000   -0.0000    0.0000    0.0000   -0.0000    0.0000   -0.0000   -0.0000   -0.0000
       21 FE2    3px       -0.0000   -0.0000   -0.0000    0.0000   -0.0000   -0.0000   -0.0000   -0.0000   -0.0000    0.0000
       22 FE2    4px        0.0000   -0.0000   -0.0003    0.0000   -0.0000    0.0000    0.0000    0.0000    0.0001   -0.0000
       23 FE2    5px        0.0000   -0.0000   -0.0001   -0.0000    0.0000    0.0000   -0.0000   -0.0000   -0.0000    0.0000
       24 FE2    2py        0.0000   -0.0000    0.0000   -0.0000   -0.0000   -0.0000   -0.0000   -0.0000    0.0000   -0.0000
       25 FE2    3py       -0.0000   -0.0000    0.0000    0.0000    0.0000   -0.0000    0.0000   -0.0000    0.0000    0.0000
       26 FE2    4py       -0.0000   -0.0003    0.0000   -0.0000    0.0000    0.0000   -0.0000    0.0001   -0.0000    0.0000
       27 FE2    5py       -0.0000   -0.0001    0.0000   -0.0000    0.0000    0.0000   -0.0000   -0.0000    0.0000    0.0000
       28 FE2    2pz       -0.0000   -0.0000   -0.0000    0.0000    0.0000   -0.0000   -0.0000   -0.0000   -0.0000   -0.0000
       29 FE2    3pz       -0.0000   -0.0000    0.0000    0.0002   -0.0000    0.0000   -0.0000   -0.0000   -0.0000   -0.0000
       30 FE2    4pz       -0.0005    0.0000    0.0000   -0.0012   -0.0011    0.0000   -0.0000    0.0000   -0.0000   -0.0003
       31 FE2    5pz       -0.0003   -0.0000    0.0000   -0.0000   -0.0002    0.0000    0.0000    0.0000   -0.0000   -0.0000
       32 FE2    3d2-      -0.0000    0.0000   -0.0000    0.0000    0.0000    0.9912   -0.0399   -0.0000   -0.0000    0.0000
       33 FE2    4d2-      -0.0000    0.0000    0.0000   -0.0000    0.0000    0.1265   -0.0051   -0.0000   -0.0000    0.0000
       34 FE2    3d1-      -0.0000   -0.0000    0.0000    0.0000    0.0000   -0.0000   -0.0000    0.9481   -0.2918   -0.0000
       35 FE2    4d1-      -0.0000   -0.0001    0.0000   -0.0000    0.0000   -0.0000   -0.0000    0.1209   -0.0372   -0.0000
       36 FE2    3d0       -0.0000    0.0000    0.0000   -0.0017   -0.0580   -0.0000    0.0000    0.0000    0.0000    0.9903
       37 FE2    4d0       -0.0002    0.0000    0.0000   -0.0005   -0.0077   -0.0000    0.0000    0.0000    0.0000    0.1262
       38 FE2    3d1+      -0.0000   -0.0000   -0.0000   -0.0000    0.0000    0.0000    0.0000    0.2918    0.9481   -0.0000
       39 FE2    4d1+       0.0000   -0.0000   -0.0001   -0.0000    0.0000    0.0000    0.0000    0.0372    0.1209   -0.0000
       40 FE2    3d2+      -0.0000    0.0000   -0.0000   -0.0000   -0.0000    0.0399    0.9912    0.0000   -0.0000   -0.0000
       41 FE2    4d2+       0.0000   -0.0000    0.0000   -0.0000   -0.0000    0.0051    0.1265    0.0000   -0.0000   -0.0000
       42 FE2    4f3-      -0.0000    0.0000   -0.0000    0.0000    0.0000    0.0000   -0.0000   -0.0000   -0.0000   -0.0000
       43 FE2    4f2-       0.0000    0.0000    0.0000    0.0000    0.0000    0.0000   -0.0000   -0.0000   -0.0000    0.0000
       44 FE2    4f1-      -0.0000    0.0000   -0.0000    0.0000    0.0000   -0.0000   -0.0000    0.0000   -0.0000   -0.0000
       45 FE2    4f0       -0.0000    0.0000    0.0000   -0.0000   -0.0000   -0.0000    0.0000    0.0000   -0.0000    0.0000
       46 FE2    4f1+       0.0000    0.0000    0.0000   -0.0000   -0.0000    0.0000    0.0000    0.0000    0.0000   -0.0000
       47 FE2    4f2+      -0.0000    0.0000    0.0000    0.0000   -0.0000    0.0000    0.0000    0.0000   -0.0000    0.0000
       48 FE2    4f3+       0.0000    0.0000   -0.0000    0.0000   -0.0000    0.0000    0.0000   -0.0000   -0.0000    0.0000
 
          Orbital           21        22        23        24    
          Energy           -0.3922   -0.3922   -0.3915   -0.2265
          Occ. No.          0.0000    0.0000    0.0000    0.0000
 
        1 O1     1s        -0.0000    0.0000   -0.0011   -0.0030
        2 O1     2s        -0.0000    0.0000   -0.0134   -0.0354
        3 O1     3s        -0.0000    0.0000   -0.0033   -0.0043
        4 O1     2px       -0.0001   -0.0029   -0.0000   -0.0000
        5 O1     3px       -0.0000   -0.0010   -0.0000   -0.0000
        6 O1     2py       -0.0029    0.0001    0.0000    0.0000
        7 O1     3py       -0.0010    0.0000    0.0000    0.0000
        8 O1     2pz        0.0000   -0.0000    0.0224    0.0387
        9 O1     3pz        0.0000   -0.0000    0.0028    0.0039
       10 O1     3d2-      -0.0000   -0.0000    0.0000    0.0000
       11 O1     3d1-      -0.0001    0.0000    0.0000    0.0000
       12 O1     3d0        0.0000    0.0000    0.0004    0.0009
       13 O1     3d1+      -0.0000   -0.0001    0.0000   -0.0000
       14 O1     3d2+      -0.0000    0.0000   -0.0000   -0.0000
       15 FE2    1s         0.0000    0.0000    0.0000    0.0000
       16 FE2    2s         0.0000    0.0000    0.0000    0.0002
       17 FE2    3s         0.0000    0.0000    0.0000   -0.0024
       18 FE2    4s        -0.0000    0.0000    0.0005    0.2484
       19 FE2    5s         0.0000   -0.0000   -0.0027    0.9711
       20 FE2    2px       -0.0000   -0.0003   -0.0000   -0.0000
       21 FE2    3px        0.0002    0.0110    0.0000   -0.0000
       22 FE2    4px        0.0184    0.9972    0.0000    0.0000
       23 FE2    5px        0.0013    0.0721    0.0000    0.0000
       24 FE2    2py       -0.0003    0.0000    0.0000   -0.0000
       25 FE2    3py        0.0110   -0.0002   -0.0000   -0.0000
       26 FE2    4py        0.9972   -0.0184   -0.0000   -0.0000
       27 FE2    5py        0.0721   -0.0013   -0.0000    0.0000
       28 FE2    2pz       -0.0000    0.0000   -0.0003   -0.0000
       29 FE2    3pz        0.0000   -0.0000    0.0110    0.0001
       30 FE2    4pz        0.0000   -0.0000    0.9981    0.0052
       31 FE2    5pz        0.0000   -0.0000    0.0720   -0.0000
       32 FE2    3d2-      -0.0000   -0.0000    0.0000   -0.0000
       33 FE2    4d2-       0.0000    0.0000    0.0000   -0.0000
       34 FE2    3d1-      -0.0000    0.0000   -0.0000   -0.0000
       35 FE2    4d1-      -0.0000    0.0000    0.0000    0.0000
       36 FE2    3d0        0.0000    0.0000    0.0007    0.0005
       37 FE2    4d0       -0.0000   -0.0000   -0.0003   -0.0007
       38 FE2    3d1+      -0.0000   -0.0000   -0.0000    0.0000
       39 FE2    4d1+      -0.0000   -0.0000   -0.0000   -0.0000
       40 FE2    3d2+       0.0000   -0.0000   -0.0000   -0.0000
       41 FE2    4d2+      -0.0000   -0.0000    0.0000   -0.0000
       42 FE2    4f3-       0.0000    0.0000   -0.0000   -0.0000
       43 FE2    4f2-      -0.0000    0.0000    0.0000   -0.0000
       44 FE2    4f1-      -0.0000    0.0000    0.0000    0.0000
       45 FE2    4f0       -0.0000    0.0000   -0.0000   -0.0000
       46 FE2    4f1+      -0.0000   -0.0000   -0.0000   -0.0000
       47 FE2    4f2+      -0.0000   -0.0000   -0.0000    0.0000
       48 FE2    4f3+      -0.0000   -0.0000   -0.0000    0.0000
--
 
 
++    Molecular charges:
      ------------------
 
      Mulliken charges per centre and basis function type
      ---------------------------------------------------
 
                            O1                      FE2   
                     alpha        beta       alpha        beta
      1s           1.0000      1.0000      1.0000      1.0000
      2s           0.9986      0.9988      1.0000      1.0000
      2px          0.0000      0.9977      1.0000      1.0000
      2pz          0.9967      0.9998      1.0000      1.0000
      2py          0.0000      0.9977      1.0000      1.0000
      3s           0.0006      0.0009      1.0000      1.0000
      3px          0.0000      0.0023      0.9993      0.9998
      3pz          0.0028      0.0001      0.9993      0.9998
      3py          0.0000      0.0023      0.9993      0.9998
      4s           0.0000      0.0000      0.8622      0.0000
      3d2+        -0.0000      0.0000      0.9814      0.0000
      3d1+        -0.0000      0.0000      0.9814     -0.0000
      3d0          0.0009      0.0005      0.9814      0.0000
      3d1-        -0.0000      0.0000      0.9814     -0.0000
      3d2-        -0.0000      0.0000      0.9814      0.0000
      4px          0.0000      0.0000      0.0004      0.0001
      4pz          0.0000      0.0000      0.0008      0.0002
      4py          0.0000      0.0000      0.0004      0.0001
      5s           0.0000      0.0000      0.1377     -0.0001
      4d2+         0.0000      0.0000      0.0186      0.0000
      4d1+         0.0000      0.0000      0.0186     -0.0000
      4d0          0.0000      0.0000      0.0186      0.0000
      4d1-         0.0000      0.0000      0.0186     -0.0000
      4d2-         0.0000      0.0000      0.0186      0.0000
      5px          0.0000      0.0000      0.0003      0.0000
      5pz          0.0000      0.0000      0.0003      0.0000
      5py          0.0000      0.0000      0.0003      0.0000
      4f3+         0.0000      0.0000      0.0000      0.0000
      4f2+         0.0000      0.0000      0.0000      0.0000
      4f1+         0.0000      0.0000      0.0000      0.0000
      4f0          0.0000      0.0000      0.0000      0.0000
      4f1-         0.0000      0.0000      0.0000      0.0000
      4f2-         0.0000      0.0000      0.0000      0.0000
      4f3-         0.0000      0.0000      0.0000      0.0000
      Total        2.9997      5.0000     15.0003      9.0000
      Total              7.9997                 24.0003
 
      Charge            0.0003                  1.9997
 
      Total electronic charge=   32.000000
 
      Total            charge=    2.000000
--
 
 
  Input file to MOLDEN was generated!
 
 
++    Static properties:
      ------------------
 
 
      LoProp Charges per center
 

                   O1       FE2   
      Nuclear      8.0000  26.0000
      Electronic  -8.0000 -24.0000
 
      Total       -0.0000   2.0000
--
 
 
++    Natural Bond Order analysis
      ---------------------------
      Based on LoProp computed density
      -------------------------------------------------------------------------------------
      Atom A       Atom B       Bond Order
      -------------------------------------------------------------------------------------
      NBO located     20.000 core electrons.
      NBO located      3.995 lone pair electrons.
      NBO located      1.000 non-bonded electrons on atom O1        
      NBO located      1.000 non-bonded electrons on atom O1        
      NBO located      1.000 non-bonded electrons on atom FE2       
      NBO located      1.000 non-bonded electrons on atom FE2       
      NBO located      1.000 non-bonded electrons on atom FE2       
      NBO located      1.000 non-bonded electrons on atom FE2       
      NBO located      1.000 non-bonded electrons on atom FE2       
      NBO located      1.000 non-bonded electrons on atom FE2       
      The remaining    0.005 electrons are to be considered as diffuse
--
 
 
++    Molecular orbitals:
      -------------------
 
      Title: Natural orbitals

      Molecular orbitals for symmetry species 1: a  
 
          Orbital            1         2         3         4         5         6         7         8         9        10    
          Energy         -264.6131  -33.0544  -27.6583  -27.7121  -27.7113  -20.8779   -5.5859   -4.4633   -4.4612   -4.4619
          Occ. No.          2.0000    2.0000    2.0000    2.0000    2.0000    2.0000    2.0000    1.9999    1.9999    1.9999
 
        1 O1     1s         0.0000    0.0046    0.0865    0.0000    0.0000    0.9948    0.0425   -0.0017   -0.0000   -0.0000
        2 O1     2s        -0.0000   -0.0001   -0.0028   -0.0000   -0.0000   -0.0335   -0.0007   -0.0017    0.0000    0.0000
        3 O1     3s         0.0000    0.0000   -0.0001   -0.0000   -0.0000   -0.0005    0.0002    0.0002    0.0000    0.0000
        4 O1     2px        0.0000    0.0000   -0.0000   -0.0000   -0.0000    0.0000    0.0000    0.0000   -0.0000    0.0000
        5 O1     3px       -0.0000    0.0000   -0.0000   -0.0000   -0.0000    0.0000    0.0000    0.0000   -0.0000    0.0000
        6 O1     2py       -0.0000   -0.0000    0.0000    0.0000   -0.0000   -0.0000   -0.0000   -0.0000    0.0000    0.0000
        7 O1     3py       -0.0000    0.0000    0.0000    0.0000   -0.0000    0.0000   -0.0000   -0.0000    0.0000    0.0000
        8 O1     2pz        0.0000   -0.0000    0.0009   -0.0000   -0.0000   -0.0008   -0.0035   -0.0201   -0.0000   -0.0000
        9 O1     3pz        0.0000   -0.0000    0.0001    0.0000    0.0000    0.0002   -0.0004   -0.0005   -0.0000   -0.0000
       10 O1     3d2-       0.0000   -0.0000   -0.0000   -0.0000   -0.0000    0.0000   -0.0000    0.0000    0.0000   -0.0000
       11 O1     3d1-      -0.0000    0.0000    0.0000   -0.0000    0.0000    0.0000    0.0000    0.0000   -0.0000   -0.0000
       12 O1     3d0       -0.0000    0.0000    0.0000    0.0000    0.0000    0.0002    0.0001    0.0001   -0.0000    0.0000
       13 O1     3d1+      -0.0000    0.0000    0.0000    0.0000    0.0000   -0.0000   -0.0000   -0.0000    0.0000   -0.0000
       14 O1     3d2+       0.0000   -0.0000    0.0000    0.0000   -0.0000    0.0000    0.0000   -0.0000   -0.0000   -0.0000
       15 FE2    1s         1.0000   -0.0000    0.0000   -0.0000   -0.0000    0.0000   -0.0000    0.0000    0.0000   -0.0000
       16 FE2    2s         0.0000    0.9939    0.0014    0.0000    0.0000    0.0000   -0.1106    0.0003    0.0000    0.0000
       17 FE2    3s        -0.0000   -0.1105    0.0025    0.0000    0.0000    0.0427   -0.9929    0.0021    0.0000    0.0000
       18 FE2    4s         0.0000    0.0005   -0.0000   -0.0000   -0.0000   -0.0001    0.0022    0.0000    0.0000   -0.0000
       19 FE2    5s        -0.0000   -0.0006    0.0000    0.0000    0.0000    0.0002   -0.0045   -0.0000    0.0000    0.0000
       20 FE2    2px        0.0000   -0.0000   -0.0000    0.9247    0.3380   -0.0000    0.0000   -0.0000    0.1716   -0.0348
       21 FE2    3px       -0.0000    0.0000    0.0000   -0.1644   -0.0601    0.0000    0.0000   -0.0000    0.9648   -0.1954
       22 FE2    4px        0.0000   -0.0000   -0.0000    0.0025    0.0009   -0.0000    0.0000    0.0000   -0.0148    0.0030
       23 FE2    5px       -0.0000    0.0000    0.0000   -0.0018   -0.0007    0.0000   -0.0000   -0.0000    0.0115   -0.0023
       24 FE2    2py        0.0000   -0.0000   -0.0000   -0.3380    0.9247   -0.0000    0.0000    0.0000   -0.0347   -0.1716
       25 FE2    3py       -0.0000    0.0000    0.0000    0.0601   -0.1645    0.0000   -0.0000    0.0000   -0.1954   -0.9648
       26 FE2    4py        0.0000   -0.0000   -0.0000   -0.0009    0.0025   -0.0000    0.0000   -0.0000    0.0030    0.0148
       27 FE2    5py       -0.0000    0.0000    0.0000    0.0007   -0.0018    0.0000   -0.0000    0.0000   -0.0023   -0.0115
       28 FE2    2pz       -0.0000   -0.0015    0.9808    0.0000   -0.0000   -0.0850   -0.0007    0.1754    0.0000    0.0000
       29 FE2    3pz       -0.0000    0.0002   -0.1746   -0.0000    0.0000    0.0167    0.0023    0.9841    0.0000    0.0000
       30 FE2    4pz        0.0000   -0.0000    0.0026    0.0000   -0.0000   -0.0002   -0.0001   -0.0150   -0.0000   -0.0000
       31 FE2    5pz        0.0000   -0.0000   -0.0019   -0.0000    0.0000    0.0002   -0.0000    0.0117    0.0000    0.0000
       32 FE2    3d2-      -0.0000    0.0000    0.0000    0.0000    0.0000    0.0000    0.0000    0.0000    0.0000   -0.0000
       33 FE2    4d2-      -0.0000   -0.0000    0.0000    0.0000    0.0000   -0.0000   -0.0000   -0.0000   -0.0000    0.0000
       34 FE2    3d1-       0.0000   -0.0000    0.0000    0.0000   -0.0000    0.0000    0.0000   -0.0000   -0.0000   -0.0000
       35 FE2    4d1-       0.0000    0.0000   -0.0000   -0.0000    0.0000   -0.0000   -0.0000    0.0000    0.0000    0.0000
       36 FE2    3d0        0.0000   -0.0000   -0.0000   -0.0000    0.0000    0.0000    0.0000    0.0001    0.0000    0.0000
       37 FE2    4d0        0.0000   -0.0000    0.0000    0.0000    0.0000    0.0000   -0.0000    0.0000    0.0000   -0.0000
       38 FE2    3d1+       0.0000    0.0000    0.0000   -0.0000   -0.0000    0.0000    0.0000    0.0000    0.0000   -0.0000
       39 FE2    4d1+       0.0000   -0.0000   -0.0000    0.0000    0.0000   -0.0000   -0.0000   -0.0000   -0.0000    0.0000
       40 FE2    3d2+       0.0000   -0.0000   -0.0000   -0.0000   -0.0000    0.0000   -0.0000    0.0000    0.0000   -0.0000
       41 FE2    4d2+      -0.0000    0.0000   -0.0000   -0.0000   -0.0000   -0.0000    0.0000   -0.0000    0.0000    0.0000
       42 FE2    4f3-       0.0000   -0.0000    0.0000   -0.0000    0.0000   -0.0000   -0.0000   -0.0000    0.0000    0.0000
       43 FE2    4f2-      -0.0000    0.0000    0.0000   -0.0000    0.0000   -0.0000    0.0000   -0.0000    0.0000    0.0000
       44 FE2    4f1-       0.0000   -0.0000   -0.0000   -0.0000    0.0000   -0.0000   -0.0000    0.0000    0.0000    0.0000
       45 FE2    4f0        0.0000   -0.0000    0.0000    0.0000   -0.0000   -0.0000    0.0000   -0.0000    0.0000   -0.0000
       46 FE2    4f1+      -0.0000    0.0000   -0.0000    0.0000    0.0000   -0.0000    0.0000    0.0000   -0.0000    0.0000
       47 FE2    4f2+       0.0000    0.0000    0.0000    0.0000    0.0000    0.0000    0.0000    0.0000   -0.0000    0.0000
       48 FE2    4f3+       0.0000    0.0000   -0.0000   -0.0000    0.0000   -0.0000   -0.0000    0.0000    0.0000    0.0000
 
          Orbital           11        12        13        14        15        16        17        18        19        20    
          Energy           -0.7828   -1.4548   -0.7760   -0.7760   -1.0840   -1.0840   -1.0840   -0.7594   -0.7759   -0.7759
          Occ. No.          1.9981    1.9974    1.0000    1.0000    1.0000    1.0000    1.0000    1.0000    1.0000    1.0000
 
        1 O1     1s         0.0061    0.0330    0.0000   -0.0000   -0.0000    0.0000    0.0000    0.0005    0.0000   -0.0000
        2 O1     2s         0.1580    0.9869    0.0000   -0.0000   -0.0004    0.0000    0.0000    0.0050    0.0000   -0.0000
        3 O1     3s        -0.0101   -0.0017    0.0000   -0.0000   -0.0005    0.0000    0.0000    0.0049    0.0000   -0.0000
        4 O1     2px       -0.0000    0.0000    0.0745    0.7025    0.0000    0.0000   -0.0000    0.0000   -0.0740   -0.7023
        5 O1     3px       -0.0000    0.0000   -0.0035   -0.0331    0.0000   -0.0000    0.0000    0.0000    0.0035    0.0336
        6 O1     2py        0.0000   -0.0000    0.7025   -0.0745    0.0000   -0.0000    0.0000   -0.0000   -0.7023    0.0740
        7 O1     3py        0.0000   -0.0000   -0.0331    0.0035    0.0000    0.0000   -0.0000   -0.0000    0.0336   -0.0035
        8 O1     2pz        0.9868   -0.1579   -0.0000    0.0000   -0.0014    0.0000    0.0000    0.0027    0.0000   -0.0000
        9 O1     3pz        0.0199   -0.0071   -0.0000    0.0000    0.0008   -0.0000   -0.0000   -0.0061   -0.0000    0.0000
       10 O1     3d2-       0.0000   -0.0000    0.0000   -0.0000    0.0000    0.0000    0.0000   -0.0000   -0.0000    0.0000
       11 O1     3d1-      -0.0000    0.0000   -0.0032    0.0003   -0.0000    0.0000   -0.0000    0.0000    0.0031   -0.0003
       12 O1     3d0       -0.0048    0.0050    0.0000   -0.0000   -0.0001    0.0000    0.0000    0.0002    0.0000   -0.0000
       13 O1     3d1+       0.0000   -0.0000   -0.0003   -0.0032   -0.0000   -0.0000    0.0000   -0.0000    0.0003    0.0031
       14 O1     3d2+       0.0000   -0.0000    0.0000    0.0000    0.0000    0.0000   -0.0000    0.0000   -0.0000   -0.0000
       15 FE2    1s         0.0000   -0.0000   -0.0000    0.0000    0.0000   -0.0000   -0.0000   -0.0000   -0.0000    0.0000
       16 FE2    2s        -0.0003    0.0001   -0.0000    0.0000    0.0000   -0.0000   -0.0000   -0.0003   -0.0000    0.0000
       17 FE2    3s        -0.0027    0.0010    0.0000   -0.0000   -0.0000    0.0000    0.0000    0.0038    0.0000   -0.0000
       18 FE2    4s        -0.0018   -0.0000    0.0000   -0.0000    0.0001    0.0000    0.0000    0.9282    0.0000   -0.0000
       19 FE2    5s         0.0004   -0.0007   -0.0000    0.0000    0.0002   -0.0000   -0.0000   -0.3716   -0.0000    0.0000
       20 FE2    2px        0.0000    0.0000   -0.0000   -0.0000   -0.0000   -0.0000   -0.0000   -0.0000   -0.0000   -0.0000
       21 FE2    3px       -0.0000    0.0000   -0.0000   -0.0000   -0.0000   -0.0000    0.0000   -0.0000   -0.0000   -0.0000
       22 FE2    4px        0.0000   -0.0000   -0.0000   -0.0003   -0.0000   -0.0000    0.0000   -0.0000    0.0000    0.0002
       23 FE2    5px       -0.0000    0.0000   -0.0000   -0.0001   -0.0000   -0.0000    0.0000   -0.0000    0.0000    0.0001
       24 FE2    2py        0.0000    0.0000   -0.0000    0.0000   -0.0000   -0.0000   -0.0000    0.0000   -0.0000    0.0000
       25 FE2    3py       -0.0000    0.0000   -0.0000    0.0000   -0.0000    0.0000   -0.0000    0.0000   -0.0000    0.0000
       26 FE2    4py        0.0000   -0.0000   -0.0003    0.0000   -0.0000    0.0000   -0.0000    0.0000    0.0002   -0.0000
       27 FE2    5py       -0.0000    0.0000   -0.0001    0.0000   -0.0000    0.0000   -0.0000    0.0000    0.0001   -0.0000
       28 FE2    2pz        0.0026   -0.0002    0.0000   -0.0000    0.0000    0.0000    0.0000    0.0000    0.0000   -0.0000
       29 FE2    3pz        0.0203   -0.0016   -0.0000    0.0000    0.0001   -0.0000   -0.0000   -0.0001   -0.0000    0.0000
       30 FE2    4pz       -0.0065    0.0007   -0.0000    0.0000    0.0003   -0.0000   -0.0000   -0.0045   -0.0000    0.0000
       31 FE2    5pz       -0.0000   -0.0001   -0.0000    0.0000    0.0001   -0.0000   -0.0000   -0.0003   -0.0000    0.0000
       32 FE2    3d2-       0.0000   -0.0000    0.0000   -0.0000    0.0000    0.9900    0.0368   -0.0000    0.0000   -0.0000
       33 FE2    4d2-      -0.0000    0.0000   -0.0000    0.0000   -0.0000   -0.1363   -0.0051    0.0000   -0.0000    0.0000
       34 FE2    3d1-       0.0000   -0.0000    0.6966   -0.0738    0.0000   -0.0000    0.0000   -0.0000    0.6967   -0.0734
       35 FE2    4d1-       0.0000   -0.0000   -0.0960    0.0102   -0.0000    0.0000   -0.0000    0.0000   -0.0958    0.0101
       36 FE2    3d0       -0.0017    0.0002    0.0000    0.0000   -0.9906    0.0000    0.0000   -0.0001    0.0000    0.0000
       37 FE2    4d0       -0.0009    0.0001   -0.0000   -0.0000    0.1365   -0.0000   -0.0000   -0.0006   -0.0000   -0.0000
       38 FE2    3d1+      -0.0000    0.0000    0.0738    0.6966    0.0000    0.0000   -0.0000    0.0000    0.0734    0.6967
       39 FE2    4d1+      -0.0000    0.0000   -0.0102   -0.0960   -0.0000   -0.0000    0.0000   -0.0000   -0.0101   -0.0958
       40 FE2    3d2+      -0.0000    0.0000    0.0000   -0.0000    0.0000    0.0368   -0.9900    0.0000    0.0000   -0.0000
       41 FE2    4d2+       0.0000    0.0000   -0.0000    0.0000   -0.0000   -0.0051    0.1363   -0.0000   -0.0000    0.0000
       42 FE2    4f3-      -0.0000   -0.0000   -0.0000   -0.0000    0.0000    0.0000    0.0000    0.0000   -0.0000   -0.0000
       43 FE2    4f2-       0.0000    0.0000    0.0000   -0.0000    0.0000    0.0000    0.0000   -0.0000    0.0000   -0.0000
       44 FE2    4f1-       0.0000   -0.0000    0.0000   -0.0000    0.0000   -0.0000    0.0000   -0.0000    0.0000   -0.0000
       45 FE2    4f0       -0.0000    0.0000   -0.0000    0.0000   -0.0000   -0.0000   -0.0000   -0.0000   -0.0000    0.0000
       46 FE2    4f1+      -0.0000    0.0000    0.0000    0.0000    0.0000    0.0000   -0.0000    0.0000    0.0000    0.0000
       47 FE2    4f2+       0.0000   -0.0000    0.0000   -0.0000   -0.0000    0.0000   -0.0000    0.0000    0.0000   -0.0000
       48 FE2    4f3+       0.0000    0.0000   -0.0000   -0.0000   -0.0000    0.0000   -0.0000   -0.0000   -0.0000   -0.0000
 
          Orbital           21        22        23        24        25        26        27        28        29        30    
          Energy            1.2840    0.3634    0.9463    0.9463    0.9675   -0.2170    0.9446   -0.0414   -0.0414    0.3952
          Occ. No.          0.0026    0.0019    0.0001    0.0001    0.0001    0.0000    0.0000    0.0000    0.0000    0.0000
 
        1 O1     1s         0.0001    0.0002   -0.0000   -0.0000   -0.0011    0.0031    0.0016   -0.0000   -0.0000    0.0012
        2 O1     2s        -0.0020    0.0066   -0.0000   -0.0000   -0.0134    0.0378    0.0174   -0.0000   -0.0000    0.0161
        3 O1     3s         0.6986    0.1079   -0.0000   -0.0000   -0.0235    0.0877    0.6199   -0.0000    0.0000   -0.3423
        4 O1     2px       -0.0000    0.0000    0.0016   -0.0023    0.0000    0.0000    0.0000    0.0013   -0.0060    0.0000
        5 O1     3px        0.0000   -0.0000    0.0057   -0.0084    0.0000   -0.0000    0.0000    0.0080   -0.0378    0.0000
        6 O1     2py        0.0000   -0.0000   -0.0023   -0.0016   -0.0000   -0.0000   -0.0000   -0.0060   -0.0013    0.0000
        7 O1     3py       -0.0000    0.0000   -0.0084   -0.0057   -0.0000   -0.0000   -0.0000   -0.0378   -0.0080   -0.0000
        8 O1     2pz        0.0156   -0.0244    0.0000    0.0000    0.0096   -0.0407   -0.0168    0.0000    0.0000   -0.0285
        9 O1     3pz       -0.1585    0.9525    0.0000    0.0000   -0.0499   -0.1734   -0.1365    0.0000    0.0000   -0.2432
       10 O1     3d2-      -0.0000   -0.0000    0.0000   -0.0000   -0.0000    0.0000   -0.0000   -0.0000    0.0000    0.0000
       11 O1     3d1-       0.0000    0.0000    0.0007    0.0005   -0.0000    0.0000   -0.0000    0.0049    0.0010    0.0000
       12 O1     3d0        0.6937    0.1353    0.0000   -0.0000   -0.0078    0.0112   -0.5835   -0.0000   -0.0000    0.3958
       13 O1     3d1+      -0.0000   -0.0000   -0.0005    0.0007    0.0000    0.0000    0.0000   -0.0010    0.0049   -0.0000
       14 O1     3d2+      -0.0000   -0.0000   -0.0000    0.0000    0.0000   -0.0000   -0.0000    0.0000   -0.0000    0.0000
       15 FE2    1s        -0.0000    0.0001    0.0000   -0.0000   -0.0000   -0.0000   -0.0000    0.0000    0.0000   -0.0000
       16 FE2    2s        -0.0001    0.0007    0.0000    0.0000   -0.0000   -0.0001   -0.0001    0.0000    0.0000   -0.0002
       17 FE2    3s        -0.0008    0.0040    0.0000   -0.0000   -0.0002    0.0026   -0.0006    0.0000    0.0000   -0.0009
       18 FE2    4s        -0.0005    0.0190    0.0000    0.0000   -0.0002   -0.3812   -0.0074   -0.0000    0.0000   -0.0178
       19 FE2    5s         0.0111   -0.0293    0.0000    0.0000    0.0099   -0.9422   -0.0054   -0.0000    0.0000   -0.0168
       20 FE2    2px        0.0000    0.0000    0.0001   -0.0001    0.0000    0.0000    0.0000    0.0000   -0.0000   -0.0000
       21 FE2    3px       -0.0000    0.0000    0.0102   -0.0149    0.0000    0.0000   -0.0000   -0.0014    0.0069    0.0000
       22 FE2    4px       -0.0000    0.0000    0.2908   -0.4264    0.0000    0.0000   -0.0000   -0.1765    0.8383    0.0000
       23 FE2    5px        0.0000   -0.0000   -0.4825    0.7076   -0.0000    0.0000   -0.0000   -0.1065    0.5057    0.0000
       24 FE2    2py        0.0000   -0.0000   -0.0001   -0.0001    0.0000    0.0000    0.0000   -0.0000   -0.0000   -0.0000
       25 FE2    3py       -0.0000   -0.0000   -0.0149   -0.0102    0.0000   -0.0000    0.0000    0.0069    0.0014    0.0000
       26 FE2    4py       -0.0000    0.0000   -0.4264   -0.2908    0.0000   -0.0000    0.0000    0.8383    0.1765    0.0000
       27 FE2    5py       -0.0000    0.0000    0.7076    0.4825   -0.0000   -0.0000    0.0000    0.5057    0.1065    0.0000
       28 FE2    2pz       -0.0000    0.0001   -0.0000   -0.0000   -0.0002   -0.0000   -0.0000   -0.0000   -0.0000   -0.0000
       29 FE2    3pz       -0.0002    0.0001   -0.0000   -0.0000   -0.0180   -0.0005   -0.0043    0.0000    0.0000   -0.0065
       30 FE2    4pz        0.0264   -0.1628   -0.0000   -0.0000   -0.5005   -0.0013   -0.4717    0.0000    0.0000   -0.7151
       31 FE2    5pz        0.0031   -0.0025    0.0000    0.0000    0.8627   -0.0009   -0.2872    0.0000    0.0000   -0.4308
       32 FE2    3d2-       0.0000   -0.0000   -0.0000   -0.0000    0.0000   -0.0000   -0.0000   -0.0000    0.0000   -0.0000
       33 FE2    4d2-       0.0000   -0.0000   -0.0000   -0.0000    0.0000   -0.0000   -0.0000   -0.0000    0.0000   -0.0000
       34 FE2    3d1-      -0.0000   -0.0000   -0.0001   -0.0001    0.0000    0.0000    0.0000    0.0008    0.0002   -0.0000
       35 FE2    4d1-      -0.0000    0.0000   -0.0004   -0.0003    0.0000   -0.0000    0.0000    0.0051    0.0011   -0.0000
       36 FE2    3d0        0.0002    0.0009    0.0000   -0.0000    0.0001   -0.0017   -0.0098    0.0000    0.0000    0.0028
       37 FE2    4d0        0.0043   -0.0110   -0.0000   -0.0000    0.0024   -0.0092   -0.0673    0.0000    0.0000    0.0256
       38 FE2    3d1+       0.0000    0.0000    0.0001   -0.0001   -0.0000    0.0000   -0.0000   -0.0002    0.0008   -0.0000
       39 FE2    4d1+       0.0000    0.0000    0.0003   -0.0004   -0.0000    0.0000   -0.0000   -0.0011    0.0051   -0.0000
       40 FE2    3d2+       0.0000    0.0000   -0.0000   -0.0000   -0.0000   -0.0000   -0.0000    0.0000    0.0000   -0.0000
       41 FE2    4d2+       0.0000    0.0000   -0.0000   -0.0000    0.0000   -0.0000   -0.0000    0.0000    0.0000   -0.0000
       42 FE2    4f3-       0.0000   -0.0000    0.0000    0.0000    0.0000   -0.0000    0.0000    0.0000    0.0000    0.0000
       43 FE2    4f2-      -0.0000   -0.0000   -0.0000   -0.0000    0.0000    0.0000    0.0000    0.0000    0.0000    0.0000
       44 FE2    4f1-      -0.0000    0.0000   -0.0001   -0.0000   -0.0000    0.0000    0.0000    0.0004    0.0001    0.0000
       45 FE2    4f0        0.0001   -0.0004    0.0000   -0.0000    0.0001   -0.0004   -0.0027    0.0000    0.0000    0.0005
       46 FE2    4f1+       0.0000   -0.0000    0.0000   -0.0001    0.0000   -0.0000   -0.0000   -0.0001    0.0004   -0.0000
       47 FE2    4f2+      -0.0000   -0.0000   -0.0000   -0.0000    0.0000   -0.0000   -0.0000    0.0000   -0.0000   -0.0000
       48 FE2    4f3+      -0.0000    0.0000    0.0000   -0.0000   -0.0000   -0.0000   -0.0000    0.0000   -0.0000   -0.0000
 
          Orbital           31        32        33        34        35        36        37        38        39        40    
          Energy            0.2808    0.3820    0.2688    0.3821    0.2688    0.2710    0.2725    2.2064    2.2215    2.5596
          Occ. No.          0.0000    0.0000    0.0000    0.0000    0.0000    0.0000    0.0000    0.0000    0.0000    0.0000
 
        1 O1     1s         0.0004   -0.0000   -0.0000   -0.0000   -0.0000   -0.0000    0.0000    0.0000   -0.0000   -0.0000
        2 O1     2s         0.0072   -0.0000   -0.0000   -0.0000   -0.0000   -0.0000    0.0000    0.0000   -0.0000   -0.0000
        3 O1     3s        -0.0272    0.0000    0.0000    0.0000    0.0000    0.0000   -0.0000   -0.0000    0.0000    0.0000
        4 O1     2px       -0.0000    0.0008   -0.0000   -0.0473    0.0000   -0.0005    0.0050    0.0025    0.0026   -0.0032
        5 O1     3px       -0.0000    0.0158   -0.0010   -0.9976    0.0003   -0.0085    0.0450    0.0057    0.0075   -0.0085
        6 O1     2py       -0.0000   -0.0472   -0.0002   -0.0007    0.0000   -0.0051   -0.0001    0.0035   -0.0033    0.0008
        7 O1     3py       -0.0000   -0.9974   -0.0049   -0.0154   -0.0000   -0.0498    0.0001    0.0100   -0.0081    0.0012
        8 O1     2pz       -0.0159    0.0000    0.0000    0.0000    0.0000    0.0000   -0.0000   -0.0000    0.0000    0.0000
        9 O1     3pz       -0.0722    0.0000    0.0000    0.0000    0.0000    0.0000   -0.0000   -0.0000    0.0000    0.0000
       10 O1     3d2-       0.0000    0.0000   -0.0012    0.0002   -0.0017   -0.0006    0.0101   -0.1266   -0.2579   -0.1495
       11 O1     3d1-       0.0000    0.0132   -0.0004   -0.0013   -0.0006    0.0081    0.0028    0.6905   -0.6433    0.1621
       12 O1     3d0        0.0583   -0.0000   -0.0000   -0.0000   -0.0000   -0.0000    0.0000    0.0000    0.0000   -0.0000
       13 O1     3d1+       0.0000    0.0007    0.0011    0.0133   -0.0008    0.0061    0.0014    0.5078    0.4941   -0.6338
       14 O1     3d2+      -0.0000   -0.0000    0.0006   -0.0001    0.0009    0.0003   -0.0058    0.0719    0.1349    0.0923
       15 FE2    1s        -0.0000    0.0000    0.0000    0.0000    0.0000    0.0000   -0.0000   -0.0000    0.0000    0.0000
       16 FE2    2s        -0.0001    0.0000    0.0000    0.0000    0.0000    0.0000   -0.0000   -0.0000    0.0000    0.0000
       17 FE2    3s        -0.0003    0.0000    0.0000    0.0000    0.0000    0.0000   -0.0000   -0.0000    0.0000    0.0000
       18 FE2    4s        -0.0033    0.0000    0.0000    0.0000    0.0000    0.0000   -0.0000   -0.0000   -0.0000    0.0000
       19 FE2    5s        -0.0020    0.0000    0.0000    0.0000    0.0000    0.0000   -0.0000   -0.0000   -0.0000    0.0000
       20 FE2    2px        0.0000   -0.0000    0.0000    0.0000   -0.0000    0.0000   -0.0000   -0.0000   -0.0000    0.0000
       21 FE2    3px        0.0000   -0.0000    0.0000    0.0003   -0.0000    0.0000    0.0000   -0.0000   -0.0000    0.0000
       22 FE2    4px       -0.0000    0.0001   -0.0000   -0.0061    0.0000   -0.0002    0.0044   -0.0010   -0.0009    0.0013
       23 FE2    5px       -0.0000    0.0000   -0.0000   -0.0024    0.0000   -0.0001    0.0017   -0.0003   -0.0003    0.0004
       24 FE2    2py        0.0000    0.0000    0.0000    0.0000   -0.0000    0.0000    0.0000   -0.0000    0.0000   -0.0000
       25 FE2    3py        0.0000    0.0003    0.0000    0.0000    0.0000   -0.0000   -0.0000   -0.0000    0.0000   -0.0000
       26 FE2    4py       -0.0000   -0.0061   -0.0000   -0.0001    0.0000   -0.0044   -0.0002   -0.0014    0.0012   -0.0003
       27 FE2    5py       -0.0000   -0.0024   -0.0000   -0.0000    0.0000   -0.0018   -0.0001   -0.0004    0.0004   -0.0001
       28 FE2    2pz       -0.0000    0.0000    0.0000    0.0000    0.0000    0.0000   -0.0000   -0.0000    0.0000    0.0000
       29 FE2    3pz       -0.0001    0.0000    0.0000    0.0000    0.0000    0.0000   -0.0000   -0.0000    0.0000    0.0000
       30 FE2    4pz        0.0067   -0.0000   -0.0000   -0.0000   -0.0000   -0.0000    0.0000    0.0000    0.0000   -0.0000
       31 FE2    5pz        0.0028   -0.0000   -0.0000   -0.0000   -0.0000   -0.0000    0.0000    0.0000   -0.0000   -0.0000
       32 FE2    3d2-      -0.0000    0.0007   -0.1359    0.0001   -0.0113   -0.0003   -0.0001    0.0002    0.0003    0.0002
       33 FE2    4d2-      -0.0000    0.0049   -0.9872    0.0010   -0.0823   -0.0021   -0.0009    0.0013    0.0025    0.0012
       34 FE2    3d1-       0.0000   -0.0032   -0.0003   -0.0010   -0.0005    0.1363    0.0057   -0.0009    0.0003    0.0008
       35 FE2    4d1-       0.0000   -0.0278   -0.0020   -0.0071   -0.0034    0.9895    0.0415   -0.0064    0.0018    0.0056
       36 FE2    3d0       -0.1365    0.0000    0.0000    0.0000    0.0000    0.0000   -0.0000   -0.0000    0.0000    0.0000
       37 FE2    4d0       -0.9903    0.0000    0.0000    0.0000    0.0000    0.0000   -0.0000   -0.0000    0.0000    0.0000
       38 FE2    3d1+       0.0000   -0.0003    0.0001   -0.0026    0.0001    0.0057   -0.1362   -0.0004   -0.0008   -0.0009
       39 FE2    4d1+       0.0000   -0.0018    0.0007   -0.0235    0.0006    0.0415   -0.9893   -0.0029   -0.0055   -0.0071
       40 FE2    3d2+      -0.0000   -0.0000    0.0113   -0.0001   -0.1359   -0.0004   -0.0001   -0.0000   -0.0000   -0.0001
       41 FE2    4d2+      -0.0000   -0.0002    0.0823   -0.0004   -0.9872   -0.0033   -0.0008   -0.0001   -0.0003   -0.0005
       42 FE2    4f3-       0.0000    0.0000   -0.0019    0.0003    0.0032   -0.0042   -0.0133   -0.0251   -0.0188   -0.0292
       43 FE2    4f2-       0.0000   -0.0001    0.0020   -0.0003    0.0013   -0.0038   -0.0139    0.1784    0.3803    0.5107
       44 FE2    4f1-       0.0000    0.0017    0.0000    0.0002    0.0034   -0.0011   -0.0149    0.3392    0.0002   -0.0343
       45 FE2    4f0       -0.0020    0.0003    0.0000    0.0001    0.0000    0.0000   -0.0000   -0.0000    0.0000    0.0000
       46 FE2    4f1+      -0.0000   -0.0000    0.0003    0.0010   -0.0004    0.0054    0.0028    0.1877   -0.0001   -0.1211
       47 FE2    4f2+      -0.0000   -0.0000    0.0017   -0.0002   -0.0034    0.0004    0.0080    0.2386    0.3285    0.4995
       48 FE2    4f3+      -0.0000    0.0000   -0.0012    0.0003    0.0007   -0.0025   -0.0041    0.0655    0.0645    0.1183
 
          Orbital           41        42        43        44        45        46        47    
          Energy            2.9480    2.9461    2.7567    1.9108    2.9493    3.0630    2.7254
          Occ. No.          0.0000    0.0000    0.0000    0.0000    0.0000    0.0000    0.0000
 
        1 O1     1s         0.0000    0.0000   -0.0000    0.0000   -0.0000   -0.0000   -0.0000
        2 O1     2s         0.0000    0.0000   -0.0000    0.0000   -0.0000   -0.0000   -0.0000
        3 O1     3s        -0.0000   -0.0000    0.0000   -0.0000    0.0000   -0.0000    0.0000
        4 O1     2px       -0.0010   -0.0012    0.0002   -0.0000   -0.0002    0.0002   -0.0000
        5 O1     3px       -0.0026   -0.0022    0.0002   -0.0001   -0.0002    0.0013   -0.0000
        6 O1     2py       -0.0003   -0.0015   -0.0003    0.0000    0.0002   -0.0001   -0.0002
        7 O1     3py       -0.0008   -0.0035   -0.0007    0.0001    0.0005   -0.0004   -0.0005
        8 O1     2pz       -0.0000   -0.0000    0.0000   -0.0000    0.0000    0.0000    0.0000
        9 O1     3pz       -0.0000   -0.0000    0.0000   -0.0000    0.0000    0.0000    0.0000
       10 O1     3d2-      -0.2764    0.0169    0.4631   -0.4913   -0.3101    0.1611    0.4903
       11 O1     3d1-      -0.0626   -0.2669   -0.0647    0.0073    0.0429   -0.0174   -0.0355
       12 O1     3d0        0.0000    0.0000    0.0000   -0.0000   -0.0000    0.0000   -0.0000
       13 O1     3d1+      -0.1642   -0.2491    0.0636   -0.0091   -0.0432    0.0304    0.0072
       14 O1     3d2+       0.1571   -0.0091   -0.2625   -0.8709    0.1757   -0.0913   -0.2770
       15 FE2    1s        -0.0000   -0.0000    0.0000   -0.0000    0.0000   -0.0000    0.0000
       16 FE2    2s        -0.0000   -0.0000    0.0000   -0.0000    0.0000    0.0000    0.0000
       17 FE2    3s        -0.0000   -0.0000    0.0000   -0.0000    0.0000    0.0000    0.0000
       18 FE2    4s        -0.0000   -0.0000   -0.0000   -0.0000    0.0000   -0.0000    0.0000
       19 FE2    5s        -0.0000   -0.0000   -0.0000    0.0000   -0.0000   -0.0000   -0.0000
       20 FE2    2px        0.0000    0.0000    0.0000    0.0000    0.0000   -0.0000    0.0000
       21 FE2    3px        0.0000    0.0000   -0.0000    0.0000    0.0000   -0.0000   -0.0000
       22 FE2    4px       -0.0000    0.0005   -0.0002    0.0000    0.0001   -0.0000   -0.0002
       23 FE2    5px       -0.0000    0.0002   -0.0001    0.0000    0.0000    0.0000   -0.0001
       24 FE2    2py        0.0000    0.0000    0.0000   -0.0000   -0.0000    0.0000    0.0000
       25 FE2    3py        0.0000    0.0000    0.0000   -0.0000   -0.0000    0.0000    0.0000
       26 FE2    4py        0.0002    0.0002    0.0001   -0.0000   -0.0001    0.0000    0.0001
       27 FE2    5py        0.0001    0.0000    0.0000   -0.0000   -0.0000    0.0000    0.0000
       28 FE2    2pz       -0.0000   -0.0000    0.0000   -0.0000    0.0000    0.0000    0.0000
       29 FE2    3pz       -0.0000   -0.0000   -0.0000    0.0000    0.0000   -0.0000    0.0000
       30 FE2    4pz        0.0000    0.0000   -0.0000    0.0000   -0.0000   -0.0000   -0.0000
       31 FE2    5pz        0.0000    0.0000   -0.0000    0.0000   -0.0000   -0.0000   -0.0000
       32 FE2    3d2-       0.0000   -0.0000   -0.0000    0.0000    0.0000   -0.0003    0.0000
       33 FE2    4d2-       0.0001   -0.0001   -0.0004    0.0002    0.0002   -0.0022    0.0002
       34 FE2    3d1-      -0.0007    0.0005   -0.0003   -0.0000    0.0002    0.0007   -0.0000
       35 FE2    4d1-      -0.0049    0.0035   -0.0024   -0.0000    0.0014    0.0051   -0.0001
       36 FE2    3d0       -0.0000   -0.0000    0.0000   -0.0000    0.0000    0.0000    0.0000
       37 FE2    4d0       -0.0000   -0.0000    0.0000   -0.0000    0.0000    0.0000    0.0000
       38 FE2    3d1+       0.0008   -0.0019    0.0023    0.0000   -0.0014   -0.0014   -0.0001
       39 FE2    4d1+       0.0057   -0.0140    0.0169    0.0001   -0.0102   -0.0099   -0.0008
       40 FE2    3d2+      -0.0002    0.0005   -0.0005    0.0000    0.0003    0.0004    0.0000
       41 FE2    4d2+      -0.0012    0.0034   -0.0037    0.0003    0.0022    0.0026    0.0001
       42 FE2    4f3-      -0.0378    0.0046    0.0649   -0.0000    0.6619    0.7414    0.0673
       43 FE2    4f2-      -0.2881   -0.0673   -0.3637   -0.0000   -0.0000    0.0000    0.5855
       44 FE2    4f1-      -0.2079    0.9139    0.0000   -0.0000   -0.0000    0.0000   -0.0711
       45 FE2    4f0       -0.0000    0.0000    0.0000   -0.0000    0.0000    0.0000   -0.0000
       46 FE2    4f1+       0.8359    0.1531   -0.0000    0.0000    0.0000   -0.0000    0.4775
       47 FE2    4f2+       0.1474   -0.0524    0.7196   -0.0000    0.0000   -0.0000   -0.2082
       48 FE2    4f3+       0.1412   -0.0066   -0.2322    0.0000   -0.6565    0.6440   -0.2407
--
 
 
++    Molecular properties:
      ---------------------
 
      Charge (e):
                      =    2.0000
      Dipole Moment (Debye):
      Origin of the operator (Ang)=    0.0000    0.0000    0.0000
                   X=  1.6011E-12               Y= -4.1242E-12               Z= -1.7553E+01           Total=  1.7553E+01
      Center of Charge (Ang)
                     X=    0.00000000               Y=   -0.00000000               Z=   -1.82722325
      Quadrupole Moment (Debye*Ang):
      Origin of the operator (Ang)=    0.0000    0.0000   -0.6683
                  XX= -1.4217E+01              XY=  3.1283E-14              XZ=  1.6885E-11              YY= -1.4217E+01
                  YZ= -1.9185E-10              ZZ= -1.3809E+00
      In traceless form (Debye*Ang)
                  XX= -6.4178E+00              XY=  4.6924E-14              XZ=  2.5328E-11              YY= -6.4178E+00
                  YZ= -2.8777E-10              ZZ=  1.2836E+01
--
 
 
  Input file to MOLDEN was generated!
 
 ###############################################################################
 ###############################################################################
 ###                                                                         ###
 ###                                                                         ###
 ###    RunFile label nBas                                                   ###
 ###    was used       86 times                                              ###
 ###                                                                         ###
 ###                                                                         ###
 ###############################################################################
 ###############################################################################
--- Stop Module: scf at Sun Dec 22 22:12:04 2024 /rc=_RC_ALL_IS_WELL_ ---
*** files: 5.29.LprOrb 5.29.LoProp.molden 5.29.scf.molden 5.29.scf.h5 5.29.UhfOrb 5.29.UnaOrb xmldump
    saved to directory /home/grierjones/DDCASPT2/iron_oxo_DDCASPT2/cluster/5.29

>>> COPY /tmp/5.29/5.29.scf.h5 /home/grierjones/DDCASPT2/iron_oxo_DDCASPT2/cluster/5.29/

*** symbolic link created: INPORB -> 5.29.UnaOrb
--- Start Module: rasscf at Sun Dec 22 22:12:04 2024 ---
 
()()()()()()()()()()()()()()()()()()()()()()()()()()()()()()()()()()()()()()()()()()()()()()()()()()

                                              &RASSCF

                                   only a single process is used
                       available to each process: 2.0 GB of memory, 1 thread?
()()()()()()()()()()()()()()()()()()()()()()()()()()()()()()()()()()()()()()()()()()()()()()()()()()
 
 ###############################################################################
 ###############################################################################
 ###                                                                         ###
 ###                                                                         ###
 ###    LUMORB input error.                                                  ###
 ###                                                                         ###
 ###                                                                         ###
 ###############################################################################
 ###############################################################################
  Keyword LUMORB used with file name StartOrbFile=
 /home/grierjones/DDCASPT2/iron_oxo_DDCASPT2/cluster/5.28/5.28.RasOrb           
                                                  
  but that file cannot be used. Perhaps it does
  not exist?
 
 *************** WARNING ****************
 ###############################################################################
 ###############################################################################
 ###                                                                         ###
 ###                                                                         ###
 ###    Too many macro-iterations.                                           ###
 ###                                                                         ###
 ###                                                                         ###
 ###############################################################################
 ###############################################################################
 Too many macro-iterations requested.
 Reset to maximum, new MAXIT=     200
 ****************************************
 
 *************** WARNING ****************
 ###############################################################################
 ###############################################################################
 ###                                                                         ###
 ###                                                                         ###
 ###    Too many SX-iterations.                                              ###
 ###                                                                         ###
 ###                                                                         ###
 ###############################################################################
 ###############################################################################
 Too many SX-iterations requested.
 Reset to maximum, new ITMAX=     100
 ****************************************
 
      Header of the ONEINT file:
      --------------------------
      
      Integrals generated by seward 4.2.0  , Sun Dec 22 22:12:02 2024
 
 
      OrdInt status: non-squared
 
 
      Cartesian coordinates in Angstrom:
      -----------------------------------------------------
      No.  Label        X            Y            Z        
      -----------------------------------------------------
       1   O1         0.00000000   0.00000000   3.44429000
       2   FE2        0.00000000   0.00000000  -1.84429000
      -----------------------------------------------------
      Nuclear repulsion energy =   20.81255456
 
++    Wave function specifications:
      -----------------------------
 
      Number of closed shell electrons          22
      Number of electrons in active shells      10
      Max number of holes in RAS1 space          0
      Max nr of electrons in RAS3 space          0
      Number of inactive orbitals               11
      Number of active orbitals                 14
      Number of secondary orbitals              23
      Spin quantum number                      2.0
      State symmetry                             1
--
 
++    Orbital specifications:
      -----------------------
 
      Symmetry species                           1
                                                 a
      Frozen orbitals                            0
      Inactive orbitals                         11
      Active orbitals                           14
      RAS1 orbitals                              0
      RAS2 orbitals                             14
      RAS3 orbitals                              0
      Secondary orbitals                        23
      Deleted orbitals                           0
      Number of basis functions                 48
--
 
++    CI expansion specifications:
      ----------------------------
 
      Number of CSFs                        975975
      Number of determinants               1249248
      Number of root(s) required                 1
      Root chosen for geometry opt.              1
      CI root used                               1
         
      highest root included in the CI            1
      max. size of the explicit Hamiltonian    200
--
 
++    Optimization specifications:
      ----------------------------
 
      RASSCF algorithm: Conventional
      Maximum number of macro iterations       200
      Maximum number of SX iterations          100
      Threshold for RASSCF energy            0.100E-07
      Threshold for max MO rotation          0.100E+00
      Threshold for max BLB element          0.100E-03
      Level shift parameter                  0.500E+00
      Make Quasi-Newton update
--
 
 ###############################################################################
 ###############################################################################
 ###                                                                         ###
 ###                                                                         ###
 ###    Location: rdVec_                                                     ###
 ###    File: /home/grierjones/DDCASPT2/iron_oxo_DDCASPT2/cluster/5.28/5.28.RasOrb\n\n\n
 ###    ile: /home/grierjones/DDCASPT2/iron_oxo_DDCASPT2/cluster/5.28/5.28.RasOrb\n\n\n
 ###    le: /home/grierjones/DDCASPT2/iron_oxo_DDCASPT2/cluster/5.28/5.28.RasOrb\n\n\n
 ###    e: /home/grierjones/DDCASPT2/iron_oxo_DDCASPT2/cluster/5.28/5.28.RasOrb\n\n\n
 ###    : /home/grierjones/DDCASPT2/iron_oxo_DDCASPT2/cluster/5.28/5.28.RasOrb\n\n\n
 ###     /home/grierjones/DDCASPT2/iron_oxo_DDCASPT2/cluster/5.28/5.28.RasOrb\n\n\n
 ###    /home/grierjones/DDCASPT2/iron_oxo_DDCASPT2/cluster/5.28/5.28.RasOrb\n\n\n
 ###    home/grierjones/DDCASPT2/iron_oxo_DDCASPT2/cluster/5.28/5.28.RasOrb\n\n\n
 ###    ome/grierjones/DDCASPT2/iron_oxo_DDCASPT2/cluster/5.28/5.28.RasOrb\n\n\n
 ###    me/grierjones/DDCASPT2/iron_oxo_DDCASPT2/cluster/5.28/5.28.RasOrb\n\n\n
 ###    e/grierjones/DDCASPT2/iron_oxo_DDCASPT2/cluster/5.28/5.28.RasOrb\n\n\n
 ###    /grierjones/DDCASPT2/iron_oxo_DDCASPT2/cluster/5.28/5.28.RasOrb\n\n\n
 ###    grierjones/DDCASPT2/iron_oxo_DDCASPT2/cluster/5.28/5.28.RasOrb\n\n\n
 ###    rierjones/DDCASPT2/iron_oxo_DDCASPT2/cluster/5.28/5.28.RasOrb\n\n\n  ###
 ###    ierjones/DDCASPT2/iron_oxo_DDCASPT2/cluster/5.28/5.28.RasOrb\n\n\n   ###
 ###    erjones/DDCASPT2/iron_oxo_DDCASPT2/cluster/5.28/5.28.RasOrb          ###
 ###                                                                         ###
 ###                                                                         ###
 ###    Error during reading INPORB                                          ###
 ###     not defined yet                                                     ###
 ###                                                                         ###
 ###                                                                         ###
 ###############################################################################
 ###############################################################################
[ process      0]: xquit (rc =    128): _INTERNAL_ERROR_
abort: 
--- Stop Module: rasscf at Sun Dec 22 22:12:04 2024 /rc=_RC_FLOATING_EXCEPTION_ ---
*** files: xmldump
    saved to directory /home/grierjones/DDCASPT2/iron_oxo_DDCASPT2/cluster/5.29

.########################.
.# Non-zero return code #.
.########################.

    Timing: Wall=1.68 User=1.42 System=0.26
************************************
*** WorkDir at /tmp/5.29 cleaned ***
************************************
