[Molden Format]
[N_Atoms]
                     2
[Atoms] (AU)
O1          1      8           0.00000000      0.00000000      0.00000000
O2          2      8           0.00000000      0.00000000      2.07869874
[Charge] (Mulliken)
  3.161915174132446E-013
 -3.304023721284466E-013
[GTO] (AU)
   1
   s  14
  1.053749500E+05  1.238600013E-04
  1.567924000E+04  5.120100053E-04
  3.534544700E+03  2.152910022E-03
  9.873651600E+02  8.528440089E-03
  3.159787500E+02  3.018049031E-02
  1.116542800E+02  9.099702095E-02
  4.269945100E+01  2.177936423E-01
  1.739559600E+01  3.686245738E-01
  7.438309000E+00  3.366707335E-01
  3.222862000E+00  9.657630101E-02
  1.253877000E+00  2.144520022E-03
  4.951550000E-01  1.194350012E-03
  1.916650000E-01  5.390200056E-04
  6.708300000E-02  2.103400022E-04
   s  14
  1.053749500E+05 -2.815000008E-05
  1.567924000E+04 -1.163000003E-04
  3.534544700E+03 -4.909200013E-04
  9.873651600E+02 -1.946160005E-03
  3.159787500E+02 -7.005300019E-03
  1.116542800E+02 -2.167814006E-02
  4.269945100E+01 -5.641213015E-02
  1.739559600E+01 -1.127053003E-01
  7.438309000E+00 -1.589119704E-01
  3.222862000E+00 -3.355083009E-02
  1.253877000E+00  3.531902810E-01
  4.951550000E-01  5.534199315E-01
  1.916650000E-01  2.301839106E-01
  6.708300000E-02  1.127267003E-02
   p   9
  2.000000000E+02  9.173000030E-04
  4.653336700E+01  7.377140024E-03
  1.462180900E+01  3.483515011E-02
  5.313064000E+00  1.144397004E-01
  2.102525000E+00  2.554966408E-01
  8.502230000E-01  3.722557412E-01
  3.375970000E-01  3.323314911E-01
  1.288920000E-01  1.400847905E-01
  4.511200000E-02  2.395784008E-02
 
   2
   s  14
  1.053749500E+05  1.238600013E-04
  1.567924000E+04  5.120100053E-04
  3.534544700E+03  2.152910022E-03
  9.873651600E+02  8.528440089E-03
  3.159787500E+02  3.018049031E-02
  1.116542800E+02  9.099702095E-02
  4.269945100E+01  2.177936423E-01
  1.739559600E+01  3.686245738E-01
  7.438309000E+00  3.366707335E-01
  3.222862000E+00  9.657630101E-02
  1.253877000E+00  2.144520022E-03
  4.951550000E-01  1.194350012E-03
  1.916650000E-01  5.390200056E-04
  6.708300000E-02  2.103400022E-04
   s  14
  1.053749500E+05 -2.815000008E-05
  1.567924000E+04 -1.163000003E-04
  3.534544700E+03 -4.909200013E-04
  9.873651600E+02 -1.946160005E-03
  3.159787500E+02 -7.005300019E-03
  1.116542800E+02 -2.167814006E-02
  4.269945100E+01 -5.641213015E-02
  1.739559600E+01 -1.127053003E-01
  7.438309000E+00 -1.589119704E-01
  3.222862000E+00 -3.355083009E-02
  1.253877000E+00  3.531902810E-01
  4.951550000E-01  5.534199315E-01
  1.916650000E-01  2.301839106E-01
  6.708300000E-02  1.127267003E-02
   p   9
  2.000000000E+02  9.173000030E-04
  4.653336700E+01  7.377140024E-03
  1.462180900E+01  3.483515011E-02
  5.313064000E+00  1.144397004E-01
  2.102525000E+00  2.554966408E-01
  8.502230000E-01  3.722557412E-01
  3.375970000E-01  3.323314911E-01
  1.288920000E-01  1.400847905E-01
  4.511200000E-02  2.395784008E-02
 
[MO]
Sym=     1a  
Ene=   -20.9060
Spin= Alpha
Occup=    2.00000
   1         0.70693961
   2        -0.00047382
   3         0.00000000
   4        -0.00000000
   5         0.00153177
   6         0.70693962
   7        -0.00047382
   8         0.00000000
   9         0.00000000
  10        -0.00153177
Sym=     2a  
Ene=   -20.9050
Spin= Alpha
Occup=    2.00000
   1        -0.70740163
   2        -0.00155914
   3         0.00000000
   4        -0.00000000
   5        -0.00231039
   6         0.70740162
   7         0.00155914
   8         0.00000000
   9         0.00000000
  10        -0.00231039
Sym=     3a  
Ene=    -1.8609
Spin= Alpha
Occup=    2.00000
   1         0.03550631
   2        -0.49808009
   3        -0.00000000
   4         0.00000000
   5        -0.23024162
   6         0.03550631
   7        -0.49808009
   8         0.00000000
   9         0.00000000
  10         0.23024162
Sym=     4a  
Ene=    -1.1301
Spin= Alpha
Occup=    2.00000
   1        -0.01419867
   2        -0.74415950
   3         0.00000000
   4        -0.00000000
   5         0.19222057
   6         0.01419867
   7         0.74415950
   8        -0.00000000
   9        -0.00000000
  10         0.19222057
Sym=     5a  
Ene=    -0.8308
Spin= Alpha
Occup=    2.00000
   1        -0.00000000
   2        -0.00000000
   3        -0.32793581
   4        -0.53113542
   5         0.00000000
   6        -0.00000000
   7        -0.00000000
   8        -0.32793581
   9        -0.53113542
  10        -0.00000000
Sym=     6a  
Ene=    -0.8308
Spin= Alpha
Occup=    2.00000
   1        -0.00000000
   2        -0.00000000
   3         0.53113542
   4        -0.32793581
   5         0.00000000
   6        -0.00000000
   7        -0.00000000
   8         0.53113542
   9        -0.32793581
  10        -0.00000000
Sym=     7a  
Ene=    -0.7965
Spin= Alpha
Occup=    2.00000
   1         0.03204579
   2         0.40179849
   3         0.00000000
   4        -0.00000000
   5        -0.63575879
   6         0.03204579
   7         0.40179849
   8         0.00000000
   9        -0.00000000
  10         0.63575879
Sym=     8a  
Ene=    -0.2555
Spin= Alpha
Occup=    1.00000
   1         0.00000000
   2        -0.00000000
   3         0.70633505
   4        -0.44570024
   5         0.00000000
   6        -0.00000000
   7        -0.00000000
   8        -0.70633505
   9         0.44570024
  10         0.00000000
Sym=     9a  
Ene=    -0.0000
Spin= Alpha
Occup=    1.00000
   1         0.00000000
   2         0.00000000
   3        -0.44570024
   4        -0.70633505
   5        -0.00000000
   6        -0.00000000
   7         0.00000000
   8         0.44570024
   9         0.70633505
  10         0.00000000
Sym=    10a  
Ene=     0.6341
Spin= Alpha
Occup=    0.00000
   1         0.10146749
   2         0.84301320
   3        -0.00000000
   4         0.00000000
   5         1.00249525
   6        -0.10146749
   7        -0.84301320
   8        -0.00000000
   9        -0.00000000
  10         1.00249525
