[Molden Format]
[N_Atoms]
                     2
[Atoms] (AU)
O1          1      8           0.00000000      0.00000000      0.00000000
O2          2      8           0.00000000      0.00000000      2.07869874
[Charge] (Mulliken)
  0.000000000000000E+000
  0.000000000000000E+000
[GTO] (AU)
   1
   s  14
  1.053749500E+05  1.238600013E-04
  1.567924000E+04  5.120100053E-04
  3.534544700E+03  2.152910022E-03
  9.873651600E+02  8.528440089E-03
  3.159787500E+02  3.018049031E-02
  1.116542800E+02  9.099702095E-02
  4.269945100E+01  2.177936423E-01
  1.739559600E+01  3.686245738E-01
  7.438309000E+00  3.366707335E-01
  3.222862000E+00  9.657630101E-02
  1.253877000E+00  2.144520022E-03
  4.951550000E-01  1.194350012E-03
  1.916650000E-01  5.390200056E-04
  6.708300000E-02  2.103400022E-04
   s  14
  1.053749500E+05 -2.815000008E-05
  1.567924000E+04 -1.163000003E-04
  3.534544700E+03 -4.909200013E-04
  9.873651600E+02 -1.946160005E-03
  3.159787500E+02 -7.005300019E-03
  1.116542800E+02 -2.167814006E-02
  4.269945100E+01 -5.641213015E-02
  1.739559600E+01 -1.127053003E-01
  7.438309000E+00 -1.589119704E-01
  3.222862000E+00 -3.355083009E-02
  1.253877000E+00  3.531902810E-01
  4.951550000E-01  5.534199315E-01
  1.916650000E-01  2.301839106E-01
  6.708300000E-02  1.127267003E-02
   p   9
  2.000000000E+02  9.173000030E-04
  4.653336700E+01  7.377140024E-03
  1.462180900E+01  3.483515011E-02
  5.313064000E+00  1.144397004E-01
  2.102525000E+00  2.554966408E-01
  8.502230000E-01  3.722557412E-01
  3.375970000E-01  3.323314911E-01
  1.288920000E-01  1.400847905E-01
  4.511200000E-02  2.395784008E-02
 
   2
   s  14
  1.053749500E+05  1.238600013E-04
  1.567924000E+04  5.120100053E-04
  3.534544700E+03  2.152910022E-03
  9.873651600E+02  8.528440089E-03
  3.159787500E+02  3.018049031E-02
  1.116542800E+02  9.099702095E-02
  4.269945100E+01  2.177936423E-01
  1.739559600E+01  3.686245738E-01
  7.438309000E+00  3.366707335E-01
  3.222862000E+00  9.657630101E-02
  1.253877000E+00  2.144520022E-03
  4.951550000E-01  1.194350012E-03
  1.916650000E-01  5.390200056E-04
  6.708300000E-02  2.103400022E-04
   s  14
  1.053749500E+05 -2.815000008E-05
  1.567924000E+04 -1.163000003E-04
  3.534544700E+03 -4.909200013E-04
  9.873651600E+02 -1.946160005E-03
  3.159787500E+02 -7.005300019E-03
  1.116542800E+02 -2.167814006E-02
  4.269945100E+01 -5.641213015E-02
  1.739559600E+01 -1.127053003E-01
  7.438309000E+00 -1.589119704E-01
  3.222862000E+00 -3.355083009E-02
  1.253877000E+00  3.531902810E-01
  4.951550000E-01  5.534199315E-01
  1.916650000E-01  2.301839106E-01
  6.708300000E-02  1.127267003E-02
   p   9
  2.000000000E+02  9.173000030E-04
  4.653336700E+01  7.377140024E-03
  1.462180900E+01  3.483515011E-02
  5.313064000E+00  1.144397004E-01
  2.102525000E+00  2.554966408E-01
  8.502230000E-01  3.722557412E-01
  3.375970000E-01  3.323314911E-01
  1.288920000E-01  1.400847905E-01
  4.511200000E-02  2.395784008E-02
 
[MO]
Sym=     1a  
Ene=   -20.6940
Spin= Alpha
Occup=    2.00000
   1         0.70684331
   2         0.00177066
   3         0.00000000
   4         0.00000000
   5         0.00163919
   6         0.70684331
   7         0.00177066
   8         0.00000000
   9         0.00000000
  10        -0.00163919
Sym=     2a  
Ene=   -20.6850
Spin= Alpha
Occup=    2.00000
   1        -0.70700717
   2         0.00160520
   3        -0.00000000
   4         0.00000000
   5         0.00157173
   6         0.70700717
   7        -0.00160520
   8         0.00000000
   9        -0.00000000
  10         0.00157173
Sym=     3a  
Ene=    -1.8356
Spin= Alpha
Occup=    2.00000
   1        -0.03329049
   2         0.54948363
   3        -0.00000000
   4         0.00000000
   5         0.13884195
   6        -0.03329049
   7         0.54948363
   8         0.00000000
   9         0.00000000
  10        -0.13884195
Sym=     4a  
Ene=    -1.0459
Spin= Alpha
Occup=    2.00000
   1        -0.00164119
   2        -0.63872755
   3         0.00000000
   4        -0.00000000
   5         0.30996857
   6         0.00164119
   7         0.63872755
   8         0.00000000
   9        -0.00000000
  10         0.30996857
Sym=     5a  
Ene=    -0.8164
Spin= Alpha
Occup=    2.00000
   1         0.00000000
   2         0.00000000
   3         0.43256058
   4         0.45004231
   5        -0.00000000
   6         0.00000000
   7         0.00000000
   8         0.43256058
   9         0.45004231
  10         0.00000000
Sym=     6a  
Ene=    -0.8164
Spin= Alpha
Occup=    2.00000
   1         0.00000000
   2        -0.00000000
   3        -0.45004231
   4         0.43256058
   5         0.00000000
   6        -0.00000000
   7        -0.00000000
   8        -0.45004231
   9         0.43256058
  10         0.00000000
Sym=     7a  
Ene=    -0.6454
Spin= Alpha
Occup=    2.00000
   1         0.03627022
   2         0.32801011
   3        -0.00000000
   4        -0.00000000
   5        -0.66175752
   6         0.03627022
   7         0.32801011
   8        -0.00000000
   9         0.00000000
  10         0.66175752
Sym=     8a  
Ene=    -0.4560
Spin= Alpha
Occup=    1.00000
   1         0.00000000
   2         0.00000000
   3        -0.82014773
   4        -0.15784681
   5         0.00000000
   6        -0.00000000
   7        -0.00000000
   8         0.82014773
   9         0.15784681
  10         0.00000000
Sym=     9a  
Ene=    -0.4560
Spin= Alpha
Occup=    1.00000
   1         0.00000000
   2         0.00000000
   3         0.15784681
   4        -0.82014773
   5         0.00000000
   6        -0.00000000
   7        -0.00000000
   8        -0.15784681
   9         0.82014773
  10         0.00000000
Sym=    10a  
Ene=    -0.2300
Spin= Alpha
Occup=    0.00000
   1         0.10513078
   2         0.92545750
   3         0.00000000
   4         0.00000000
   5         0.97255737
   6        -0.10513078
   7        -0.92545750
   8        -0.00000000
   9        -0.00000000
  10         0.97255737
