[Molden Format]
[N_Atoms]
                     2
[Atoms] (AU)
O1          1      8           0.00000000      0.00000000      0.00000000
O2          2      8           0.00000000      0.00000000      2.07869874
[Charge] (Mulliken)
   1.00000000000026     
  0.999999999999714     
[GTO] (AU)
   1
   s  14
  1.053749500E+05  1.238600013E-04
  1.567924000E+04  5.120100053E-04
  3.534544700E+03  2.152910022E-03
  9.873651600E+02  8.528440089E-03
  3.159787500E+02  3.018049031E-02
  1.116542800E+02  9.099702095E-02
  4.269945100E+01  2.177936423E-01
  1.739559600E+01  3.686245738E-01
  7.438309000E+00  3.366707335E-01
  3.222862000E+00  9.657630101E-02
  1.253877000E+00  2.144520022E-03
  4.951550000E-01  1.194350012E-03
  1.916650000E-01  5.390200056E-04
  6.708300000E-02  2.103400022E-04
   s  14
  1.053749500E+05 -2.815000008E-05
  1.567924000E+04 -1.163000003E-04
  3.534544700E+03 -4.909200013E-04
  9.873651600E+02 -1.946160005E-03
  3.159787500E+02 -7.005300019E-03
  1.116542800E+02 -2.167814006E-02
  4.269945100E+01 -5.641213015E-02
  1.739559600E+01 -1.127053003E-01
  7.438309000E+00 -1.589119704E-01
  3.222862000E+00 -3.355083009E-02
  1.253877000E+00  3.531902810E-01
  4.951550000E-01  5.534199315E-01
  1.916650000E-01  2.301839106E-01
  6.708300000E-02  1.127267003E-02
   p   9
  2.000000000E+02  9.173000030E-04
  4.653336700E+01  7.377140024E-03
  1.462180900E+01  3.483515011E-02
  5.313064000E+00  1.144397004E-01
  2.102525000E+00  2.554966408E-01
  8.502230000E-01  3.722557412E-01
  3.375970000E-01  3.323314911E-01
  1.288920000E-01  1.400847905E-01
  4.511200000E-02  2.395784008E-02
 
   2
   s  14
  1.053749500E+05  1.238600013E-04
  1.567924000E+04  5.120100053E-04
  3.534544700E+03  2.152910022E-03
  9.873651600E+02  8.528440089E-03
  3.159787500E+02  3.018049031E-02
  1.116542800E+02  9.099702095E-02
  4.269945100E+01  2.177936423E-01
  1.739559600E+01  3.686245738E-01
  7.438309000E+00  3.366707335E-01
  3.222862000E+00  9.657630101E-02
  1.253877000E+00  2.144520022E-03
  4.951550000E-01  1.194350012E-03
  1.916650000E-01  5.390200056E-04
  6.708300000E-02  2.103400022E-04
   s  14
  1.053749500E+05 -2.815000008E-05
  1.567924000E+04 -1.163000003E-04
  3.534544700E+03 -4.909200013E-04
  9.873651600E+02 -1.946160005E-03
  3.159787500E+02 -7.005300019E-03
  1.116542800E+02 -2.167814006E-02
  4.269945100E+01 -5.641213015E-02
  1.739559600E+01 -1.127053003E-01
  7.438309000E+00 -1.589119704E-01
  3.222862000E+00 -3.355083009E-02
  1.253877000E+00  3.531902810E-01
  4.951550000E-01  5.534199315E-01
  1.916650000E-01  2.301839106E-01
  6.708300000E-02  1.127267003E-02
   p   9
  2.000000000E+02  9.173000030E-04
  4.653336700E+01  7.377140024E-03
  1.462180900E+01  3.483515011E-02
  5.313064000E+00  1.144397004E-01
  2.102525000E+00  2.554966408E-01
  8.502230000E-01  3.722557412E-01
  3.375970000E-01  3.323314911E-01
  1.288920000E-01  1.400847905E-01
  4.511200000E-02  2.395784008E-02
 
[MO]
Sym=     1a  
Ene=   -22.5010
Spin= Alpha
Occup=    2.00000
   1         0.70697147
   2        -0.00172455
   3         0.00000000
   4        -0.00000000
   5         0.00171029
   6         0.70697147
   7        -0.00172455
   8         0.00000000
   9        -0.00000000
  10        -0.00171029
Sym=     2a  
Ene=   -22.4960
Spin= Alpha
Occup=    2.00000
   1        -0.70691484
   2         0.01095790
   3        -0.00000000
   4         0.00000000
   5        -0.00308907
   6         0.70691484
   7        -0.01095790
   8         0.00000000
   9         0.00000000
  10        -0.00308907
Sym=     3a  
Ene=    -3.0709
Spin= Alpha
Occup=    2.00000
   1         0.03607471
   2        -0.47422185
   3        -0.00000000
   4         0.00000000
   5        -0.26631673
   6         0.03607471
   7        -0.47422185
   8         0.00000000
   9         0.00000000
  10         0.26631673
Sym=     4a  
Ene=    -1.9110
Spin= Alpha
Occup=    2.00000
   1         0.03067911
   2         0.42969371
   3         0.00000000
   4         0.00000000
   5        -0.62151047
   6         0.03067911
   7         0.42969371
   8        -0.00000000
   9         0.00000000
  10         0.62151047
Sym=     5a  
Ene=    -1.8763
Spin= Alpha
Occup=    2.00000
   1        -0.00000000
   2        -0.00000000
   3         0.33311045
   4         0.52790545
   5         0.00000000
   6        -0.00000000
   7        -0.00000000
   8         0.33311045
   9         0.52790545
  10        -0.00000000
Sym=     6a  
Ene=    -1.8757
Spin= Alpha
Occup=    2.00000
   1         0.00000000
   2         0.00000000
   3         0.52790545
   4        -0.33311045
   5        -0.00000000
   6         0.00000000
   7         0.00000000
   8         0.52790545
   9        -0.33311045
  10         0.00000000
Sym=     7a  
Ene=    -2.2318
Spin= Alpha
Occup=    1.98696
   1        -0.03198409
   2        -0.80408139
   3         0.00000000
   4        -0.00000000
   5         0.11792344
   6         0.03198409
   7         0.80408139
   8         0.00000000
   9        -0.00000000
  10         0.11792344
Sym=     8a  
Ene=     0.0000
Spin= Alpha
Occup=    0.01304
   1         0.00000000
   2         0.00000000
   3        -0.44570024
   4        -0.70633505
   5        -0.00000000
   6        -0.00000000
   7         0.00000000
   8         0.44570024
   9         0.70633505
  10         0.00000000
Sym=     9a  
Ene=    -1.1617
Spin= Alpha
Occup=    0.00000
   1         0.00000000
   2         0.00000000
   3        -0.70633505
   4         0.44570024
   5        -0.00000000
   6         0.00000000
   7         0.00000000
   8         0.70633505
   9        -0.44570024
  10         0.00000000
Sym=    10a  
Ene=    -0.6262
Spin= Alpha
Occup=    0.00000
   1         0.10081038
   2         0.78598988
   3        -0.00000000
   4        -0.00000000
   5         1.01392077
   6        -0.10081038
   7        -0.78598988
   8        -0.00000000
   9        -0.00000000
  10         1.01392077
