   This run of MOLCAS is using the pymolcas driver

                             OPE
                             OPE          NMOL  CASOP  ENMOLC A   SO
                 OPE        NMOLC        AS  OP EN  MO LC     AS  OP
                OPENM       OL CA        SO  PE NM  OL CA     SOP EN
                OP EN      MO   LC       AS  OP ENMOL  CASO   PENMOL
                OP  EN     MO   LC       AS  OP EN     MO     LC ASO
               OP   E  NMOL  C  AS       OP  EN MO     LC     AS  OP
               OP  E   NMO   LC AS        OPEN  MO     LCASOP EN   M
               O  PEN   MO  LCA  SO
            OPE   NMO   L   CAS    OP
        OPENMOL  CASOP     ENMOL   CASOPE
     OPENMOLCA   SOPENMOLCASOPEN   MOLCASOPE
    OPENMOLCAS   OP           EN   MOL    CAS
    OPENMOLCAS       OP  ENM        O     LCA
    OPENMOLCAS    OPEN  MOLCASO     P  E  NMO
    OPENMOLCAS     OP               E  N  MOL
    OPENMOLCA   SO           PENM   O  L  CAS    OPEN    MO    LCAS
    OPENMOLCA   SOP           ENM   O  L  CAS   OP  EN  MOLC  AS   O
    OPENMOLCA   SOPE           NM      O  LCA   S      OP  EN MO
    OPENMOLC                AS         O  PEN   M      OL  CA  SOPE
    OPENMO        LCASOPE  NMOL        C  ASO   P      ENMOLC     AS
    OPE     NMO      LCA  SO     P     E   NM   OL  CA SO  PE N   MO
          OPENMOLCA            SOPE   NMO        LCAS  O    P  ENMO
     OPENMOLCASOPENMOLCASOPENMOLCASOPENMOLCA
        OPENMOLCASOPENMOLCASOPENMOLCASOPE
            OPENMOLCASOPENMOLCASOPENM
               OPENMOLCASOPENMOLCA        version: ea724fe96-dirty
                   OPENMOLCASO
                       OPE                tag:

 OpenMolcas is free software; you can redistribute it and/or modify it
 under the terms of the GNU Lesser General Public License version 2.1.
 OpenMolcas is distributed in the hope that it will be useful, but it
 is provided "as is" and without any express or implied warranties.
 For more details see the full text of the license in the file
 LICENSE or in <http://www.gnu.org/licenses/>.

                 Copyright (C) The OpenMolcas Authors
           For the author list and the recommended citation,
                   consult the file CONTRIBUTORS.md

           *************************************************
           * pymolcas version py2.28                       *
           *   build c4a6d18ded8cb6cad61d2372a9abd97c      *
           *   (after the EMIL interpreter by V. Veryazov) *
           *************************************************

configuration info
------------------
C Compiler ID: Intel
C flags: -std=gnu99
Fortran Compiler ID: Intel
Fortran flags: -fpp -i8 -r8 -heap-arrays
Definitions: _MOLCAS_;_I8_;_LINUX_
Parallel: OFF (GA=OFF)


   --------------------------------------------------------------------------------
  |
  |              Project: ozone_164.00
  |       Submitted from: /home/grierjones/DDCASPT2/ozone/ANO-RCC-VTZP/ozone_164.00
  |         Scratch area: /tmp/ozone_164.00
  |      Save outputs to: /home/grierjones/DDCASPT2/ozone/ANO-RCC-VTZP/ozone_164.00
  |               Molcas: /home/grierjones/Test/build
  |
  | Scratch area is empty
  |
  |       MOLCAS_DRIVER = /usr/local/pymolcas
  | MOLCAS_KEEP_WORKDIR = NO
  |  MOLCAS_NEW_WORKDIR = YES
  |       MOLCAS_NPROCS = 1
  |        MOLCAS_PRINT = NORMAL
  |       MOLCAS_SOURCE = /home/grierjones/Test/build
  |    MOLCAS_STRUCTURE = 0
  |
   --------------------------------------------------------------------------------

++ ---------   Input file   ---------

&GATEWAY
coord=ozone_164.00.xyz
Basis = ANO-RCC-VTZP
Group = nosymm
Expert
End of Input

&SEWARD
End of Input

&SCF

>>> COPY $WorkDir/ozone_164.00.scf.h5 $CurrDir/

&RASSCF
Title= RASSCF
FileOrb
/home/grierjones/DDCASPT2/ozone/ANO-RCC-VTZP/ozone_163.50/ozone_163.50.RasOrb
NACTEL
4 0 0
Inactive
10
RAS2
3
Symmetry
1
Spin
1
orblisting
all
ITERation
300 200

>>> COPY $WorkDir/ozone_164.00.rasscf.h5 $CurrDir/

>>> COPY $WorkDir/GMJ_Fock_MO.csv $CurrDir/ozone_164.00.GMJ_Fock_MO.csv

>>> COPY $WorkDir/GMJ_PT2_Fock_MO.csv $CurrDir/ozone_164.00.GMJ_PT2_Fock_MO.csv

&MOTRA
Frozen=0
LUMORB

>>> COPY $WorkDir/GMJ_one_int_indx.csv $CurrDir/ozone_164.00.GMJ_one_int_indx.csv

>>> COPY $WorkDir/GMJ_one_int.csv $CurrDir/ozone_164.00.GMJ_one_int.csv

>>> COPY $WorkDir/GMJ_two_int_indx.csv $CurrDir/ozone_164.00.GMJ_two_int_indx.csv

>>> COPY $WorkDir/GMJ_two_int.csv $CurrDir/ozone_164.00.GMJ_two_int.csv

&CASPT2
Frozen
0
MAXITER
50

>>> FOREACH i IN (B,E,F,G,H)

  >>> FOREACH j IN (P,M)

    >>> IF (-FILE GMJ_e2_${i}_${j}.csv)

      >>> COPY $WorkDir/GMJ_RHS_${i}_${j}.csv $CurrDir/GMJ_RHS_${i}_${j}.csv

      >>> COPY $WorkDir/GMJ_IVECW_${i}_${j}.csv $CurrDir/GMJ_IVECW_${i}_${j}.csv

      >>> COPY $WorkDir/GMJ_IVECX_${i}_${j}.csv $CurrDir/GMJ_IVECX_${i}_${j}.csv

      >>> COPY $WorkDir/GMJ_IVECC2_${i}_${j}.csv $CurrDir/GMJ_IVECC2_${i}_${j}.csv

      >>> COPY $WorkDir/GMJ_e2_${i}_${j}.csv $CurrDir/GMJ_e2_${i}_${j}.csv

    >>> END IF

  >>> END FOREACH

>>> END FOREACH

>>> FOREACH i IN (A,C,D)

  >>> IF (-FILE GMJ_e2_$i.csv)

    >>> COPY $WorkDir/GMJ_RHS_$i.csv $CurrDir/GMJ_RHS_$i.csv

    >>> COPY $WorkDir/GMJ_IVECW_$i.csv $CurrDir/GMJ_IVECW_$i.csv

    >>> COPY $WorkDir/GMJ_IVECX_$i.csv $CurrDir/GMJ_IVECX_$i.csv

    >>> COPY $WorkDir/GMJ_IVECC2_$i.csv $CurrDir/GMJ_IVECC2_$i.csv

    >>> COPY $WorkDir/GMJ_e2_$i.csv $CurrDir/GMJ_e2_$i.csv

  >>> END IF

>>> END FOREACH

-- ----------------------------------

--- Start Module: gateway at Wed Nov 20 09:29:45 2024 ---
 
()()()()()()()()()()()()()()()()()()()()()()()()()()()()()()()()()()()()()()()()()()()()()()()()()()

                                              &GATEWAY

                                   only a single process is used
                       available to each process: 2.0 GB of memory, 1 thread?
()()()()()()()()()()()()()()()()()()()()()()()()()()()()()()()()()()()()()()()()()()()()()()()()()()
 
 ###############################################################################
 ###############################################################################
 ###                                                                         ###
 ###                                                                         ###
 ###                                                                         ###
 ###    WARNING: EXPERT option is ON!                                        ###
 ###                                                                         ###
 ###                                                                         ###
 ###############################################################################
 ###############################################################################
 
++    Symmetry information:
      ---------------------
 
                    Character Table for C1 
 
                             E  
                    a        1  x, y, xy, Rz, z, xz, Ry, yz, Rx, I
--
 
 
++    Basis set information:
      ----------------------
 
 
      Basis set label: O.ANO-RCC...4S3P2D1F.
 
      Electronic valence basis set:
      ------------------
      Associated Effective Charge   8.000000 au
      Associated Actual Charge      8.000000 au
      Nuclear Model: Point charge
 
      Shell  nPrim  nBasis  Cartesian Spherical Contaminant
         s      14       4        X                  
         p       9       3        X                  
         d       4       2                 X         
         f       3       1                 X         
--
 
 
++    Molecular structure info:
      -------------------------
 
                    ************************************************ 
                    **** Cartesian Coordinates / Bohr, Angstrom **** 
                    ************************************************ 
 
     Center  Label                x              y              z                     x              y              z
        1      O1               0.336112       2.391567       0.000000              0.177863       1.265563       0.000000
        2      O2               0.000000       0.000000       0.000000              0.000000       0.000000       0.000000
        3      O3               0.336112      -2.391567       0.000000              0.177863      -1.265563       0.000000
 
                    *************************************** 
                    *    InterNuclear Distances / Bohr    * 
                    *************************************** 
 
               1 O1            2 O2            3 O3    
    1 O1       0.000000
    2 O2       2.415071        0.000000
    3 O3       4.783135        2.415071        0.000000
 
                    ******************************************* 
                    *    InterNuclear Distances / Angstrom    * 
                    ******************************************* 
 
               1 O1            2 O2            3 O3    
    1 O1       0.000000
    2 O2       1.278000        0.000000
    3 O3       2.531126        1.278000        0.000000
 
                    ************************************** 
                    *    Valence Bond Angles / Degree    * 
                    ************************************** 
                          Atom centers                 Phi
                      1 O1       2 O2       3 O3       164.00
--
 
 
            Nuclear Potential Energy             66.38086486 au
 
 ###############################################################################
 ###############################################################################
 ###                                                                         ###
 ###                                                                         ###
 ###    There were warnings during the execution                             ###
 ###    Please, check the output with care!                                  ###
 ###                                                                         ###
 ###                                                                         ###
 ###############################################################################
 ###############################################################################
--- Stop Module: gateway at Wed Nov 20 09:29:46 2024 /rc=_RC_ALL_IS_WELL_ ---
*** files: xmldump
    saved to directory /home/grierjones/DDCASPT2/ozone/ANO-RCC-VTZP/ozone_164.00

--- Start Module: seward at Wed Nov 20 09:29:46 2024 ---
 
()()()()()()()()()()()()()()()()()()()()()()()()()()()()()()()()()()()()()()()()()()()()()()()()()()

                                              &SEWARD

                                   only a single process is used
                       available to each process: 2.0 GB of memory, 1 thread?
()()()()()()()()()()()()()()()()()()()()()()()()()()()()()()()()()()()()()()()()()()()()()()()()()()
 
 ###############################################################################
 ###############################################################################
 ###                                                                         ###
 ###                                                                         ###
 ###                                                                         ###
 ###    WARNING: EXPERT option is ON!                                        ###
 ###                                                                         ###
 ###                                                                         ###
 ###############################################################################
 ###############################################################################
               SEWARD will generate:
                  Multipole Moment integrals up to order  2
                  Kinetic Energy integrals
                  Nuclear Attraction integrals (point charge)
                  One-Electron Hamiltonian integrals
                  Velocity integrals
                  Relativistic Douglas-Kroll-Hess integrals:
                    - Parametrization         : EXP
                    - DKH order of Hamiltonian: 2
                    - DKH order of Properties : 0
                         - multipole moment operators
                         - electric potential operators
                         - contact operators
                  Atomic mean-field integrals
                  Two-Electron Repulsion integrals
 
                   Integrals are discarded if absolute value <: 0.10E-13
                   Integral cutoff threshold is set to       <: 0.10E-15
 
            Nuclear Potential Energy             66.38086486 au
 
 
      Basis set specifications :
      Symmetry species         a  
      Basis functions           90
 
 
  Input file to MOLDEN was generated!
 
 ###############################################################################
 ###############################################################################
 ###                                                                         ###
 ###                                                                         ###
 ###    There were warnings during the execution                             ###
 ###    Please, check the output with care!                                  ###
 ###                                                                         ###
 ###                                                                         ###
 ###############################################################################
 ###############################################################################
--- Stop Module: seward at Wed Nov 20 09:29:48 2024 /rc=_RC_ALL_IS_WELL_ ---
*** files: ozone_164.00.GssOrb ozone_164.00.guessorb.h5 ozone_164.00.guessorb.molden xmldump
    saved to directory /home/grierjones/DDCASPT2/ozone/ANO-RCC-VTZP/ozone_164.00
--- Module seward spent 2 seconds ---

*** symbolic link created: INPORB -> ozone_164.00.GssOrb
--- Start Module: scf at Wed Nov 20 09:29:48 2024 ---
 
()()()()()()()()()()()()()()()()()()()()()()()()()()()()()()()()()()()()()()()()()()()()()()()()()()

                                                &SCF

                                   only a single process is used
                       available to each process: 2.0 GB of memory, 1 thread?
()()()()()()()()()()()()()()()()()()()()()()()()()()()()()()()()()()()()()()()()()()()()()()()()()()
 
++    Input section:
      --------------
 
      Header of the integral files:
      
       Integrals generated by seward 4.2.0  , Wed Nov 20 09:29:46 2024
 
 
      Cartesian coordinates in Angstrom:
      -----------------------------------------------------
      No.  Label        X            Y            Z        
      -----------------------------------------------------
       1   O1         0.17786300   1.26556300   0.00000000
       2   O2         0.00000000   0.00000000   0.00000000
       3   O3         0.17786300  -1.26556300   0.00000000
      -----------------------------------------------------
      Nuclear repulsion energy =   66.38086486
--
 
++    Orbital specifications:
      -----------------------
 
      Symmetry species               1
                                     a
      Frozen orbitals                0
      Aufbau                        12
      Start temperature = 0.500
      End temperature   = 0.010
      Temperature Factor= 0.460
      Deleted orbitals               0
      Total number of orbitals      90
      Number of basis functions     90
--
 
      Molecular charge                           0.000
 
++    Optimization specifications:
      ----------------------------
 
      SCF Algorithm: Conventional
      Minimized density differences are used
      Number of density matrices in core                5
      Maximum number of NDDO SCF iterations           400
      Maximum number of HF SCF iterations             400
      Threshold for SCF energy change            0.10E-08
      Threshold for density matrix               0.10E-03
      Threshold for Fock matrix                  0.15E-03
      Threshold for linear dependence            0.10E-08
      Threshold at which DIIS is turned on       0.15E+00
      Threshold at which QNR/C2DIIS is turned on 0.75E-01
      Threshold for Norm(delta) (QNR/C2DIIS)     0.20E-04
      DIIS extrapolation of the SCF procedure
      All orbitals punched on: SCFORB
--
 
      Input vectors read from INPORB
      Orbital file label: *Guess orbitals
 
 
++ Convergence information
                                   SCF        iterations: Energy and convergence statistics
 
Iter     Tot. SCF        One-elec.       Two-elec.     Energy      Max Dij or  Max Fij      DNorm      TNorm      AccCon     Time
         Energy          Energy          Energy        Change      Delta Norm                                                in Sec.
   1  -221.442182827  -440.305731681   152.482683993   0.00E+00    0.10E+00*   0.24E+01*    0.77E+01   0.11E+03   None         0.
   2  -221.902815890  -429.875826089   141.592145337  -0.46E+00*   0.12E+00*   0.11E+00*    0.80E+01   0.11E+03   EDIIS        0.
   3  -223.742901342  -444.396288645   154.272522442  -0.18E+01*   0.15E+00*   0.28E+00*    0.40E+01   0.11E+03   EDIIS        0.
   4  -224.114526226  -437.856735503   147.361344415  -0.37E+00*   0.21E+00*   0.16E+00*    0.19E+01   0.11E+03   EDIIS        0.
   5  -224.241345076  -441.761456940   151.139247002  -0.13E+00*   0.36E+00*   0.18E+00*    0.18E+01   0.11E+03   EDIIS        0.
   6  -224.331923398  -439.459488911   148.746700651  -0.91E-01*   0.19E+00*   0.16E+00*    0.10E+01   0.11E+03   EDIIS        0.
   7  -224.387647705  -440.938902854   150.170390287  -0.56E-01*   0.10E+00*   0.89E-01*    0.29E+00   0.11E+03   EDIIS        0.
   8  -224.417178275  -440.328603498   149.530560361  -0.30E-01*   0.63E-01*   0.13E+00*    0.12E+00   0.11E+03   EDIIS        0.
   9  -224.417788386  -440.630992735   149.832339487  -0.61E-03*   0.18E-01*   0.24E-01*    0.33E-01   0.11E+03   EDIIS        0.
 
       Fermi aufbau procedure completed!
      nOcc=   12
 
  10  -224.421722918  -440.468510026   149.665922246  -0.39E-02*   0.10E-01*   0.39E-02*    0.73E-02   0.11E+03   EDIIS        0.
  11  -224.421851910  -440.493980371   149.691263599  -0.13E-03*   0.10E-01*   0.38E-02*    0.34E-02   0.11E+03   EDIIS        0.
  12  -224.421911888  -440.472488118   149.669711368  -0.60E-04*   0.57E-02*   0.23E-02*    0.12E-02   0.11E+03   EDIIS        0.
  13  -224.421941670  -440.494117569   149.691311038  -0.30E-04*   0.74E-02*   0.27E-02*    0.58E-03   0.11E+03   EDIIS        0.
  14  -224.421957118  -440.473859707   149.671037727  -0.15E-04*   0.32E-02*   0.91E-03*    0.33E-03   0.11E+03   c2DIIS       0.
  15  -224.421978337  -440.483993256   149.681150057  -0.21E-04*   0.15E-02*   0.74E-03*    0.42E-04   0.11E+03   QNRc2DIIS    0.
  16  -224.421983969  -440.484405485   149.681556654  -0.56E-05*   0.40E-02*   0.54E-03*    0.17E-04   0.11E+03   QNRc2DIIS    0.
  17  -224.421990170  -440.484231150   149.681376119  -0.62E-05*   0.27E-03*   0.16E-03*    0.82E-03   0.11E+03   QNRc2DIIS    0.
  18  -224.421990211  -440.485426791   149.682571719  -0.41E-07*   0.18E-03*   0.95E-04     0.11E-02   0.11E+03   QNRc2DIIS    0.
  19  -224.421990286  -440.484903693   149.682048545  -0.75E-07*   0.17E-04    0.34E-05     0.39E-02   0.11E+03   QNRc2DIIS    0.
  20  -224.421990287  -440.484897991   149.682042843  -0.24E-09    0.32E-05    0.83E-06     0.17E-02   0.11E+03   QNRc2DIIS    0.
 
       Convergence after 20 Macro Iterations
--
 
 *****************************************************************************************************************************
 *                                                                                                                           *
 *                                             SCF/KS-DFT Program, Final results                                             *
 *                                                                                                                           *
 *                                                                                                                           *
 *                                                                                                                           *
 *                                                       Final Results                                                       *
 *                                                                                                                           *
 *****************************************************************************************************************************
 
::    Total SCF energy                               -224.4219902865
      One-electron energy                            -440.4848979914
      Two-electron energy                             149.6820428433
      Nuclear repulsion energy                         66.3808648616
      Kinetic energy (interpolated)                   225.2430837157
      Virial theorem                                    0.9963546342
      Total spin, S(S+1)                                0.0000000000
      Total spin, S                                     0.0000000000
      Max non-diagonal density matrix element           0.0000037324
      Max non-diagonal Fock matrix element              0.0000007922
 
 
      All orbitals with orbital energies smaller than  E(LUMO)+0.5 are printed
 
++    Molecular orbitals:
      -------------------
 
      Title: SCF orbitals

      Molecular orbitals for symmetry species 1: a  
 
          Orbital            1         2         3         4         5         6         7         8         9        10    
          Energy          -20.8696  -20.7405  -20.7405   -1.7054   -1.4637   -1.0607   -0.8351   -0.7877   -0.7530   -0.6129
          Occ. No.          2.0000    2.0000    2.0000    2.0000    2.0000    2.0000    2.0000    2.0000    2.0000    2.0000
 
        1 O1     1s         0.0024   -0.7062    0.7062   -0.0127    0.0125    0.0144   -0.0038   -0.0251    0.0000    0.0058
        2 O1     2s         0.0010    0.0060   -0.0059    0.3468   -0.5582    0.6530   -0.0827   -0.4447    0.0000    0.0687
        3 O1     3s         0.0005    0.0043   -0.0040   -0.0094    0.0215    0.0234   -0.0051   -0.0544    0.0000    0.0118
        4 O1     4s         0.0001    0.0009   -0.0008   -0.0003    0.0040    0.0041   -0.0011   -0.0114    0.0000    0.0026
        5 O1     2px       -0.0001   -0.0004    0.0004   -0.0132    0.0198    0.0414    0.3340   -0.1540    0.0000   -0.6812
        6 O1     3px       -0.0003   -0.0004    0.0003    0.0062   -0.0031   -0.0074   -0.0243    0.0122   -0.0000    0.0079
        7 O1     4px       -0.0002    0.0001   -0.0002    0.0014    0.0005    0.0002   -0.0006    0.0003   -0.0000    0.0054
        8 O1     2py       -0.0008   -0.0026    0.0030   -0.1151    0.0875    0.1734   -0.1101   -0.3852    0.0000    0.1569
        9 O1     3py       -0.0003   -0.0026    0.0029    0.0119   -0.0199   -0.0280    0.0093    0.0478   -0.0000   -0.0043
       10 O1     4py        0.0001    0.0017   -0.0016    0.0010   -0.0033    0.0007    0.0019    0.0040   -0.0000   -0.0015
       11 O1     2pz       -0.0000   -0.0000   -0.0000   -0.0000    0.0000    0.0000   -0.0000    0.0000    0.4222    0.0000
       12 O1     3pz        0.0000    0.0000    0.0000   -0.0000    0.0000    0.0000    0.0000   -0.0000   -0.0148   -0.0000
       13 O1     4pz       -0.0000   -0.0000   -0.0000   -0.0000    0.0000   -0.0000    0.0000   -0.0000   -0.0067   -0.0000
       14 O1     3d2-      -0.0000    0.0003   -0.0003    0.0040   -0.0042   -0.0045   -0.0199    0.0087   -0.0000    0.0122
       15 O1     4d2-      -0.0000    0.0002   -0.0002    0.0001   -0.0004   -0.0001   -0.0017    0.0003   -0.0000    0.0010
       16 O1     3d1-      -0.0000   -0.0000   -0.0000   -0.0000   -0.0000   -0.0000    0.0000   -0.0000   -0.0319   -0.0000
       17 O1     4d1-      -0.0000    0.0000   -0.0000   -0.0000   -0.0000    0.0000    0.0000   -0.0000   -0.0056   -0.0000
       18 O1     3d0       -0.0001   -0.0006    0.0006   -0.0102    0.0084    0.0071   -0.0040   -0.0151   -0.0000    0.0042
       19 O1     4d0       -0.0000   -0.0004    0.0005   -0.0010    0.0006    0.0004   -0.0007   -0.0009   -0.0000    0.0007
       20 O1     3d1+      -0.0000    0.0000    0.0000   -0.0000    0.0000    0.0000    0.0000   -0.0000   -0.0036    0.0000
       21 O1     4d1+       0.0000   -0.0000    0.0000    0.0000   -0.0000   -0.0000   -0.0000    0.0000   -0.0006    0.0000
       22 O1     3d2+      -0.0002   -0.0012    0.0014   -0.0199    0.0147    0.0158   -0.0112   -0.0277   -0.0000    0.0097
       23 O1     4d2+      -0.0001   -0.0006    0.0007   -0.0028    0.0017    0.0016   -0.0012   -0.0020   -0.0000    0.0012
       24 O1     4f3-       0.0001    0.0002   -0.0002    0.0055   -0.0050   -0.0029    0.0034    0.0063   -0.0000   -0.0031
       25 O1     4f2-      -0.0000   -0.0000   -0.0000   -0.0000    0.0000   -0.0000    0.0000    0.0000    0.0013    0.0000
       26 O1     4f1-       0.0000    0.0002   -0.0002    0.0034   -0.0030   -0.0020    0.0011    0.0040   -0.0000   -0.0010
       27 O1     4f0       -0.0000   -0.0000   -0.0000   -0.0000   -0.0000   -0.0000   -0.0000   -0.0000   -0.0037   -0.0000
       28 O1     4f1+      -0.0000    0.0000   -0.0000    0.0004   -0.0003   -0.0003   -0.0005    0.0003    0.0000   -0.0006
       29 O1     4f2+      -0.0000   -0.0000    0.0000    0.0000   -0.0000   -0.0000    0.0000   -0.0000   -0.0070   -0.0000
       30 O1     4f3+      -0.0000    0.0001   -0.0001    0.0020   -0.0018   -0.0016   -0.0067    0.0031   -0.0000    0.0054
       31 O2     1s         0.9997    0.0000   -0.0014   -0.0284    0.0000   -0.0151   -0.0027   -0.0000   -0.0000    0.0000
       32 O2     2s        -0.0020   -0.0000    0.0122    0.6237    0.0000   -0.6306   -0.0277   -0.0000   -0.0000    0.0000
       33 O2     3s        -0.0019   -0.0000    0.0069   -0.0674    0.0000   -0.0228   -0.0037   -0.0000   -0.0000    0.0000
       34 O2     4s        -0.0003   -0.0000    0.0011   -0.0126    0.0000   -0.0043   -0.0021   -0.0000   -0.0000    0.0000
       35 O2     2px        0.0004   -0.0000    0.0012    0.0370    0.0000    0.0806    0.7306   -0.0000    0.0000   -0.0000
       36 O2     3px       -0.0002   -0.0000    0.0008   -0.0166    0.0000   -0.0096   -0.0770   -0.0000   -0.0000   -0.0000
       37 O2     4px        0.0009    0.0000   -0.0002   -0.0034   -0.0000    0.0014   -0.0107    0.0000    0.0000   -0.0000
       38 O2     2py        0.0000   -0.0074   -0.0000    0.0000   -0.3378   -0.0000   -0.0000    0.5610   -0.0000   -0.1070
       39 O2     3py        0.0000   -0.0051   -0.0000   -0.0000    0.0643   -0.0000   -0.0000   -0.0510   -0.0000   -0.0034
       40 O2     4py       -0.0000    0.0013    0.0000   -0.0000   -0.0003   -0.0000    0.0000   -0.0118   -0.0000    0.0013
       41 O2     2pz       -0.0000   -0.0000   -0.0000   -0.0000   -0.0000   -0.0000   -0.0000    0.0000    0.6296   -0.0000
       42 O2     3pz        0.0000   -0.0000   -0.0000    0.0000   -0.0000   -0.0000    0.0000   -0.0000   -0.0406    0.0000
       43 O2     4pz        0.0000   -0.0000   -0.0000    0.0000   -0.0000   -0.0000   -0.0000   -0.0000   -0.0189    0.0000
       44 O2     3d2-       0.0000   -0.0006   -0.0000    0.0000   -0.0164    0.0000   -0.0000    0.0113   -0.0000   -0.0420
       45 O2     4d2-       0.0000   -0.0003   -0.0000   -0.0000   -0.0018    0.0000   -0.0000    0.0011   -0.0000   -0.0066
       46 O2     3d1-      -0.0000    0.0000   -0.0000   -0.0000    0.0000    0.0000   -0.0000    0.0000   -0.0000    0.0000
       47 O2     4d1-      -0.0000    0.0000   -0.0000   -0.0000   -0.0000    0.0000   -0.0000    0.0000   -0.0000    0.0000
       48 O2     3d0       -0.0001    0.0000   -0.0011   -0.0146   -0.0000   -0.0001   -0.0084    0.0000    0.0000    0.0000
       49 O2     4d0        0.0003    0.0000   -0.0006    0.0005   -0.0000    0.0008   -0.0010    0.0000    0.0000   -0.0000
       50 O2     3d1+      -0.0000    0.0000    0.0000    0.0000   -0.0000   -0.0000   -0.0000    0.0000    0.0135   -0.0000
       51 O2     4d1+      -0.0000    0.0000    0.0000    0.0000   -0.0000   -0.0000    0.0000   -0.0000    0.0022   -0.0000
       52 O2     3d2+       0.0005    0.0000   -0.0019   -0.0248   -0.0000   -0.0043    0.0072    0.0000    0.0000   -0.0000
       53 O2     4d2+       0.0002    0.0000   -0.0010   -0.0011   -0.0000   -0.0000    0.0000    0.0000    0.0000   -0.0000
       54 O2     4f3-      -0.0000    0.0002    0.0000   -0.0000    0.0099    0.0000    0.0000   -0.0093    0.0000   -0.0030
       55 O2     4f2-      -0.0000   -0.0000   -0.0000   -0.0000   -0.0000    0.0000   -0.0000    0.0000   -0.0000    0.0000
       56 O2     4f1-      -0.0000    0.0001    0.0000    0.0000    0.0054    0.0000    0.0000   -0.0047    0.0000    0.0008
       57 O2     4f0        0.0000    0.0000   -0.0000    0.0000   -0.0000   -0.0000    0.0000   -0.0000   -0.0053    0.0000
       58 O2     4f1+       0.0000    0.0000   -0.0000   -0.0009   -0.0000    0.0002    0.0002    0.0000    0.0000   -0.0000
       59 O2     4f2+      -0.0000    0.0000   -0.0000   -0.0000   -0.0000    0.0000    0.0000   -0.0000   -0.0114    0.0000
       60 O2     4f3+       0.0001    0.0000   -0.0001   -0.0050   -0.0000   -0.0006   -0.0119    0.0000   -0.0000    0.0000
       61 O3     1s         0.0024    0.7062    0.7062   -0.0127   -0.0125    0.0144   -0.0038    0.0251   -0.0000   -0.0058
       62 O3     2s         0.0010   -0.0060   -0.0059    0.3468    0.5582    0.6530   -0.0827    0.4447   -0.0000   -0.0687
       63 O3     3s         0.0005   -0.0043   -0.0040   -0.0094   -0.0215    0.0234   -0.0051    0.0544   -0.0000   -0.0118
       64 O3     4s         0.0001   -0.0009   -0.0008   -0.0003   -0.0040    0.0041   -0.0011    0.0114   -0.0000   -0.0026
       65 O3     2px       -0.0001    0.0004    0.0004   -0.0132   -0.0198    0.0414    0.3340    0.1540    0.0000    0.6812
       66 O3     3px       -0.0003    0.0004    0.0003    0.0062    0.0031   -0.0074   -0.0243   -0.0122   -0.0000   -0.0079
       67 O3     4px       -0.0002   -0.0001   -0.0002    0.0014   -0.0005    0.0002   -0.0006   -0.0003   -0.0000   -0.0054
       68 O3     2py        0.0008   -0.0026   -0.0030    0.1151    0.0875   -0.1734    0.1101   -0.3852    0.0000    0.1569
       69 O3     3py        0.0003   -0.0026   -0.0029   -0.0119   -0.0199    0.0280   -0.0093    0.0478   -0.0000   -0.0043
       70 O3     4py       -0.0001    0.0017    0.0016   -0.0010   -0.0033   -0.0007   -0.0019    0.0040   -0.0000   -0.0015
       71 O3     2pz       -0.0000    0.0000    0.0000    0.0000    0.0000    0.0000   -0.0000    0.0000    0.4222   -0.0000
       72 O3     3pz       -0.0000    0.0000    0.0000   -0.0000    0.0000    0.0000    0.0000   -0.0000   -0.0148   -0.0000
       73 O3     4pz        0.0000   -0.0000    0.0000    0.0000    0.0000    0.0000    0.0000   -0.0000   -0.0067   -0.0000
       74 O3     3d2-       0.0000    0.0003    0.0003   -0.0040   -0.0042    0.0045    0.0199    0.0087   -0.0000    0.0122
       75 O3     4d2-       0.0000    0.0002    0.0002   -0.0001   -0.0004    0.0001    0.0017    0.0003   -0.0000    0.0010
       76 O3     3d1-      -0.0000    0.0000   -0.0000   -0.0000   -0.0000    0.0000   -0.0000    0.0000    0.0319   -0.0000
       77 O3     4d1-      -0.0000    0.0000    0.0000   -0.0000   -0.0000    0.0000    0.0000    0.0000    0.0056   -0.0000
       78 O3     3d0       -0.0001    0.0006    0.0006   -0.0102   -0.0084    0.0071   -0.0040    0.0151   -0.0000   -0.0042
       79 O3     4d0       -0.0000    0.0004    0.0005   -0.0010   -0.0006    0.0004   -0.0007    0.0009   -0.0000   -0.0007
       80 O3     3d1+       0.0000   -0.0000   -0.0000    0.0000    0.0000   -0.0000    0.0000   -0.0000   -0.0036    0.0000
       81 O3     4d1+       0.0000   -0.0000   -0.0000    0.0000    0.0000   -0.0000    0.0000   -0.0000   -0.0006    0.0000
       82 O3     3d2+      -0.0002    0.0012    0.0014   -0.0199   -0.0147    0.0158   -0.0112    0.0277   -0.0000   -0.0097
       83 O3     4d2+      -0.0001    0.0006    0.0007   -0.0028   -0.0017    0.0016   -0.0012    0.0020   -0.0000   -0.0012
       84 O3     4f3-      -0.0001    0.0002    0.0002   -0.0055   -0.0050    0.0029   -0.0034    0.0063   -0.0000   -0.0031
       85 O3     4f2-       0.0000    0.0000    0.0000    0.0000    0.0000   -0.0000   -0.0000   -0.0000   -0.0013   -0.0000
       86 O3     4f1-      -0.0000    0.0002    0.0002   -0.0034   -0.0030    0.0020   -0.0011    0.0040   -0.0000   -0.0010
       87 O3     4f0        0.0000    0.0000   -0.0000    0.0000    0.0000   -0.0000    0.0000   -0.0000   -0.0037    0.0000
       88 O3     4f1+      -0.0000   -0.0000   -0.0000    0.0004    0.0003   -0.0003   -0.0005   -0.0003    0.0000    0.0006
       89 O3     4f2+       0.0000    0.0000    0.0000   -0.0000    0.0000   -0.0000    0.0000   -0.0000   -0.0070    0.0000
       90 O3     4f3+      -0.0000   -0.0001   -0.0001    0.0020    0.0018   -0.0016   -0.0067   -0.0031    0.0000   -0.0054
 
          Orbital           11        12        13        14        15        16        17        18        19        20    
          Energy           -0.5130   -0.4781   -0.0261    0.1340    0.1676    0.2338    0.2348    0.2773    0.3649    0.3682
          Occ. No.          2.0000    2.0000    0.0000    0.0000    0.0000    0.0000    0.0000    0.0000    0.0000    0.0000
 
        1 O1     1s        -0.0000    0.0004    0.0000    0.0603   -0.2251   -0.0384   -0.0000    0.0938   -0.0092   -0.0000
        2 O1     2s        -0.0000   -0.0095    0.0000    0.5617   -1.6364   -0.2574   -0.0000    0.6327   -0.0342   -0.0000
        3 O1     3s        -0.0000    0.0074    0.0000    0.1459   -0.9813   -0.1840   -0.0000    0.5713   -0.0106   -0.0000
        4 O1     4s        -0.0000    0.0030    0.0000    0.0122   -0.2231   -0.0422   -0.0000    0.1482    0.0008   -0.0000
        5 O1     2px       -0.0000    0.6662    0.0000    0.0200    0.1386   -0.0374   -0.0000   -0.0890   -0.1719   -0.0000
        6 O1     3px       -0.0000    0.0389    0.0000    0.0011    0.1536    0.4032    0.0000    0.0574   -0.8589   -0.0000
        7 O1     4px        0.0000    0.0001   -0.0000    0.0043    0.0226    0.1974    0.0000    0.0530   -0.3401   -0.0000
        8 O1     2py        0.0000    0.0675   -0.0000   -0.9120    0.6488    0.1409    0.0000   -0.4501   -0.0896   -0.0000
        9 O1     3py        0.0000   -0.0073    0.0000   -0.3933    0.8045    0.2185    0.0000   -1.0194   -0.0621   -0.0000
       10 O1     4py       -0.0000   -0.0025    0.0000   -0.0448    0.1030    0.0241    0.0000   -0.2347   -0.0116   -0.0000
       11 O1     2pz       -0.6945   -0.0000    0.6637   -0.0000    0.0000    0.0000   -0.1150    0.0000    0.0000   -0.1501
       12 O1     3pz       -0.0247   -0.0000    0.1726    0.0000   -0.0000   -0.0000    0.3791   -0.0000    0.0000   -0.8745
       13 O1     4pz        0.0071   -0.0000    0.0281   -0.0000   -0.0000   -0.0000    0.2055   -0.0000    0.0000   -0.3511
       14 O1     3d2-       0.0000    0.0023   -0.0000    0.0144   -0.0248   -0.0031   -0.0000    0.0134    0.0142    0.0000
       15 O1     4d2-       0.0000    0.0001   -0.0000    0.0063   -0.0172   -0.0066   -0.0000    0.0091    0.0167    0.0000
       16 O1     3d1-       0.0253   -0.0000    0.0147    0.0000    0.0000   -0.0000    0.0072   -0.0000   -0.0000    0.0115
       17 O1     4d1-       0.0057   -0.0000    0.0019    0.0000    0.0000    0.0000   -0.0011   -0.0000   -0.0000    0.0151
       18 O1     3d0        0.0000    0.0025   -0.0000   -0.0120    0.0521    0.0193    0.0000   -0.0564   -0.0045   -0.0000
       19 O1     4d0        0.0000    0.0001   -0.0000   -0.0080    0.0327    0.0124    0.0000   -0.0398   -0.0053   -0.0000
       20 O1     3d1+       0.0025   -0.0000    0.0024    0.0000   -0.0000   -0.0000    0.0018    0.0000   -0.0000    0.0059
       21 O1     4d1+       0.0004   -0.0000    0.0002    0.0000   -0.0000   -0.0000    0.0005    0.0000   -0.0000    0.0047
       22 O1     3d2+       0.0000    0.0062   -0.0000   -0.0157    0.0853    0.0364    0.0000   -0.1020    0.0031    0.0000
       23 O1     4d2+       0.0000    0.0001   -0.0000   -0.0114    0.0525    0.0222    0.0000   -0.0721   -0.0005    0.0000
       24 O1     4f3-      -0.0000   -0.0015   -0.0000    0.0045   -0.0067   -0.0016   -0.0000    0.0120   -0.0012   -0.0000
       25 O1     4f2-      -0.0010   -0.0000   -0.0003    0.0000   -0.0000   -0.0000    0.0005    0.0000    0.0000   -0.0030
       26 O1     4f1-      -0.0000   -0.0008   -0.0000    0.0021   -0.0049   -0.0024   -0.0000    0.0106    0.0026    0.0000
       27 O1     4f0        0.0019   -0.0000    0.0015    0.0000    0.0000    0.0000   -0.0019   -0.0000   -0.0000    0.0063
       28 O1     4f1+      -0.0000    0.0013    0.0000    0.0006   -0.0003   -0.0013   -0.0000    0.0010    0.0031    0.0000
       29 O1     4f2+       0.0058   -0.0000   -0.0003    0.0000    0.0000    0.0000   -0.0018    0.0000   -0.0000    0.0069
       30 O1     4f3+       0.0000   -0.0017   -0.0000    0.0022   -0.0014   -0.0039   -0.0000    0.0039    0.0093    0.0000
       31 O2     1s         0.0000    0.0163    0.0000   -0.1881   -0.0000    0.0932    0.0000   -0.3043   -0.0000    0.0000
       32 O2     2s         0.0000    0.1905    0.0000   -1.5890    0.0000    0.6052    0.0000   -1.9118   -0.0000    0.0000
       33 O2     3s         0.0000    0.0435    0.0000   -0.7003   -0.0000    0.3847    0.0000   -1.1374   -0.0000    0.0000
       34 O2     4s         0.0000    0.0105    0.0000   -0.1592   -0.0000    0.0784    0.0000   -0.2119   -0.0000    0.0000
       35 O2     2px       -0.0000   -0.6983   -0.0000   -0.3304    0.0000   -0.0601   -0.0000   -0.1030   -0.0000   -0.0000
       36 O2     3px       -0.0000   -0.0394   -0.0000   -0.1041    0.0000    0.3010    0.0000   -0.1589   -0.0000   -0.0000
       37 O2     4px       -0.0000   -0.0034    0.0000   -0.0031    0.0000    0.1664    0.0000    0.0096   -0.0000   -0.0000
       38 O2     2py        0.0000    0.0000   -0.0000    0.0000    1.5911   -0.0000    0.0000    0.0000   -0.0284    0.0000
       39 O2     3py        0.0000    0.0000   -0.0000    0.0000    1.6518    0.0000    0.0000    0.0000    0.1583    0.0000
       40 O2     4py        0.0000   -0.0000   -0.0000    0.0000    0.1687    0.0000    0.0000   -0.0000    0.0806    0.0000
       41 O2     2pz       -0.0000    0.0000   -0.9147   -0.0000   -0.0000    0.0000   -0.0492   -0.0000   -0.0000   -0.0000
       42 O2     3pz        0.0000   -0.0000   -0.2123    0.0000   -0.0000   -0.0000    0.2829    0.0000   -0.0000   -0.0000
       43 O2     4pz        0.0000   -0.0000   -0.0212    0.0000   -0.0000   -0.0000    0.1779    0.0000   -0.0000   -0.0000
       44 O2     3d2-      -0.0000    0.0000   -0.0000    0.0000    0.0564    0.0000    0.0000    0.0000    0.1047    0.0000
       45 O2     4d2-       0.0000    0.0000   -0.0000    0.0000    0.0347    0.0000    0.0000    0.0000    0.0678    0.0000
       46 O2     3d1-      -0.0624    0.0000    0.0000   -0.0000    0.0000    0.0000    0.0000    0.0000   -0.0000    0.1189
       47 O2     4d1-      -0.0145    0.0000    0.0000    0.0000    0.0000    0.0000    0.0000    0.0000   -0.0000    0.0721
       48 O2     3d0       -0.0000    0.0127   -0.0000   -0.0185    0.0000   -0.0365   -0.0000    0.1157    0.0000   -0.0000
       49 O2     4d0       -0.0000    0.0014   -0.0000    0.0039    0.0000   -0.0190   -0.0000    0.0512    0.0000   -0.0000
       50 O2     3d1+      -0.0000   -0.0000   -0.0037    0.0000   -0.0000    0.0000   -0.0090   -0.0000    0.0000    0.0000
       51 O2     4d1+      -0.0000   -0.0000   -0.0006    0.0000   -0.0000    0.0000   -0.0034    0.0000    0.0000   -0.0000
       52 O2     3d2+       0.0000    0.0196   -0.0000   -0.0362    0.0000   -0.0734   -0.0000    0.1720    0.0000   -0.0000
       53 O2     4d2+       0.0000    0.0034   -0.0000    0.0063    0.0000   -0.0349   -0.0000    0.0698    0.0000   -0.0000
       54 O2     4f3-      -0.0000    0.0000    0.0000   -0.0000   -0.0146    0.0000   -0.0000   -0.0000   -0.0012   -0.0000
       55 O2     4f2-      -0.0033    0.0000    0.0000   -0.0000    0.0000   -0.0000    0.0000   -0.0000   -0.0000    0.0026
       56 O2     4f1-       0.0000   -0.0000    0.0000   -0.0000   -0.0113    0.0000    0.0000   -0.0000   -0.0040   -0.0000
       57 O2     4f0        0.0000    0.0000   -0.0021   -0.0000    0.0000    0.0000   -0.0016   -0.0000    0.0000    0.0000
       58 O2     4f1+       0.0000   -0.0022   -0.0000   -0.0011    0.0000   -0.0014   -0.0000    0.0019    0.0000   -0.0000
       59 O2     4f2+       0.0000   -0.0000    0.0022   -0.0000    0.0000    0.0000   -0.0021   -0.0000    0.0000    0.0000
       60 O2     4f3+       0.0000    0.0013    0.0000   -0.0006    0.0000   -0.0046   -0.0000    0.0047    0.0000    0.0000
       61 O3     1s         0.0000    0.0004   -0.0000    0.0603    0.2251   -0.0384   -0.0000    0.0938    0.0092    0.0000
       62 O3     2s         0.0000   -0.0095   -0.0000    0.5617    1.6364   -0.2574   -0.0000    0.6327    0.0342    0.0000
       63 O3     3s         0.0000    0.0074   -0.0000    0.1459    0.9813   -0.1840   -0.0000    0.5713    0.0106    0.0000
       64 O3     4s         0.0000    0.0030   -0.0000    0.0122    0.2231   -0.0422   -0.0000    0.1482   -0.0008   -0.0000
       65 O3     2px        0.0000    0.6662    0.0000    0.0200   -0.1386   -0.0374   -0.0000   -0.0890    0.1719    0.0000
       66 O3     3px        0.0000    0.0389    0.0000    0.0011   -0.1536    0.4032    0.0000    0.0574    0.8589    0.0000
       67 O3     4px       -0.0000    0.0001    0.0000    0.0043   -0.0226    0.1974    0.0000    0.0530    0.3401    0.0000
       68 O3     2py       -0.0000   -0.0675   -0.0000    0.9120    0.6488   -0.1409   -0.0000    0.4501   -0.0896   -0.0000
       69 O3     3py       -0.0000    0.0073   -0.0000    0.3933    0.8045   -0.2185   -0.0000    1.0194   -0.0621   -0.0000
       70 O3     4py       -0.0000    0.0025    0.0000    0.0448    0.1030   -0.0241   -0.0000    0.2347   -0.0116   -0.0000
       71 O3     2pz        0.6945   -0.0000    0.6637    0.0000    0.0000    0.0000   -0.1150   -0.0000   -0.0000    0.1501
       72 O3     3pz        0.0247   -0.0000    0.1726    0.0000   -0.0000   -0.0000    0.3791    0.0000   -0.0000    0.8745
       73 O3     4pz       -0.0071    0.0000    0.0281    0.0000   -0.0000   -0.0000    0.2055    0.0000   -0.0000    0.3511
       74 O3     3d2-       0.0000   -0.0023    0.0000   -0.0144   -0.0248    0.0031    0.0000   -0.0134    0.0142    0.0000
       75 O3     4d2-       0.0000   -0.0001    0.0000   -0.0063   -0.0172    0.0066    0.0000   -0.0091    0.0167    0.0000
       76 O3     3d1-       0.0253    0.0000   -0.0147   -0.0000   -0.0000    0.0000   -0.0072   -0.0000   -0.0000    0.0115
       77 O3     4d1-       0.0057    0.0000   -0.0019    0.0000   -0.0000   -0.0000    0.0011   -0.0000   -0.0000    0.0151
       78 O3     3d0        0.0000    0.0025    0.0000   -0.0120   -0.0521    0.0193    0.0000   -0.0564    0.0045   -0.0000
       79 O3     4d0        0.0000    0.0001    0.0000   -0.0080   -0.0327    0.0124    0.0000   -0.0398    0.0053    0.0000
       80 O3     3d1+      -0.0025   -0.0000    0.0024    0.0000   -0.0000   -0.0000    0.0018    0.0000    0.0000   -0.0059
       81 O3     4d1+      -0.0004   -0.0000    0.0002    0.0000   -0.0000   -0.0000    0.0005    0.0000    0.0000   -0.0047
       82 O3     3d2+       0.0000    0.0062    0.0000   -0.0157   -0.0853    0.0364    0.0000   -0.1020   -0.0031   -0.0000
       83 O3     4d2+       0.0000    0.0001    0.0000   -0.0114   -0.0525    0.0222    0.0000   -0.0721    0.0005    0.0000
       84 O3     4f3-       0.0000    0.0015   -0.0000   -0.0045   -0.0067    0.0016    0.0000   -0.0120   -0.0012    0.0000
       85 O3     4f2-      -0.0010   -0.0000    0.0003    0.0000   -0.0000    0.0000   -0.0005   -0.0000    0.0000   -0.0030
       86 O3     4f1-       0.0000    0.0008   -0.0000   -0.0021   -0.0049    0.0024    0.0000   -0.0106    0.0026    0.0000
       87 O3     4f0       -0.0019   -0.0000    0.0015   -0.0000    0.0000    0.0000   -0.0019   -0.0000    0.0000   -0.0063
       88 O3     4f1+       0.0000    0.0013    0.0000    0.0006    0.0003   -0.0013   -0.0000    0.0010   -0.0031   -0.0000
       89 O3     4f2+      -0.0058    0.0000   -0.0003   -0.0000    0.0000    0.0000   -0.0018   -0.0000    0.0000   -0.0069
       90 O3     4f3+      -0.0000   -0.0017   -0.0000    0.0022    0.0014   -0.0039   -0.0000    0.0039   -0.0093   -0.0000
 
          Orbital           21    
          Energy            0.4584
          Occ. No.          0.0000
 
        1 O1     1s        -0.0662
        2 O1     2s        -0.3892
        3 O1     3s         0.1565
        4 O1     4s         0.1323
        5 O1     2px        0.0738
        6 O1     3px        0.1474
        7 O1     4px        0.0281
        8 O1     2py        0.0238
        9 O1     3py        0.4479
       10 O1     4py        0.0792
       11 O1     2pz        0.0000
       12 O1     3pz        0.0000
       13 O1     4pz       -0.0000
       14 O1     3d2-      -0.0414
       15 O1     4d2-      -0.0253
       16 O1     3d1-      -0.0000
       17 O1     4d1-      -0.0000
       18 O1     3d0        0.0690
       19 O1     4d0        0.0399
       20 O1     3d1+       0.0000
       21 O1     4d1+       0.0000
       22 O1     3d2+       0.1021
       23 O1     4d2+       0.0569
       24 O1     4f3-      -0.0029
       25 O1     4f2-      -0.0000
       26 O1     4f1-      -0.0037
       27 O1     4f0       -0.0000
       28 O1     4f1+      -0.0008
       29 O1     4f2+      -0.0000
       30 O1     4f3+      -0.0026
       31 O2     1s         0.0956
       32 O2     2s         0.5970
       33 O2     3s         0.9715
       34 O2     4s         0.2961
       35 O2     2px       -0.0755
       36 O2     3px       -0.1785
       37 O2     4px       -0.0755
       38 O2     2py       -0.0000
       39 O2     3py       -0.0000
       40 O2     4py       -0.0000
       41 O2     2pz       -0.0000
       42 O2     3pz       -0.0000
       43 O2     4pz       -0.0000
       44 O2     3d2-      -0.0000
       45 O2     4d2-      -0.0000
       46 O2     3d1-       0.0000
       47 O2     4d1-       0.0000
       48 O2     3d0       -0.0351
       49 O2     4d0       -0.0133
       50 O2     3d1+       0.0000
       51 O2     4d1+       0.0000
       52 O2     3d2+      -0.0842
       53 O2     4d2+      -0.0402
       54 O2     4f3-       0.0000
       55 O2     4f2-       0.0000
       56 O2     4f1-       0.0000
       57 O2     4f0        0.0000
       58 O2     4f1+      -0.0010
       59 O2     4f2+       0.0000
       60 O2     4f3+      -0.0045
       61 O3     1s        -0.0662
       62 O3     2s        -0.3892
       63 O3     3s         0.1565
       64 O3     4s         0.1323
       65 O3     2px        0.0738
       66 O3     3px        0.1474
       67 O3     4px        0.0281
       68 O3     2py       -0.0238
       69 O3     3py       -0.4479
       70 O3     4py       -0.0792
       71 O3     2pz        0.0000
       72 O3     3pz        0.0000
       73 O3     4pz        0.0000
       74 O3     3d2-       0.0414
       75 O3     4d2-       0.0253
       76 O3     3d1-       0.0000
       77 O3     4d1-       0.0000
       78 O3     3d0        0.0690
       79 O3     4d0        0.0399
       80 O3     3d1+       0.0000
       81 O3     4d1+       0.0000
       82 O3     3d2+       0.1021
       83 O3     4d2+       0.0569
       84 O3     4f3-       0.0029
       85 O3     4f2-      -0.0000
       86 O3     4f1-       0.0037
       87 O3     4f0       -0.0000
       88 O3     4f1+      -0.0008
       89 O3     4f2+      -0.0000
       90 O3     4f3+      -0.0026
--
 
 
++    Molecular charges:
      ------------------
 
      Mulliken charges per centre and basis function type
      ---------------------------------------------------
 
                O1      O2      O3    
      1s       1.9976  1.9994  1.9976
      2s       1.9596  1.6162  1.9596
      2px      1.9959  1.8903  1.9959
      2pz      1.4356  1.0368  1.4356
      2py      0.7388  1.0510  0.7388
      3s      -0.0088 -0.0383 -0.0088
      3px     -0.0167 -0.0430 -0.0167
      3pz     -0.0068 -0.0147 -0.0068
      3py     -0.0024  0.0055 -0.0024
      4s       0.0032 -0.0007  0.0032
      3d2+     0.0216  0.0210  0.0216
      3d1+     0.0002  0.0013  0.0002
      3d0      0.0060  0.0051  0.0060
      3d1-     0.0144  0.0550  0.0144
      3d2-     0.0107  0.0350  0.0107
      4px      0.0007  0.0009  0.0007
      4pz      0.0012  0.0020  0.0012
      4py      0.0021  0.0053  0.0021
      4d2+     0.0015  0.0015  0.0015
      4d1+     0.0000  0.0002  0.0000
      4d0      0.0003 -0.0004  0.0003
      4d1-     0.0022  0.0139  0.0022
      4d2-     0.0008  0.0058  0.0008
      4f3+     0.0024  0.0040  0.0024
      4f2+     0.0019  0.0041  0.0019
      4f1+     0.0002  0.0003  0.0002
      4f0      0.0008  0.0015  0.0008
      4f1-     0.0013  0.0013  0.0013
      4f2-     0.0001  0.0005  0.0001
      4f3-     0.0030  0.0044  0.0030
      Total    8.1676  7.6648  8.1676
 
      N-E     -0.1676  0.3352 -0.1676
 
      Total electronic charge=   24.000000
 
      Total            charge=   -0.000000
--
 
 
  Input file to MOLDEN was generated!
 
 
++    Static properties:
      ------------------
 
 
      LoProp Charges per center
 

                   O1       O2       O3    
      Nuclear      8.0000   8.0000   8.0000
      Electronic  -8.1751  -7.6497  -8.1751
 
      Total       -0.1751   0.3503  -0.1751
--
 
 
++    Natural Bond Order analysis
      ---------------------------
      Based on LoProp computed density
      -------------------------------------------------------------------------------------
      Atom A       Atom B       Bond Order | Atom A       Atom B       Bond Order
        O1           O2             1.995  |   O2           O3             1.995
      -------------------------------------------------------------------------------------
      NBO located     12.000 core electrons.
      NBO located      3.995 lone pair electrons.
      NBO located      7.980 electrons involved in    2 bonds.
      The remaining    0.026 electrons are to be considered as diffuse
--
 
 
++    Molecular properties:
      ---------------------
 
      Charge (e):
                      =   -0.0000
      Dipole Moment (Debye):
      Origin of the operator (Ang)=    0.0000    0.0000    0.0000
                   X= -3.9327E-02               Y=  4.0145E-11               Z=  1.3527E-13           Total=  3.9327E-02
      Quadrupole Moment (Debye*Ang):
      Origin of the operator (Ang)=    0.1186    0.0000    0.0000
                  XX= -1.6149E+01              XY=  5.3383E-12              XZ=  7.6357E-14              YY= -1.6833E+01
                  YZ=  2.1465E-13              ZZ= -1.4895E+01
      In traceless form (Debye*Ang)
                  XX= -2.8451E-01              XY=  8.0074E-12              XZ=  1.1454E-13              YY= -1.3108E+00
                  YZ=  3.2198E-13              ZZ=  1.5953E+00
--
 
 
  Input file to MOLDEN was generated!
 
 ###############################################################################
 ###############################################################################
 ###                                                                         ###
 ###                                                                         ###
 ###    RunFile label nBas                                                   ###
 ###    was used       78 times                                              ###
 ###                                                                         ###
 ###                                                                         ###
 ###############################################################################
 ###############################################################################
--- Stop Module: scf at Wed Nov 20 09:29:49 2024 /rc=_RC_ALL_IS_WELL_ ---
*** files: ozone_164.00.LprOrb ozone_164.00.LoProp.molden ozone_164.00.scf.molden ozone_164.00.ScfOrb ozone_164.00.scf.h5 xmldump
    saved to directory /home/grierjones/DDCASPT2/ozone/ANO-RCC-VTZP/ozone_164.00
--- Module scf spent 1 second ---

>>> COPY /tmp/ozone_164.00/ozone_164.00.scf.h5 /home/grierjones/DDCASPT2/ozone/ANO-RCC-VTZP/ozone_164.00/

*** symbolic link created: INPORB -> ozone_164.00.ScfOrb
--- Start Module: rasscf at Wed Nov 20 09:29:49 2024 ---
 
()()()()()()()()()()()()()()()()()()()()()()()()()()()()()()()()()()()()()()()()()()()()()()()()()()

                                              &RASSCF

                                   only a single process is used
                       available to each process: 2.0 GB of memory, 1 thread?
()()()()()()()()()()()()()()()()()()()()()()()()()()()()()()()()()()()()()()()()()()()()()()()()()()
 
 
 *************** WARNING ****************
 ###############################################################################
 ###############################################################################
 ###                                                                         ###
 ###                                                                         ###
 ###    Too many macro-iterations.                                           ###
 ###                                                                         ###
 ###                                                                         ###
 ###############################################################################
 ###############################################################################
 Too many macro-iterations requested.
 Reset to maximum, new MAXIT=     200
 ****************************************
 
 *************** WARNING ****************
 ###############################################################################
 ###############################################################################
 ###                                                                         ###
 ###                                                                         ###
 ###    Too many SX-iterations.                                              ###
 ###                                                                         ###
 ###                                                                         ###
 ###############################################################################
 ###############################################################################
 Too many SX-iterations requested.
 Reset to maximum, new ITMAX=     100
 ****************************************
 
      Header of the ONEINT file:
      --------------------------
      
      Integrals generated by seward 4.2.0  , Wed Nov 20 09:29:46 2024
 
 
      OrdInt status: non-squared
 
 
      Cartesian coordinates in Angstrom:
      -----------------------------------------------------
      No.  Label        X            Y            Z        
      -----------------------------------------------------
       1   O1         0.17786300   1.26556300   0.00000000
       2   O2         0.00000000   0.00000000   0.00000000
       3   O3         0.17786300  -1.26556300   0.00000000
      -----------------------------------------------------
      Nuclear repulsion energy =   66.38086486
 
++    Wave function specifications:
      -----------------------------
 
      Number of closed shell electrons          20
      Number of electrons in active shells       4
      Max number of holes in RAS1 space          0
      Max nr of electrons in RAS3 space          0
      Number of inactive orbitals               10
      Number of active orbitals                  3
      Number of secondary orbitals              77
      Spin quantum number                      0.0
      State symmetry                             1
--
 
++    Orbital specifications:
      -----------------------
 
      Symmetry species                           1
                                                 a
      Frozen orbitals                            0
      Inactive orbitals                         10
      Active orbitals                            3
      RAS1 orbitals                              0
      RAS2 orbitals                              3
      RAS3 orbitals                              0
      Secondary orbitals                        77
      Deleted orbitals                           0
      Number of basis functions                 90
--
 
++    CI expansion specifications:
      ----------------------------
 
      Number of CSFs                             6
      Number of determinants                     6
      Number of root(s) required                 1
      Root chosen for geometry opt.              1
      CI root used                               1
         
      highest root included in the CI            1
      max. size of the explicit Hamiltonian      6
--
 
++    Optimization specifications:
      ----------------------------
 
      RASSCF algorithm: Conventional
      Maximum number of macro iterations       200
      Maximum number of SX iterations          100
      Threshold for RASSCF energy            0.100E-07
      Threshold for max MO rotation          0.100E+00
      Threshold for max BLB element          0.100E-03
      Level shift parameter                  0.500E+00
      Make Quasi-Newton update
--
 
      The MO-coefficients are taken from the file:
      /home/grierjones/DDCASPT2/ozone/ANO-RCC-VTZP/ozone_163.50/ozone_163.50.RasOrb                                                   
      Title: RASSCF average (pseudo-natural) orbitals                                      
 
      Total molecular charge    0.00
 
      ************************************************************************************************************************
      *                                                                                                                      *
      *                                            Wave function control section                                             *
      *                                                                                                                      *
      ************************************************************************************************************************
 
 
                                         RASSCF iterations: Energy and convergence statistics
                                         ----------------------------------------------------
 
      Iter CI   SX   CI       RASSCF       Energy    max ROT     max BLB   max BLB  Level Ln srch  Step   QN   Walltime
          iter iter root      energy       change     param      element    value   shift minimum  type update hh:mm:ss
 Nr of preliminary CI iterations:   1
        1   1    3    1  -224.49623515    0.00E+00   0.13E-02    7  14 1 -0.29E-02*  0.19   0.00    SX    NO    0:00:00
        2   1    3    1  -224.49625968   -0.25E-04*  0.76E-03    7  14 1 -0.17E-02*  0.19   0.00    SX    NO    0:00:00
        3   1    3    1  -224.49626556   -0.59E-05*  0.49E-03    7  14 1 -0.11E-02*  0.19   0.00    SX    NO    0:00:00
        4   1    3    1  -224.49626765   -0.21E-05* -0.27E-03    7  14 1 -0.57E-03*  0.19   0.00    SX    NO    0:00:00
        5   1    3    1  -224.49626834   -0.69E-06* -0.87E-03    7  14 1 -0.40E-03*  0.19   2.11    QN   YES    0:00:00
        6   1    3    1  -224.49626884   -0.50E-06* -0.34E-03    7  14 1  0.48E-03*  0.19   0.68    QN   YES    0:00:00
        7   1    3    1  -224.49626898   -0.14E-06* -0.10E-03    8  25 1  0.31E-03*  0.19   0.59    SX   YES    0:00:00
        8   1    3    1  -224.49626903   -0.47E-07*  0.59E-04    8  25 1 -0.20E-03*  0.19   0.58    SX   YES    0:00:00
        9   1    3    1  -224.49626904   -0.84E-08  -0.70E-04    8  25 1  0.23E-03*  0.19   0.50    SX   YES    0:00:00
       10   1    3    1  -224.49626906   -0.27E-07*  0.48E-04    8  25 1 -0.16E-03*  0.19   0.57    SX   YES    0:00:00
       11   1    3    1  -224.49626906   -0.16E-08  -0.25E-04    8  25 1  0.17E-03*  0.19   0.49    LS   YES    0:00:00
       12   1    3    1  -224.49626908   -0.14E-07* -0.66E-04   10  14 1  0.48E-04   0.19   0.64    QN   YES    0:00:00
       13   1    3    1  -224.49626909   -0.68E-08  -0.88E-04    8  25 1  0.41E-04   0.19   2.50    QN   YES    0:00:00
      Convergence after 13 iterations
 
  Dmat in MO in SXCTL bf call to SXHAM                                                                                    
  mat. size =     3x    3
 
        1.9855468631404551
       -0.0000000000010554      1.7606140014855858
       -0.0026198076731145      0.0000000000024932      0.2538391353739587
       14   1    3    1  -224.49626909   -0.51E-08  -0.88E-04    8  25 1  0.24E-04   0.19   2.50    QN   YES    0:00:00
 
      ************************************************************************************************************************
                                                      Wave function printout:
                       occupation of active orbitals, and spin coupling of open shells (u,d: Spin up or down)
      ************************************************************************************************************************
 
      Note: transformation to natural orbitals
      has been made, which may change the order of the CSFs.
 
      printout of CI-coefficients larger than  0.05 for root  1
      energy=    -224.496269
      conf/sym  111     Coeff  Weight
             1  220  -0.93439 0.87308
             3  202   0.34597 0.11969
             6  022   0.08500 0.00722
 
      Natural orbitals and occupation numbers for root  1
      sym 1:   1.985551   1.760614   0.253835
 
      ************************************************************************************************************************
      *                                                                                                                      *
      *                                                    Final results                                                     *
      *                                                                                                                      *
      ************************************************************************************************************************
 
 
++    Wave function specifications:
      -----------------------------
 
      Number of closed shell electrons          20
      Number of electrons in active shells       4
      Max number of holes in RAS1 space          0
      Max nr of electrons in RAS3 space          0
      Number of inactive orbitals               10
      Number of active orbitals                  3
      Number of secondary orbitals              77
      Spin quantum number                      0.0
      State symmetry                             1
--
 
++    Orbital specifications:
      -----------------------
 
      Symmetry species                           1
                                                 a
      Frozen orbitals                            0
      Inactive orbitals                         10
      Active orbitals                            3
      RAS1 orbitals                              0
      RAS2 orbitals                              3
      RAS3 orbitals                              0
      Secondary orbitals                        77
      Deleted orbitals                           0
      Number of basis functions                 90
--
 
++    CI expansion specifications:
      ----------------------------
 
      Number of CSFs                             6
      Number of determinants                     6
      Number of root(s) required                 1
      CI root used                               1
      highest root included in the CI            1
      Root passed to geometry opt.               1
--
 
++    Final optimization conditions:
      ------------------------------
 
      Average CI energy                            -224.49626909
      RASSCF energy for state  1                   -224.49626909
      Super-CI energy                                -0.00000000
      RASSCF energy change                           -0.00000001
      Max change in MO coefficients              -0.892E-04
      Max non-diagonal density matrix element    -0.879E-04
      Maximum BLB matrix element                  0.239E-04
      (orbital pair   8,  25 in symmetry   1)
      Norm of electronic gradient            0.101E-03
--
 
 
      Final state energy(ies):
      ------------------------
 
::    RASSCF root number  1 Total energy:   -224.49626909
 
++    Molecular orbitals:
      -------------------
 
      Pseudonatural active orbitals and approximate occupation numbers
 
 
 
 
      Molecular orbitals for symmetry species 1: a  
 
 
      Orbital                1         2         3         4         5         6         7         8         9        10
      Energy          -20.7807  -20.7423  -20.7422   -1.6735   -1.4482   -1.0504   -0.7986   -0.7756   -0.6141   -0.4573
      Occ. No.          2.0000    2.0000    2.0000    2.0000    2.0000    2.0000    2.0000    2.0000    2.0000    2.0000
 
    1 O1     1s         0.0074   -0.7063    0.7062   -0.0126    0.0115    0.0152   -0.0032    0.0240    0.0063   -0.0005
    2 O1     2s         0.0015    0.0060   -0.0058    0.3654   -0.5747    0.6430   -0.0653    0.4136    0.0740   -0.0225
    3 O1     3s         0.0008    0.0043   -0.0040   -0.0115    0.0210    0.0240   -0.0035    0.0516    0.0122    0.0074
    4 O1     4s         0.0001    0.0009   -0.0007   -0.0008    0.0041    0.0040   -0.0009    0.0109    0.0028    0.0034
    5 O1     2px       -0.0002   -0.0005    0.0004   -0.0129    0.0191    0.0415    0.3882    0.1716   -0.6786    0.6391
    6 O1     3px       -0.0003   -0.0004    0.0002    0.0067   -0.0031   -0.0075   -0.0260   -0.0126    0.0092    0.0450
    7 O1     4px       -0.0002    0.0001   -0.0002    0.0014    0.0007   -0.0000   -0.0019   -0.0006    0.0057    0.0017
    8 O1     2py       -0.0010   -0.0026    0.0030   -0.1162    0.0841    0.1920   -0.1130    0.4082    0.1678    0.0998
    9 O1     3py       -0.0005   -0.0025    0.0029    0.0129   -0.0193   -0.0291    0.0077   -0.0458   -0.0042   -0.0068
   10 O1     4py        0.0002    0.0017   -0.0016    0.0008   -0.0033    0.0003    0.0024   -0.0049   -0.0019   -0.0035
   11 O1     2pz        0.0000   -0.0000    0.0000    0.0000   -0.0000    0.0000   -0.0000   -0.0000    0.0000   -0.0000
   12 O1     3pz        0.0000   -0.0000    0.0000   -0.0000   -0.0000    0.0000   -0.0000   -0.0000   -0.0000   -0.0000
   13 O1     4pz       -0.0000   -0.0000   -0.0000   -0.0000    0.0000    0.0000   -0.0000    0.0000   -0.0000   -0.0000
   14 O1     3d2-      -0.0000    0.0002   -0.0003    0.0035   -0.0037   -0.0041   -0.0202   -0.0082    0.0110    0.0065
   15 O1     4d2-      -0.0000    0.0002   -0.0002   -0.0001   -0.0003   -0.0001   -0.0018   -0.0002    0.0005    0.0012
   16 O1     3d1-      -0.0000    0.0000   -0.0000   -0.0000   -0.0000   -0.0000   -0.0000    0.0000    0.0000   -0.0000
   17 O1     4d1-      -0.0000    0.0000   -0.0000   -0.0000   -0.0000   -0.0000   -0.0000    0.0000    0.0000   -0.0000
   18 O1     3d0       -0.0002   -0.0005    0.0006   -0.0109    0.0088    0.0073   -0.0040    0.0150    0.0049    0.0026
   19 O1     4d0       -0.0001   -0.0004    0.0004   -0.0012    0.0009    0.0002   -0.0007    0.0008    0.0009    0.0001
   20 O1     3d1+       0.0000    0.0000   -0.0000    0.0000   -0.0000   -0.0000   -0.0000    0.0000    0.0000    0.0000
   21 O1     4d1+      -0.0000    0.0000   -0.0000   -0.0000    0.0000   -0.0000    0.0000    0.0000   -0.0000    0.0000
   22 O1     3d2+      -0.0003   -0.0012    0.0013   -0.0196    0.0140    0.0167   -0.0106    0.0280    0.0099    0.0077
   23 O1     4d2+      -0.0001   -0.0006    0.0007   -0.0027    0.0016    0.0017   -0.0012    0.0022    0.0012    0.0003
   24 O1     4f3-       0.0001    0.0002   -0.0002    0.0054   -0.0048   -0.0031    0.0031   -0.0062   -0.0030   -0.0020
   25 O1     4f2-       0.0000   -0.0000    0.0000    0.0000    0.0000    0.0000    0.0000   -0.0000    0.0000   -0.0000
   26 O1     4f1-       0.0000    0.0002   -0.0002    0.0034   -0.0030   -0.0018    0.0009   -0.0036   -0.0010   -0.0008
   27 O1     4f0       -0.0000    0.0000    0.0000   -0.0000    0.0000   -0.0000    0.0000   -0.0000    0.0000   -0.0000
   28 O1     4f1+      -0.0000    0.0000   -0.0000    0.0003   -0.0003   -0.0002   -0.0002   -0.0002   -0.0010    0.0017
   29 O1     4f2+      -0.0000   -0.0000   -0.0000   -0.0000   -0.0000    0.0000    0.0000    0.0000   -0.0000   -0.0000
   30 O1     4f3+      -0.0000    0.0001   -0.0001    0.0018   -0.0016   -0.0014   -0.0068   -0.0030    0.0051   -0.0008
   31 O2     1s         0.9995    0.0000   -0.0084   -0.0291    0.0000   -0.0129   -0.0034   -0.0000   -0.0000    0.0199
   32 O2     2s        -0.0026   -0.0000    0.0120    0.6009    0.0000   -0.6349   -0.0420    0.0000   -0.0000    0.2371
   33 O2     3s        -0.0025   -0.0000    0.0068   -0.0591    0.0000   -0.0287   -0.0045   -0.0000   -0.0000    0.0553
   34 O2     4s        -0.0003   -0.0000    0.0010   -0.0120    0.0000   -0.0046   -0.0024   -0.0000   -0.0000    0.0131
   35 O2     2px        0.0004   -0.0000    0.0012    0.0386    0.0000    0.0605    0.6666    0.0000    0.0000   -0.7547
   36 O2     3px       -0.0002   -0.0000    0.0007   -0.0166    0.0000   -0.0061   -0.0619   -0.0000    0.0000   -0.0576
   37 O2     4px        0.0011    0.0000   -0.0003   -0.0041   -0.0000    0.0019   -0.0117   -0.0000    0.0000   -0.0034
   38 O2     2py        0.0000   -0.0074   -0.0000    0.0000   -0.3100   -0.0000    0.0000   -0.5323   -0.1148    0.0000
   39 O2     3py        0.0000   -0.0051   -0.0000   -0.0000    0.0611   -0.0000   -0.0000    0.0467   -0.0051    0.0000
   40 O2     4py       -0.0000    0.0013    0.0000   -0.0000    0.0003   -0.0000    0.0000    0.0115    0.0013   -0.0000
   41 O2     2pz       -0.0000    0.0000   -0.0000   -0.0000    0.0000   -0.0000   -0.0000   -0.0000    0.0000    0.0000
   42 O2     3pz       -0.0000    0.0000   -0.0000   -0.0000    0.0000   -0.0000   -0.0000    0.0000   -0.0000    0.0000
   43 O2     4pz        0.0000    0.0000    0.0000    0.0000    0.0000   -0.0000    0.0000   -0.0000   -0.0000    0.0000
   44 O2     3d2-       0.0000   -0.0006   -0.0000    0.0000   -0.0169   -0.0000   -0.0000   -0.0131   -0.0397    0.0000
   45 O2     4d2-       0.0000   -0.0003   -0.0000   -0.0000   -0.0018   -0.0000   -0.0000   -0.0015   -0.0056    0.0000
   46 O2     3d1-      -0.0000    0.0000   -0.0000   -0.0000    0.0000   -0.0000    0.0000    0.0000    0.0000   -0.0000
   47 O2     4d1-      -0.0000    0.0000   -0.0000   -0.0000    0.0000   -0.0000    0.0000   -0.0000    0.0000   -0.0000
   48 O2     3d0        0.0002    0.0000   -0.0011   -0.0142   -0.0000    0.0003   -0.0093   -0.0000    0.0000    0.0157
   49 O2     4d0        0.0003    0.0000   -0.0006    0.0004   -0.0000    0.0008   -0.0013    0.0000    0.0000    0.0019
   50 O2     3d1+      -0.0000   -0.0000    0.0000   -0.0000    0.0000   -0.0000   -0.0000   -0.0000    0.0000   -0.0000
   51 O2     4d1+      -0.0000   -0.0000    0.0000   -0.0000   -0.0000   -0.0000    0.0000   -0.0000    0.0000   -0.0000
   52 O2     3d2+       0.0007    0.0000   -0.0019   -0.0252   -0.0000   -0.0008    0.0087    0.0000    0.0000    0.0179
   53 O2     4d2+       0.0003    0.0000   -0.0009   -0.0013   -0.0000    0.0010    0.0004    0.0000    0.0000    0.0026
   54 O2     4f3-      -0.0000    0.0002    0.0000   -0.0000    0.0095    0.0000    0.0000    0.0095   -0.0028   -0.0000
   55 O2     4f2-      -0.0000    0.0000   -0.0000    0.0000    0.0000   -0.0000    0.0000   -0.0000    0.0000    0.0000
   56 O2     4f1-      -0.0000    0.0001    0.0000    0.0000    0.0062    0.0000    0.0000    0.0057    0.0011   -0.0000
   57 O2     4f0        0.0000    0.0000    0.0000    0.0000   -0.0000   -0.0000    0.0000    0.0000   -0.0000    0.0000
   58 O2     4f1+       0.0000    0.0000   -0.0000   -0.0011   -0.0000    0.0001   -0.0012    0.0000    0.0000   -0.0011
   59 O2     4f2+       0.0000    0.0000    0.0000    0.0000   -0.0000    0.0000    0.0000    0.0000   -0.0000   -0.0000
   60 O2     4f3+       0.0001    0.0000   -0.0001   -0.0052   -0.0000   -0.0002   -0.0118   -0.0000    0.0000    0.0030
   61 O3     1s         0.0074    0.7063    0.7062   -0.0126   -0.0115    0.0152   -0.0032   -0.0240   -0.0063   -0.0005
   62 O3     2s         0.0015   -0.0060   -0.0058    0.3654    0.5747    0.6430   -0.0653   -0.4136   -0.0740   -0.0225
   63 O3     3s         0.0008   -0.0043   -0.0040   -0.0115   -0.0210    0.0240   -0.0035   -0.0516   -0.0122    0.0074
   64 O3     4s         0.0001   -0.0009   -0.0007   -0.0008   -0.0041    0.0040   -0.0009   -0.0109   -0.0028    0.0034
   65 O3     2px       -0.0002    0.0005    0.0004   -0.0129   -0.0191    0.0415    0.3882   -0.1716    0.6786    0.6391
   66 O3     3px       -0.0003    0.0004    0.0002    0.0067    0.0031   -0.0075   -0.0260    0.0126   -0.0092    0.0450
   67 O3     4px       -0.0002   -0.0001   -0.0002    0.0014   -0.0007   -0.0000   -0.0019    0.0006   -0.0057    0.0017
   68 O3     2py        0.0010   -0.0026   -0.0030    0.1162    0.0841   -0.1920    0.1130    0.4082    0.1678   -0.0998
   69 O3     3py        0.0005   -0.0025   -0.0029   -0.0129   -0.0193    0.0291   -0.0077   -0.0458   -0.0042    0.0068
   70 O3     4py       -0.0002    0.0017    0.0016   -0.0008   -0.0033   -0.0003   -0.0024   -0.0049   -0.0019    0.0035
   71 O3     2pz       -0.0000    0.0000    0.0000    0.0000    0.0000   -0.0000    0.0000    0.0000    0.0000   -0.0000
   72 O3     3pz        0.0000    0.0000    0.0000    0.0000    0.0000    0.0000    0.0000    0.0000    0.0000   -0.0000
   73 O3     4pz       -0.0000   -0.0000    0.0000   -0.0000   -0.0000    0.0000   -0.0000    0.0000    0.0000   -0.0000
   74 O3     3d2-       0.0000    0.0002    0.0003   -0.0035   -0.0037    0.0041    0.0202   -0.0082    0.0110   -0.0065
   75 O3     4d2-       0.0000    0.0002    0.0002    0.0001   -0.0003    0.0001    0.0018   -0.0002    0.0005   -0.0012
   76 O3     3d1-       0.0000    0.0000    0.0000    0.0000    0.0000   -0.0000    0.0000    0.0000   -0.0000    0.0000
   77 O3     4d1-      -0.0000    0.0000    0.0000    0.0000    0.0000   -0.0000    0.0000   -0.0000   -0.0000    0.0000
   78 O3     3d0       -0.0002    0.0005    0.0006   -0.0109   -0.0088    0.0073   -0.0040   -0.0150   -0.0049    0.0026
   79 O3     4d0       -0.0001    0.0004    0.0004   -0.0012   -0.0009    0.0002   -0.0007   -0.0008   -0.0009    0.0001
   80 O3     3d1+      -0.0000    0.0000    0.0000   -0.0000    0.0000   -0.0000    0.0000   -0.0000   -0.0000    0.0000
   81 O3     4d1+      -0.0000   -0.0000   -0.0000    0.0000   -0.0000   -0.0000   -0.0000   -0.0000    0.0000    0.0000
   82 O3     3d2+      -0.0003    0.0012    0.0013   -0.0196   -0.0140    0.0167   -0.0106   -0.0280   -0.0099    0.0077
   83 O3     4d2+      -0.0001    0.0006    0.0007   -0.0027   -0.0016    0.0017   -0.0012   -0.0022   -0.0012    0.0003
   84 O3     4f3-      -0.0001    0.0002    0.0002   -0.0054   -0.0048    0.0031   -0.0031   -0.0062   -0.0030    0.0020
   85 O3     4f2-       0.0000    0.0000   -0.0000    0.0000    0.0000    0.0000    0.0000    0.0000   -0.0000   -0.0000
   86 O3     4f1-      -0.0000    0.0002    0.0002   -0.0034   -0.0030    0.0018   -0.0009   -0.0036   -0.0010    0.0008
   87 O3     4f0        0.0000   -0.0000   -0.0000   -0.0000    0.0000    0.0000   -0.0000   -0.0000    0.0000   -0.0000
   88 O3     4f1+      -0.0000   -0.0000   -0.0000    0.0003    0.0003   -0.0002   -0.0002    0.0002    0.0010    0.0017
   89 O3     4f2+      -0.0000   -0.0000   -0.0000   -0.0000   -0.0000   -0.0000    0.0000   -0.0000    0.0000   -0.0000
   90 O3     4f3+      -0.0000   -0.0001   -0.0001    0.0018    0.0016   -0.0014   -0.0068    0.0030   -0.0051   -0.0008
 
 
      Orbital               11        12        13        14        15        16        17        18        19        20
      Energy            0.0000    0.0000    0.0000    0.1388    0.1671    0.2276    0.2380    0.2793    0.3651    0.3663
      Occ. No.          1.9856    1.7606    0.2538    0.0000    0.0000    0.0000    0.0000    0.0000    0.0000    0.0000
 
    1 O1     1s        -0.0000    0.0000   -0.0000   -0.0637   -0.2244   -0.0000   -0.0342    0.0984   -0.0067   -0.0000
    2 O1     2s        -0.0000    0.0000   -0.0000   -0.5869   -1.6296   -0.0000   -0.2271    0.6630   -0.0216   -0.0000
    3 O1     3s        -0.0000    0.0000   -0.0000   -0.1523   -0.9793   -0.0000   -0.1559    0.5830   -0.0019   -0.0000
    4 O1     4s        -0.0000    0.0000   -0.0000   -0.0128   -0.2227   -0.0000   -0.0340    0.1483    0.0023   -0.0000
    5 O1     2px        0.0000   -0.0000    0.0000   -0.0385    0.1366    0.0000   -0.0198   -0.0974   -0.1730   -0.0000
    6 O1     3px        0.0000   -0.0000    0.0000   -0.0060    0.1575   -0.0000    0.4335    0.0271   -0.8641   -0.0000
    7 O1     4px        0.0000   -0.0000    0.0000   -0.0047    0.0244   -0.0000    0.2074    0.0412   -0.3415   -0.0000
    8 O1     2py        0.0000   -0.0000    0.0000    0.9102    0.6405    0.0000    0.1140   -0.4645   -0.0716   -0.0000
    9 O1     3py        0.0000   -0.0000    0.0000    0.4015    0.8079    0.0000    0.1749   -1.0469   -0.0450   -0.0000
   10 O1     4py       -0.0000    0.0000   -0.0000    0.0456    0.1049    0.0000    0.0139   -0.2374   -0.0053   -0.0000
   11 O1     2pz       -0.3299   -0.6980    0.6554    0.0000   -0.0000    0.0431    0.0000   -0.0000    0.0000   -0.1679
   12 O1     3pz        0.0216    0.0013   -0.0723    0.0000   -0.0000    0.4473    0.0000   -0.0000    0.0000   -0.8750
   13 O1     4pz        0.0055    0.0080    0.0042    0.0000   -0.0000    0.2174    0.0000   -0.0000    0.0000   -0.3505
   14 O1     3d2-       0.0000    0.0000   -0.0000   -0.0153   -0.0250    0.0000   -0.0039    0.0148    0.0143    0.0000
   15 O1     4d2-       0.0000    0.0000   -0.0000   -0.0067   -0.0175   -0.0000   -0.0073    0.0102    0.0164    0.0000
   16 O1     3d1-       0.0306    0.0194    0.0141   -0.0000   -0.0000    0.0069   -0.0000    0.0000   -0.0000    0.0130
   17 O1     4d1-       0.0050    0.0033    0.0052   -0.0000    0.0000   -0.0024   -0.0000   -0.0000   -0.0000    0.0152
   18 O1     3d0        0.0000   -0.0000    0.0000    0.0122    0.0522    0.0000    0.0174   -0.0600   -0.0051   -0.0000
   19 O1     4d0        0.0000   -0.0000    0.0000    0.0086    0.0330    0.0000    0.0109   -0.0417   -0.0052   -0.0000
   20 O1     3d1+       0.0030    0.0014    0.0019   -0.0000   -0.0000    0.0025    0.0000    0.0000   -0.0000    0.0058
   21 O1     4d1+       0.0003    0.0001    0.0002   -0.0000   -0.0000    0.0008    0.0000    0.0000   -0.0000    0.0045
   22 O1     3d2+       0.0000   -0.0000    0.0000    0.0146    0.0857    0.0000    0.0331   -0.1074    0.0020    0.0000
   23 O1     4d2+       0.0000   -0.0000    0.0000    0.0114    0.0528    0.0000    0.0196   -0.0750   -0.0007    0.0000
   24 O1     4f3-      -0.0000   -0.0000   -0.0000   -0.0043   -0.0068   -0.0000   -0.0010    0.0125   -0.0016   -0.0000
[...]
      *** Default values:   3
 
      Header of the integral files:
      
       Integrals generated by seward 4.2.0  , Wed Nov 20 09:29:46 2024
 
 
      Header of MO coefficients source file:
      * RASSCF average (pseudo-natural) orbitals                                      
 
 
      Cartesian coordinates in Angstrom:
      -----------------------------------------------------
      No.  Label        X            Y            Z        
      -----------------------------------------------------
       1   O1         0.17786300   1.26556300   0.00000000
       2   O2         0.00000000   0.00000000   0.00000000
       3   O3         0.17786300  -1.26556300   0.00000000
      -----------------------------------------------------
      Nuclear repulsion energy =   66.38086486
 
      Orbital specifications:
      -----------------------
 
      Symmetry species:              1
      Number of basis functions:    90
      Frozen orbitals:               0
      Deleted orbitals:              0
      Number of orbitals used:      90

       SYMMETRY  BASIS FUNCTIONS       ORBITALS      INTEGRALS   CPU(SEC)  I/O(SEC)
 
        1 1 1 1   90  90  90  90    90  90  90  90     8386560       0.00      0.00

       TOTAL CPU TIME(SEC)    4.10TOTAL I/O TIME(SEC)   11.00
 
--- Stop Module: motra at Wed Nov 20 09:30:02 2024 /rc=_RC_ALL_IS_WELL_ ---
*** files: xmldump
    saved to directory /home/grierjones/DDCASPT2/ozone/ANO-RCC-VTZP/ozone_164.00
--- Module motra spent 11 seconds ---

>>> COPY /tmp/ozone_164.00/GMJ_one_int_indx.csv /home/grierjones/DDCASPT2/ozone/ANO-RCC-VTZP/ozone_164.00/ozone_164.00.GMJ_one_int_indx.csv

>>> COPY /tmp/ozone_164.00/GMJ_one_int.csv /home/grierjones/DDCASPT2/ozone/ANO-RCC-VTZP/ozone_164.00/ozone_164.00.GMJ_one_int.csv

>>> COPY /tmp/ozone_164.00/GMJ_two_int_indx.csv /home/grierjones/DDCASPT2/ozone/ANO-RCC-VTZP/ozone_164.00/ozone_164.00.GMJ_two_int_indx.csv

>>> COPY /tmp/ozone_164.00/GMJ_two_int.csv /home/grierjones/DDCASPT2/ozone/ANO-RCC-VTZP/ozone_164.00/ozone_164.00.GMJ_two_int.csv

*** symbolic link created: INPORB -> ozone_164.00.RasOrb
--- Start Module: caspt2 at Wed Nov 20 09:30:02 2024 ---
 
()()()()()()()()()()()()()()()()()()()()()()()()()()()()()()()()()()()()()()()()()()()()()()()()()()

                                              &CASPT2

                                   only a single process is used
                       available to each process: 2.0 GB of memory, 1 thread?
()()()()()()()()()()()()()()()()()()()()()()()()()()()()()()()()()()()()()()()()()()()()()()()()()()
 
 Cholesky algorithm in CASPT2 =    1
 
 ###############################################################################
 ###############################################################################
 ###                                                                         ###
 ###                                                                         ###
 ###    User changed nr of frozen orbitals.                                  ###
 ###                                                                         ###
 ###                                                                         ###
 ###############################################################################
 ###############################################################################
 
++    Wave function specifications:
      -----------------------------
 
      Number of closed shell electrons          20
      Number of electrons in active shells       4
      Max number of holes in RAS1 space          0
      Max number of electrons in RAS3 space      0
      Number of inactive orbitals               10
      Number of active orbitals                  3
      Number of secondary orbitals              77
      Spin quantum number                      0.0
      State symmetry                             1
      Number of CSFs                             6
      Number of root(s) available                1
      Root passed to geometry opt.               1
      A file JOBMIX will be created.
      This is a CASSCF or RASSCF reference function
--
 
++    Orbital specifications:
      -----------------------
 
      Symmetry species                           1
                                                 a
      Frozen orbitals                            0
      Inactive orbitals                         10
      Active orbitals                            3
      Secondary orbitals                        77
      Deleted orbitals                           0
      Number of basis functions                 90
--
 
      Type of Fock operator: STANDARD
      Type of 0-order Hamiltonian: STANDARD WITH DEFAULT IPEA
        "IP-EA" denominator shift =      0.25
      The input orbitals and the CI vector will be transformed.
 
--------------------------------------------------------------------------------
 Estimated memory requirements:
  POLY3 :                   250202
  RHS:                      446386
  SIGMA :                   610360
  PRPCTL:                        0
 Available workspace:    230385072
 
++ CASPT2 computation for group   1
 
********************************************************************************
 Multi-State initialization phase begins for group   1
--------------------------------------------------------------------------------
********************************************************************************
 Compute H0 matrices for state    1
--------------------------------------------------------------------------------
--------------------------------------------------------------------------------
 H0 matrices have been computed.
 
********************************************************************************
  CASPT2 EQUATION SOLUTION
--------------------------------------------------------------------------------
 
  Total nr of CASPT2 parameters:
   Before reduction:      541275
   After  reduction:      532232
 
 The contributions to the second order correlation energy in atomic units.
-----------------------------------------------------------------------------------------------------------------------------
  IT.      VJTU        VJTI        ATVX        AIVX        VJAI        BVAT        BJAT        BJAI        TOTAL       RNORM  
-----------------------------------------------------------------------------------------------------------------------------
   1    -0.000000   -0.001555   -0.015654   -0.104293   -0.018649   -0.023542   -0.170067   -0.359423   -0.693182    0.003158
   2    -0.000000   -0.001581   -0.015728   -0.104781   -0.018678   -0.023550   -0.170106   -0.359429   -0.693853    0.000293
   3    -0.000000   -0.001581   -0.015729   -0.104788   -0.018678   -0.023550   -0.170107   -0.359429   -0.693863    0.000038
   4    -0.000000   -0.001582   -0.015729   -0.104785   -0.018678   -0.023550   -0.170106   -0.359429   -0.693859    0.000007
-------------------------------------------------------------------------------------------------------------------
 
  FINAL CASPT2 RESULT:
 
  Correlation energy /Case, /Symm, and sums:
 VJTU     -0.00000000 -0.00000000
 VJTIP    -0.00158154 -0.00158154
 VJTIM     0.00000000  0.00000000
 ATVX     -0.01572871 -0.01572871
 AIVX     -0.10478477 -0.10478477
 VJAIP    -0.01309036 -0.01309036
 VJAIM    -0.00558769 -0.00558769
 BVATP    -0.02223597 -0.02223597
 BVATM    -0.00131428 -0.00131428
 BJATP    -0.07057825 -0.07057825
 BJATM    -0.09952817 -0.09952817
 BJAIP    -0.24804287 -0.24804287
 BJAIM    -0.11138601 -0.11138601
 Summed:  -0.69385863 -0.69385863
 
      Reference energy:        -224.4962690905
      E2 (Non-variational):      -0.6938586290
      E2 (Variational):          -0.6938586870
      Total energy:            -225.1901277774
      Residual norm:              0.0000006104
      Reference weight:           0.84820
 
      Contributions to the CASPT2 correlation energy
      Active & Virtual Only:         -0.0392789710
      One Inactive Excited:          -0.2748911898
      Two Inactive Excited:          -0.3796884682
 
 
++ Denominators, etc.
----------------------------------------------------------------------------------------------------
 Report on small energy denominators, large coefficients, and large energy contributions.
CASE  SYMM ACTIVE-MIX  NON-ACTIVE INDICES          DENOMINATOR     RHS VALUE       COEFFICIENT     CONTRIBUTION
ATVX     1  Mu1.0006  Se1.016                       1.66596109     -0.04046921      0.02512077     -0.00101662
ATVX     1  Mu1.0005  Se1.020                       1.54765456     -0.06536548      0.04125857     -0.00269689
ATVX     1  Mu1.0005  Se1.042                       3.10918562      0.10461386     -0.03290400     -0.00344221
AIVX     1  Mu1.0005  In1.004 Se1.014               2.60819819     -0.07870645      0.03028502     -0.00238363
AIVX     1  Mu1.0003  In1.005 Se1.014               2.06464942     -0.06486473      0.03082663     -0.00199956
AIVX     1  Mu1.0004  In1.006 Se1.014               1.82825600     -0.05145046      0.02856267     -0.00146956
AIVX     1  Mu1.0005  In1.006 Se1.014               1.98502748      0.05006446     -0.02586406     -0.00129487
AIVX     1  Mu1.0004  In1.007 Se1.014               1.57652382      0.04524436     -0.02911827     -0.00131744
AIVX     1  Mu1.0002  In1.008 Se1.014               1.29387141     -0.09851284      0.07521479     -0.00740962
AIVX     1  Mu1.0003  In1.008 Se1.014               1.39198389     -0.05281213      0.03768374     -0.00199016
AIVX     1  Mu1.0002  In1.009 Se1.014               1.13237949     -0.04868832      0.04236434     -0.00206265
AIVX     1  Mu1.0003  In1.009 Se1.014               1.23049197     -0.03183290      0.02563287     -0.00081597
AIVX     1  Mu1.0002  In1.009 Se1.017               1.23154834     -0.03209526      0.02513902     -0.00080684
AIVX     1  Mu1.0002  In1.008 Se1.018               1.43432718     -0.03992844      0.02716427     -0.00108463
AIVX     1  Mu1.0002  In1.010 Se1.019               1.20185067     -0.03213812      0.02568437     -0.00082545
AIVX     1  Mu1.0004  In1.006 Se1.021               2.15467034      0.06121551     -0.02854061     -0.00174713
AIVX     1  Mu1.0002  In1.008 Se1.021               1.62028574      0.05915444     -0.03571410     -0.00211265
AIVX     1  Mu1.0004  In1.008 Se1.022               1.92411764      0.07805318     -0.04118918     -0.00321495
AIVX     1  Mu1.0004  In1.008 Se1.025               2.11110471     -0.09702316      0.04639811     -0.00450169
AIVX     1  Mu1.0005  In1.008 Se1.025               2.26787619      0.06414302     -0.02858336     -0.00183342
AIVX     1  Mu1.0002  In1.010 Se1.025               1.53322306     -0.04704764      0.03026802     -0.00142404
BJAIP    1  Se1.014 In1.008 Se1.014 In1.008         1.82877695      0.06419191     -0.03510100     -0.00225320
BJAIP    1  Se1.022 In1.008 Se1.025 In1.008         2.75705358     -0.07345733      0.02664338     -0.00195715
--
 
   (Skipping property calculation,
    use PROP keyword to activate)
--
 
  Total CASPT2 energies:
::    CASPT2 Root  1     Total energy:   -225.19012778
 
  A NEW JOBIPH FILE NAMED 'JOBMIX' IS PREPARED.
********************************************************************************
--- Stop Module: caspt2 at Wed Nov 20 09:30:03 2024 /rc=_RC_ALL_IS_WELL_ ---
*** files: xmldump
    saved to directory /home/grierjones/DDCASPT2/ozone/ANO-RCC-VTZP/ozone_164.00
--- Module caspt2 spent 1 second ---

>>> EXPORT i = B

>>> EXPORT j = P

>>> IF (-FILE GMJ_e2_${i}_${j}.csv)

>>> COPY /tmp/ozone_164.00/GMJ_RHS_B_P.csv /home/grierjones/DDCASPT2/ozone/ANO-RCC-VTZP/ozone_164.00/GMJ_RHS_B_P.csv

>>> COPY /tmp/ozone_164.00/GMJ_IVECW_B_P.csv /home/grierjones/DDCASPT2/ozone/ANO-RCC-VTZP/ozone_164.00/GMJ_IVECW_B_P.csv

>>> COPY /tmp/ozone_164.00/GMJ_IVECX_B_P.csv /home/grierjones/DDCASPT2/ozone/ANO-RCC-VTZP/ozone_164.00/GMJ_IVECX_B_P.csv

>>> COPY /tmp/ozone_164.00/GMJ_IVECC2_B_P.csv /home/grierjones/DDCASPT2/ozone/ANO-RCC-VTZP/ozone_164.00/GMJ_IVECC2_B_P.csv

>>> COPY /tmp/ozone_164.00/GMJ_e2_B_P.csv /home/grierjones/DDCASPT2/ozone/ANO-RCC-VTZP/ozone_164.00/GMJ_e2_B_P.csv

>>> END FOREACH

>>> EXPORT j = M

>>> IF (-FILE GMJ_e2_${i}_${j}.csv)
(Skipped)

>>> END FOREACH

>>> END FOREACH

>>> EXPORT i = E

>>> EXPORT j = P

>>> IF (-FILE GMJ_e2_${i}_${j}.csv)

>>> COPY /tmp/ozone_164.00/GMJ_RHS_E_P.csv /home/grierjones/DDCASPT2/ozone/ANO-RCC-VTZP/ozone_164.00/GMJ_RHS_E_P.csv

>>> COPY /tmp/ozone_164.00/GMJ_IVECW_E_P.csv /home/grierjones/DDCASPT2/ozone/ANO-RCC-VTZP/ozone_164.00/GMJ_IVECW_E_P.csv

>>> COPY /tmp/ozone_164.00/GMJ_IVECX_E_P.csv /home/grierjones/DDCASPT2/ozone/ANO-RCC-VTZP/ozone_164.00/GMJ_IVECX_E_P.csv

>>> COPY /tmp/ozone_164.00/GMJ_IVECC2_E_P.csv /home/grierjones/DDCASPT2/ozone/ANO-RCC-VTZP/ozone_164.00/GMJ_IVECC2_E_P.csv

>>> COPY /tmp/ozone_164.00/GMJ_e2_E_P.csv /home/grierjones/DDCASPT2/ozone/ANO-RCC-VTZP/ozone_164.00/GMJ_e2_E_P.csv

>>> END FOREACH

>>> EXPORT j = M

>>> IF (-FILE GMJ_e2_${i}_${j}.csv)

>>> COPY /tmp/ozone_164.00/GMJ_RHS_E_M.csv /home/grierjones/DDCASPT2/ozone/ANO-RCC-VTZP/ozone_164.00/GMJ_RHS_E_M.csv

>>> COPY /tmp/ozone_164.00/GMJ_IVECW_E_M.csv /home/grierjones/DDCASPT2/ozone/ANO-RCC-VTZP/ozone_164.00/GMJ_IVECW_E_M.csv

>>> COPY /tmp/ozone_164.00/GMJ_IVECX_E_M.csv /home/grierjones/DDCASPT2/ozone/ANO-RCC-VTZP/ozone_164.00/GMJ_IVECX_E_M.csv

>>> COPY /tmp/ozone_164.00/GMJ_IVECC2_E_M.csv /home/grierjones/DDCASPT2/ozone/ANO-RCC-VTZP/ozone_164.00/GMJ_IVECC2_E_M.csv

>>> COPY /tmp/ozone_164.00/GMJ_e2_E_M.csv /home/grierjones/DDCASPT2/ozone/ANO-RCC-VTZP/ozone_164.00/GMJ_e2_E_M.csv

>>> END FOREACH

>>> END FOREACH

>>> EXPORT i = F

>>> EXPORT j = P

>>> IF (-FILE GMJ_e2_${i}_${j}.csv)

>>> COPY /tmp/ozone_164.00/GMJ_RHS_F_P.csv /home/grierjones/DDCASPT2/ozone/ANO-RCC-VTZP/ozone_164.00/GMJ_RHS_F_P.csv

>>> COPY /tmp/ozone_164.00/GMJ_IVECW_F_P.csv /home/grierjones/DDCASPT2/ozone/ANO-RCC-VTZP/ozone_164.00/GMJ_IVECW_F_P.csv

>>> COPY /tmp/ozone_164.00/GMJ_IVECX_F_P.csv /home/grierjones/DDCASPT2/ozone/ANO-RCC-VTZP/ozone_164.00/GMJ_IVECX_F_P.csv

>>> COPY /tmp/ozone_164.00/GMJ_IVECC2_F_P.csv /home/grierjones/DDCASPT2/ozone/ANO-RCC-VTZP/ozone_164.00/GMJ_IVECC2_F_P.csv

>>> COPY /tmp/ozone_164.00/GMJ_e2_F_P.csv /home/grierjones/DDCASPT2/ozone/ANO-RCC-VTZP/ozone_164.00/GMJ_e2_F_P.csv

>>> END FOREACH

>>> EXPORT j = M

>>> IF (-FILE GMJ_e2_${i}_${j}.csv)

>>> COPY /tmp/ozone_164.00/GMJ_RHS_F_M.csv /home/grierjones/DDCASPT2/ozone/ANO-RCC-VTZP/ozone_164.00/GMJ_RHS_F_M.csv

>>> COPY /tmp/ozone_164.00/GMJ_IVECW_F_M.csv /home/grierjones/DDCASPT2/ozone/ANO-RCC-VTZP/ozone_164.00/GMJ_IVECW_F_M.csv

>>> COPY /tmp/ozone_164.00/GMJ_IVECX_F_M.csv /home/grierjones/DDCASPT2/ozone/ANO-RCC-VTZP/ozone_164.00/GMJ_IVECX_F_M.csv

>>> COPY /tmp/ozone_164.00/GMJ_IVECC2_F_M.csv /home/grierjones/DDCASPT2/ozone/ANO-RCC-VTZP/ozone_164.00/GMJ_IVECC2_F_M.csv

>>> COPY /tmp/ozone_164.00/GMJ_e2_F_M.csv /home/grierjones/DDCASPT2/ozone/ANO-RCC-VTZP/ozone_164.00/GMJ_e2_F_M.csv

>>> END FOREACH

>>> END FOREACH

>>> EXPORT i = G

>>> EXPORT j = P

>>> IF (-FILE GMJ_e2_${i}_${j}.csv)

>>> COPY /tmp/ozone_164.00/GMJ_RHS_G_P.csv /home/grierjones/DDCASPT2/ozone/ANO-RCC-VTZP/ozone_164.00/GMJ_RHS_G_P.csv

>>> COPY /tmp/ozone_164.00/GMJ_IVECW_G_P.csv /home/grierjones/DDCASPT2/ozone/ANO-RCC-VTZP/ozone_164.00/GMJ_IVECW_G_P.csv

>>> COPY /tmp/ozone_164.00/GMJ_IVECX_G_P.csv /home/grierjones/DDCASPT2/ozone/ANO-RCC-VTZP/ozone_164.00/GMJ_IVECX_G_P.csv

>>> COPY /tmp/ozone_164.00/GMJ_IVECC2_G_P.csv /home/grierjones/DDCASPT2/ozone/ANO-RCC-VTZP/ozone_164.00/GMJ_IVECC2_G_P.csv

>>> COPY /tmp/ozone_164.00/GMJ_e2_G_P.csv /home/grierjones/DDCASPT2/ozone/ANO-RCC-VTZP/ozone_164.00/GMJ_e2_G_P.csv

>>> END FOREACH

>>> EXPORT j = M

>>> IF (-FILE GMJ_e2_${i}_${j}.csv)

>>> COPY /tmp/ozone_164.00/GMJ_RHS_G_M.csv /home/grierjones/DDCASPT2/ozone/ANO-RCC-VTZP/ozone_164.00/GMJ_RHS_G_M.csv

>>> COPY /tmp/ozone_164.00/GMJ_IVECW_G_M.csv /home/grierjones/DDCASPT2/ozone/ANO-RCC-VTZP/ozone_164.00/GMJ_IVECW_G_M.csv

>>> COPY /tmp/ozone_164.00/GMJ_IVECX_G_M.csv /home/grierjones/DDCASPT2/ozone/ANO-RCC-VTZP/ozone_164.00/GMJ_IVECX_G_M.csv

>>> COPY /tmp/ozone_164.00/GMJ_IVECC2_G_M.csv /home/grierjones/DDCASPT2/ozone/ANO-RCC-VTZP/ozone_164.00/GMJ_IVECC2_G_M.csv

>>> COPY /tmp/ozone_164.00/GMJ_e2_G_M.csv /home/grierjones/DDCASPT2/ozone/ANO-RCC-VTZP/ozone_164.00/GMJ_e2_G_M.csv

>>> END FOREACH

>>> END FOREACH

>>> EXPORT i = H

>>> EXPORT j = P

>>> IF (-FILE GMJ_e2_${i}_${j}.csv)

>>> COPY /tmp/ozone_164.00/GMJ_RHS_H_P.csv /home/grierjones/DDCASPT2/ozone/ANO-RCC-VTZP/ozone_164.00/GMJ_RHS_H_P.csv

>>> COPY /tmp/ozone_164.00/GMJ_IVECW_H_P.csv /home/grierjones/DDCASPT2/ozone/ANO-RCC-VTZP/ozone_164.00/GMJ_IVECW_H_P.csv

>>> COPY /tmp/ozone_164.00/GMJ_IVECX_H_P.csv /home/grierjones/DDCASPT2/ozone/ANO-RCC-VTZP/ozone_164.00/GMJ_IVECX_H_P.csv

>>> COPY /tmp/ozone_164.00/GMJ_IVECC2_H_P.csv /home/grierjones/DDCASPT2/ozone/ANO-RCC-VTZP/ozone_164.00/GMJ_IVECC2_H_P.csv

>>> COPY /tmp/ozone_164.00/GMJ_e2_H_P.csv /home/grierjones/DDCASPT2/ozone/ANO-RCC-VTZP/ozone_164.00/GMJ_e2_H_P.csv

>>> END FOREACH

>>> EXPORT j = M

>>> IF (-FILE GMJ_e2_${i}_${j}.csv)

>>> COPY /tmp/ozone_164.00/GMJ_RHS_H_M.csv /home/grierjones/DDCASPT2/ozone/ANO-RCC-VTZP/ozone_164.00/GMJ_RHS_H_M.csv

>>> COPY /tmp/ozone_164.00/GMJ_IVECW_H_M.csv /home/grierjones/DDCASPT2/ozone/ANO-RCC-VTZP/ozone_164.00/GMJ_IVECW_H_M.csv

>>> COPY /tmp/ozone_164.00/GMJ_IVECX_H_M.csv /home/grierjones/DDCASPT2/ozone/ANO-RCC-VTZP/ozone_164.00/GMJ_IVECX_H_M.csv

>>> COPY /tmp/ozone_164.00/GMJ_IVECC2_H_M.csv /home/grierjones/DDCASPT2/ozone/ANO-RCC-VTZP/ozone_164.00/GMJ_IVECC2_H_M.csv

>>> COPY /tmp/ozone_164.00/GMJ_e2_H_M.csv /home/grierjones/DDCASPT2/ozone/ANO-RCC-VTZP/ozone_164.00/GMJ_e2_H_M.csv

>>> END FOREACH

>>> END FOREACH

>>> EXPORT i = A

>>> IF (-FILE GMJ_e2_$i.csv)

>>> COPY /tmp/ozone_164.00/GMJ_RHS_A.csv /home/grierjones/DDCASPT2/ozone/ANO-RCC-VTZP/ozone_164.00/GMJ_RHS_A.csv

>>> COPY /tmp/ozone_164.00/GMJ_IVECW_A.csv /home/grierjones/DDCASPT2/ozone/ANO-RCC-VTZP/ozone_164.00/GMJ_IVECW_A.csv

>>> COPY /tmp/ozone_164.00/GMJ_IVECX_A.csv /home/grierjones/DDCASPT2/ozone/ANO-RCC-VTZP/ozone_164.00/GMJ_IVECX_A.csv

>>> COPY /tmp/ozone_164.00/GMJ_IVECC2_A.csv /home/grierjones/DDCASPT2/ozone/ANO-RCC-VTZP/ozone_164.00/GMJ_IVECC2_A.csv

>>> COPY /tmp/ozone_164.00/GMJ_e2_A.csv /home/grierjones/DDCASPT2/ozone/ANO-RCC-VTZP/ozone_164.00/GMJ_e2_A.csv

>>> END FOREACH

>>> EXPORT i = C

>>> IF (-FILE GMJ_e2_$i.csv)

>>> COPY /tmp/ozone_164.00/GMJ_RHS_C.csv /home/grierjones/DDCASPT2/ozone/ANO-RCC-VTZP/ozone_164.00/GMJ_RHS_C.csv

>>> COPY /tmp/ozone_164.00/GMJ_IVECW_C.csv /home/grierjones/DDCASPT2/ozone/ANO-RCC-VTZP/ozone_164.00/GMJ_IVECW_C.csv

>>> COPY /tmp/ozone_164.00/GMJ_IVECX_C.csv /home/grierjones/DDCASPT2/ozone/ANO-RCC-VTZP/ozone_164.00/GMJ_IVECX_C.csv

>>> COPY /tmp/ozone_164.00/GMJ_IVECC2_C.csv /home/grierjones/DDCASPT2/ozone/ANO-RCC-VTZP/ozone_164.00/GMJ_IVECC2_C.csv

>>> COPY /tmp/ozone_164.00/GMJ_e2_C.csv /home/grierjones/DDCASPT2/ozone/ANO-RCC-VTZP/ozone_164.00/GMJ_e2_C.csv

>>> END FOREACH

>>> EXPORT i = D

>>> IF (-FILE GMJ_e2_$i.csv)

>>> COPY /tmp/ozone_164.00/GMJ_RHS_D.csv /home/grierjones/DDCASPT2/ozone/ANO-RCC-VTZP/ozone_164.00/GMJ_RHS_D.csv

>>> COPY /tmp/ozone_164.00/GMJ_IVECW_D.csv /home/grierjones/DDCASPT2/ozone/ANO-RCC-VTZP/ozone_164.00/GMJ_IVECW_D.csv

>>> COPY /tmp/ozone_164.00/GMJ_IVECX_D.csv /home/grierjones/DDCASPT2/ozone/ANO-RCC-VTZP/ozone_164.00/GMJ_IVECX_D.csv

>>> COPY /tmp/ozone_164.00/GMJ_IVECC2_D.csv /home/grierjones/DDCASPT2/ozone/ANO-RCC-VTZP/ozone_164.00/GMJ_IVECC2_D.csv

>>> COPY /tmp/ozone_164.00/GMJ_e2_D.csv /home/grierjones/DDCASPT2/ozone/ANO-RCC-VTZP/ozone_164.00/GMJ_e2_D.csv

>>> END FOREACH

.########################.
.# Non-zero return code #.
.########################.

    Timing: Wall=17.49 User=9.21 System=8.26
********************************************
*** WorkDir at /tmp/ozone_164.00 cleaned ***
********************************************
