[Molden Format]
[N_Atoms]
                     2
[Atoms] (AU)
F1          1      9           0.00000000      0.00000000      0.00000000
LI2         2      3           0.00000000      0.00000000      3.96842486
[Charge] (Mulliken)
 -0.692244929495390     
  0.692244929495366     
[GTO] (AU)
   1
   s  14
  1.031094600E+05  1.713099991E-04
  1.528100700E+04  7.123999962E-04
  3.441539200E+03  2.990479984E-03
  9.670948300E+02  1.164036994E-02
  3.140353400E+02  3.968642979E-02
  1.134423000E+02  1.128546094E-01
  4.464472700E+01  2.473650687E-01
  1.894287400E+01  3.672702681E-01
  8.532743000E+00  2.896286985E-01
  3.919401000E+00  7.786681959E-02
  1.568157000E+00  4.562139976E-03
  6.232900000E-01  2.468879987E-03
  2.408610000E-01  1.106309994E-03
  8.430100000E-02  1.739699991E-04
   s  14
  1.031094600E+05 -4.044999995E-05
  1.528100700E+04 -1.682299998E-04
  3.441539200E+03 -7.084299991E-04
  9.670948300E+02 -2.767999996E-03
  3.140353400E+02 -9.611379987E-03
  1.134423000E+02 -2.833957996E-02
  4.464472700E+01 -6.839343991E-02
  1.894287400E+01 -1.237379298E-01
  8.532743000E+00 -1.512859698E-01
  3.919401000E+00 -9.099909988E-03
  1.568157000E+00  3.716257695E-01
  6.232900000E-01  5.500214393E-01
  2.408610000E-01  2.092318697E-01
  8.430100000E-02  8.074639989E-03
   p   9
  2.453302900E+02  1.024860004E-03
  5.691900500E+01  8.344290032E-03
  1.760456800E+01  4.078927016E-02
  6.274995000E+00  1.351370605E-01
  2.447030000E+00  2.798830811E-01
  9.950600000E-01  3.597966414E-01
  4.039730000E-01  3.055347412E-01
  1.548100000E-01  1.354703905E-01
  5.418400000E-02  2.804449011E-02
 
   2
   s  14
  9.497934400E+03  9.668999974E-05
  1.416811200E+03  6.087099984E-04
  3.214599400E+02  3.101519992E-03
  9.112416300E+01  1.266904997E-02
  2.999989100E+01  4.248012989E-02
  1.101763100E+01  1.150183297E-01
  4.372801000E+00  2.398650094E-01
  1.831256000E+00  3.584300090E-01
  8.022610000E-01  3.048527792E-01
  3.626480000E-01  8.824261976E-02
  1.139950000E-01 -8.445899977E-04
  5.123700000E-02 -7.943959979E-03
  2.246800000E-02 -3.764419990E-03
  7.860000000E-03 -8.868999976E-05
   s  14
  9.497934400E+03 -1.244999993E-05
  1.416811200E+03 -7.838999954E-05
  3.214599400E+02 -4.007099976E-04
  9.112416300E+01 -1.645249990E-03
  2.999989100E+01 -5.634599967E-03
  1.101763100E+01 -1.590780991E-02
  4.372801000E+00 -3.612581979E-02
  1.831256000E+00 -6.459927962E-02
  8.022610000E-01 -1.008321794E-01
  3.626480000E-01 -9.757613942E-02
  1.139950000E-01  2.301215886E-01
  5.123700000E-02  6.102389764E-01
  2.246800000E-02  2.849406083E-01
  7.860000000E-03  4.026899976E-03
   p   9
  1.311950400E+01  1.524940000E-03
  3.077424200E+00  8.314830000E-03
  1.098800500E+00  1.933203000E-02
  4.357784000E-01  4.934293000E-02
  1.802432000E-01  1.623554000E-01
  7.613330000E-02  3.847505400E-01
  3.254650000E-02  4.336100400E-01
  1.401820000E-02  1.287005900E-01
  4.906400000E-03 -1.018520000E-03
 
[MO]
Sym=     1a  
Ene=   -25.8250
Spin= Alpha
Occup=    2.00000
   1         1.00001474
   2        -0.00222489
   3        -0.00000080
   4        -0.00000055
   5         0.00040346
   6        -0.00004512
   7        -0.00028031
   8        -0.00000012
   9        -0.00000008
  10         0.00034979
Sym=     2a  
Ene=    -2.5205
Spin= Alpha
Occup=    2.00000
   1        -0.00000650
   2         0.00309765
   3        -0.00000936
   4        -0.00000641
   5         0.00150906
   6         0.99982913
   7         0.01246845
   8        -0.00000154
   9        -0.00000106
  10         0.00240336
Sym=     3a  
Ene=    -1.2449
Spin= Alpha
Occup=    2.00000
   1         0.00040490
   2         0.97997688
   3        -0.00025750
   4        -0.00017634
   5         0.02226712
   6        -0.01292463
   7         0.03204973
   8        -0.00004002
   9        -0.00002741
  10        -0.03882786
Sym=     4a  
Ene=    -0.3565
Spin= Alpha
Occup=    2.00000
   1         0.00737736
   2         0.10245706
   3         0.00065937
   4         0.00045155
   5        -0.95662178
   6         0.03828738
   7        -0.15637804
   8         0.00009653
   9         0.00006611
  10         0.11001511
Sym=     5a  
Ene=    -0.3499
Spin= Alpha
Occup=    2.00000
   1        -0.00000000
   2        -0.00000000
   3         0.55179400
   4        -0.80575740
   5         0.00000000
   6        -0.00000000
   7         0.00000000
   8         0.06759360
   9        -0.09870358
  10        -0.00000000
Sym=     6a  
Ene=    -0.3408
Spin= Alpha
Occup=    1.99679
   1         0.00000542
   2        -0.00022650
   3        -0.79745982
   4        -0.54611170
   5        -0.00079013
   6         0.00002388
   7        -0.00015350
   8        -0.12903572
   9        -0.08836548
  10         0.00010832
Sym=     7a  
Ene=    -0.0000
Spin= Alpha
Occup=    0.00321
   1         0.00004064
   2         0.00042743
   3         0.24039789
   4         0.16462785
   5         0.00035609
   6        -0.00000827
   7        -0.00088237
   8        -0.82285047
   9        -0.56349957
  10         0.00066212
Sym=     8a  
Ene=    -0.0096
Spin= Alpha
Occup=    0.00000
   1         0.00047593
   2        -0.01210092
   3         0.00008618
   4         0.00005902
   5        -0.12920059
   6        -0.00668606
   7         0.84206620
   8        -0.00032137
   9        -0.00022008
  10         0.53758045
Sym=     9a  
Ene=     0.0719
Spin= Alpha
Occup=    0.00000
   1        -0.00000000
   2        -0.00000000
   3         0.14444361
   4        -0.21092384
   5         0.00000000
   6        -0.00000000
   7         0.00000000
   8        -0.56636709
   9         0.82703777
  10        -0.00000000
Sym=    10a  
Ene=     0.1961
Spin= Alpha
Occup=    0.00000
   1         0.04239282
   2         0.43745237
   3        -0.00022293
   4        -0.00015267
   5         0.30523839
   6        -0.01074195
   7        -0.57692929
   8         0.00079535
   9         0.00054467
  10         0.90450263
