   This run of MOLCAS is using the pymolcas driver

                             OPE
                             OPE          NMOL  CASOP  ENMOLC A   SO
                 OPE        NMOLC        AS  OP EN  MO LC     AS  OP
                OPENM       OL CA        SO  PE NM  OL CA     SOP EN
                OP EN      MO   LC       AS  OP ENMOL  CASO   PENMOL
                OP  EN     MO   LC       AS  OP EN     MO     LC ASO
               OP   E  NMOL  C  AS       OP  EN MO     LC     AS  OP
               OP  E   NMO   LC AS        OPEN  MO     LCASOP EN   M
               O  PEN   MO  LCA  SO
            OPE   NMO   L   CAS    OP
        OPENMOL  CASOP     ENMOL   CASOPE
     OPENMOLCA   SOPENMOLCASOPEN   MOLCASOPE
    OPENMOLCAS   OP           EN   MOL    CAS
    OPENMOLCAS       OP  ENM        O     LCA
    OPENMOLCAS    OPEN  MOLCASO     P  E  NMO
    OPENMOLCAS     OP               E  N  MOL
    OPENMOLCA   SO           PENM   O  L  CAS    OPEN    MO    LCAS
    OPENMOLCA   SOP           ENM   O  L  CAS   OP  EN  MOLC  AS   O
    OPENMOLCA   SOPE           NM      O  LCA   S      OP  EN MO
    OPENMOLC                AS         O  PEN   M      OL  CA  SOPE
    OPENMO        LCASOPE  NMOL        C  ASO   P      ENMOLC     AS
    OPE     NMO      LCA  SO     P     E   NM   OL  CA SO  PE N   MO
          OPENMOLCA            SOPE   NMO        LCAS  O    P  ENMO
     OPENMOLCASOPENMOLCASOPENMOLCASOPENMOLCA
        OPENMOLCASOPENMOLCASOPENMOLCASOPE
            OPENMOLCASOPENMOLCASOPENM
               OPENMOLCASOPENMOLCA        version: 24.02
                   OPENMOLCASO
                       OPE                tag: 126-g611b04c8f

 OpenMolcas is free software; you can redistribute it and/or modify it
 under the terms of the GNU Lesser General Public License version 2.1.
 OpenMolcas is distributed in the hope that it will be useful, but it
 is provided "as is" and without any express or implied warranties.
 For more details see the full text of the license in the file
 LICENSE or in <http://www.gnu.org/licenses/>.

                 Copyright (C) The OpenMolcas Authors
           For the author list and the recommended citation,
                   consult the file CONTRIBUTORS.md

           *************************************************
           * pymolcas version py2.28                       *
           *   build c4a6d18ded8cb6cad61d2372a9abd97c      *
           *   (after the EMIL interpreter by V. Veryazov) *
           *************************************************

configuration info
------------------
Host name: debian (Linux)
C Compiler ID: GNU
C flags: -std=gnu99
Fortran Compiler ID: Intel
Fortran flags: -fpp -i8 -heap-arrays
Definitions: _MOLCAS_;_I8_;_LINUX_
Parallel: OFF (GA=OFF)


   -----------------------------------------------------------------
  |
  |              Project: 2.80
  |       Submitted from: /home/grierjones/DDCASPT2/delta_ML/BO/2.80
  |         Scratch area: /tmp/2.80
  |      Save outputs to: /home/grierjones/DDCASPT2/delta_ML/BO/2.80
  |               Molcas: /usr/local
  |
  | Scratch area is empty
  |
  |       MOLCAS_DRIVER = /usr/local/pymolcas
  | MOLCAS_KEEP_WORKDIR = NO
  |  MOLCAS_NEW_WORKDIR = YES
  |       MOLCAS_NPROCS = 1
  |       MOLCAS_SOURCE = /usr/local
  |    MOLCAS_STRUCTURE = 0
  |
   -----------------------------------------------------------------

++ ---------   Input file   ---------

&GATEWAY
coord=2.80.xyz
Basis = ANO-RCC-MB
Group = nosymm
End of Input

&SEWARD
End of Input

&SCF
UHF

&MBPT2
Frozen
0

&RASSCF
Title= RASSCF
FileOrb
/home/grierjones/DDCASPT2/delta_ML/BO/2.70/2.70.RasOrb

NACTEL
1 0 0
Inactive
6
RAS2
2
Symmetry
1
Spin
2
orblisting
all
ITERation
200 100
CIMX
200
SDAV
500

&CASPT2
Imaginary Shift
0.0
Frozen
0

-- ----------------------------------

--- Start Module: gateway at Thu Apr 25 13:39:09 2024 ---
 
()()()()()()()()()()()()()()()()()()()()()()()()()()()()()()()()()()()()()()()()()()()()()()()()()()

                                              &GATEWAY

                                   only a single process is used
                       available to each process: 2.0 GB of memory, 1 thread?
                                             pid: 98507
()()()()()()()()()()()()()()()()()()()()()()()()()()()()()()()()()()()()()()()()()()()()()()()()()()
 
 
++    Symmetry information:
      ---------------------
 
                    Character Table for C1 
 
                             E  
                    a        1  x, y, xy, Rz, z, xz, Ry, yz, Rx, I
--
 
 
++    Basis set information:
      ----------------------
 
 
      Basis set label: B.ANO-RCC...2S1P.
 
      Electronic valence basis set:
      ------------------
      Associated Effective Charge   5.000000 au
      Associated Actual Charge      5.000000 au
      Nuclear Model: Point charge
 
      Shell  nPrim  nBasis  Cartesian Spherical Contaminant
         s      14       2        X                  
         p       9       1        X                  
 
 
      Basis set label: O.ANO-RCC...2S1P.
 
      Electronic valence basis set:
      ------------------
      Associated Effective Charge   8.000000 au
      Associated Actual Charge      8.000000 au
      Nuclear Model: Point charge
 
      Shell  nPrim  nBasis  Cartesian Spherical Contaminant
         s      14       2        X                  
         p       9       1        X                  
--
 
 
++    Molecular structure info:
      -------------------------
 
                    ************************************************ 
                    **** Cartesian Coordinates / Bohr, Angstrom **** 
                    ************************************************ 
 
     Center  Label                x              y              z                     x              y              z
        1      B1               0.000000       0.000000       0.000000              0.000000       0.000000       0.000000
        2      O2               0.000000       0.000000       5.291233              0.000000       0.000000       2.800000
--
 
 
            Nuclear Potential Energy              7.55967444 au
 
--- Stop Module: gateway at Thu Apr 25 13:39:10 2024 /rc=_RC_ALL_IS_WELL_ ---
*** files: xmldump
    saved to directory /home/grierjones/DDCASPT2/delta_ML/BO/2.80

--- Start Module: seward at Thu Apr 25 13:39:10 2024 ---
 
()()()()()()()()()()()()()()()()()()()()()()()()()()()()()()()()()()()()()()()()()()()()()()()()()()

                                              &SEWARD

                                   only a single process is used
                       available to each process: 2.0 GB of memory, 1 thread?
                                             pid: 98511
()()()()()()()()()()()()()()()()()()()()()()()()()()()()()()()()()()()()()()()()()()()()()()()()()()
 
               SEWARD will generate:
                  Multipole Moment integrals up to order  2
                  Kinetic Energy integrals
                  Nuclear Attraction integrals (point charge)
                  One-Electron Hamiltonian integrals
                  Velocity integrals
                  Relativistic Douglas-Kroll-Hess integrals:
                    - Parametrization         : EXP
                    - DKH order of Hamiltonian: 2
                    - DKH order of Properties : 0
                         - multipole moment operators
                         - electric potential operators
                         - contact operators
                  Orbital angular momentum around ( 0.0000  0.0000  3.1341 )
                  Velocity quadrupole around ( 0.0000  0.0000  3.1341 )
                  Atomic mean-field integrals
                  Two-Electron Repulsion integrals
 
                   Integrals are discarded if absolute value <: 1.00E-14
                   Integral cutoff threshold is set to       <: 1.00E-16
 
            Nuclear Potential Energy              7.55967444 au
 
 
      Basis set specifications :
      Symmetry species         a  
      Basis functions           10
 
 
      Input file to MOLDEN was generated!
 
--- Stop Module: seward at Thu Apr 25 13:39:10 2024 /rc=_RC_ALL_IS_WELL_ ---
*** files: 2.80.GssOrb 2.80.guessorb.h5 2.80.guessorb.molden xmldump
    saved to directory /home/grierjones/DDCASPT2/delta_ML/BO/2.80

*** symbolic link created: INPORB -> 2.80.GssOrb
--- Start Module: scf at Thu Apr 25 13:39:10 2024 ---
 
()()()()()()()()()()()()()()()()()()()()()()()()()()()()()()()()()()()()()()()()()()()()()()()()()()

                                                &SCF

                                   only a single process is used
                       available to each process: 2.0 GB of memory, 1 thread?
                                             pid: 98514
()()()()()()()()()()()()()()()()()()()()()()()()()()()()()()()()()()()()()()()()()()()()()()()()()()
 
++    Input section:
      --------------
 
      Header of the integral files:
      
       Integrals generated by Gateway/Seward, Thu Apr 25 13:39:10 2024
 
 
      Cartesian coordinates in Angstrom:
      -----------------------------------------------------
      No.  Label        X            Y            Z        
      -----------------------------------------------------
       1   B1         0.00000000   0.00000000   0.00000000
       2   O2         0.00000000   0.00000000   2.80000000
      -----------------------------------------------------
      Nuclear repulsion energy =    7.55967444
--
 
++    Orbital specifications:
      -----------------------
 
      Symmetry species               1
                                     a
      Frozen orbitals                0
      Occupied orbitals alpha        7
      Occupied orbitals beta         6
      Secondary orbitals alpha       3
      Secondary orbitals beta        4
      Deleted orbitals               0
      Total number of orbitals      10
      Number of basis functions     10
--
 
      Molecular charge                           0.000
 
++    Optimization specifications:
      ----------------------------
 
      SCF Algorithm: Conventional USCF
      D(i)-D(i-1) density differences are used
      Number of density matrices in core                 5
      Maximum number of NDDO SCF iterations            400
      Maximum number of HF SCF iterations              400
      Threshold for SCF energy change             1.00E-09
      Threshold for density matrix                1.00E-04
      Threshold for Fock matrix                   1.50E-04
      Threshold for linear dependence             1.00E-09
      Threshold at which DIIS is turned on        1.50E-01
      Maximum depth in the DIIS procedure                5
      Maximum depth in the BFGS Hessian update          30
      Threshold at which QNR/C2DIIS is turned on  7.50E-02
      Threshold for Norm(delta) (QNR/C2DIIS)      1.00E-03
      All orbitals punched on: UHFORB
--
 
      Input vectors read from INPORB
      Orbital file label: *Guess orbitals
 
 
++ Convergence information
                               UHF SCF        iterations: Energy and convergence statistics
 
Iter     Tot. SCF        One-elec.       Two-elec.     Energy      Max Dij or  Max Fij      DNorm      TNorm      AccCon     Time
         Energy          Energy          Energy        Change      Delta Norm                                                in Sec.
   1   -98.209588712  -156.781078149    51.011814995   0.00E+00    7.15E-01*   3.02E-01*    5.10E+00   2.25E+01   None         0.
   2   -91.319732251  -136.169079412    37.289672720   6.89E+00*   6.21E-01*   3.28E-01*    5.00E+00   1.80E+01   EDIIS        0.
   3   -98.124403935  -146.034235131    40.350156754  -6.80E+00*   3.67E-01*   1.26E-01*    3.16E+00   1.98E+01   EDIIS        0.
   4   -99.147547893  -152.063963471    45.356741137  -1.02E+00*   4.45E-01*   1.60E-01*    1.27E+00   2.12E+01   EDIIS        0.
   5   -99.213792681  -151.860931298    45.087464175  -6.62E-02*   2.44E-01*   5.22E-02*    6.97E-01   2.11E+01   EDIIS        0.
   6   -99.225701381  -152.747560310    45.962184488  -1.19E-02*   1.86E-01*   2.66E-02*    5.35E-01   2.13E+01   EDIIS        0.
   7   -99.226842410  -152.090741579    45.304224728  -1.14E-03*   5.16E-02*   1.68E-02*    3.72E-01   2.12E+01   EDIIS        0.
   8   -99.229373802  -152.492117108    45.703068865  -2.53E-03*   1.92E-02*   3.53E-03*    9.64E-02   2.13E+01   c2DIIS       0.
   9   -99.229637371  -152.396322950    45.607011137  -2.64E-04*   2.68E-02*   5.16E-03*    4.50E-02   2.13E+01   QNRc2DIIS    0.
  10   -99.229765053  -152.412744179    45.623304685  -1.28E-04*   2.61E-01*   3.37E-03*    3.66E-02   2.13E+01   QNRc2DIIS    0.
  11   -99.230243697  -152.330559405    45.540641267  -4.79E-04*   7.65E-02*   6.38E-03*    3.52E-01   2.12E+01   QNRc2DIIS    0.
  12   -99.230454548  -152.335895393    45.545766404  -2.11E-04*   4.50E-02*   2.73E-03*    1.07E-01   2.12E+01   QNRc2DIIS    0.
  13   -99.230589851  -152.288093316    45.497829023  -1.35E-04*   4.05E-02*   1.50E-03*    5.77E-02   2.12E+01   QNRc2DIIS    0.
  14   -99.230525684  -152.308504245    45.518304120   6.42E-05*   1.85E-01*   1.98E-03*    5.45E-02   2.12E+01   QNRc2DIIS    0.
  15   -99.230438815  -152.168946891    45.378833635   8.69E-05*   1.15E-01*   3.76E-03*    2.47E-01   2.12E+01   QNRc2DIIS    0.
  16   -99.230648333  -152.258580221    45.468257447  -2.10E-04*   5.35E-03*   7.19E-04*    1.53E-01   2.12E+01   QNRc2DIIS    0.
  17   -99.230652076  -152.256247702    45.465921185  -3.74E-06*   7.20E-02*   6.68E-04*    7.46E-03   2.12E+01   QNRc2DIIS    0.
  18   -99.230610794  -152.209940369    45.419655133   4.13E-05*   4.48E-02*   1.78E-03*    9.93E-02   2.12E+01   QNRc2DIIS    0.
  19   -99.230666079  -152.246601405    45.456260884  -5.53E-05*   1.19E-03*   1.70E-04*    5.87E-02   2.12E+01   QNRc2DIIS    0.
  20   -99.230666319  -152.247487695    45.457146935  -2.39E-07*   4.20E-03*   1.29E-04     1.56E-03   2.12E+01   QNRc2DIIS    0.
  21   -99.230666694  -152.250641501    45.460300366  -3.75E-07*   2.75E-04    9.08E-06     5.59E-03   2.12E+01   QNRc2DIIS    0.
  22   -99.230666695  -152.250857117    45.460515980  -1.66E-09*   2.89E-05    2.64E-06     3.63E-04   2.12E+01   QNRc2DIIS    0.
  23   -99.230666695  -152.250873583    45.460532446  -1.76E-11    2.18E-05    1.57E-06     3.82E-05   2.12E+01   QNRc2DIIS    0.
 
       Convergence after  23 Macro Iterations
--
 
 *****************************************************************************************************************************
 *                                                                                                                           *
 *                                             SCF/KS-DFT Program, Final results                                             *
 *                                                                                                                           *
 *                                                                                                                           *
 *                                                                                                                           *
 *                                                       Final Results                                                       *
 *                                                                                                                           *
 *****************************************************************************************************************************
 
::    Total SCF energy                                -99.2306666953
      One-electron energy                            -152.2508735829
      Two-electron energy                              45.4605324461
      Nuclear repulsion energy                          7.5596744415
      Kinetic energy (interpolated)                   100.5608571388
      Virial theorem                                    0.9867722842
      Total spin, S(S+1)                                1.1429966217
      Total spin, S                                     0.6802527787
      Max non-diagonal density matrix element           0.0000169125
      Max non-diagonal Fock matrix element              0.0000028577
 
 
      All orbitals with orbital energies smaller than  E(LUMO)+0.5 are printed
 
++    Molecular orbitals:
      -------------------
 
      Title: UHF orbitals (alpha)

      Molecular orbitals for symmetry species 1: a  
 
          Orbital            1         2         3         4         5         6         7         8         9        10    
          Energy          -20.3435   -7.8492   -1.0838   -0.6145   -0.4405   -0.2562   -0.2562   -0.0453   -0.0453    0.0173
          Occ. No.          1.0000    1.0000    1.0000    1.0000    1.0000    1.0000    1.0000    0.0000    0.0000    0.0000
 
        1 B1     1s        -0.0000    0.9999   -0.0012    0.0141    0.0023    0.0000   -0.0000   -0.0000    0.0000   -0.0002
        2 B1     2s        -0.0001    0.0137    0.0299   -0.9778    0.2043    0.0000   -0.0000   -0.0000    0.0000    0.1018
        3 B1     2px       -0.0000   -0.0000   -0.0000   -0.0000   -0.0000    0.4565    0.1357   -0.2508   -0.8437    0.0000
        4 B1     2py        0.0000    0.0000    0.0000    0.0000    0.0000   -0.1357    0.4565   -0.8437    0.2508   -0.0000
        5 B1     2pz       -0.0001    0.0002    0.0180    0.0597   -0.1442   -0.0000    0.0000   -0.0000    0.0000    0.9994
        6 O2     1s         1.0000   -0.0000   -0.0011    0.0020    0.0006    0.0000   -0.0000    0.0000   -0.0000   -0.0076
        7 O2     2s         0.0009   -0.0000    0.9963    0.0679    0.0128    0.0000   -0.0000    0.0000   -0.0000   -0.1203
        8 O2     2px       -0.0000   -0.0000    0.0000   -0.0000   -0.0000    0.8256    0.2454    0.1452    0.4885    0.0000
        9 O2     2py        0.0000    0.0000   -0.0000    0.0000    0.0000   -0.2454    0.8256    0.4885   -0.1452   -0.0000
       10 O2     2pz       -0.0000    0.0000   -0.0072    0.1401    0.9687    0.0000   -0.0000   -0.0000    0.0000    0.2509
--
 
 
      Input file to MOLDEN was generated!
 
 
++    Static properties:
      ------------------
 
 
      LoProp Charges per center
 

                   B1       O2    
      Nuclear      5.0000   8.0000
      Electronic  -4.5330  -8.4670
 
      Total        0.4670  -0.4670
--
 
 
      All orbitals with orbital energies smaller than  E(LUMO)+0.5 are printed
 
++    Molecular orbitals:
      -------------------
 
      Title: UHF orbitals (beta)

      Molecular orbitals for symmetry species 1: a  
 
          Orbital            1         2         3         4         5         6         7         8         9        10    
          Energy          -20.3278   -7.8416   -1.0105   -0.5607   -0.3727   -0.3727    0.0201    0.0242    0.0242    0.3380
          Occ. No.          1.0000    1.0000    1.0000    1.0000    1.0000    1.0000    0.0000    0.0000    0.0000    0.0000
 
        1 B1     1s        -0.0000    0.9999   -0.0010   -0.0124   -0.0000    0.0000   -0.0009   -0.0000    0.0000    0.0039
        2 B1     2s        -0.0001    0.0124    0.0204    0.9994   -0.0000    0.0000    0.0055    0.0000   -0.0000    0.0990
        3 B1     2px       -0.0000   -0.0000    0.0000   -0.0000    0.0112    0.0375    0.0000   -0.9585   -0.2849    0.0000
        4 B1     2py        0.0000   -0.0000    0.0000    0.0000    0.0375   -0.0112   -0.0000    0.2849   -0.9585   -0.0000
        5 B1     2pz       -0.0001    0.0003    0.0108   -0.0143    0.0000   -0.0000    0.9842    0.0000   -0.0000    0.2334
        6 O2     1s         1.0000   -0.0000   -0.0001   -0.0024   -0.0000    0.0000   -0.0073   -0.0000    0.0000   -0.0019
        7 O2     2s         0.0000   -0.0000    0.9975   -0.0651   -0.0000    0.0000   -0.1114   -0.0000    0.0000   -0.0094
        8 O2     2px       -0.0000   -0.0000   -0.0000   -0.0000    0.2843    0.9564   -0.0000    0.0742    0.0221   -0.0000
        9 O2     2py        0.0000    0.0000    0.0000    0.0000    0.9564   -0.2843    0.0000   -0.0221    0.0742    0.0000
       10 O2     2pz       -0.0001    0.0000   -0.0198   -0.0121   -0.0000    0.0000   -0.1167   -0.0000    0.0000    1.0034
--
 
 
++    Molecular charges:
      ------------------
 
      Mulliken charges per centre and basis function type
      ---------------------------------------------------
 
                            B1                      O2    
                     alpha        beta       alpha        beta
      1s           1.0000      1.0000      1.0000      1.0000
      2s           0.9923      0.9985      0.9978      0.9984
      2px          0.2425      0.0030      0.7575      0.9970
      2pz          0.0418      0.0015      0.9681      0.0016
      2py          0.2425      0.0030      0.7575      0.9970
      Total        2.5191      2.0060      4.4809      3.9940
      Total              4.5251                  8.4749
 
      Charge            0.4749                 -0.4749
 
      Total electronic charge=   13.000000
 
      Total            charge=   -0.000000
--
 
 
      Input file to MOLDEN was generated!
 
 
++    Static properties:
      ------------------
 
 
      LoProp Charges per center
 

                   B1       O2    
      Nuclear      5.0000   8.0000
      Electronic  -4.5330  -8.4670
 
      Total        0.4670  -0.4670
--
 
 
++    Natural Bond Order analysis
      ---------------------------
      Based on LoProp computed density
      -------------------------------------------------------------------------------------
      Atom A       Atom B       Bond Order
      -------------------------------------------------------------------------------------
      NBO located      1.000 non-bonded electrons on atom B1        
      NBO located      1.002 non-bonded electrons on atom B1        
      The remaining    4.543 electrons are to be considered as diffuse
--
 
 
++    Molecular orbitals:
      -------------------
 
      Title: Natural orbitals

      Molecular orbitals for symmetry species 1: a  
 
          Orbital            1         2         3         4         5         6         7         8         9        10    
          Energy          -20.3357   -7.8453   -1.0375   -0.5954   -0.2988   -0.2988   -0.0730   -0.0261   -0.0261    0.0386
          Occ. No.          2.0000    2.0000    2.0000    1.9981    1.8974    1.8974    1.0000    0.1026    0.1026    0.0019
 
        1 B1     1s        -0.0000    0.9999    0.0033   -0.0122   -0.0000    0.0000   -0.0039    0.0000   -0.0000    0.0002
        2 B1     2s        -0.0000    0.0126   -0.1684    0.9836    0.0000   -0.0000   -0.0904    0.0000   -0.0000    0.0713
        3 B1     2px       -0.0000   -0.0000    0.0000   -0.0000    0.2536    0.0754   -0.0000    0.2750    0.9251    0.0000
        4 B1     2py        0.0000    0.0000    0.0000    0.0000   -0.0754    0.2536    0.0000    0.9251   -0.2750   -0.0000
        5 B1     2pz       -0.0001    0.0003   -0.0086   -0.0468   -0.0000    0.0000    0.1360    0.0000   -0.0000    1.0014
        6 O2     1s         1.0000   -0.0000    0.0013   -0.0020    0.0000   -0.0000   -0.0008   -0.0000    0.0000   -0.0076
        7 O2     2s         0.0009    0.0003   -0.9768   -0.2089   -0.0000    0.0000   -0.0312   -0.0000    0.0000   -0.1139
        8 O2     2px       -0.0000   -0.0000   -0.0000   -0.0000    0.9147    0.2719    0.0000   -0.0859   -0.2889   -0.0000
        9 O2     2py        0.0000    0.0000    0.0000    0.0000   -0.2719    0.9147   -0.0000   -0.2889    0.0859    0.0000
       10 O2     2pz       -0.0001    0.0000    0.0214   -0.0168    0.0000   -0.0000   -0.9783    0.0000   -0.0000    0.2514
--
 
 
++    Molecular properties:
      ---------------------
 
      Charge (e):
                      =   -0.0000
      Dipole Moment (Debye):
      Origin of the operator (Ang)=    0.0000    0.0000    0.0000
                   X=  3.5369E-14               Y= -8.7486E-14               Z= -5.9107E+00           Total=  5.9107E+00
      Quadrupole Moment (Debye*Ang):
      Origin of the operator (Ang)=    0.0000    0.0000    1.6585
                  XX= -1.1593E+01              XY=  2.5894E-07              XZ=  9.4306E-12              YY= -1.1593E+01
                  YZ= -4.4273E-11              ZZ= -7.7498E+00
      In traceless form (Debye*Ang)
                  XX= -1.9218E+00              XY=  3.8841E-07              XZ=  1.4146E-11              YY= -1.9218E+00
                  YZ= -6.6410E-11              ZZ=  3.8436E+00
--
 
 
      Input file to MOLDEN was generated!
 
 ###############################################################################
 ###############################################################################
 ###                                                                         ###
 ###                                                                         ###
 ###    WARNING: RunFile label nBas                                          ###
 ###    was used       87 times                                              ###
 ###                                                                         ###
 ###                                                                         ###
 ###############################################################################
 ###############################################################################
--- Stop Module: scf at Thu Apr 25 13:39:11 2024 /rc=_RC_ALL_IS_WELL_ ---
*** files: 2.80.LprOrb 2.80.LoProp.molden 2.80.scf.molden 2.80.scf.h5 2.80.UhfOrb 2.80.UnaOrb xmldump
    saved to directory /home/grierjones/DDCASPT2/delta_ML/BO/2.80

*** symbolic link created: INPORB -> 2.80.UnaOrb
--- Start Module: mbpt2 at Thu Apr 25 13:39:11 2024 ---
 
()()()()()()()()()()()()()()()()()()()()()()()()()()()()()()()()()()()()()()()()()()()()()()()()()()

                                               &MBPT2

                                   only a single process is used
                       available to each process: 2.0 GB of memory, 1 thread?
                                             pid: 98518
()()()()()()()()()()()()()()()()()()()()()()()()()()()()()()()()()()()()()()()()()()()()()()()()()()
 
 
 ###############################################################################
 ###############################################################################
 ###                                                                         ###
 ###                                                                         ###
 ###    WARNING: MP2 implementation intended for RHF references only         ###
 ###                                                                         ###
 ###                                                                         ###
 ###############################################################################
 ###############################################################################
MBPT2 WARNING: Reference function according to RunFile:UHF-SCF 
I'll assume you know what you're doing and continue
 
 
WARNING!
Default frozen orbitals as non valence orbitals is overwritten by user input.
Default values:   2
 
 
      Cartesian coordinates in Angstrom:
      -----------------------------------------------------
      No.  Label        X            Y            Z        
      -----------------------------------------------------
       1   B1         0.00000000   0.00000000   0.00000000
       2   O2         0.00000000   0.00000000   2.80000000
      -----------------------------------------------------
      Nuclear repulsion energy =    7.55967444
 
      Contents of RUNFILE file:
      -------------------------
 
      Symmetry species                           1
                                                 a
      Number of basis functions                 10
      Frozen occupied orbitals                   0
      Active occupied orbitals                   7
      Active external orbitals                   3
      Deleted external orbitals                  0
 
 
      Energies of the active occupied orbitals
 
      symmetry species 1                   -20.343513     -7.849153     -1.083832     -0.614509     -0.440500
                                            -0.256160     -0.256157
 
 
      Energies of the active external orbitals
 
      symmetry species 1                    -0.045294     -0.045294      0.017299
 
 
      ********************************************************************************************************
      *                                               Results                                                *
      ********************************************************************************************************
 
 Conventional algorithm used...

       SCF energy                           =      -99.2306666953 a.u.
       Second-order correlation energy      =       -0.3950483535 a.u.

       Total energy                         =      -99.6257150488 a.u.
       Reference weight ( Cref**2 )         =        0.53706
 
::    Total MBPT2 energy                              -99.6257150488
 
 
       Zeroth-order energy (E0)             =      -54.1279736298 a.u.
 
       Shanks-type energy S1(E)             =      -99.6292057986 a.u.
 
 


       Data processing and timing information:

       Section                                              time(sec)
                                                          CPU  Elapsed

      Input data processing                              0.03      0.04
      Transformation of integrals                        0.00      0.00
      MBPT2 calculations (BJAI)                          0.00      0.00
      Total MBPT2 calculations                           0.03      0.04
 
 
--- Stop Module: mbpt2 at Thu Apr 25 13:39:11 2024 /rc=_RC_ALL_IS_WELL_ ---
*** files: xmldump
    saved to directory /home/grierjones/DDCASPT2/delta_ML/BO/2.80

*** symbolic link created: INPORB -> 2.80.UnaOrb
--- Start Module: rasscf at Thu Apr 25 13:39:11 2024 ---
 
()()()()()()()()()()()()()()()()()()()()()()()()()()()()()()()()()()()()()()()()()()()()()()()()()()

                                              &RASSCF

                                   only a single process is used
                       available to each process: 2.0 GB of memory, 1 thread?
                                             pid: 98521
()()()()()()()()()()()()()()()()()()()()()()()()()()()()()()()()()()()()()()()()()()()()()()()()()()
 
 
      Header of the ONEINT file:
      --------------------------
      
      Integrals generated by Gateway/Seward, Thu Apr 25 13:39:10 2024
 
 
      OrdInt status: non-squared
 
 
      Cartesian coordinates in Angstrom:
      -----------------------------------------------------
      No.  Label        X            Y            Z        
      -----------------------------------------------------
       1   B1         0.00000000   0.00000000   0.00000000
       2   O2         0.00000000   0.00000000   2.80000000
      -----------------------------------------------------
      Nuclear repulsion energy =    7.55967444
 
++    Wave function specifications:
      -----------------------------
 
      Number of closed shell electrons          12
      Number of electrons in active shells       1
      Max number of holes in RAS1 space          0
      Max nr of electrons in RAS3 space          0
      Number of inactive orbitals                6
      Number of active orbitals                  2
      Number of secondary orbitals               2
      Spin quantum number                      0.5
      State symmetry                             1
--
 
++    Orbital specifications:
      -----------------------
 
      Symmetry species                           1
                                                 a
      Frozen orbitals                            0
      Inactive orbitals                          6
      Active orbitals                            2
      RAS1 orbitals                              0
      RAS2 orbitals                              2
      RAS3 orbitals                              0
      Secondary orbitals                         2
      Deleted orbitals                           0
      Number of basis functions                 10
--
 
++    CI expansion specifications:
      ----------------------------
 
      Number of CSFs                             2
      Number of determinants                     2
      Number of root(s) required                 1
      Root chosen for geometry opt.              1
      CI root used                               1
         
      highest root included in the CI            1
      max. size of the explicit Hamiltonian      2
--
 
++    Optimization specifications:
      ----------------------------
 
      RASSCF algorithm: Conventional
      Maximum number of macro iterations       200
      Maximum number of SX iterations          100
      Threshold for RASSCF energy            1.000E-08
      Threshold for max MO rotation          1.000E-01
      Threshold for max BLB element          1.000E-04
      Level shift parameter                  5.000E-01
      Make Quasi-Newton update
--
 
      The MO-coefficients are taken from the file:
      /home/grierjones/DDCASPT2/delta_ML/BO/2.70/2.70.RasOrb                                                                                                                                                                                                          
      Title: RASSCF average (pseudo-natural) orbitals                                      
 
      Total molecular charge    0.00
 
      ************************************************************************************************************************
      *                                                                                                                      *
      *                                            Wave function control section                                             *
      *                                                                                                                      *
      ************************************************************************************************************************
 
 
                                         RASSCF iterations: Energy and convergence statistics
                                         ----------------------------------------------------
 
      Iter CI   SX   CI       RASSCF       Energy    max ROT     max BLB   max BLB  Level Ln srch  Step   QN   Walltime
          iter iter root      energy       change     param      element    value   shift minimum  type update hh:mm:ss
 Nr of preliminary CI iterations:   1
 ###############################################################################
 ###############################################################################
 ###                                                                         ###
 ###                                                                         ###
 ###    WARNING: Problems in orbital optimization.                           ###
 ###                                                                         ###
 ###                                                                         ###
 ###############################################################################
 ###############################################################################
  Warning: In symmetry  1, orbital p=   8 has diagonal density matrix element D(p,p) close to zero. D(p,p)=  1.066897E-24
        1   1    4    1   -99.28381718    0.00E+00  -8.02E-03    6  10 1 -7.19E-03*  0.50   0.00    SX    NO    0:00:00
 ###############################################################################
 ###############################################################################
 ###                                                                         ###
 ###                                                                         ###
 ###    WARNING: Problems in orbital optimization.                           ###
 ###                                                                         ###
 ###                                                                         ###
 ###############################################################################
 ###############################################################################
  Warning: In symmetry  1, orbital p=   8 has diagonal density matrix element D(p,p) close to zero. D(p,p)=  1.065474E-24
        2   1    4    1   -99.28394741   -1.30E-04* -6.12E-03    6  10 1 -4.49E-03*  0.50   0.00    SX    NO    0:00:00
 ###############################################################################
 ###############################################################################
 ###                                                                         ###
 ###                                                                         ###
 ###    WARNING: Problems in orbital optimization.                           ###
 ###                                                                         ###
 ###                                                                         ###
 ###############################################################################
 ###############################################################################
  Warning: In symmetry  1, orbital p=   8 has diagonal density matrix element D(p,p) close to zero. D(p,p)=  1.066095E-24
        3   1    4    1   -99.28401463   -6.72E-05* -4.68E-03    7  10 1  3.26E-03*  0.50   0.00    SX    NO    0:00:00
 ###############################################################################
 ###############################################################################
 ###                                                                         ###
 ###                                                                         ###
 ###    WARNING: Problems in orbital optimization.                           ###
 ###                                                                         ###
 ###                                                                         ###
 ###############################################################################
 ###############################################################################
  Warning: In symmetry  1, orbital p=   8 has diagonal density matrix element D(p,p) close to zero. D(p,p)=  1.067495E-24
        4   1    4    1   -99.28405047   -3.58E-05* -3.59E-03    7  10 1  2.50E-03*  0.50   0.00    SX    NO    0:00:00
 ###############################################################################
 ###############################################################################
 ###                                                                         ###
 ###                                                                         ###
 ###    WARNING: Problems in orbital optimization.                           ###
 ###                                                                         ###
 ###                                                                         ###
 ###############################################################################
 ###############################################################################
  Warning: In symmetry  1, orbital p=   8 has diagonal density matrix element D(p,p) close to zero. D(p,p)=  1.069067E-24
        5   1    4    1   -99.28407010   -1.96E-05* -5.32E-03    7  10 1  1.91E-03*  0.50   2.50    LS   YES    0:00:00
 ###############################################################################
 ###############################################################################
 ###                                                                         ###
 ###                                                                         ###
 ###    WARNING: Problems in orbital optimization.                           ###
 ###                                                                         ###
 ###                                                                         ###
 ###############################################################################
 ###############################################################################
  Warning: In symmetry  1, orbital p=   8 has diagonal density matrix element D(p,p) close to zero. D(p,p)=  1.072464E-24
        6   1    3    1   -99.28408860   -1.85E-05* -5.06E-03    7  10 1  1.05E-03*  0.50   1.96    LS   YES    0:00:00
 ###############################################################################
 ###############################################################################
 ###                                                                         ###
 ###                                                                         ###
 ###    WARNING: Problems in orbital optimization.                           ###
 ###                                                                         ###
 ###                                                                         ###
 ###############################################################################
 ###############################################################################
  Warning: In symmetry  1, orbital p=   8 has diagonal density matrix element D(p,p) close to zero. D(p,p)=  1.076887E-24
        7   1    4    1   -99.28409444   -5.85E-06* -5.23E-04    6  10 1  7.56E-04*  0.50   1.01    QN   YES    0:00:00
 ###############################################################################
 ###############################################################################
 ###                                                                         ###
 ###                                                                         ###
 ###    WARNING: Problems in orbital optimization.                           ###
 ###                                                                         ###
 ###                                                                         ###
 ###############################################################################
 ###############################################################################
  Warning: In symmetry  1, orbital p=   8 has diagonal density matrix element D(p,p) close to zero. D(p,p)=  1.076862E-24
        8   1    3    1   -99.28409532   -8.73E-07* -7.82E-04    6  10 1  5.26E-04*  0.50   2.50    LS   YES    0:00:00
 ###############################################################################
 ###############################################################################
 ###                                                                         ###
 ###                                                                         ###
 ###    WARNING: Problems in orbital optimization.                           ###
 ###                                                                         ###
 ###                                                                         ###
 ###############################################################################
 ###############################################################################
  Warning: In symmetry  1, orbital p=   8 has diagonal density matrix element D(p,p) close to zero. D(p,p)=  1.076806E-24
        9   1    3    1   -99.28409612   -8.06E-07* -6.60E-04    6   7 1  2.23E-04*  0.50   1.84    LS   YES    0:00:00
 ###############################################################################
 ###############################################################################
 ###                                                                         ###
 ###                                                                         ###
 ###    WARNING: Problems in orbital optimization.                           ###
 ###                                                                         ###
 ###                                                                         ###
 ###############################################################################
 ###############################################################################
  Warning: In symmetry  1, orbital p=   8 has diagonal density matrix element D(p,p) close to zero. D(p,p)=  1.076739E-24
       10   1    3    1   -99.28409634   -2.14E-07*  2.01E-04    6   7 1  1.50E-04*  0.50   1.00    QN   YES    0:00:00
 ###############################################################################
 ###############################################################################
 ###                                                                         ###
 ###                                                                         ###
 ###    WARNING: Problems in orbital optimization.                           ###
 ###                                                                         ###
 ###                                                                         ###
 ###############################################################################
 ###############################################################################
  Warning: In symmetry  1, orbital p=   8 has diagonal density matrix element D(p,p) close to zero. D(p,p)=  1.076419E-24
       11   1    3    1   -99.28409640   -6.32E-08*  2.63E-04    6  10 1 -9.86E-05   0.50   2.31    LS   YES    0:00:00
 ###############################################################################
 ###############################################################################
 ###                                                                         ###
 ###                                                                         ###
 ###    WARNING: Problems in orbital optimization.                           ###
 ###                                                                         ###
 ###                                                                         ###
 ###############################################################################
 ###############################################################################
  Warning: In symmetry  1, orbital p=   8 has diagonal density matrix element D(p,p) close to zero. D(p,p)=  1.075994E-24
       12   1    3    1   -99.28409643   -2.99E-08*  1.42E-04    6  10 1 -8.56E-05   0.50   1.00    QN   YES    0:00:00
 ###############################################################################
 ###############################################################################
 ###                                                                         ###
 ###                                                                         ###
 ###    WARNING: Problems in orbital optimization.                           ###
 ###                                                                         ###
 ###                                                                         ###
 ###############################################################################
 ###############################################################################
  Warning: In symmetry  1, orbital p=   8 has diagonal density matrix element D(p,p) close to zero. D(p,p)=  1.076057E-24
       13   1    3    1   -99.28409645   -1.63E-08*  4.88E-05    6  10 1 -2.55E-05   0.50   1.41    QN   YES    0:00:00
 ###############################################################################
 ###############################################################################
 ###                                                                         ###
 ###                                                                         ###
 ###    WARNING: Problems in orbital optimization.                           ###
 ###                                                                         ###
 ###                                                                         ###
 ###############################################################################
 ###############################################################################
  Warning: In symmetry  1, orbital p=   8 has diagonal density matrix element D(p,p) close to zero. D(p,p)=  1.076063E-24
       14   1    2    1   -99.28409645   -2.01E-09   4.11E-06    3  10 1  7.47E-06   0.50   1.07    QN   YES    0:00:00
      Convergence after 14 iterations
       15   1    2    1   -99.28409645   -5.72E-11   4.11E-06    3  10 1  2.44E-06   0.50   1.07    QN   YES    0:00:00
 
      ************************************************************************************************************************
                                                      Wave function printout:
                       occupation of active orbitals, and spin coupling of open shells (u,d: Spin up or down)
      ************************************************************************************************************************
 
      Note: transformation to natural orbitals
      has been made, which may change the order of the CSFs.
 
      printout of CI-coefficients larger than  0.05 for root  1
      energy=     -99.284096
      conf/sym  11     Coeff  Weight
             1  u0   1.00000 1.00000
 
      Natural orbitals and occupation numbers for root  1
      sym 1:   1.000000   0.000000
 
      ************************************************************************************************************************
      *                                                                                                                      *
      *                                                    Final results                                                     *
      *                                                                                                                      *
      ************************************************************************************************************************
 
 
++    Wave function specifications:
      -----------------------------
 
      Number of closed shell electrons          12
      Number of electrons in active shells       1
      Max number of holes in RAS1 space          0
      Max nr of electrons in RAS3 space          0
      Number of inactive orbitals                6
      Number of active orbitals                  2
      Number of secondary orbitals               2
      Spin quantum number                      0.5
      State symmetry                             1
--
 
++    Orbital specifications:
      -----------------------
 
      Symmetry species                           1
                                                 a
      Frozen orbitals                            0
      Inactive orbitals                          6
      Active orbitals                            2
      RAS1 orbitals                              0
      RAS2 orbitals                              2
      RAS3 orbitals                              0
      Secondary orbitals                         2
      Deleted orbitals                           0
      Number of basis functions                 10
--
 
++    CI expansion specifications:
      ----------------------------
 
      Number of CSFs                             2
      Number of determinants                     2
      Number of root(s) required                 1
      CI root used                               1
      highest root included in the CI            1
      Root passed to geometry opt.               1
--
 
++    Final optimization conditions:
      ------------------------------
 
      Average CI energy                             -99.28409645
      RASSCF energy for state  1                    -99.28409645
      Super-CI energy                                -0.00000000
      RASSCF energy change                           -0.00000000
      Max change in MO coefficients               4.755E-06
      Max non-diagonal density matrix element     4.110E-06
      Maximum BLB matrix element                  2.444E-06
      (orbital pair   3,  10 in symmetry   1)
      Norm of electronic gradient            2.894E-06
--
 
 
      Final state energy(ies):
      ------------------------
 
::    RASSCF root number  1 Total energy:    -99.28409645
 
++    Molecular orbitals:
      -------------------
 
      Pseudonatural active orbitals and approximate occupation numbers
 
 
 
 
      Molecular orbitals for symmetry species 1: a  
 
 
      Orbital                 1         2         3         4         5         6         7         8         9        10
      Energy           -20.6297   -7.6861   -1.2068   -0.5285   -0.5285   -0.5067   -0.1024   -0.0000    0.0886    0.0909
      Occ. No.           2.0000    2.0000    2.0000    2.0000    2.0000    2.0000    1.0000    0.0000    0.0000    0.0000
 
     1 B1     1s        -0.0000    0.9999   -0.0008    0.0000    0.0000    0.0142   -0.0006   -0.0000   -0.0032   -0.0000
     2 B1     2s        -0.0001    0.0139    0.0095   -0.0000   -0.0000   -0.9926   -0.0613   -0.0000   -0.1416   -0.0000
     3 B1     2px        0.0000    0.0000    0.0000    0.0073    0.0040   -0.0000   -0.0000    0.2631    0.0000   -0.9655
     4 B1     2py       -0.0000    0.0000    0.0000   -0.0040    0.0073   -0.0000    0.0000   -0.9655    0.0000   -0.2631
     5 B1     2pz       -0.0001    0.0001    0.0022   -0.0000   -0.0000   -0.0193    0.9398    0.0000   -0.3740   -0.0000
     6 O2     1s         1.0000   -0.0000    0.0001    0.0000    0.0000    0.0026   -0.0068   -0.0000    0.0031    0.0000
     7 O2     2s        -0.0001   -0.0001    0.9993    0.0000    0.0000    0.0551   -0.0892   -0.0000    0.0466    0.0000
     8 O2     2px       -0.0000   -0.0000    0.0000    0.8784    0.4772   -0.0000    0.0000   -0.0123   -0.0000    0.0450
     9 O2     2py        0.0000    0.0000   -0.0000   -0.4772    0.8784   -0.0000   -0.0000    0.0450   -0.0000    0.0123
    10 O2     2pz       -0.0001   -0.0000    0.0031    0.0000    0.0000    0.0681   -0.2594   -0.0000   -0.9742   -0.0000
--
 
      Von Neumann Entropy (Root   1) =  0.50000
 

      Mulliken population analysis for root number:  1
      -----------------------------------------------
 
 
++    Molecular charges:
      ------------------
 
      Mulliken charges per centre and basis function type
      ---------------------------------------------------
 
                B1      O2    
      1s       2.0000  2.0000
      2s       1.9809  1.9996
      2px      0.0008  1.9992
      2pz      0.9045  0.1150
      2py      0.0008  1.9992
      Total    4.8870  8.1130
 
      N-E      0.1130 -0.1130
 
      Total electronic charge=   13.000000
 
      Total            charge=   -0.000000
--
 
 

      Expectation values of various properties for root number:  1
      -----------------------------------------------------------
 
 
++    Molecular properties:
      ---------------------
 
      Charge (e):
                      =   -0.0000
      Dipole Moment (Debye):
      Origin of the operator (Ang)=    0.0000    0.0000    0.0000
                   X= -2.2693E-13               Y=  1.5273E-13               Z= -1.4637E+00           Total=  1.4637E+00
      Quadrupole Moment (Debye*Ang):
      Origin of the operator (Ang)=    0.0000    0.0000    1.6585
                  XX= -1.1351E+01              XY=  4.9676E-15              XZ=  7.8457E-13              YY= -1.1351E+01
                  YZ= -2.8253E-12              ZZ= -1.0879E+01
      In traceless form (Debye*Ang)
                  XX= -2.3598E-01              XY=  7.4514E-15              XZ=  1.1768E-12              YY= -2.3598E-01
                  YZ= -4.2380E-12              ZZ=  4.7195E-01
--
 

      Mulliken spin population analysis for root number:  1
      ---------------------------------------------------
 
 
++    Molecular charges:
      ------------------
 
      Mulliken spin population per centre and basis function type
      ---------------------------------------------------
 
                B1      O2    
      1s      -0.0000 -0.0000
      2s       0.0027  0.0000
      2px      0.0000  0.0000
      2pz      0.9032  0.0941
      2py      0.0000 -0.0000
      Total    0.9059  0.0941
 
      Total electronic spin=    1.000000
--
 
 

      LoProp population analysis for root number:  1
      -----------------------------------------------
 
 
++    LoProp analysis:
      ----------------
 
 
 
      Input file to MOLDEN was generated!
 
 
++    Static properties:
      ------------------
 
 
      LoProp Charges per center
 

                   B1       O2    
      Nuclear      5.0000   8.0000
      Electronic  -4.8850  -8.1150
 
      Total        0.1150  -0.1150
--
 
 
      Natural Bond Order analysis for root number:  1
 
++    Natural Bond Order analysis
      ---------------------------
      Based on LoProp computed density
      -------------------------------------------------------------------------------------
      Atom A       Atom B       Bond Order
      -------------------------------------------------------------------------------------
      NBO located      1.000 non-bonded electrons on atom B1        
      NBO located      0.994 non-bonded electrons on atom B1        
      The remaining    4.534 electrons are to be considered as diffuse
--
 
--
 
 
      Input file to MOLDEN was generated!
 
 
      Input file to MOLDEN was generated!
 
      Average orbitals are written to the RASORB file
      Natural orbitals for root   1 are written to the RASORB.1 file
      Spin density orbitals for root   1 are written to the SPDORB.1 file
 
--- Stop Module: rasscf at Thu Apr 25 13:39:12 2024 /rc=_RC_ALL_IS_WELL_ ---
*** files: 2.80.LprOrb 2.80.rasscf.molden 2.80.rasscf.molden.1 2.80.LoProp.molden 2.80.RasOrb.1 2.80.RasOrb 2.80.rasscf.h5 2.80.SpdOrb.1 xmldump
    saved to directory /home/grierjones/DDCASPT2/delta_ML/BO/2.80

*** symbolic link created: INPORB -> 2.80.RasOrb
--- Start Module: caspt2 at Thu Apr 25 13:39:12 2024 ---
 
()()()()()()()()()()()()()()()()()()()()()()()()()()()()()()()()()()()()()()()()()()()()()()()()()()

                                              &CASPT2

                                   only a single process is used
                       available to each process: 2.0 GB of memory, 1 thread?
                                             pid: 98524
()()()()()()()()()()()()()()()()()()()()()()()()()()()()()()()()()()()()()()()()()()()()()()()()()()
 
 ###############################################################################
 ###############################################################################
 ###                                                                         ###
 ###                                                                         ###
 ###    WARNING: User changed nr of frozen orbitals.                         ###
 ###                                                                         ###
 ###                                                                         ###
 ###############################################################################
 ###############################################################################
 
++    Wave function specifications:
      -----------------------------
 
      Number of closed shell electrons          12
      Number of electrons in active shells       1
      Max number of holes in RAS1 space          0
      Max number of electrons in RAS3 space      0
      Number of inactive orbitals                6
      Number of active orbitals                  2
      Number of secondary orbitals               2
      Spin quantum number                      0.5
      State symmetry                             1
      Number of CSFs                             2
      Number of CASSCF root(s) available         1
      CASPT2 state passed to geometry opt.       1
      A file JOBMIX will be created
      This is a CASSCF or RASSCF reference function
--
 
++    Orbital specifications:
      -----------------------
 
      Symmetry species                           1
                                                 a
      Frozen orbitals                            0
      Inactive orbitals                          6
      Active orbitals                            2
      Secondary orbitals                         2
      Deleted orbitals                           0
      Number of basis functions                 10
--
 
++    CASPT2 specifications:
      ----------------------
 
      Type of calculation                        SS-CASPT2
      Fock operator                              state-specific
      IPEA shift                                 0.25
      Real shift                                 0.00
      Imaginary shift                            0.00
      The input orbitals will be transformed to quasi-canonical
--
 
--------------------------------------------------------------------------------
 Estimated memory requirements:
  POLY3 :                   250056
  RHS:                      250428
  SIGMA :                   250384
  PRPCTL:                        0
 Available workspace:    230392719
 
++ CASPT2 computation for group   1
 
********************************************************************************
 Multi-State initialization phase begins for group   1
--------------------------------------------------------------------------------
********************************************************************************
 Compute H0 matrices for state    1
--------------------------------------------------------------------------------
--------------------------------------------------------------------------------
 H0 matrices have been computed.
 
********************************************************************************
  CASPT2 EQUATION SOLUTION
--------------------------------------------------------------------------------
 
  Total nr of CASPT2 parameters:
   Before reduction:         518
   After  reduction:         377
 
 Variance of |WF0>:       0.0514352184
 
 The contributions to the second order correlation energy in atomic units.
-----------------------------------------------------------------------------------------------------------------------------
  IT.      VJTU        VJTI        ATVX        AIVX        VJAI        BVAT        BJAT        BJAI        TOTAL       RNORM  
-----------------------------------------------------------------------------------------------------------------------------
   1    -0.000023   -0.007802   -0.000000   -0.000511   -0.001675    0.000000   -0.000607   -0.018158   -0.028776    0.000091
   2    -0.000023   -0.007802   -0.000000   -0.000512   -0.001675    0.000000   -0.000608   -0.018161   -0.028780    0.000003
-----------------------------------------------------------------------------------------------------------------------------
 
  FINAL CASPT2 RESULT:
 
      Reference energy:         -99.2840964472
      E2 (Non-variational):      -0.0287800388
      E2 (Variational):          -0.0287800354
      Total energy:             -99.3128764827
      Residual norm:              0.0000000937
      Reference weight:           0.98025
 
      Contributions to the CASPT2 correlation energy
      Active & Virtual Only:         -0.0000000002
      One Inactive Excited:          -0.0011425636
      Two Inactive Excited:          -0.0276374750
 
 
++ Denominators, etc.
--------------------------------------------------------------------------------------------------------------
 Report on small energy denominators, large coefficients, and large energy contributions.
CASE  SYMM ACTIVE-MIX  NON-ACTIVE INDICES          DENOMINATOR     RHS VALUE       COEFFICIENT     CONTRIBUTION
VJTIP    1  Mu1.0002  In1.006 In1.006               1.19512091      0.09584487     -0.08017909     -0.00768475
BJAIP    1  Se1.009 In1.003 Se1.009 In1.003         2.59093426      0.14192863     -0.05500119     -0.00780624
BJAIP    1  Se1.009 In1.004 Se1.009 In1.004         1.23427325      0.03636274     -0.02971346     -0.00108046
BJAIP    1  Se1.009 In1.005 Se1.009 In1.005         1.23427325      0.03636274     -0.02971346     -0.00108046
BJAIP    1  Se1.010 In1.006 Se1.010 In1.006         1.19512091      0.09584487     -0.08017909     -0.00768475
--
 
   (Skipping property calculation,
    use PROP keyword to activate)
--
 
  Total CASPT2 energies:
::    CASPT2 Root  1     Total energy:    -99.31287648
 
  A NEW JOBIPH FILE NAMED 'JOBMIX' IS PREPARED.
********************************************************************************
--- Stop Module: caspt2 at Thu Apr 25 13:39:12 2024 /rc=_RC_ALL_IS_WELL_ ---
*** files: xmldump
    saved to directory /home/grierjones/DDCASPT2/delta_ML/BO/2.80

.##################.
.# Happy landing! #.
.##################.

    Timing: Wall=2.67 User=1.73 System=0.33
************************************
*** WorkDir at /tmp/2.80 removed ***
************************************
