[Molden Format]
[N_Atoms]
                     2
[Atoms] (AU)
B1          1      5           0.00000000      0.00000000      0.00000000
O2          2      8           0.00000000      0.00000000      5.29123315
[Charge] (Mulliken)
  0.474852878516855     
 -0.474852878516884     
[GTO] (AU)
   1
   s  14
  3.336021700E+04  1.039699991E-04
  4.972095200E+03  5.254399956E-04
  1.125641700E+03  2.509059979E-03
  3.164913600E+02  1.031887991E-02
  1.020072600E+02  3.636632969E-02
  3.629587300E+01  1.064607991E-01
  1.397141000E+01  2.403999880E-01
  5.741156000E+00  3.748581168E-01
  2.494268000E+00  3.100066974E-01
  1.114202000E+00  7.922455933E-02
  4.215490000E-01 -4.947589958E-03
  1.696330000E-01 -7.737119935E-03
  6.853500000E-02 -1.501079987E-03
  2.398700000E-02 -1.333299989E-04
   s  14
  3.336021700E+04 -2.030000008E-05
  4.972095200E+03 -1.025700004E-04
  1.125641700E+03 -4.911300020E-04
  3.164913600E+02 -2.026570008E-03
  1.020072600E+02 -7.261010030E-03
  3.629587300E+01 -2.197722009E-02
  1.397141000E+01 -5.408428022E-02
  5.741156000E+00 -1.022402604E-01
  2.494268000E+00 -1.423595206E-01
  1.114202000E+00 -4.658690019E-02
  4.215490000E-01  3.799402916E-01
  1.696330000E-01  5.890463624E-01
  6.853500000E-02  1.749075107E-01
  2.398700000E-02 -1.142030005E-03
   p   9
  5.500000000E+01  1.229800005E-03
  1.336610100E+01  8.827380035E-03
  4.135394000E+00  3.843340015E-02
  1.481256000E+00  1.150031805E-01
  6.021360000E-01  2.733674011E-01
  2.556360000E-01  4.061972116E-01
  1.111510000E-01  3.014967912E-01
  4.764800000E-02  7.684809030E-02
  1.667700000E-02 -8.170000032E-06
 
   2
   s  14
  1.053749500E+05  1.238600013E-04
  1.567924000E+04  5.120100053E-04
  3.534544700E+03  2.152910022E-03
  9.873651600E+02  8.528440089E-03
  3.159787500E+02  3.018049031E-02
  1.116542800E+02  9.099702095E-02
  4.269945100E+01  2.177936423E-01
  1.739559600E+01  3.686245738E-01
  7.438309000E+00  3.366707335E-01
  3.222862000E+00  9.657630101E-02
  1.253877000E+00  2.144520022E-03
  4.951550000E-01  1.194350012E-03
  1.916650000E-01  5.390200056E-04
  6.708300000E-02  2.103400022E-04
   s  14
  1.053749500E+05 -2.815000008E-05
  1.567924000E+04 -1.163000003E-04
  3.534544700E+03 -4.909200013E-04
  9.873651600E+02 -1.946160005E-03
  3.159787500E+02 -7.005300019E-03
  1.116542800E+02 -2.167814006E-02
  4.269945100E+01 -5.641213015E-02
  1.739559600E+01 -1.127053003E-01
  7.438309000E+00 -1.589119704E-01
  3.222862000E+00 -3.355083009E-02
  1.253877000E+00  3.531902810E-01
  4.951550000E-01  5.534199315E-01
  1.916650000E-01  2.301839106E-01
  6.708300000E-02  1.127267003E-02
   p   9
  2.000000000E+02  9.173000030E-04
  4.653336700E+01  7.377140024E-03
  1.462180900E+01  3.483515011E-02
  5.313064000E+00  1.144397004E-01
  2.102525000E+00  2.554966408E-01
  8.502230000E-01  3.722557412E-01
  3.375970000E-01  3.323314911E-01
  1.288920000E-01  1.400847905E-01
  4.511200000E-02  2.395784008E-02
 
[MO]
Sym=     1a  
Ene=   -20.3440
Spin= Alpha
Occup=    1.00000
   1        -0.00000199
   2        -0.00008878
   3        -0.00000000
   4         0.00000000
   5        -0.00014029
   6         1.00000089
   7         0.00089135
   8        -0.00000000
   9         0.00000000
  10        -0.00004382
Sym=     1a  
Ene=   -20.3280
Spin= Beta
Occup=    1.00000
   1        -0.00000449
   2        -0.00009970
   3        -0.00000000
   4         0.00000000
   5        -0.00014796
   6         1.00000136
   7         0.00002740
   8        -0.00000000
   9         0.00000000
  10        -0.00006819
Sym=     2a  
Ene=    -7.8492
Spin= Alpha
Occup=    1.00000
   1         0.99990579
   2         0.01373681
   3        -0.00000000
   4         0.00000000
   5         0.00019191
   6        -0.00001188
   7        -0.00002295
   8        -0.00000000
   9         0.00000000
  10         0.00002838
Sym=     2a  
Ene=    -7.8416
Spin= Beta
Occup=    1.00000
   1         0.99992300
   2         0.01242972
   3        -0.00000000
   4        -0.00000000
   5         0.00028654
   6        -0.00000617
   7        -0.00004941
   8        -0.00000000
   9         0.00000000
  10         0.00004926
Sym=     3a  
Ene=    -1.0838
Spin= Alpha
Occup=    1.00000
   1        -0.00121309
   2         0.02985060
   3        -0.00000000
   4         0.00000000
   5         0.01799075
   6        -0.00108086
   7         0.99626198
   8         0.00000000
   9        -0.00000000
  10        -0.00719491
Sym=     3a  
Ene=    -1.0105
Spin= Beta
Occup=    1.00000
   1        -0.00104549
   2         0.02037382
   3         0.00000000
   4         0.00000000
   5         0.01081960
   6        -0.00014004
   7         0.99752362
   8        -0.00000000
   9         0.00000000
  10        -0.01980135
Sym=     4a  
Ene=    -0.6145
Spin= Alpha
Occup=    1.00000
   1         0.01410270
   2        -0.97780548
   3        -0.00000000
   4         0.00000000
   5         0.05971534
   6         0.00196249
   7         0.06787418
   8        -0.00000000
   9         0.00000000
  10         0.14011996
Sym=     4a  
Ene=    -0.5607
Spin= Beta
Occup=    1.00000
   1        -0.01243048
   2         0.99944550
   3        -0.00000000
   4         0.00000000
   5        -0.01426567
   6        -0.00236827
   7        -0.06507799
   8        -0.00000000
   9         0.00000000
  10        -0.01205212
Sym=     5a  
Ene=    -0.4405
Spin= Alpha
Occup=    1.00000
   1         0.00229882
   2         0.20428806
   3        -0.00000000
   4         0.00000000
   5        -0.14416475
   6         0.00057397
   7         0.01281653
   8        -0.00000000
   9         0.00000000
  10         0.96870105
Sym=     5a  
Ene=    -0.3727
Spin= Beta
Occup=    1.00000
   1        -0.00000000
   2        -0.00000000
   3         0.01115377
   4         0.03752063
   5         0.00000000
   6        -0.00000000
   7        -0.00000000
   8         0.28430108
   9         0.95637183
  10        -0.00000000
Sym=     6a  
Ene=    -0.2562
Spin= Alpha
Occup=    1.00000
   1         0.00000000
   2         0.00000000
   3         0.45647445
   4        -0.13569637
   5        -0.00000000
   6         0.00000000
   7         0.00000000
   8         0.82556069
   9        -0.24541480
  10         0.00000000
Sym=     6a  
Ene=    -0.3727
Spin= Beta
Occup=    1.00000
   1         0.00000000
   2         0.00000000
   3         0.03752062
   4        -0.01115377
   5        -0.00000000
   6         0.00000000
   7         0.00000000
   8         0.95637183
   9        -0.28430108
  10         0.00000000
Sym=     7a  
Ene=    -0.2562
Spin= Alpha
Occup=    1.00000
   1        -0.00000000
   2        -0.00000000
   3         0.13569621
   4         0.45647394
   5         0.00000000
   6        -0.00000000
   7        -0.00000000
   8         0.24541489
   9         0.82556099
  10        -0.00000000
Sym=     7a  
Ene=     0.0201
Spin= Beta
Occup=    0.00000
   1        -0.00086196
   2         0.00548380
   3         0.00000000
   4        -0.00000000
   5         0.98424929
   6        -0.00730934
   7        -0.11141178
   8        -0.00000000
   9         0.00000000
  10        -0.11670744
Sym=     8a  
Ene=    -0.0453
Spin= Alpha
Occup=    0.00000
   1        -0.00000000
   2        -0.00000000
   3        -0.25079984
   4        -0.84367563
   5        -0.00000000
   6         0.00000000
   7         0.00000000
   8         0.14520865
   9         0.48847321
  10        -0.00000000
Sym=     8a  
Ene=     0.0242
Spin= Beta
Occup=    0.00000
   1        -0.00000000
   2         0.00000000
   3        -0.95851407
   4         0.28493792
   5         0.00000000
   6        -0.00000000
   7        -0.00000000
   8         0.07422899
   9        -0.02206608
  10        -0.00000000
Sym=     9a  
Ene=    -0.0453
Spin= Alpha
Occup=    0.00000
   1         0.00000000
   2         0.00000000
   3        -0.84367535
   4         0.25079975
   5         0.00000000
   6        -0.00000000
   7        -0.00000000
   8         0.48847371
   9        -0.14520880
  10         0.00000000
Sym=     9a  
Ene=     0.0242
Spin= Beta
Occup=    0.00000
   1         0.00000000
   2        -0.00000000
   3        -0.28493792
   4        -0.95851407
   5        -0.00000000
   6         0.00000000
   7         0.00000000
   8         0.02206609
   9         0.07422899
  10         0.00000000
Sym=    10a  
Ene=     0.0173
Spin= Alpha
Occup=    0.00000
   1        -0.00017507
   2         0.10182437
   3         0.00000000
   4        -0.00000000
   5         0.99944455
   6        -0.00763970
   7        -0.12033378
   8         0.00000000
   9        -0.00000000
  10         0.25088289
Sym=    10a  
Ene=     0.3380
Spin= Beta
Occup=    0.00000
   1         0.00386254
   2         0.09896541
   3         0.00000000
   4        -0.00000000
   5         0.23344205
   6        -0.00193130
   7        -0.00943416
   8        -0.00000000
   9         0.00000000
  10         1.00341983
