[Molden Format]
[N_Atoms]
                     2
[Atoms] (AU)
C1          1      6           0.00000000      0.00000000      0.00000000
F2          2      9           0.00000000      0.00000000      3.40150702
[Charge] (Mulliken)
  0.278906648492509     
 -0.278906648492530     
[GTO] (AU)
   1
   s  14
  5.055750100E+04  1.128874000E-04
  7.524785600E+03  5.295373000E-04
  1.694327600E+03  2.450038300E-03
  4.728227900E+02  1.005398470E-02
  1.517107500E+02  3.545398060E-02
  5.391874600E+01  1.044071086E-01
  2.065931100E+01  2.412894918E-01
  8.383976000E+00  3.834225483E-01
  3.577015000E+00  3.078514393E-01
  1.547118000E+00  6.872442990E-02
  6.130130000E-01  2.224445000E-04
  2.460680000E-01  1.976748900E-03
  9.908700000E-02  2.057859400E-03
  3.468000000E-02  4.182020000E-04
   s  14
  5.055750100E+04 -2.507420000E-05
  7.524785600E+03 -1.175945000E-04
  1.694327600E+03 -5.456275000E-04
  4.728227900E+02 -2.245077100E-03
  1.517107500E+02 -8.043471800E-03
  5.391874600E+01 -2.442588710E-02
  2.065931100E+01 -6.136791180E-02
  8.383976000E+00 -1.177767835E-01
  3.577015000E+00 -1.550487783E-01
  1.547118000E+00 -1.933316860E-02
  6.130130000E-01  3.996930678E-01
  2.460680000E-01  5.589420949E-01
  9.908700000E-02  1.711195023E-01
  3.468000000E-02  7.456244600E-03
   p   9
  8.333315500E+01  1.344656000E-03
  1.955761100E+01  1.023555500E-02
  6.080365000E+00  4.520067100E-02
  2.179317000E+00  1.410756198E-01
  8.651500000E-01  3.047388085E-01
  3.619440000E-01  3.995281011E-01
  1.547400000E-01  2.719163432E-01
  6.542900000E-02  5.857669330E-02
  2.290000000E-02 -1.263813000E-04
 
   2
   s  14
  1.031094600E+05  1.713099991E-04
  1.528100700E+04  7.123999962E-04
  3.441539200E+03  2.990479984E-03
  9.670948300E+02  1.164036994E-02
  3.140353400E+02  3.968642979E-02
  1.134423000E+02  1.128546094E-01
  4.464472700E+01  2.473650687E-01
  1.894287400E+01  3.672702681E-01
  8.532743000E+00  2.896286985E-01
  3.919401000E+00  7.786681959E-02
  1.568157000E+00  4.562139976E-03
  6.232900000E-01  2.468879987E-03
  2.408610000E-01  1.106309994E-03
  8.430100000E-02  1.739699991E-04
   s  14
  1.031094600E+05 -4.044999995E-05
  1.528100700E+04 -1.682299998E-04
  3.441539200E+03 -7.084299991E-04
  9.670948300E+02 -2.767999996E-03
  3.140353400E+02 -9.611379987E-03
  1.134423000E+02 -2.833957996E-02
  4.464472700E+01 -6.839343991E-02
  1.894287400E+01 -1.237379298E-01
  8.532743000E+00 -1.512859698E-01
  3.919401000E+00 -9.099909988E-03
  1.568157000E+00  3.716257695E-01
  6.232900000E-01  5.500214393E-01
  2.408610000E-01  2.092318697E-01
  8.430100000E-02  8.074639989E-03
   p   9
  2.453302900E+02  1.024860004E-03
  5.691900500E+01  8.344290032E-03
  1.760456800E+01  4.078927016E-02
  6.274995000E+00  1.351370605E-01
  2.447030000E+00  2.798830811E-01
  9.950600000E-01  3.597966414E-01
  4.039730000E-01  3.055347412E-01
  1.548100000E-01  1.354703905E-01
  5.418400000E-02  2.804449011E-02
 
[MO]
Sym=     1a  
Ene=   -26.2300
Spin= Alpha
Occup=    1.00000
   1        -0.00001660
   2        -0.00015213
   3        -0.00000000
   4         0.00000000
   5        -0.00010471
   6         0.99999737
   7        -0.00349505
   8         0.00000000
   9        -0.00000000
  10        -0.00040746
Sym=     1a  
Ene=   -26.2560
Spin= Beta
Occup=    1.00000
   1        -0.00002659
   2        -0.00026955
   3         0.00000000
   4        -0.00000000
   5        -0.00025539
   6         1.00000488
   7        -0.00236840
   8        -0.00000000
   9         0.00000000
  10        -0.00049543
Sym=     2a  
Ene=   -11.4160
Spin= Alpha
Occup=    1.00000
   1         1.00000556
   2        -0.00088590
   3        -0.00000000
   4        -0.00000000
   5         0.00095464
   6        -0.00009486
   7        -0.00065114
   8        -0.00000000
   9        -0.00000000
  10         0.00014700
Sym=     2a  
Ene=   -11.3800
Spin= Beta
Occup=    1.00000
   1         0.99998818
   2        -0.00500825
   3        -0.00000000
   4        -0.00000000
   5         0.00084474
   6        -0.00005050
   7        -0.00028904
   8        -0.00000000
   9        -0.00000000
  10        -0.00001718
Sym=     3a  
Ene=    -1.4702
Spin= Alpha
Occup=    1.00000
   1        -0.00495102
   2         0.08640836
   3        -0.00000000
   4         0.00000000
   5         0.06364419
   6         0.00132716
   7         0.96929994
   8         0.00000000
   9        -0.00000000
  10        -0.01061563
Sym=     3a  
Ene=    -1.5648
Spin= Beta
Occup=    1.00000
   1        -0.00553924
   2         0.03668999
   3         0.00000000
   4        -0.00000000
   5         0.02823493
   6         0.00148340
   7         0.98608520
   8        -0.00000000
   9        -0.00000000
  10        -0.05322873
Sym=     4a  
Ene=    -0.8529
Spin= Alpha
Occup=    1.00000
   1         0.00135005
   2        -0.95838468
   3         0.00000000
   4        -0.00000000
   5         0.00277076
   6         0.00968870
   7         0.21283998
   8        -0.00000000
   9         0.00000000
  10         0.16596000
Sym=     4a  
Ene=    -0.7660
Spin= Beta
Occup=    1.00000
   1         0.01095090
   2        -0.53588005
   3        -0.00000000
   4         0.00000000
   5        -0.06835744
   6         0.00709522
   7         0.15982164
   8         0.00000000
   9         0.00000000
  10         0.73310006
Sym=     5a  
Ene=    -0.6244
Spin= Alpha
Occup=    1.00000
   1        -0.00000000
   2        -0.00000000
   3         0.20174532
   4        -0.14701385
   5         0.00000000
   6        -0.00000000
   7        -0.00000000
   8         0.76248036
   9        -0.55562713
  10        -0.00000000
Sym=     5a  
Ene=    -0.6355
Spin= Beta
Occup=    1.00000
   1         0.00000000
   2         0.00000000
   3         0.03313570
   4         0.04547172
   5        -0.00000000
   6        -0.00000000
   7        -0.00000000
   8         0.58466011
   9         0.80232196
  10         0.00000000
Sym=     6a  
Ene=    -0.6073
Spin= Alpha
Occup=    1.00000
   1        -0.00000000
   2         0.00000000
   3         0.04777391
   4         0.06555956
   5        -0.00000000
   6         0.00000000
   7        -0.00000000
   8         0.58218352
   9         0.79892337
  10        -0.00000000
Sym=     6a  
Ene=    -0.6323
Spin= Beta
Occup=    1.00000
   1         0.00000000
   2         0.00000000
   3         0.03696914
   4        -0.02693979
   5        -0.00000000
   6        -0.00000000
   7        -0.00000000
   8         0.80361078
   9        -0.58559928
  10         0.00000000
Sym=     7a  
Ene=    -0.4743
Spin= Alpha
Occup=    1.00000
   1         0.01007261
   2         0.18949290
   3         0.00000000
   4        -0.00000000
   5        -0.78006403
   6         0.01494451
   7         0.19369861
   8        -0.00000000
   9        -0.00000000
  10         0.50521215
Sym=     7a  
Ene=    -0.5703
Spin= Beta
Occup=    1.00000
   1         0.01733737
   2         0.86325407
   3        -0.00000000
   4        -0.00000000
   5        -0.16035208
   6        -0.00473299
   7        -0.06950630
   8        -0.00000000
   9         0.00000000
  10         0.63985995
Sym=     8a  
Ene=    -0.4694
Spin= Alpha
Occup=    1.00000
   1         0.00000000
   2         0.00000000
   3        -0.78688917
   4         0.57341408
   5        -0.00000000
   6         0.00000000
   7         0.00000000
   8         0.28021320
   9        -0.20419419
  10         0.00000000
Sym=     8a  
Ene=     0.0847
Spin= Beta
Occup=    0.00000
   1         0.00000000
   2         0.00000000
   3         0.59103198
   4         0.81106600
   5         0.00000000
   6        -0.00000000
   7        -0.00000000
   8        -0.09267867
   9        -0.12718181
  10         0.00000000
Sym=     9a  
Ene=     0.0380
Spin= Alpha
Occup=    0.00000
   1        -0.00000000
   2        -0.00000000
   3         0.59002918
   4         0.80968987
   5         0.00000000
   6        -0.00000000
   7         0.00000000
   8        -0.10714066
   9        -0.14702783
  10        -0.00000000
Sym=     9a  
Ene=     0.1466
Spin= Beta
Occup=    0.00000
   1        -0.00000000
   2         0.00000000
   3        -0.81149801
   4         0.59134679
   5        -0.00000000
   6         0.00000000
   7         0.00000000
   8         0.11876638
   9        -0.08654626
  10        -0.00000000
Sym=    10a  
Ene=     0.1628
Spin= Alpha
Occup=    0.00000
   1         0.01905282
   2         0.31865659
   3         0.00000000
   4         0.00000000
   5         0.69727401
   6        -0.01760940
   7        -0.22444260
   8         0.00000000
   9         0.00000000
  10         0.89799877
Sym=    10a  
Ene=     0.1950
Spin= Beta
Occup=    0.00000
   1         0.00862475
   2         0.17225468
   3        -0.00000000
   4         0.00000000
   5         1.03323114
   6        -0.02321855
   7        -0.26458592
   8         0.00000000
   9        -0.00000000
  10         0.37363981
