[Molden Format]
[N_Atoms]
                     2
[Atoms] (AU)
O1          1      8           0.00000000      0.00000000      0.00000000
O2          2      8           0.00000000      0.00000000      1.32280829
[Charge] (Mulliken)
  7.824851877558103E-013
 -7.975842208907125E-013
[GTO] (AU)
   1
   s  14
  1.053749500E+05  1.238600013E-04
  1.567924000E+04  5.120100053E-04
  3.534544700E+03  2.152910022E-03
  9.873651600E+02  8.528440089E-03
  3.159787500E+02  3.018049031E-02
  1.116542800E+02  9.099702095E-02
  4.269945100E+01  2.177936423E-01
  1.739559600E+01  3.686245738E-01
  7.438309000E+00  3.366707335E-01
  3.222862000E+00  9.657630101E-02
  1.253877000E+00  2.144520022E-03
  4.951550000E-01  1.194350012E-03
  1.916650000E-01  5.390200056E-04
  6.708300000E-02  2.103400022E-04
   s  14
  1.053749500E+05 -2.815000008E-05
  1.567924000E+04 -1.163000003E-04
  3.534544700E+03 -4.909200013E-04
  9.873651600E+02 -1.946160005E-03
  3.159787500E+02 -7.005300019E-03
  1.116542800E+02 -2.167814006E-02
  4.269945100E+01 -5.641213015E-02
  1.739559600E+01 -1.127053003E-01
  7.438309000E+00 -1.589119704E-01
  3.222862000E+00 -3.355083009E-02
  1.253877000E+00  3.531902810E-01
  4.951550000E-01  5.534199315E-01
  1.916650000E-01  2.301839106E-01
  6.708300000E-02  1.127267003E-02
   p   9
  2.000000000E+02  9.173000030E-04
  4.653336700E+01  7.377140024E-03
  1.462180900E+01  3.483515011E-02
  5.313064000E+00  1.144397004E-01
  2.102525000E+00  2.554966408E-01
  8.502230000E-01  3.722557412E-01
  3.375970000E-01  3.323314911E-01
  1.288920000E-01  1.400847905E-01
  4.511200000E-02  2.395784008E-02
 
   2
   s  14
  1.053749500E+05  1.238600013E-04
  1.567924000E+04  5.120100053E-04
  3.534544700E+03  2.152910022E-03
  9.873651600E+02  8.528440089E-03
  3.159787500E+02  3.018049031E-02
  1.116542800E+02  9.099702095E-02
  4.269945100E+01  2.177936423E-01
  1.739559600E+01  3.686245738E-01
  7.438309000E+00  3.366707335E-01
  3.222862000E+00  9.657630101E-02
  1.253877000E+00  2.144520022E-03
  4.951550000E-01  1.194350012E-03
  1.916650000E-01  5.390200056E-04
  6.708300000E-02  2.103400022E-04
   s  14
  1.053749500E+05 -2.815000008E-05
  1.567924000E+04 -1.163000003E-04
  3.534544700E+03 -4.909200013E-04
  9.873651600E+02 -1.946160005E-03
  3.159787500E+02 -7.005300019E-03
  1.116542800E+02 -2.167814006E-02
  4.269945100E+01 -5.641213015E-02
  1.739559600E+01 -1.127053003E-01
  7.438309000E+00 -1.589119704E-01
  3.222862000E+00 -3.355083009E-02
  1.253877000E+00  3.531902810E-01
  4.951550000E-01  5.534199315E-01
  1.916650000E-01  2.301839106E-01
  6.708300000E-02  1.127267003E-02
   p   9
  2.000000000E+02  9.173000030E-04
  4.653336700E+01  7.377140024E-03
  1.462180900E+01  3.483515011E-02
  5.313064000E+00  1.144397004E-01
  2.102525000E+00  2.554966408E-01
  8.502230000E-01  3.722557412E-01
  3.375970000E-01  3.323314911E-01
  1.288920000E-01  1.400847905E-01
  4.511200000E-02  2.395784008E-02
 
[MO]
Sym=     1a  
Ene=   -21.2680
Spin= Alpha
Occup=    1.00000
   1         0.70484081
   2        -0.00048646
   3        -0.00000000
   4         0.00000000
   5         0.00691245
   6         0.70484081
   7        -0.00048646
   8        -0.00000000
   9         0.00000000
  10        -0.00691245
Sym=     1a  
Ene=   -21.2680
Spin= Beta
Occup=    1.00000
   1         0.70484081
   2        -0.00048646
   3        -0.00000000
   4         0.00000000
   5         0.00691245
   6         0.70484081
   7        -0.00048646
   8        -0.00000000
   9         0.00000000
  10        -0.00691245
Sym=     2a  
Ene=   -21.2270
Spin= Alpha
Occup=    1.00000
   1        -0.71114761
   2        -0.01245107
   3        -0.00000000
   4         0.00000000
   5        -0.00873989
   6         0.71114761
   7         0.01245107
   8        -0.00000000
   9         0.00000000
  10        -0.00873989
Sym=     2a  
Ene=   -21.2270
Spin= Beta
Occup=    1.00000
   1        -0.71114761
   2        -0.01245107
   3        -0.00000000
   4         0.00000000
   5        -0.00873989
   6         0.71114761
   7         0.01245107
   8        -0.00000000
   9         0.00000000
  10        -0.00873989
Sym=     3a  
Ene=    -2.5047
Spin= Alpha
Occup=    1.00000
   1        -0.11503571
   2         0.36032734
   3        -0.00000000
   4         0.00000000
   5         0.39468164
   6        -0.11503571
   7         0.36032734
   8        -0.00000000
   9         0.00000000
  10        -0.39468164
Sym=     3a  
Ene=    -2.5047
Spin= Beta
Occup=    1.00000
   1        -0.11503571
   2         0.36032734
   3        -0.00000000
   4         0.00000000
   5         0.39468164
   6        -0.11503571
   7         0.36032734
   8        -0.00000000
   9         0.00000000
  10        -0.39468164
Sym=     4a  
Ene=    -1.2671
Spin= Alpha
Occup=    1.00000
   1        -0.00000000
   2        -0.00000000
   3        -0.01517031
   4         0.57158629
   5         0.00000000
   6         0.00000000
   7         0.00000000
   8        -0.01517031
   9         0.57158629
  10         0.00000000
Sym=     4a  
Ene=    -1.2671
Spin= Beta
Occup=    1.00000
   1        -0.00000000
   2        -0.00000000
   3        -0.01517031
   4         0.57158629
   5         0.00000000
   6         0.00000000
   7         0.00000000
   8        -0.01517031
   9         0.57158629
  10         0.00000000
Sym=     5a  
Ene=    -1.2118
Spin= Alpha
Occup=    1.00000
   1        -0.00000000
   2         0.00000000
   3         0.57158629
   4         0.01517031
   5         0.00000000
   6        -0.00000000
   7        -0.00000000
   8         0.57158629
   9         0.01517031
  10        -0.00000000
Sym=     5a  
Ene=    -1.2118
Spin= Beta
Occup=    1.00000
   1        -0.00000000
   2         0.00000000
   3         0.57158629
   4         0.01517031
   5         0.00000000
   6        -0.00000000
   7        -0.00000000
   8         0.57158629
   9         0.01517031
  10        -0.00000000
Sym=     6a  
Ene=    -1.0556
Spin= Alpha
Occup=    1.00000
   1        -0.02451870
   2        -0.69328893
   3         0.00000000
   4        -0.00000000
   5         0.31740517
   6         0.02451870
   7         0.69328893
   8         0.00000000
   9        -0.00000000
  10         0.31740517
Sym=     6a  
Ene=    -1.0556
Spin= Beta
Occup=    1.00000
   1        -0.02451870
   2        -0.69328893
   3         0.00000000
   4        -0.00000000
   5         0.31740517
   6         0.02451870
   7         0.69328893
   8         0.00000000
   9        -0.00000000
  10         0.31740517
Sym=     7a  
Ene=    -0.9881
Spin= Alpha
Occup=    1.00000
   1         0.06604919
   2         0.48346247
   3         0.00000000
   4         0.00000000
   5        -0.66702331
   6         0.06604919
   7         0.48346247
   8         0.00000000
   9         0.00000000
  10         0.66702331
Sym=     7a  
Ene=    -0.9881
Spin= Beta
Occup=    1.00000
   1         0.06604919
   2         0.48346247
   3         0.00000000
   4         0.00000000
   5        -0.66702331
   6         0.06604919
   7         0.48346247
   8         0.00000000
   9         0.00000000
  10         0.66702331
Sym=     8a  
Ene=    -0.3184
Spin= Alpha
Occup=    1.00000
   1        -0.00000000
   2        -0.00000000
   3         0.02734547
   4        -1.03032162
   5         0.00000000
   6         0.00000000
   7         0.00000000
   8        -0.02734547
   9         1.03032162
  10        -0.00000000
Sym=     8a  
Ene=    -0.3184
Spin= Beta
Occup=    1.00000
   1        -0.00000000
   2        -0.00000000
   3         0.02734547
   4        -1.03032162
   5         0.00000000
   6         0.00000000
   7         0.00000000
   8        -0.02734547
   9         1.03032162
  10        -0.00000000
Sym=     9a  
Ene=     0.2898
Spin= Alpha
Occup=    0.00000
   1        -0.00000000
   2        -0.00000000
   3        -1.03032162
   4        -0.02734547
   5        -0.00000000
   6         0.00000000
   7         0.00000000
   8         1.03032162
   9         0.02734547
  10        -0.00000000
Sym=     9a  
Ene=     0.2898
Spin= Beta
Occup=    0.00000
   1        -0.00000000
   2        -0.00000000
   3        -1.03032162
   4        -0.02734547
   5        -0.00000000
   6         0.00000000
   7         0.00000000
   8         1.03032162
   9         0.02734547
  10        -0.00000000
Sym=    10a  
Ene=     2.3272
Spin= Alpha
Occup=    0.00000
   1         0.56771762
   2         2.55307623
   3        -0.00000000
   4        -0.00000000
   5         1.58416539
   6        -0.56771762
   7        -2.55307623
   8         0.00000000
   9         0.00000000
  10         1.58416539
Sym=    10a  
Ene=     2.3272
Spin= Beta
Occup=    0.00000
   1         0.56771762
   2         2.55307623
   3        -0.00000000
   4        -0.00000000
   5         1.58416539
   6        -0.56771762
   7        -2.55307623
   8         0.00000000
   9         0.00000000
  10         1.58416539
