[Molden Format]
[N_Atoms]
                     2
[Atoms] (AU)
O1          1      8           0.00000000      0.00000000      0.00000000
O2          2      8           0.00000000      0.00000000      1.32280829
[Charge] (Mulliken)
   1.00000000000095     
  0.999999999999048     
[GTO] (AU)
   1
   s  14
  1.053749500E+05  1.238600013E-04
  1.567924000E+04  5.120100053E-04
  3.534544700E+03  2.152910022E-03
  9.873651600E+02  8.528440089E-03
  3.159787500E+02  3.018049031E-02
  1.116542800E+02  9.099702095E-02
  4.269945100E+01  2.177936423E-01
  1.739559600E+01  3.686245738E-01
  7.438309000E+00  3.366707335E-01
  3.222862000E+00  9.657630101E-02
  1.253877000E+00  2.144520022E-03
  4.951550000E-01  1.194350012E-03
  1.916650000E-01  5.390200056E-04
  6.708300000E-02  2.103400022E-04
   s  14
  1.053749500E+05 -2.815000008E-05
  1.567924000E+04 -1.163000003E-04
  3.534544700E+03 -4.909200013E-04
  9.873651600E+02 -1.946160005E-03
  3.159787500E+02 -7.005300019E-03
  1.116542800E+02 -2.167814006E-02
  4.269945100E+01 -5.641213015E-02
  1.739559600E+01 -1.127053003E-01
  7.438309000E+00 -1.589119704E-01
  3.222862000E+00 -3.355083009E-02
  1.253877000E+00  3.531902810E-01
  4.951550000E-01  5.534199315E-01
  1.916650000E-01  2.301839106E-01
  6.708300000E-02  1.127267003E-02
   p   9
  2.000000000E+02  9.173000030E-04
  4.653336700E+01  7.377140024E-03
  1.462180900E+01  3.483515011E-02
  5.313064000E+00  1.144397004E-01
  2.102525000E+00  2.554966408E-01
  8.502230000E-01  3.722557412E-01
  3.375970000E-01  3.323314911E-01
  1.288920000E-01  1.400847905E-01
  4.511200000E-02  2.395784008E-02
 
   2
   s  14
  1.053749500E+05  1.238600013E-04
  1.567924000E+04  5.120100053E-04
  3.534544700E+03  2.152910022E-03
  9.873651600E+02  8.528440089E-03
  3.159787500E+02  3.018049031E-02
  1.116542800E+02  9.099702095E-02
  4.269945100E+01  2.177936423E-01
  1.739559600E+01  3.686245738E-01
  7.438309000E+00  3.366707335E-01
  3.222862000E+00  9.657630101E-02
  1.253877000E+00  2.144520022E-03
  4.951550000E-01  1.194350012E-03
  1.916650000E-01  5.390200056E-04
  6.708300000E-02  2.103400022E-04
   s  14
  1.053749500E+05 -2.815000008E-05
  1.567924000E+04 -1.163000003E-04
  3.534544700E+03 -4.909200013E-04
  9.873651600E+02 -1.946160005E-03
  3.159787500E+02 -7.005300019E-03
  1.116542800E+02 -2.167814006E-02
  4.269945100E+01 -5.641213015E-02
  1.739559600E+01 -1.127053003E-01
  7.438309000E+00 -1.589119704E-01
  3.222862000E+00 -3.355083009E-02
  1.253877000E+00  3.531902810E-01
  4.951550000E-01  5.534199315E-01
  1.916650000E-01  2.301839106E-01
  6.708300000E-02  1.127267003E-02
   p   9
  2.000000000E+02  9.173000030E-04
  4.653336700E+01  7.377140024E-03
  1.462180900E+01  3.483515011E-02
  5.313064000E+00  1.144397004E-01
  2.102525000E+00  2.554966408E-01
  8.502230000E-01  3.722557412E-01
  3.375970000E-01  3.323314911E-01
  1.288920000E-01  1.400847905E-01
  4.511200000E-02  2.395784008E-02
 
[MO]
Sym=     1a  
Ene=   -23.1370
Spin= Alpha
Occup=    2.00000
   1         0.70499057
   2        -0.00189630
   3        -0.00000000
   4         0.00000000
   5         0.00698681
   6         0.70499057
   7        -0.00189630
   8        -0.00000000
   9         0.00000000
  10        -0.00698681
Sym=     2a  
Ene=   -23.0890
Spin= Alpha
Occup=    2.00000
   1        -0.70936656
   2         0.00571917
   3        -0.00000000
   4         0.00000000
   5        -0.01119163
   6         0.70936656
   7        -0.00571917
   8         0.00000000
   9         0.00000000
  10        -0.01119163
Sym=     3a  
Ene=    -3.9789
Spin= Alpha
Occup=    2.00000
   1         0.11706057
   2        -0.33326966
   3         0.00000000
   4        -0.00000000
   5        -0.43068124
   6         0.11706057
   7        -0.33326966
   8         0.00000000
   9        -0.00000000
  10         0.43068124
Sym=     4a  
Ene=    -2.4561
Spin= Alpha
Occup=    2.00000
   1        -0.00000000
   2        -0.00000000
   3         0.30513178
   4         0.48356553
   5         0.00000000
   6        -0.00000000
   7        -0.00000000
   8         0.30513178
   9         0.48356553
  10        -0.00000000
Sym=     5a  
Ene=    -2.4559
Spin= Alpha
Occup=    2.00000
   1        -0.00000000
   2         0.00000000
   3         0.48356553
   4        -0.30513178
   5         0.00000000
   6        -0.00000000
   7        -0.00000000
   8         0.48356553
   9        -0.30513178
  10        -0.00000000
Sym=     6a  
Ene=    -2.2495
Spin= Alpha
Occup=    2.00000
   1         0.06067446
   2         0.50249351
   3         0.00000000
   4         0.00000000
   5        -0.64436506
   6         0.06067446
   7         0.50249351
   8         0.00000000
   9         0.00000000
  10         0.64436506
Sym=     7a  
Ene=    -2.2659
Spin= Alpha
Occup=    1.99062
   1        -0.05743617
   2        -0.78217372
   3         0.00000000
   4         0.00000000
   5         0.26165076
   6         0.05743617
   7         0.78217372
   8        -0.00000000
   9        -0.00000000
  10         0.26165076
Sym=     8a  
Ene=     0.0000
Spin= Alpha
Occup=    0.00938
   1        -0.00000000
   2        -0.00000000
   3        -0.55001997
   4        -0.87165846
   5         0.00000000
   6         0.00000000
   7         0.00000000
   8         0.55001997
   9         0.87165846
  10         0.00000000
Sym=     9a  
Ene=    -1.0644
Spin= Alpha
Occup=    0.00000
   1         0.00000000
   2         0.00000000
   3        -0.87165846
   4         0.55001997
   5        -0.00000000
   6         0.00000000
   7         0.00000000
   8         0.87165846
   9        -0.55001997
  10         0.00000000
Sym=    10a  
Ene=     0.9313
Spin= Alpha
Occup=    0.00000
   1         0.56756987
   2         2.52728597
   3        -0.00000000
   4         0.00000000
   5         1.59430738
   6        -0.56756987
   7        -2.52728597
   8        -0.00000000
   9        -0.00000000
  10         1.59430738
