   This run of MOLCAS is using the pymolcas driver

                             OPE
                             OPE          NMOL  CASOP  ENMOLC A   SO
                 OPE        NMOLC        AS  OP EN  MO LC     AS  OP
                OPENM       OL CA        SO  PE NM  OL CA     SOP EN
                OP EN      MO   LC       AS  OP ENMOL  CASO   PENMOL
                OP  EN     MO   LC       AS  OP EN     MO     LC ASO
               OP   E  NMOL  C  AS       OP  EN MO     LC     AS  OP
               OP  E   NMO   LC AS        OPEN  MO     LCASOP EN   M
               O  PEN   MO  LCA  SO
            OPE   NMO   L   CAS    OP
        OPENMOL  CASOP     ENMOL   CASOPE
     OPENMOLCA   SOPENMOLCASOPEN   MOLCASOPE
    OPENMOLCAS   OP           EN   MOL    CAS
    OPENMOLCAS       OP  ENM        O     LCA
    OPENMOLCAS    OPEN  MOLCASO     P  E  NMO
    OPENMOLCAS     OP               E  N  MOL
    OPENMOLCA   SO           PENM   O  L  CAS    OPEN    MO    LCAS
    OPENMOLCA   SOP           ENM   O  L  CAS   OP  EN  MOLC  AS   O
    OPENMOLCA   SOPE           NM      O  LCA   S      OP  EN MO
    OPENMOLC                AS         O  PEN   M      OL  CA  SOPE
    OPENMO        LCASOPE  NMOL        C  ASO   P      ENMOLC     AS
    OPE     NMO      LCA  SO     P     E   NM   OL  CA SO  PE N   MO
          OPENMOLCA            SOPE   NMO        LCAS  O    P  ENMO
     OPENMOLCASOPENMOLCASOPENMOLCASOPENMOLCA
        OPENMOLCASOPENMOLCASOPENMOLCASOPE
            OPENMOLCASOPENMOLCASOPENM
               OPENMOLCASOPENMOLCA        version: ea724fe96-dirty
                   OPENMOLCASO
                       OPE                tag:

 OpenMolcas is free software; you can redistribute it and/or modify it
 under the terms of the GNU Lesser General Public License version 2.1.
 OpenMolcas is distributed in the hope that it will be useful, but it
 is provided "as is" and without any express or implied warranties.
 For more details see the full text of the license in the file
 LICENSE or in <http://www.gnu.org/licenses/>.

                 Copyright (C) The OpenMolcas Authors
           For the author list and the recommended citation,
                   consult the file CONTRIBUTORS.md

           *************************************************
           * pymolcas version py2.28                       *
           *   build c4a6d18ded8cb6cad61d2372a9abd97c      *
           *   (after the EMIL interpreter by V. Veryazov) *
           *************************************************

configuration info
------------------
C Compiler ID: Intel
C flags: -std=gnu99
Fortran Compiler ID: Intel
Fortran flags: -fpp -i8 -r8 -heap-arrays
Definitions: _MOLCAS_;_I8_;_LINUX_
Parallel: OFF (GA=OFF)


   -------------------------------------------------------------------------------
  |
  |              Project: 7.25
  |       Submitted from: /home/grierjones/DDCASPT2/iron_oxo_DDCASPT2/cluster/7.25
  |         Scratch area: /tmp/7.25
  |      Save outputs to: /home/grierjones/DDCASPT2/iron_oxo_DDCASPT2/cluster/7.25
  |               Molcas: /home/grierjones/Test/build
  |
  | Scratch area is empty
  |
  |       MOLCAS_DRIVER = /usr/local/pymolcas
  | MOLCAS_KEEP_WORKDIR = NO
  |  MOLCAS_NEW_WORKDIR = YES
  |       MOLCAS_NPROCS = 1
  |        MOLCAS_PRINT = NORMAL
  |       MOLCAS_SOURCE = /home/grierjones/Test/build
  |    MOLCAS_STRUCTURE = 0
  |
   -------------------------------------------------------------------------------

++ ---------   Input file   ---------

&GATEWAY
coord=7.25.xyz
Basis = ANO-RCC-VDZP
Group = nosymm
Expert
End of Input

&SEWARD
End of Input

&SCF
UHF
charge
2
spin
5
FileOrb
/home/grierjones/DDCASPT2/iron_oxo_DDCASPT2/cluster/7.23/7.23.UhfOrb

>>> COPY $WorkDir/7.25.scf.h5 $CurrDir/

&RASSCF
Title= RASSCF
FileOrb
/home/grierjones/DDCASPT2/iron_oxo_DDCASPT2/cluster/7.23/7.23.RasOrb
NACTEL
10 0 0
RAS2
14
Symmetry
1
Spin
5
charge
2
orblisting
all
ITERation
300 200

>>> COPY $WorkDir/7.25.rasscf.h5 $CurrDir/

>>> COPY $WorkDir/GMJ_Fock_MO.csv $CurrDir/7.25.GMJ_Fock_MO.csv

>>> COPY $WorkDir/GMJ_PT2_Fock_MO.csv $CurrDir/7.25.GMJ_PT2_Fock_MO.csv

&MOTRA
Frozen=0
LUMORB

>>> COPY $WorkDir/GMJ_one_int_indx.csv $CurrDir/7.25.GMJ_one_int_indx.csv

>>> COPY $WorkDir/GMJ_one_int.csv $CurrDir/7.25.GMJ_one_int.csv

>>> COPY $WorkDir/GMJ_two_int_indx.csv $CurrDir/7.25.GMJ_two_int_indx.csv

>>> COPY $WorkDir/GMJ_two_int.csv $CurrDir/7.25.GMJ_two_int.csv

&CASPT2
Frozen
0
MAXITER
50

>>> FOREACH i IN (B,E,F,G,H)

  >>> FOREACH j IN (P,M)

    >>> IF (-FILE GMJ_e2_${i}_${j}.csv)

      >>> COPY $WorkDir/GMJ_RHS_${i}_${j}.csv $CurrDir/GMJ_RHS_${i}_${j}.csv

      >>> COPY $WorkDir/GMJ_IVECW_${i}_${j}.csv $CurrDir/GMJ_IVECW_${i}_${j}.csv

      >>> COPY $WorkDir/GMJ_IVECX_${i}_${j}.csv $CurrDir/GMJ_IVECX_${i}_${j}.csv

      >>> COPY $WorkDir/GMJ_IVECC2_${i}_${j}.csv $CurrDir/GMJ_IVECC2_${i}_${j}.csv

      >>> COPY $WorkDir/GMJ_e2_${i}_${j}.csv $CurrDir/GMJ_e2_${i}_${j}.csv

    >>> END IF

  >>> END FOREACH

>>> END FOREACH

>>> FOREACH i IN (A,C,D)

  >>> IF (-FILE GMJ_e2_$i.csv)

    >>> COPY $WorkDir/GMJ_RHS_$i.csv $CurrDir/GMJ_RHS_$i.csv

    >>> COPY $WorkDir/GMJ_IVECW_$i.csv $CurrDir/GMJ_IVECW_$i.csv

    >>> COPY $WorkDir/GMJ_IVECX_$i.csv $CurrDir/GMJ_IVECX_$i.csv

    >>> COPY $WorkDir/GMJ_IVECC2_$i.csv $CurrDir/GMJ_IVECC2_$i.csv

    >>> COPY $WorkDir/GMJ_e2_$i.csv $CurrDir/GMJ_e2_$i.csv

  >>> END IF

>>> END FOREACH

-- ----------------------------------

--- Start Module: gateway at Wed Dec 25 23:12:17 2024 ---
 
()()()()()()()()()()()()()()()()()()()()()()()()()()()()()()()()()()()()()()()()()()()()()()()()()()

                                              &GATEWAY

                                   only a single process is used
                       available to each process: 2.0 GB of memory, 1 thread?
()()()()()()()()()()()()()()()()()()()()()()()()()()()()()()()()()()()()()()()()()()()()()()()()()()
 
 ###############################################################################
 ###############################################################################
 ###                                                                         ###
 ###                                                                         ###
 ###                                                                         ###
 ###    WARNING: EXPERT option is ON!                                        ###
 ###                                                                         ###
 ###                                                                         ###
 ###############################################################################
 ###############################################################################
 
++    Symmetry information:
      ---------------------
 
                    Character Table for C1 
 
                             E  
                    a        1  x, y, xy, Rz, z, xz, Ry, yz, Rx, I
--
 
 
++    Basis set information:
      ----------------------
 
 
      Basis set label: O.ANO-RCC...3S2P1D.
 
      Electronic valence basis set:
      ------------------
      Associated Effective Charge   8.000000 au
      Associated Actual Charge      8.000000 au
      Nuclear Model: Point charge
 
      Shell  nPrim  nBasis  Cartesian Spherical Contaminant
         s      14       3        X                  
         p       9       2        X                  
         d       4       1                 X         
 
 
      Basis set label: FE.ANO-RCC...5S4P2D1F.
 
      Electronic valence basis set:
      ------------------
      Associated Effective Charge  26.000000 au
      Associated Actual Charge     26.000000 au
      Nuclear Model: Point charge
 
      Shell  nPrim  nBasis  Cartesian Spherical Contaminant
         s      21       5        X                  
         p      15       4        X                  
         d      10       2                 X         
         f       6       1                 X         
--
 
 
++    Molecular structure info:
      -------------------------
 
                    ************************************************ 
                    **** Cartesian Coordinates / Bohr, Angstrom **** 
                    ************************************************ 
 
     Center  Label                x              y              z                     x              y              z
        1      O1               0.000000       0.000000       8.358353              0.000000       0.000000       4.423050
        2      FE2              0.000000       0.000000      -5.334791              0.000000       0.000000      -2.823050
--
 
 
            Nuclear Potential Energy             15.19008292 au
 
 ###############################################################################
 ###############################################################################
 ###                                                                         ###
 ###                                                                         ###
 ###    There were warnings during the execution                             ###
 ###    Please, check the output with care!                                  ###
 ###                                                                         ###
 ###                                                                         ###
 ###############################################################################
 ###############################################################################
--- Stop Module: gateway at Wed Dec 25 23:12:17 2024 /rc=_RC_ALL_IS_WELL_ ---
*** files: xmldump
    saved to directory /home/grierjones/DDCASPT2/iron_oxo_DDCASPT2/cluster/7.25

--- Start Module: seward at Wed Dec 25 23:12:17 2024 ---
 
()()()()()()()()()()()()()()()()()()()()()()()()()()()()()()()()()()()()()()()()()()()()()()()()()()

                                              &SEWARD

                                   only a single process is used
                       available to each process: 2.0 GB of memory, 1 thread?
()()()()()()()()()()()()()()()()()()()()()()()()()()()()()()()()()()()()()()()()()()()()()()()()()()
 
 ###############################################################################
 ###############################################################################
 ###                                                                         ###
 ###                                                                         ###
 ###                                                                         ###
 ###    WARNING: EXPERT option is ON!                                        ###
 ###                                                                         ###
 ###                                                                         ###
 ###############################################################################
 ###############################################################################
               SEWARD will generate:
                  Multipole Moment integrals up to order  2
                  Kinetic Energy integrals
                  Nuclear Attraction integrals (point charge)
                  One-Electron Hamiltonian integrals
                  Velocity integrals
                  Relativistic Douglas-Kroll-Hess integrals:
                    - Parametrization         : EXP
                    - DKH order of Hamiltonian: 2
                    - DKH order of Properties : 0
                         - multipole moment operators
                         - electric potential operators
                         - contact operators
                  Atomic mean-field integrals
                  Two-Electron Repulsion integrals
 
                   Integrals are discarded if absolute value <: 0.10E-13
                   Integral cutoff threshold is set to       <: 0.10E-15
 
            Nuclear Potential Energy             15.19008292 au
 
 
      Basis set specifications :
      Symmetry species         a  
      Basis functions           48
 
 
  Input file to MOLDEN was generated!
 
 ###############################################################################
 ###############################################################################
 ###                                                                         ###
 ###                                                                         ###
 ###    There were warnings during the execution                             ###
 ###    Please, check the output with care!                                  ###
 ###                                                                         ###
 ###                                                                         ###
 ###############################################################################
 ###############################################################################
--- Stop Module: seward at Wed Dec 25 23:12:18 2024 /rc=_RC_ALL_IS_WELL_ ---
*** files: 7.25.GssOrb 7.25.guessorb.h5 7.25.guessorb.molden xmldump
    saved to directory /home/grierjones/DDCASPT2/iron_oxo_DDCASPT2/cluster/7.25

*** symbolic link created: INPORB -> 7.25.GssOrb
--- Start Module: scf at Wed Dec 25 23:12:18 2024 ---
 
()()()()()()()()()()()()()()()()()()()()()()()()()()()()()()()()()()()()()()()()()()()()()()()()()()

                                                &SCF

                                   only a single process is used
                       available to each process: 2.0 GB of memory, 1 thread?
()()()()()()()()()()()()()()()()()()()()()()()()()()()()()()()()()()()()()()()()()()()()()()()()()()
 
 *** Possible bug in opening file
 *** isFreeUnit resets the unit number
++    Input section:
      --------------
 
      Header of the integral files:
      
       Integrals generated by seward 4.2.0  , Wed Dec 25 23:12:18 2024
 
 
      Cartesian coordinates in Angstrom:
      -----------------------------------------------------
      No.  Label        X            Y            Z        
      -----------------------------------------------------
       1   O1         0.00000000   0.00000000   4.42305000
       2   FE2        0.00000000   0.00000000  -2.82305000
      -----------------------------------------------------
      Nuclear repulsion energy =   15.19008292
--
 
++    Orbital specifications:
      -----------------------
 
      Symmetry species               1
                                     a
      Frozen orbitals                0
      Occupied orbitals alpha       18
      Occupied orbitals beta        14
      Secondary orbitals alpha      30
      Secondary orbitals beta       34
      Deleted orbitals               0
      Total number of orbitals      48
      Number of basis functions     48
--
 
      Molecular charge                           2.000
 
++    Optimization specifications:
      ----------------------------
 
      SCF Algorithm: Conventional USCF
      D(i)-D(i-1) density differences are used
      Number of density matrices in core                5
      Maximum number of NDDO SCF iterations           400
      Maximum number of HF SCF iterations             400
      Threshold for SCF energy change            0.10E-08
      Threshold for density matrix               0.10E-03
      Threshold for Fock matrix                  0.15E-03
      Threshold for linear dependence            0.10E-08
      Threshold at which DIIS is turned on       0.15E+00
      Threshold at which QNR/C2DIIS is turned on 0.75E-01
      Threshold for Norm(delta) (QNR/C2DIIS)     0.20E-04
      DIIS extrapolation of the SCF procedure
      All orbitals punched on: UHFORB
--
 
      Input vectors read from INPORB
      Orbital file label: * UHF orbitals
 
 
++ Convergence information
                               UHF SCF        iterations: Energy and convergence statistics
 
Iter     Tot. SCF        One-elec.       Two-elec.     Energy      Max Dij or  Max Fij      DNorm      TNorm      AccCon     Time
         Energy          Energy          Energy        Change      Delta Norm                                                in Sec.
 
 The total and one-electron energies are shifted by a value of      1000. a.u.
 
   1  -345.285340590  -879.517459211   519.042035705   0.00E+00    0.37E-04    0.12E-04     0.80E+01   0.18E+03   None         0.
   2  -345.285340592  -879.518211087   519.042787578  -0.19E-08*   0.18E-04    0.77E-05     0.12E-03   0.18E+03   EDIIS        0.
   3  -345.285340592  -879.517490932   519.042067423  -0.34E-09    0.15E-04    0.89E-05     0.63E-04   0.18E+03   c2DIIS       0.
 
       Convergence after  3 Macro Iterations
--
 
 *****************************************************************************************************************************
 *                                                                                                                           *
 *                                             SCF/KS-DFT Program, Final results                                             *
 *                                                                                                                           *
 *                                                                                                                           *
 *                                                                                                                           *
 *                                                       Final Results                                                       *
 *                                                                                                                           *
 *****************************************************************************************************************************
 
::    Total SCF energy                              -1345.2853405922
      One-electron energy                           -1879.5174909319
      Two-electron energy                             519.0420674234
      Nuclear repulsion energy                         15.1900829162
      Kinetic energy (interpolated)                  1399.3973969654
      Virial theorem                                    0.9613318872
      Total spin, S(S+1)                                7.0174818435
      Total spin, S                                     2.1958267458
      Max non-diagonal density matrix element           0.0000147011
      Max non-diagonal Fock matrix element              0.0000088615
 
 
      All orbitals with orbital energies smaller than  E(LUMO)+0.5 are printed
 
++    Molecular orbitals:
      -------------------
 
      Title: UHF orbitals (alpha)

      Molecular orbitals for symmetry species 1: a  
 
          Orbital            1         2         3         4         5         6         7         8         9        10    
          Energy         -263.8488  -32.6252  -27.7087  -27.7087  -27.6779  -21.4722   -4.5393   -3.1166   -3.1166   -3.0450
          Occ. No.          1.0000    1.0000    1.0000    1.0000    1.0000    1.0000    1.0000    1.0000    1.0000    1.0000
 
        1 O1     1s         0.0000   -0.0000    0.0000    0.0000   -0.0000    1.0000    0.0000   -0.0000    0.0000    0.0000
        2 O1     2s         0.0000   -0.0000    0.0000    0.0000   -0.0000    0.0003    0.0000   -0.0000    0.0000    0.0000
        3 O1     3s         0.0000   -0.0000    0.0000    0.0000   -0.0000   -0.0010    0.0001   -0.0000    0.0000    0.0000
        4 O1     2px        0.0000    0.0000    0.0000   -0.0000    0.0000   -0.0000   -0.0000   -0.0000    0.0000   -0.0000
        5 O1     3px        0.0000    0.0000    0.0000   -0.0000    0.0000    0.0000    0.0000   -0.0000    0.0000   -0.0000
        6 O1     2py       -0.0000   -0.0000   -0.0000   -0.0000   -0.0000    0.0000    0.0000    0.0000    0.0000    0.0000
        7 O1     3py       -0.0000   -0.0000   -0.0000   -0.0000   -0.0000   -0.0000   -0.0000    0.0000    0.0000    0.0000
        8 O1     2pz       -0.0000    0.0000   -0.0000   -0.0000    0.0000   -0.0000   -0.0000    0.0000   -0.0000   -0.0000
        9 O1     3pz        0.0000    0.0000   -0.0000   -0.0000    0.0000    0.0000   -0.0001    0.0000   -0.0000   -0.0001
       10 O1     3d2-       0.0000    0.0000   -0.0000    0.0000   -0.0000    0.0000    0.0000    0.0000   -0.0000    0.0000
       11 O1     3d1-       0.0000    0.0000    0.0000    0.0000    0.0000    0.0000    0.0000   -0.0000   -0.0000   -0.0000
       12 O1     3d0       -0.0000   -0.0000    0.0000    0.0000   -0.0000   -0.0015    0.0000   -0.0000    0.0000    0.0000
       13 O1     3d1+      -0.0000   -0.0000   -0.0000    0.0000   -0.0000   -0.0000   -0.0000    0.0000   -0.0000    0.0000
       14 O1     3d2+      -0.0000   -0.0000   -0.0000   -0.0000   -0.0000    0.0000    0.0000    0.0000    0.0000   -0.0000
       15 FE2    1s         1.0000    0.0000    0.0000    0.0000   -0.0000    0.0000   -0.0000   -0.0000    0.0000    0.0000
       16 FE2    2s        -0.0000    1.0000    0.0000    0.0000   -0.0002   -0.0000   -0.0023    0.0000   -0.0000   -0.0000
       17 FE2    3s         0.0000    0.0023    0.0000    0.0000   -0.0000   -0.0000    0.9999    0.0000   -0.0000   -0.0009
       18 FE2    4s        -0.0000   -0.0001   -0.0000   -0.0000    0.0000    0.0000    0.0063   -0.0000    0.0000    0.0004
       19 FE2    5s         0.0000    0.0001    0.0000    0.0000   -0.0000    0.0000   -0.0044    0.0000   -0.0000   -0.0002
       20 FE2    2px       -0.0000   -0.0000   -0.4811    0.8767   -0.0000   -0.0000    0.0000    0.0005   -0.0020    0.0000
       21 FE2    3px        0.0000   -0.0000   -0.0010    0.0018   -0.0000    0.0000   -0.0000   -0.2494    0.9684   -0.0000
       22 FE2    4px       -0.0000    0.0000    0.0001   -0.0002    0.0000   -0.0000    0.0000   -0.0008    0.0033   -0.0000
       23 FE2    5px        0.0000   -0.0000   -0.0003    0.0006   -0.0000   -0.0000   -0.0000    0.0011   -0.0042    0.0000
       24 FE2    2py        0.0000    0.0000    0.8767    0.4811    0.0001    0.0000   -0.0000   -0.0020   -0.0005   -0.0000
       25 FE2    3py       -0.0000    0.0000    0.0018    0.0010    0.0000   -0.0000    0.0000    0.9684    0.2494    0.0001
       26 FE2    4py        0.0000   -0.0000   -0.0002   -0.0001   -0.0000    0.0000   -0.0000    0.0033    0.0008    0.0000
       27 FE2    5py       -0.0000    0.0000    0.0006    0.0003    0.0000    0.0000    0.0000   -0.0042   -0.0011   -0.0000
       28 FE2    2pz        0.0000    0.0002   -0.0001   -0.0000    1.0000   -0.0000   -0.0000    0.0000   -0.0000   -0.0016
       29 FE2    3pz       -0.0000    0.0000   -0.0000   -0.0000    0.0016   -0.0000    0.0009   -0.0001    0.0000    1.0000
       30 FE2    4pz        0.0000   -0.0000    0.0000    0.0000   -0.0001    0.0000    0.0001   -0.0000    0.0000    0.0056
       31 FE2    5pz       -0.0000    0.0000   -0.0000   -0.0000    0.0003    0.0000   -0.0001    0.0000   -0.0000   -0.0056
       32 FE2    3d2-       0.0000    0.0000   -0.0000    0.0000    0.0000   -0.0000    0.0000   -0.0000    0.0000    0.0000
       33 FE2    4d2-      -0.0000   -0.0000    0.0000   -0.0000   -0.0000   -0.0000   -0.0000    0.0000   -0.0000   -0.0000
       34 FE2    3d1-      -0.0000   -0.0000    0.0000    0.0000    0.0000    0.0000   -0.0000    0.0004    0.0001    0.0000
       35 FE2    4d1-       0.0000    0.0000   -0.0000   -0.0000   -0.0000    0.0000    0.0000    0.0000    0.0000    0.0000
       36 FE2    3d0       -0.0000   -0.0005   -0.0000   -0.0000    0.0000    0.0000   -0.0124   -0.0000    0.0000    0.0005
       37 FE2    4d0        0.0000    0.0004    0.0000    0.0000   -0.0000    0.0000    0.0041    0.0000   -0.0000    0.0001
       38 FE2    3d1+       0.0000    0.0000   -0.0000    0.0000   -0.0000   -0.0000    0.0000   -0.0001    0.0004   -0.0000
       39 FE2    4d1+      -0.0000   -0.0000    0.0000   -0.0000    0.0000   -0.0000   -0.0000   -0.0000    0.0000   -0.0000
       40 FE2    3d2+       0.0000    0.0000   -0.0000   -0.0000    0.0000    0.0000    0.0000   -0.0000   -0.0000    0.0000
       41 FE2    4d2+      -0.0000   -0.0000    0.0000    0.0000   -0.0000   -0.0000   -0.0000    0.0000    0.0000   -0.0000
       42 FE2    4f3-       0.0000    0.0000    0.0000    0.0000   -0.0000    0.0000    0.0000    0.0000    0.0000   -0.0000
       43 FE2    4f2-       0.0000    0.0000    0.0000   -0.0000    0.0000    0.0000    0.0000    0.0000   -0.0000    0.0000
       44 FE2    4f1-      -0.0000   -0.0000   -0.0002   -0.0001   -0.0000    0.0000   -0.0000   -0.0078   -0.0020   -0.0000
       45 FE2    4f0       -0.0000   -0.0000    0.0000    0.0000   -0.0001    0.0000   -0.0000    0.0000   -0.0000   -0.0018
       46 FE2    4f1+       0.0000    0.0000    0.0001   -0.0002    0.0000   -0.0000    0.0000    0.0020   -0.0078    0.0000
       47 FE2    4f2+       0.0000    0.0000    0.0000    0.0000    0.0000   -0.0000    0.0000    0.0000    0.0000    0.0000
       48 FE2    4f3+       0.0000    0.0000   -0.0000    0.0000   -0.0000    0.0000    0.0000   -0.0000    0.0000   -0.0000
 
          Orbital           11        12        13        14        15        16        17        18        19        20    
          Energy           -1.9838   -1.3693   -1.3693   -0.8507   -0.8507   -0.8115   -0.7767   -0.7767   -0.5281   -0.3024
          Occ. No.          1.0000    1.0000    1.0000    1.0000    1.0000    1.0000    1.0000    1.0000    0.0000    0.0000
 
        1 O1     1s        -0.0004   -0.0000   -0.0000    0.0000    0.0000   -0.0000    0.0000   -0.0000    0.0000   -0.0001
        2 O1     2s         0.9962    0.0000    0.0000    0.0000    0.0000   -0.0000    0.0000   -0.0000    0.0034   -0.0010
        3 O1     3s        -0.0712   -0.0000   -0.0000    0.0000    0.0000   -0.0000    0.0000   -0.0000   -0.0032    0.0009
        4 O1     2px       -0.0000   -0.3678    0.9189   -0.0000    0.0000    0.0000    0.0000   -0.0000    0.0000    0.0000
        5 O1     3px        0.0000    0.0531   -0.1326   -0.0000    0.0000    0.0000    0.0000   -0.0000    0.0000    0.0000
        6 O1     2py        0.0000    0.9189    0.3678   -0.0000   -0.0000   -0.0000   -0.0000   -0.0000   -0.0001   -0.0000
        7 O1     3py       -0.0000   -0.1326   -0.0531   -0.0000   -0.0000   -0.0000   -0.0000   -0.0000   -0.0000   -0.0000
        8 O1     2pz       -0.0037    0.0001    0.0000   -0.0000   -0.0000    0.0002   -0.0000    0.0000    0.9945    0.0041
        9 O1     3pz       -0.0001   -0.0000   -0.0000   -0.0000   -0.0000    0.0003   -0.0000    0.0000    0.1048   -0.0019
       10 O1     3d2-       0.0000   -0.0000    0.0000   -0.0000    0.0000   -0.0000    0.0000   -0.0000    0.0000   -0.0000
       11 O1     3d1-       0.0000   -0.0010   -0.0004   -0.0000   -0.0000   -0.0000   -0.0000   -0.0000    0.0000   -0.0000
       12 O1     3d0       -0.0510   -0.0000   -0.0000    0.0000    0.0000   -0.0000   -0.0000    0.0000   -0.0017    0.0001
       13 O1     3d1+      -0.0000    0.0004   -0.0010   -0.0000    0.0000    0.0000    0.0000   -0.0000   -0.0000    0.0000
       14 O1     3d2+       0.0000   -0.0000   -0.0000    0.0000    0.0000   -0.0000    0.0000    0.0000    0.0000   -0.0000
       15 FE2    1s        -0.0000   -0.0000   -0.0000    0.0000    0.0000    0.0000   -0.0000    0.0000    0.0000    0.0000
       16 FE2    2s         0.0000   -0.0000   -0.0000    0.0000    0.0000    0.0004   -0.0000    0.0000    0.0000    0.0001
       17 FE2    3s        -0.0000   -0.0000   -0.0000    0.0000    0.0000    0.0124   -0.0000    0.0000    0.0000   -0.0058
       18 FE2    4s        -0.0000   -0.0000   -0.0000   -0.0000   -0.0000   -0.0169   -0.0000    0.0000    0.0007    0.9954
       19 FE2    5s        -0.0001   -0.0000   -0.0000    0.0000    0.0000    0.0080   -0.0000    0.0000    0.0015    0.0706
       20 FE2    2px        0.0000   -0.0000    0.0000   -0.0000    0.0000    0.0000    0.0000   -0.0000   -0.0000    0.0000
       21 FE2    3px       -0.0000   -0.0000    0.0000   -0.0000    0.0000    0.0000    0.0001   -0.0004   -0.0000    0.0000
       22 FE2    4px       -0.0000   -0.0000    0.0001    0.0000   -0.0000   -0.0000   -0.0016    0.0058   -0.0000    0.0000
       23 FE2    5px       -0.0000   -0.0000    0.0000    0.0000   -0.0000   -0.0000   -0.0001    0.0002   -0.0000    0.0000
       24 FE2    2py       -0.0000    0.0000    0.0000   -0.0000   -0.0000   -0.0000   -0.0000   -0.0000    0.0000   -0.0000
       25 FE2    3py        0.0000    0.0000    0.0000   -0.0000   -0.0000   -0.0000   -0.0004   -0.0001    0.0000   -0.0000
       26 FE2    4py        0.0000    0.0001    0.0000    0.0000    0.0000    0.0000    0.0058    0.0016    0.0000   -0.0000
       27 FE2    5py        0.0000    0.0000    0.0000    0.0000    0.0000    0.0000    0.0002    0.0001    0.0000   -0.0000
       28 FE2    2pz        0.0000   -0.0000   -0.0000    0.0000    0.0000   -0.0000    0.0000   -0.0000    0.0000    0.0000
       29 FE2    3pz       -0.0000   -0.0000   -0.0000    0.0000    0.0000   -0.0005    0.0000   -0.0000    0.0000   -0.0007
       30 FE2    4pz       -0.0000   -0.0000   -0.0000   -0.0000   -0.0000    0.0063   -0.0000    0.0000    0.0007    0.0602
       31 FE2    5pz       -0.0000   -0.0000   -0.0000   -0.0000   -0.0000    0.0002   -0.0000    0.0000    0.0002    0.0087
       32 FE2    3d2-       0.0000   -0.0000    0.0000   -0.1732    0.9849   -0.0000   -0.0000    0.0001    0.0000   -0.0000
       33 FE2    4d2-       0.0000    0.0000   -0.0000   -0.0006    0.0034   -0.0000   -0.0000    0.0000   -0.0000    0.0000
       34 FE2    3d1-      -0.0000    0.0000    0.0000    0.0001    0.0000    0.0001    0.9645    0.2627   -0.0000    0.0000
       35 FE2    4d1-       0.0000    0.0000    0.0000    0.0000    0.0000    0.0000    0.0260    0.0071    0.0000   -0.0000
       36 FE2    3d0       -0.0000   -0.0000   -0.0000   -0.0000   -0.0000    0.9996   -0.0002    0.0000    0.0002    0.0161
       37 FE2    4d0        0.0000   -0.0000   -0.0000   -0.0000   -0.0000    0.0152   -0.0000    0.0000    0.0001   -0.0090
       38 FE2    3d1+       0.0000   -0.0000    0.0000    0.0000   -0.0001   -0.0000   -0.2627    0.9645    0.0000   -0.0000
       39 FE2    4d1+      -0.0000   -0.0000    0.0000    0.0000   -0.0000   -0.0000   -0.0071    0.0260   -0.0000    0.0000
       40 FE2    3d2+       0.0000   -0.0000   -0.0000    0.9849    0.1732   -0.0000   -0.0001   -0.0000    0.0000   -0.0000
       41 FE2    4d2+      -0.0000    0.0000    0.0000    0.0034    0.0006   -0.0000   -0.0000   -0.0000   -0.0000    0.0000
       42 FE2    4f3-      -0.0000   -0.0000   -0.0000    0.0000   -0.0000   -0.0000   -0.0000   -0.0000    0.0000   -0.0000
       43 FE2    4f2-      -0.0000   -0.0000    0.0000   -0.0001    0.0004   -0.0000   -0.0000    0.0000    0.0000   -0.0000
       44 FE2    4f1-       0.0000    0.0000    0.0000    0.0000    0.0000    0.0000    0.0005    0.0001   -0.0000   -0.0000
       45 FE2    4f0        0.0000   -0.0000   -0.0000   -0.0000   -0.0000    0.0005   -0.0000    0.0000   -0.0000    0.0000
       46 FE2    4f1+      -0.0000   -0.0000    0.0000    0.0000   -0.0000   -0.0000   -0.0001    0.0005    0.0000    0.0000
       47 FE2    4f2+      -0.0000   -0.0000   -0.0000    0.0004    0.0001   -0.0000   -0.0000   -0.0000    0.0000   -0.0000
       48 FE2    4f3+      -0.0000    0.0000   -0.0000   -0.0000   -0.0000   -0.0000    0.0000   -0.0000    0.0000   -0.0000
 
          Orbital           21        22        23        24    
          Energy           -0.1565   -0.1565   -0.1465   -0.0675
          Occ. No.          0.0000    0.0000    0.0000    0.0000
 
        1 O1     1s         0.0000    0.0000   -0.0001   -0.0003
        2 O1     2s         0.0000    0.0000   -0.0014   -0.0028
        3 O1     3s        -0.0000   -0.0000    0.0031    0.0100
        4 O1     2px       -0.0001    0.0002    0.0000    0.0000
        5 O1     3px       -0.0007    0.0026    0.0000    0.0000
        6 O1     2py        0.0002    0.0001   -0.0000   -0.0000
        7 O1     3py        0.0026    0.0007   -0.0000   -0.0000
        8 O1     2pz       -0.0000   -0.0000    0.0069    0.0142
        9 O1     3pz        0.0000    0.0000   -0.0130   -0.0357
       10 O1     3d2-       0.0000   -0.0000   -0.0000   -0.0000
       11 O1     3d1-      -0.0000   -0.0000   -0.0000   -0.0000
       12 O1     3d0       -0.0000   -0.0000    0.0003    0.0009
       13 O1     3d1+       0.0000   -0.0000    0.0000    0.0000
       14 O1     3d2+       0.0000    0.0000   -0.0000   -0.0000
       15 FE2    1s         0.0000    0.0000   -0.0000   -0.0000
       16 FE2    2s         0.0000    0.0000   -0.0000   -0.0002
       17 FE2    3s        -0.0000   -0.0000    0.0004    0.0046
       18 FE2    4s         0.0000    0.0000   -0.0646   -0.0674
       19 FE2    5s        -0.0000   -0.0000    0.0519    0.9936
       20 FE2    2px       -0.0000    0.0001   -0.0000   -0.0000
       21 FE2    3px        0.0008   -0.0027    0.0000   -0.0000
       22 FE2    4px       -0.2700    0.9560   -0.0000    0.0000
       23 FE2    5px       -0.0311    0.1102   -0.0000    0.0000
       24 FE2    2py        0.0001    0.0000    0.0000    0.0000
       25 FE2    3py       -0.0027   -0.0008   -0.0000    0.0000
       26 FE2    4py        0.9560    0.2700    0.0001   -0.0000
       27 FE2    5py        0.1102    0.0311    0.0000   -0.0000
       28 FE2    2pz       -0.0000   -0.0000    0.0001   -0.0000
       29 FE2    3pz        0.0000    0.0000   -0.0048    0.0006
       30 FE2    4pz       -0.0001   -0.0000    0.9888   -0.0583
       31 FE2    5pz       -0.0000   -0.0000    0.1202   -0.0035
       32 FE2    3d2-       0.0000   -0.0000    0.0000    0.0000
       33 FE2    4d2-       0.0000   -0.0000   -0.0000   -0.0000
       34 FE2    3d1-      -0.0059   -0.0017   -0.0000   -0.0000
       35 FE2    4d1-       0.0054    0.0015    0.0000    0.0000
       36 FE2    3d0        0.0000    0.0000   -0.0079   -0.0090
       37 FE2    4d0       -0.0000   -0.0000    0.0093    0.0142
       38 FE2    3d1+       0.0017   -0.0059    0.0000    0.0000
       39 FE2    4d1+      -0.0015    0.0054   -0.0000   -0.0000
       40 FE2    3d2+       0.0000    0.0000    0.0000    0.0000
       41 FE2    4d2+       0.0000    0.0000   -0.0000   -0.0000
       42 FE2    4f3-       0.0000    0.0000    0.0000    0.0000
       43 FE2    4f2-       0.0000   -0.0000    0.0000    0.0000
       44 FE2    4f1-      -0.0001   -0.0000   -0.0000    0.0000
       45 FE2    4f0        0.0000    0.0000   -0.0005    0.0000
       46 FE2    4f1+       0.0000   -0.0001    0.0000   -0.0000
       47 FE2    4f2+       0.0000    0.0000    0.0000    0.0000
       48 FE2    4f3+      -0.0000    0.0000    0.0000    0.0000
--
 
 
  Input file to MOLDEN was generated!
 
 
++    Static properties:
      ------------------
 
 
      LoProp Charges per center
 

                   O1       FE2   
      Nuclear      8.0000  26.0000
      Electronic  -7.0000 -25.0000
 
      Total        1.0000   1.0000
--
 
 
      All orbitals with orbital energies smaller than  E(LUMO)+0.5 are printed
 
++    Molecular orbitals:
      -------------------
 
      Title: UHF orbitals (beta)

      Molecular orbitals for symmetry species 1: a  
 
          Orbital            1         2         3         4         5         6         7         8         9        10    
          Energy         -263.8474  -32.5404  -27.6144  -27.6144  -27.6137  -21.4252   -4.2878   -2.8211   -2.7719   -2.7719
          Occ. No.          1.0000    1.0000    1.0000    1.0000    1.0000    1.0000    1.0000    1.0000    1.0000    1.0000
 
        1 O1     1s         0.0000   -0.0000   -0.0000   -0.0000    0.0000    1.0000    0.0000    0.0000   -0.0000   -0.0000
        2 O1     2s         0.0000   -0.0000   -0.0000   -0.0000    0.0000   -0.0019    0.0000    0.0000   -0.0000   -0.0000
        3 O1     3s         0.0000    0.0000   -0.0000   -0.0000    0.0000    0.0002    0.0001    0.0000   -0.0000   -0.0000
        4 O1     2px        0.0000    0.0000   -0.0000    0.0000   -0.0000    0.0000    0.0000   -0.0000   -0.0000    0.0000
        5 O1     3px        0.0000    0.0000   -0.0000    0.0000   -0.0000   -0.0000   -0.0000   -0.0000   -0.0000    0.0000
        6 O1     2py        0.0000   -0.0000    0.0000    0.0000    0.0000   -0.0000   -0.0000    0.0000    0.0000    0.0000
        7 O1     3py       -0.0000   -0.0000    0.0000    0.0000    0.0000    0.0000    0.0000    0.0000    0.0000    0.0000
        8 O1     2pz       -0.0000   -0.0000    0.0000    0.0000   -0.0000   -0.0000   -0.0000   -0.0000    0.0000    0.0000
        9 O1     3pz        0.0000   -0.0000    0.0000    0.0000   -0.0000   -0.0000   -0.0001   -0.0001    0.0000    0.0000
       10 O1     3d2-       0.0000    0.0000   -0.0000    0.0000   -0.0000   -0.0000    0.0000    0.0000   -0.0000    0.0000
       11 O1     3d1-       0.0000    0.0000   -0.0000   -0.0000   -0.0000   -0.0000    0.0000   -0.0000   -0.0000   -0.0000
       12 O1     3d0       -0.0000    0.0000   -0.0000   -0.0000    0.0000    0.0015    0.0000    0.0000   -0.0000   -0.0000
       13 O1     3d1+      -0.0000   -0.0000    0.0000   -0.0000    0.0000    0.0000   -0.0000    0.0000    0.0000   -0.0000
       14 O1     3d2+      -0.0000   -0.0000   -0.0000   -0.0000   -0.0000   -0.0000    0.0000   -0.0000   -0.0000   -0.0000
       15 FE2    1s         1.0000    0.0000    0.0000    0.0000   -0.0000   -0.0000   -0.0000    0.0000   -0.0000   -0.0000
       16 FE2    2s        -0.0000    1.0000    0.0000    0.0000   -0.0002   -0.0000    0.0002   -0.0000    0.0000    0.0000
       17 FE2    3s         0.0000   -0.0002   -0.0000   -0.0000    0.0000    0.0000    1.0000   -0.0010    0.0000    0.0000
       18 FE2    4s        -0.0000    0.0001   -0.0000   -0.0000    0.0000   -0.0000    0.0076    0.0005   -0.0000   -0.0000
       19 FE2    5s         0.0000   -0.0002    0.0000    0.0000   -0.0000   -0.0000   -0.0057   -0.0003    0.0000    0.0000
       20 FE2    2px       -0.0000   -0.0000   -0.4457    0.8952   -0.0000   -0.0000   -0.0000   -0.0000   -0.0008    0.0017
       21 FE2    3px        0.0000    0.0000    0.0009   -0.0017    0.0000   -0.0000    0.0000   -0.0000   -0.4009    0.9159
       22 FE2    4px       -0.0000   -0.0000   -0.0001    0.0003   -0.0000    0.0000   -0.0000   -0.0000   -0.0032    0.0074
       23 FE2    5px        0.0000   -0.0000    0.0003   -0.0007    0.0000    0.0000   -0.0000    0.0000    0.0036   -0.0082
       24 FE2    2py        0.0000    0.0000    0.8952    0.4457    0.0001    0.0000    0.0000    0.0000    0.0017    0.0008
       25 FE2    3py       -0.0000   -0.0000   -0.0017   -0.0009   -0.0000    0.0000   -0.0000    0.0001    0.9159    0.4009
       26 FE2    4py        0.0000    0.0000    0.0003    0.0001    0.0000   -0.0000    0.0000    0.0000    0.0074    0.0032
       27 FE2    5py       -0.0000    0.0000   -0.0007   -0.0003   -0.0000   -0.0000    0.0000   -0.0000   -0.0082   -0.0036
       28 FE2    2pz        0.0000    0.0002   -0.0001   -0.0000    1.0000   -0.0000   -0.0000    0.0010   -0.0000   -0.0000
       29 FE2    3pz       -0.0000    0.0000    0.0000    0.0000   -0.0010    0.0000    0.0010    0.9997   -0.0001   -0.0000
       30 FE2    4pz        0.0000   -0.0000   -0.0000   -0.0000    0.0003   -0.0000    0.0001    0.0107   -0.0000   -0.0000
       31 FE2    5pz       -0.0000    0.0000    0.0000    0.0000   -0.0007   -0.0000   -0.0001   -0.0099    0.0000    0.0000
       32 FE2    3d2-      -0.0000   -0.0000   -0.0000    0.0000   -0.0000    0.0000   -0.0000   -0.0000    0.0000   -0.0000
       33 FE2    4d2-      -0.0000   -0.0000    0.0000   -0.0000    0.0000   -0.0000    0.0000    0.0000   -0.0000    0.0000
       34 FE2    3d1-       0.0000    0.0000    0.0000    0.0000    0.0000   -0.0000    0.0000    0.0000    0.0003    0.0001
       35 FE2    4d1-       0.0000    0.0000   -0.0000   -0.0000   -0.0000   -0.0000    0.0000   -0.0000    0.0002    0.0001
       36 FE2    3d0        0.0000    0.0000   -0.0000   -0.0000    0.0000   -0.0000    0.0010    0.0008   -0.0000   -0.0000
       37 FE2    4d0        0.0000    0.0000    0.0000    0.0000   -0.0000   -0.0000    0.0005   -0.0001   -0.0000   -0.0000
       38 FE2    3d1+      -0.0000   -0.0000   -0.0000    0.0000   -0.0000    0.0000   -0.0000   -0.0000   -0.0001    0.0003
       39 FE2    4d1+      -0.0000   -0.0000    0.0000   -0.0000    0.0000    0.0000   -0.0000    0.0000   -0.0001    0.0002
       40 FE2    3d2+      -0.0000   -0.0000   -0.0000   -0.0000   -0.0000    0.0000   -0.0000   -0.0000    0.0000    0.0000
       41 FE2    4d2+      -0.0000   -0.0000    0.0000    0.0000    0.0000   -0.0000    0.0000    0.0000   -0.0000   -0.0000
       42 FE2    4f3-       0.0000   -0.0000   -0.0000   -0.0000    0.0000    0.0000   -0.0000    0.0000   -0.0000   -0.0000
       43 FE2    4f2-       0.0000   -0.0000   -0.0000    0.0000    0.0000    0.0000   -0.0000    0.0000   -0.0000    0.0000
       44 FE2    4f1-      -0.0000    0.0000    0.0007    0.0003   -0.0000   -0.0000    0.0000   -0.0000    0.0118    0.0052
       45 FE2    4f0       -0.0000    0.0000   -0.0000   -0.0000   -0.0011   -0.0000    0.0000   -0.0211   -0.0000   -0.0000
       46 FE2    4f1+       0.0000   -0.0000   -0.0003    0.0007    0.0000    0.0000   -0.0000    0.0000   -0.0052    0.0118
       47 FE2    4f2+       0.0000   -0.0000   -0.0000   -0.0000    0.0000   -0.0000   -0.0000    0.0000   -0.0000   -0.0000
       48 FE2    4f3+       0.0000   -0.0000    0.0000   -0.0000    0.0000    0.0000   -0.0000    0.0000    0.0000   -0.0000
 
          Orbital           11        12        13        14        15        16        17        18        19        20    
          Energy           -1.8039   -1.3243   -0.6748   -0.6748   -0.4947   -0.4947   -0.2852   -0.1355   -0.1355   -0.1351
          Occ. No.          1.0000    1.0000    1.0000    1.0000    0.0000    0.0000    0.0000    0.0000    0.0000    0.0000
 
        1 O1     1s         0.0018    0.0000   -0.0000    0.0000    0.0000    0.0000   -0.0001    0.0000   -0.0000   -0.0001
        2 O1     2s         0.9974    0.0025   -0.0000    0.0000    0.0000    0.0000   -0.0015    0.0000   -0.0000   -0.0017
        3 O1     3s        -0.0469   -0.0020    0.0000   -0.0000   -0.0000   -0.0000    0.0011   -0.0000    0.0000    0.0029
        4 O1     2px        0.0000    0.0000   -0.0000    0.0000   -0.4284    0.8938   -0.0000    0.0003   -0.0010    0.0000
        5 O1     3px       -0.0000   -0.0000   -0.0000    0.0000   -0.0572    0.1194   -0.0000   -0.0005    0.0017   -0.0000
        6 O1     2py       -0.0000   -0.0001   -0.0000   -0.0000    0.8938    0.4284    0.0000   -0.0010   -0.0003   -0.0000
        7 O1     3py        0.0000    0.0000   -0.0000   -0.0000    0.1194    0.0572    0.0000    0.0017    0.0005    0.0000
        8 O1     2pz       -0.0027    0.9917    0.0000   -0.0000    0.0001    0.0000    0.0006    0.0000   -0.0000   -0.0017
        9 O1     3pz       -0.0009   -0.1281    0.0000   -0.0000    0.0000    0.0000   -0.0047    0.0000   -0.0000   -0.0231
       10 O1     3d2-      -0.0000   -0.0000    0.0000   -0.0000    0.0000   -0.0000    0.0000   -0.0000    0.0000    0.0000
       11 O1     3d1-      -0.0000    0.0000   -0.0000   -0.0000   -0.0009   -0.0004    0.0000   -0.0001   -0.0000   -0.0000
       12 O1     3d0        0.0553   -0.0007    0.0000   -0.0000   -0.0000   -0.0000    0.0001   -0.0000    0.0000    0.0002
       13 O1     3d1+       0.0000   -0.0000   -0.0000    0.0000    0.0004   -0.0009   -0.0000    0.0000   -0.0001    0.0000
       14 O1     3d2+      -0.0000   -0.0000   -0.0000   -0.0000    0.0000    0.0000    0.0000   -0.0000   -0.0000    0.0000
       15 FE2    1s        -0.0000   -0.0000   -0.0000    0.0000    0.0000    0.0000    0.0000    0.0000   -0.0000   -0.0000
       16 FE2    2s        -0.0000   -0.0000   -0.0000    0.0000    0.0000    0.0000   -0.0001   -0.0000    0.0000    0.0000
       17 FE2    3s        -0.0000   -0.0000    0.0000   -0.0000    0.0000    0.0000   -0.0067   -0.0000    0.0000    0.0006
       18 FE2    4s        -0.0001   -0.0004    0.0000   -0.0000    0.0000    0.0000    0.9869    0.0001   -0.0000   -0.0722
       19 FE2    5s        -0.0002   -0.0007   -0.0000    0.0000    0.0000    0.0000    0.1461   -0.0000    0.0000    0.0333
       20 FE2    2px       -0.0000    0.0000   -0.0000    0.0000    0.0000   -0.0000   -0.0000    0.0001   -0.0002    0.0000
       21 FE2    3px       -0.0000   -0.0000   -0.0004    0.0001    0.0000   -0.0000    0.0000    0.0019   -0.0066    0.0000
       22 FE2    4px        0.0000    0.0000    0.0095   -0.0026    0.0000   -0.0001    0.0000   -0.2679    0.9546   -0.0002
       23 FE2    5px        0.0000    0.0000    0.0006   -0.0002    0.0000   -0.0000    0.0000   -0.0351    0.1250   -0.0000
       24 FE2    2py        0.0000   -0.0000   -0.0000   -0.0000   -0.0000   -0.0000    0.0000   -0.0002   -0.0001   -0.0000
       25 FE2    3py        0.0000    0.0000   -0.0001   -0.0004   -0.0000   -0.0000   -0.0000   -0.0066   -0.0019   -0.0000
       26 FE2    4py       -0.0000   -0.0000    0.0026    0.0095   -0.0001   -0.0000   -0.0000    0.9546    0.2679    0.0009
       27 FE2    5py       -0.0000   -0.0000    0.0002    0.0006   -0.0000   -0.0000   -0.0000    0.1250    0.0351    0.0001
       28 FE2    2pz       -0.0000   -0.0000   -0.0000    0.0000    0.0000    0.0000   -0.0000    0.0000   -0.0000   -0.0002
       29 FE2    3pz       -0.0000   -0.0000   -0.0000    0.0000    0.0000    0.0000   -0.0010    0.0000   -0.0000   -0.0093
       30 FE2    4pz       -0.0001   -0.0004    0.0000   -0.0000    0.0000    0.0000    0.0652   -0.0009    0.0000    0.9873
       31 FE2    5pz       -0.0001   -0.0002    0.0000   -0.0000    0.0000    0.0000    0.0101   -0.0001    0.0000    0.1295
       32 FE2    3d2-       0.0000   -0.0000    0.0001   -0.0000    0.0000   -0.0000   -0.0000    0.0000   -0.0000    0.0000
       33 FE2    4d2-      -0.0000   -0.0000    0.0000   -0.0000    0.0000   -0.0000   -0.0000    0.0000   -0.0000    0.0000
       34 FE2    3d1-      -0.0000    0.0000    0.2619    0.9623   -0.0001   -0.0000    0.0000   -0.0098   -0.0027   -0.0000
       35 FE2    4d1-      -0.0000   -0.0000    0.0191    0.0701   -0.0000   -0.0000   -0.0000    0.0047    0.0013    0.0000
       36 FE2    3d0       -0.0000   -0.0001    0.0000   -0.0002    0.0000    0.0000    0.0010   -0.0000    0.0000    0.0186
       37 FE2    4d0       -0.0000   -0.0001    0.0000   -0.0000    0.0000    0.0000   -0.0021   -0.0000    0.0000    0.0125
       38 FE2    3d1+       0.0000   -0.0000    0.9623   -0.2619    0.0000   -0.0001   -0.0000    0.0027   -0.0098    0.0000
       39 FE2    4d1+       0.0000    0.0000    0.0701   -0.0191    0.0000   -0.0000    0.0000   -0.0013    0.0047   -0.0000
       40 FE2    3d2+       0.0000   -0.0000   -0.0000   -0.0001    0.0000    0.0000   -0.0000    0.0000    0.0000    0.0000
       41 FE2    4d2+      -0.0000   -0.0000   -0.0000   -0.0000    0.0000    0.0000   -0.0000    0.0000    0.0000    0.0000
       42 FE2    4f3-      -0.0000   -0.0000   -0.0000   -0.0000    0.0000    0.0000    0.0000   -0.0000   -0.0000    0.0000
       43 FE2    4f2-      -0.0000   -0.0000    0.0000   -0.0000    0.0000   -0.0000    0.0000   -0.0000    0.0000   -0.0000
       44 FE2    4f1-       0.0000    0.0000    0.0001    0.0005    0.0000    0.0000   -0.0000    0.0013    0.0004    0.0000
       45 FE2    4f0       -0.0000   -0.0000    0.0000   -0.0000   -0.0000   -0.0000   -0.0002    0.0000   -0.0000   -0.0016
       46 FE2    4f1+      -0.0000   -0.0000    0.0005   -0.0001   -0.0000    0.0000    0.0000   -0.0004    0.0013   -0.0000
       47 FE2    4f2+      -0.0000   -0.0000   -0.0000   -0.0000    0.0000    0.0000    0.0000   -0.0000   -0.0000   -0.0000
       48 FE2    4f3+      -0.0000   -0.0000   -0.0000    0.0000   -0.0000    0.0000    0.0000    0.0000   -0.0000    0.0000
 
          Orbital           21        22        23    
          Energy           -0.0474    0.0051    0.0051
          Occ. No.          0.0000    0.0000    0.0000
 
        1 O1     1s        -0.0003   -0.0000   -0.0000
        2 O1     2s        -0.0036   -0.0000   -0.0000
        3 O1     3s         0.0100   -0.0000   -0.0000
        4 O1     2px       -0.0000    0.0000   -0.0000
        5 O1     3px       -0.0000   -0.0000    0.0000
        6 O1     2py        0.0000   -0.0000   -0.0000
        7 O1     3py        0.0000    0.0000    0.0000
        8 O1     2pz       -0.0077    0.0000    0.0000
        9 O1     3pz       -0.0824    0.0000    0.0000
       10 O1     3d2-       0.0000    0.0000   -0.0000
       11 O1     3d1-       0.0000   -0.0000   -0.0000
       12 O1     3d0        0.0005   -0.0000   -0.0000
       13 O1     3d1+      -0.0000    0.0000   -0.0000
       14 O1     3d2+       0.0000    0.0000    0.0000
       15 FE2    1s        -0.0000    0.0000    0.0000
       16 FE2    2s         0.0002    0.0000    0.0000
       17 FE2    3s         0.0067    0.0000    0.0000
       18 FE2    4s        -0.1443    0.0000    0.0000
       19 FE2    5s         0.9813    0.0000    0.0000
       20 FE2    2px        0.0000    0.0000   -0.0000
       21 FE2    3px       -0.0000    0.0000   -0.0000
       22 FE2    4px        0.0000    0.0000   -0.0000
       23 FE2    5px        0.0000    0.0000   -0.0000
       24 FE2    2py       -0.0000   -0.0000   -0.0000
       25 FE2    3py        0.0000   -0.0000   -0.0000
       26 FE2    4py       -0.0000   -0.0000   -0.0000
       27 FE2    5py       -0.0000   -0.0000   -0.0000
       28 FE2    2pz        0.0000    0.0000    0.0000
       29 FE2    3pz        0.0008    0.0000    0.0000
       30 FE2    4pz       -0.0485    0.0000    0.0000
       31 FE2    5pz       -0.0029    0.0000    0.0000
       32 FE2    3d2-      -0.0000    0.9107   -0.2826
       33 FE2    4d2-      -0.0000    0.2877   -0.0893
       34 FE2    3d1-       0.0000    0.0000    0.0001
       35 FE2    4d1-       0.0000    0.0000    0.0000
       36 FE2    3d0        0.0113   -0.0000   -0.0000
       37 FE2    4d0        0.0095   -0.0000   -0.0000
       38 FE2    3d1+      -0.0000   -0.0001    0.0000
       39 FE2    4d1+      -0.0000   -0.0000    0.0000
       40 FE2    3d2+      -0.0000    0.2826    0.9107
       41 FE2    4d2+      -0.0000    0.0893    0.2877
       42 FE2    4f3-      -0.0000    0.0000    0.0000
       43 FE2    4f2-      -0.0000    0.0004   -0.0001
       44 FE2    4f1-       0.0000    0.0000    0.0000
       45 FE2    4f0        0.0002   -0.0000   -0.0000
       46 FE2    4f1+      -0.0000   -0.0000    0.0000
       47 FE2    4f2+      -0.0000    0.0001    0.0004
       48 FE2    4f3+      -0.0000   -0.0000    0.0000
--
 
 
++    Molecular charges:
      ------------------
 
      Mulliken charges per centre and basis function type
      ---------------------------------------------------
 
                            O1                      FE2   
                     alpha        beta       alpha        beta
      1s           1.0000      1.0000      1.0000      1.0000
      2s           0.9923      0.9947      1.0000      1.0000
      2px          0.9796      0.0000      1.0000      1.0000
      2pz          0.0000      0.9836      1.0000      1.0000
      2py          0.9796      0.0000      1.0000      1.0000
      3s           0.0051      0.0022      0.9999      0.9999
      3px          0.0204     -0.0000      0.9999      0.9997
      3pz         -0.0000      0.0164      0.9999      0.9993
      3py          0.0204     -0.0000      0.9999      0.9997
      4s           0.0000      0.0000      0.0003      0.0001
      3d2+         0.0000      0.0000      1.0000      0.0000
      3d1+         0.0000      0.0000      0.9992      0.9946
      3d0          0.0026      0.0031      0.9994      0.0000
      3d1-         0.0000      0.0000      0.9992      0.9946
      3d2-         0.0000      0.0000      1.0000      0.0000
      4px          0.0000      0.0000      0.0000      0.0002
      4pz          0.0000      0.0000      0.0001      0.0001
      4py          0.0000      0.0000      0.0000      0.0002
      5s           0.0000      0.0000      0.0001      0.0000
      4d2+         0.0000      0.0000      0.0000      0.0000
      4d1+         0.0000      0.0000      0.0007      0.0053
      4d0          0.0000      0.0000      0.0002      0.0000
      4d1-         0.0000      0.0000      0.0007      0.0053
      4d2-         0.0000      0.0000      0.0000      0.0000
      5px          0.0000      0.0000      0.0000      0.0001
      5pz          0.0000      0.0000      0.0000      0.0001
      5py          0.0000      0.0000      0.0000      0.0001
      4f3+         0.0000      0.0000      0.0000      0.0000
      4f2+         0.0000      0.0000      0.0000      0.0000
      4f1+         0.0000      0.0000      0.0001      0.0002
      4f0          0.0000      0.0000      0.0000      0.0004
      4f1-         0.0000      0.0000      0.0001      0.0002
      4f2-         0.0000      0.0000      0.0000      0.0000
      4f3-         0.0000      0.0000      0.0000      0.0000
      Total        4.0000      3.0000     14.0000     11.0000
      Total              7.0000                 25.0000
 
      Charge            1.0000                  1.0000
 
      Total electronic charge=   32.000000
 
      Total            charge=    2.000000
--
 
 
  Input file to MOLDEN was generated!
 
 
++    Static properties:
      ------------------
 
 
      LoProp Charges per center
 

                   O1       FE2   
      Nuclear      8.0000  26.0000
      Electronic  -7.0000 -25.0000
 
      Total        1.0000   1.0000
--
 
 
++    Natural Bond Order analysis
      ---------------------------
      Based on LoProp computed density
      -------------------------------------------------------------------------------------
      Atom A       Atom B       Bond Order
      -------------------------------------------------------------------------------------
      NBO located     19.999 core electrons.
      NBO located      5.992 lone pair electrons.
      NBO located      1.000 non-bonded electrons on atom O1        
      NBO located      1.000 non-bonded electrons on atom O1        
      NBO located      1.000 non-bonded electrons on atom O1        
      NBO located      1.000 non-bonded electrons on atom FE2       
      NBO located      1.000 non-bonded electrons on atom FE2       
      NBO located      1.000 non-bonded electrons on atom FE2       
      The remaining    0.009 electrons are to be considered as diffuse
--
 
 
++    Molecular orbitals:
      -------------------
 
      Title: Natural orbitals

      Molecular orbitals for symmetry species 1: a  
 
          Orbital            1         2         3         4         5         6         7         8         9        10    
          Energy         -263.8481  -32.2454  -21.4328  -27.5428  -27.5592  -27.5591   -4.7508   -3.0341   -3.0453   -3.0454
          Occ. No.          2.0000    2.0000    2.0000    2.0000    2.0000    2.0000    2.0000    1.9998    1.9998    1.9998
 
        1 O1     1s         0.0000   -0.0014    0.9995    0.0130   -0.0000   -0.0000    0.0009    0.0000   -0.0000   -0.0000
        2 O1     2s         0.0000    0.0000   -0.0301   -0.0004    0.0000    0.0000    0.0000    0.0001   -0.0000   -0.0000
        3 O1     3s         0.0000   -0.0000    0.0014    0.0000   -0.0000   -0.0000    0.0001    0.0000   -0.0000   -0.0000
        4 O1     2px       -0.0000   -0.0000   -0.0000   -0.0000    0.0000   -0.0000    0.0000   -0.0000   -0.0000    0.0000
        5 O1     3px        0.0000    0.0000    0.0000    0.0000    0.0000   -0.0000    0.0000   -0.0000   -0.0000    0.0000
        6 O1     2py        0.0000    0.0000    0.0000    0.0000   -0.0000   -0.0000   -0.0000    0.0000    0.0000    0.0000
        7 O1     3py       -0.0000   -0.0000   -0.0000   -0.0000   -0.0000   -0.0000   -0.0000    0.0000    0.0000    0.0000
        8 O1     2pz        0.0000    0.0000    0.0001    0.0000   -0.0000   -0.0000   -0.0000   -0.0000    0.0000    0.0000
        9 O1     3pz        0.0000    0.0000    0.0000    0.0000   -0.0000   -0.0000   -0.0001   -0.0001    0.0000    0.0000
       10 O1     3d2-       0.0000   -0.0000    0.0000    0.0000   -0.0000    0.0000    0.0000   -0.0000   -0.0000    0.0000
       11 O1     3d1-       0.0000   -0.0000    0.0000    0.0000    0.0000    0.0000    0.0000   -0.0000   -0.0000   -0.0000
       12 O1     3d0       -0.0000   -0.0000   -0.0000   -0.0000    0.0000    0.0000    0.0000    0.0000   -0.0000   -0.0000
       13 O1     3d1+      -0.0000    0.0000   -0.0000   -0.0000   -0.0000    0.0000   -0.0000    0.0000    0.0000   -0.0000
       14 O1     3d2+      -0.0000   -0.0000    0.0000    0.0000   -0.0000   -0.0000   -0.0000   -0.0000   -0.0000   -0.0000
       15 FE2    1s         1.0000   -0.0001   -0.0000   -0.0000    0.0000    0.0000    0.0002    0.0000   -0.0000   -0.0000
       16 FE2    2s         0.0001    0.9941    0.0013    0.0007   -0.0000   -0.0000    0.1084    0.0000    0.0000    0.0000
       17 FE2    3s        -0.0002   -0.1084   -0.0010    0.0027    0.0000    0.0000    0.9941   -0.0013    0.0000    0.0000
       18 FE2    4s        -0.0000   -0.0008   -0.0000   -0.0000    0.0000    0.0000    0.0068    0.0004   -0.0000   -0.0000
       19 FE2    5s         0.0000    0.0005    0.0000    0.0000   -0.0000   -0.0000   -0.0049   -0.0003    0.0000    0.0000
       20 FE2    2px       -0.0000    0.0000    0.0000   -0.0000   -0.4801    0.8749    0.0000   -0.0000   -0.0179    0.0617
       21 FE2    3px        0.0000    0.0000   -0.0000    0.0000    0.0309   -0.0564    0.0000   -0.0000   -0.2778    0.9583
       22 FE2    4px        0.0000   -0.0000   -0.0000    0.0000    0.0002   -0.0003   -0.0000   -0.0000   -0.0016    0.0054
       23 FE2    5px        0.0000   -0.0000    0.0000   -0.0000   -0.0002    0.0003   -0.0000    0.0000    0.0018   -0.0064
       24 FE2    2py        0.0000   -0.0000   -0.0000    0.0001    0.8749    0.4801   -0.0000    0.0000    0.0617    0.0179
       25 FE2    3py       -0.0000   -0.0000    0.0000   -0.0000   -0.0563   -0.0309   -0.0000    0.0001    0.9583    0.2778
       26 FE2    4py       -0.0000    0.0000    0.0000   -0.0000   -0.0003   -0.0002    0.0000    0.0000    0.0054    0.0016
       27 FE2    5py       -0.0000    0.0000   -0.0000    0.0000    0.0003    0.0002    0.0000   -0.0000   -0.0064   -0.0018
       28 FE2    2pz        0.0000   -0.0004   -0.0130    0.9979   -0.0001   -0.0000   -0.0027    0.0639   -0.0000   -0.0000
       29 FE2    3pz       -0.0000   -0.0001    0.0008   -0.0639    0.0000    0.0000    0.0014    0.9978   -0.0001   -0.0000
       30 FE2    4pz       -0.0000   -0.0000    0.0000   -0.0004    0.0000    0.0000    0.0001    0.0081   -0.0000   -0.0000
       31 FE2    5pz       -0.0000    0.0000   -0.0000    0.0003   -0.0000   -0.0000   -0.0001   -0.0078    0.0000    0.0000
       32 FE2    3d2-       0.0000   -0.0000    0.0000    0.0000    0.0000   -0.0000   -0.0000   -0.0000    0.0000   -0.0000
       33 FE2    4d2-       0.0000   -0.0000    0.0000   -0.0000    0.0000   -0.0000   -0.0000   -0.0000    0.0000   -0.0000
       34 FE2    3d1-      -0.0000    0.0000   -0.0000   -0.0000   -0.0001   -0.0001    0.0000    0.0000   -0.0146   -0.0042
       35 FE2    4d1-      -0.0000    0.0000   -0.0000    0.0000   -0.0000   -0.0000    0.0000    0.0000   -0.0006   -0.0002
       36 FE2    3d0       -0.0000   -0.0001   -0.0000   -0.0000    0.0000    0.0000    0.0010    0.0008    0.0000    0.0000
       37 FE2    4d0        0.0000   -0.0000   -0.0000   -0.0000    0.0000    0.0000    0.0024   -0.0000    0.0000    0.0000
       38 FE2    3d1+       0.0000   -0.0000    0.0000    0.0000    0.0001   -0.0001   -0.0000   -0.0000    0.0042   -0.0146
       39 FE2    4d1+       0.0000   -0.0000    0.0000   -0.0000    0.0000   -0.0000   -0.0000   -0.0000    0.0002   -0.0006
       40 FE2    3d2+       0.0000   -0.0000    0.0000    0.0000    0.0000    0.0000   -0.0000   -0.0000    0.0000    0.0000
       41 FE2    4d2+       0.0000   -0.0000    0.0000   -0.0000    0.0000    0.0000   -0.0000   -0.0000    0.0000    0.0000
       42 FE2    4f3-       0.0000   -0.0000   -0.0000   -0.0000   -0.0000   -0.0000   -0.0000    0.0000   -0.0000   -0.0000
       43 FE2    4f2-       0.0000   -0.0000    0.0000   -0.0000   -0.0000    0.0000   -0.0000    0.0000   -0.0000    0.0000
       44 FE2    4f1-      -0.0000    0.0000   -0.0000    0.0000    0.0001    0.0001    0.0000   -0.0000    0.0023    0.0007
       45 FE2    4f0        0.0000    0.0000   -0.0000    0.0002   -0.0000   -0.0000    0.0000   -0.0115   -0.0000   -0.0000
       46 FE2    4f1+       0.0000   -0.0000    0.0000   -0.0000   -0.0001    0.0001   -0.0000    0.0000   -0.0007    0.0023
       47 FE2    4f2+       0.0000   -0.0000    0.0000   -0.0000   -0.0000   -0.0000   -0.0000    0.0000   -0.0000   -0.0000
       48 FE2    4f3+       0.0000   -0.0000   -0.0000   -0.0000    0.0000   -0.0000   -0.0000    0.0000    0.0000   -0.0000
 
          Orbital           11        12        13        14        15        16        17        18        19        20    
          Energy           -0.7255   -0.7255   -1.9007   -0.6222   -0.9060   -0.9060   -0.3825   -0.3825   -0.6221    1.4532
          Occ. No.          1.9989    1.9989    1.9940    1.0001    1.0000    1.0000    1.0000    1.0000    0.9999    0.0060
 
        1 O1     1s         0.0000   -0.0000    0.0301    0.0000   -0.0000   -0.0000    0.0000    0.0000   -0.0000    0.0000
        2 O1     2s         0.0000   -0.0000    0.9978    0.0024   -0.0000   -0.0000   -0.0000    0.0000   -0.0025    0.0111
        3 O1     3s        -0.0000    0.0000   -0.0591   -0.0015    0.0000    0.0000   -0.0000   -0.0000    0.0014    0.2231
        4 O1     2px        0.0000   -0.0000    0.0000   -0.0007    0.3678   -0.9189   -0.0000    0.0000   -0.0007   -0.0000
        5 O1     3px        0.0000   -0.0000   -0.0000    0.0001   -0.0531    0.1326    0.0000   -0.0000    0.0001   -0.0000
        6 O1     2py       -0.0000   -0.0000   -0.0000    0.0024   -0.9189   -0.3678   -0.0000    0.0000    0.0025    0.0000
        7 O1     3py       -0.0000   -0.0000    0.0000   -0.0003    0.1326    0.0531    0.0000    0.0000   -0.0004    0.0000
        8 O1     2pz       -0.0000    0.0000   -0.0037    0.7014   -0.0001   -0.0000   -0.0000    0.0000   -0.7012    0.0002
        9 O1     3pz       -0.0000    0.0000   -0.0005   -0.0904    0.0000    0.0000    0.0000    0.0000    0.0908   -0.0066
       10 O1     3d2-      -0.0000    0.0000   -0.0000   -0.0000    0.0000   -0.0000    0.0000   -0.0000   -0.0000   -0.0000
       11 O1     3d1-      -0.0000   -0.0000   -0.0000   -0.0000    0.0010    0.0004    0.0000   -0.0000   -0.0000   -0.0002
       12 O1     3d0       -0.0000    0.0000    0.0021   -0.0005    0.0000    0.0000    0.0000   -0.0000    0.0005    0.9747
       13 O1     3d1+       0.0000   -0.0000    0.0000    0.0000   -0.0004    0.0010    0.0000   -0.0000    0.0000    0.0000
       14 O1     3d2+      -0.0000   -0.0000   -0.0000   -0.0000    0.0000    0.0000   -0.0000   -0.0000   -0.0000   -0.0000
       15 FE2    1s         0.0000   -0.0000   -0.0000   -0.0000   -0.0000   -0.0000    0.0000    0.0000   -0.0000   -0.0000
       16 FE2    2s        -0.0000    0.0000    0.0000   -0.0000   -0.0000   -0.0000    0.0000    0.0000   -0.0000   -0.0000
       17 FE2    3s        -0.0000    0.0000   -0.0000   -0.0006   -0.0000   -0.0000    0.0000    0.0000   -0.0006   -0.0000
       18 FE2    4s        -0.0000    0.0000   -0.0000   -0.0122   -0.0001   -0.0000    0.0000    0.0000   -0.0117   -0.0004
       19 FE2    5s         0.0000   -0.0000   -0.0001    0.0051    0.0000    0.0000   -0.0000   -0.0000    0.0062   -0.0013
       20 FE2    2px       -0.0003    0.0010    0.0000    0.0000    0.0000   -0.0000    0.0000   -0.0000    0.0000    0.0000
       21 FE2    3px       -0.0039    0.0147    0.0000    0.0000   -0.0000    0.0000    0.0000   -0.0000    0.0000   -0.0000
       22 FE2    4px       -0.0021    0.0077    0.0000   -0.0000    0.0000   -0.0001   -0.0000    0.0000   -0.0000    0.0000
       23 FE2    5px       -0.0001    0.0003   -0.0000   -0.0000    0.0000   -0.0000   -0.0000    0.0000   -0.0000    0.0000
       24 FE2    2py        0.0010    0.0003   -0.0000   -0.0000   -0.0000   -0.0000    0.0000    0.0000   -0.0000   -0.0000
       25 FE2    3py        0.0147    0.0039   -0.0000   -0.0000    0.0000    0.0000    0.0000    0.0000   -0.0000    0.0000
       26 FE2    4py        0.0077    0.0021   -0.0000    0.0000   -0.0001   -0.0000   -0.0000   -0.0000    0.0000   -0.0000
       27 FE2    5py        0.0003    0.0001    0.0000    0.0000   -0.0000   -0.0000   -0.0000   -0.0000    0.0000   -0.0000
       28 FE2    2pz       -0.0000    0.0000    0.0000   -0.0000   -0.0000   -0.0000   -0.0000   -0.0000   -0.0000   -0.0000
       29 FE2    3pz       -0.0000    0.0000   -0.0000   -0.0006   -0.0000   -0.0000   -0.0000   -0.0000   -0.0006    0.0000
       30 FE2    4pz       -0.0000    0.0000   -0.0001    0.0042    0.0000    0.0000    0.0000    0.0000    0.0048   -0.0006
       31 FE2    5pz       -0.0000    0.0000   -0.0000    0.0000    0.0000    0.0000    0.0000    0.0000    0.0003   -0.0004
       32 FE2    3d2-      -0.0000    0.0001    0.0000   -0.0000    0.0000   -0.0000    0.1732   -0.9849   -0.0000   -0.0000
       33 FE2    4d2-      -0.0000    0.0000    0.0000   -0.0000   -0.0000   -0.0000    0.0006   -0.0034   -0.0000    0.0000
       34 FE2    3d1-       0.9643    0.2594   -0.0000    0.0001   -0.0000   -0.0000   -0.0001   -0.0000    0.0001    0.0000
       35 FE2    4d1-       0.0481    0.0129   -0.0000    0.0000   -0.0000   -0.0000   -0.0000   -0.0000    0.0000   -0.0000
       36 FE2    3d0       -0.0002    0.0000   -0.0000    0.7068    0.0036    0.0004    0.0000    0.0000    0.7070   -0.0001
       37 FE2    4d0       -0.0000    0.0000   -0.0000    0.0106    0.0001    0.0000   -0.0000   -0.0000    0.0108   -0.0002
       38 FE2    3d1+      -0.2594    0.9643    0.0000   -0.0000    0.0000   -0.0000   -0.0000    0.0001   -0.0000   -0.0000
       39 FE2    4d1+      -0.0129    0.0481    0.0000   -0.0000    0.0000   -0.0000   -0.0000    0.0000   -0.0000    0.0000
       40 FE2    3d2+      -0.0001   -0.0000    0.0000   -0.0000   -0.0000    0.0000   -0.9849   -0.1732   -0.0000   -0.0000
       41 FE2    4d2+      -0.0000   -0.0000    0.0000   -0.0000   -0.0000    0.0000   -0.0034   -0.0006   -0.0000    0.0000
       42 FE2    4f3-      -0.0000   -0.0000   -0.0000   -0.0000   -0.0000   -0.0000   -0.0000    0.0000   -0.0000   -0.0000
       43 FE2    4f2-      -0.0000    0.0000   -0.0000   -0.0000    0.0000   -0.0000    0.0001   -0.0004   -0.0000   -0.0000
       44 FE2    4f1-       0.0005    0.0001    0.0000    0.0000   -0.0000   -0.0000   -0.0000   -0.0000    0.0000    0.0000
       45 FE2    4f0       -0.0000    0.0000    0.0000    0.0004    0.0000    0.0000    0.0000    0.0000    0.0004    0.0000
       46 FE2    4f1+      -0.0001    0.0005   -0.0000   -0.0000    0.0000   -0.0000   -0.0000    0.0000   -0.0000   -0.0000
       47 FE2    4f2+      -0.0000   -0.0000   -0.0000   -0.0000    0.0000    0.0000   -0.0004   -0.0001   -0.0000   -0.0000
       48 FE2    4f3+       0.0000   -0.0000   -0.0000   -0.0000   -0.0000   -0.0000    0.0000    0.0000   -0.0000   -0.0000
 
          Orbital           21        22        23        24        25        26        27        28        29        30    
          Energy            0.7229    0.7229    3.5416    3.5416    3.4897    0.5530    2.0144    2.0144    2.0494    0.4526
          Occ. No.          0.0011    0.0011    0.0002    0.0002    0.0002    0.0000    0.0000    0.0000    0.0000    0.0000
 
        1 O1     1s         0.0000   -0.0000   -0.0000   -0.0000   -0.0000    0.0001    0.0000    0.0000   -0.0002    0.0004
        2 O1     2s         0.0000   -0.0000   -0.0000   -0.0000   -0.0003    0.0014    0.0000    0.0000   -0.0033    0.0582
        3 O1     3s        -0.0000    0.0000   -0.0000   -0.0000   -0.0005    0.0032    0.0000    0.0000   -0.0125    0.9717
        4 O1     2px       -0.0000    0.0001   -0.0000    0.0000    0.0000   -0.0000    0.0003   -0.0006    0.0000    0.0000
        5 O1     3px       -0.0001    0.0004   -0.0001    0.0002    0.0000   -0.0000    0.0016   -0.0031    0.0000    0.0000
        6 O1     2py        0.0001    0.0000    0.0000    0.0000   -0.0000    0.0000   -0.0006   -0.0003   -0.0000   -0.0000
        7 O1     3py        0.0004    0.0001    0.0002    0.0001   -0.0000    0.0000   -0.0031   -0.0016   -0.0000   -0.0000
        8 O1     2pz        0.0000   -0.0000    0.0000    0.0000    0.0003   -0.0027   -0.0000   -0.0000    0.0048    0.0071
        9 O1     3pz        0.0000   -0.0000    0.0000    0.0000    0.0013   -0.0136   -0.0000   -0.0000    0.0240    0.0431
       10 O1     3d2-      -0.0000    0.0000   -0.0000    0.0000    0.0000    0.0000   -0.0000    0.0000   -0.0000    0.0000
       11 O1     3d1-      -0.0000   -0.0000   -0.0000   -0.0000    0.0000   -0.0000    0.0002    0.0001   -0.0000    0.0000
       12 O1     3d0        0.0000   -0.0000   -0.0000   -0.0000   -0.0002    0.0007    0.0000    0.0000    0.0003   -0.2226
       13 O1     3d1+       0.0000   -0.0000    0.0000   -0.0000   -0.0000    0.0000   -0.0001    0.0002    0.0000   -0.0000
       14 O1     3d2+      -0.0000   -0.0000   -0.0000   -0.0000    0.0000    0.0000   -0.0000   -0.0000   -0.0000    0.0000
       15 FE2    1s        -0.0000    0.0000    0.0000    0.0000    0.0000    0.0000   -0.0000   -0.0000    0.0000    0.0000
       16 FE2    2s        -0.0000    0.0000   -0.0000   -0.0000   -0.0000    0.0002    0.0000    0.0000   -0.0000   -0.0000
       17 FE2    3s         0.0000   -0.0000   -0.0000   -0.0000    0.0000   -0.0020   -0.0000   -0.0000    0.0001   -0.0002
       18 FE2    4s        -0.0001    0.0000    0.0000    0.0000   -0.0027    0.3474   -0.0000   -0.0000   -0.0016   -0.0035
       19 FE2    5s         0.0000   -0.0000   -0.0000   -0.0000    0.0009   -0.3348    0.0000    0.0000    0.0061   -0.0360
       20 FE2    2px       -0.0000    0.0000    0.0001   -0.0003   -0.0000    0.0000   -0.0000    0.0000   -0.0000    0.0000
       21 FE2    3px        0.0002   -0.0006    0.0014   -0.0047   -0.0000   -0.0000   -0.0031    0.0061   -0.0000   -0.0000
       22 FE2    4px       -0.0229    0.0820   -0.0588    0.2034    0.0000   -0.0000    0.0979   -0.1894    0.0000    0.0000
       23 FE2    5px       -0.0016    0.0056    0.0587   -0.2032   -0.0000   -0.0000   -0.4329    0.8373   -0.0000   -0.0000
       24 FE2    2py        0.0000    0.0000   -0.0003   -0.0001    0.0000   -0.0000    0.0000    0.0000    0.0000   -0.0000
       25 FE2    3py       -0.0006   -0.0002   -0.0047   -0.0014    0.0000    0.0000    0.0061    0.0031    0.0000    0.0000
       26 FE2    4py        0.0820    0.0229    0.2034    0.0588   -0.0000    0.0000   -0.1894   -0.0979   -0.0000   -0.0000
       27 FE2    5py        0.0056    0.0016   -0.2032   -0.0587    0.0000    0.0000    0.8373    0.4329    0.0001    0.0000
       28 FE2    2pz        0.0000   -0.0000    0.0000    0.0000    0.0006   -0.0000   -0.0000   -0.0000    0.0000   -0.0000
       29 FE2    3pz        0.0000   -0.0000    0.0000    0.0000    0.0145   -0.0000   -0.0000   -0.0000    0.0055    0.0001
       30 FE2    4pz       -0.0000    0.0000   -0.0000   -0.0000   -0.2484   -0.0174    0.0000    0.0000   -0.0983   -0.0119
       31 FE2    5pz       -0.0000    0.0000    0.0000    0.0000    0.2120   -0.0005   -0.0001   -0.0000    0.9655    0.0034
       32 FE2    3d2-       0.0000   -0.0000   -0.0000    0.0000   -0.0000   -0.0000    0.0000   -0.0000   -0.0000    0.0000
       33 FE2    4d2-      -0.0000    0.0001    0.0000   -0.0000    0.0000    0.0000   -0.0000    0.0000    0.0000   -0.0000
       34 FE2    3d1-      -0.0485   -0.0135   -0.0008   -0.0002    0.0000    0.0000    0.0006    0.0003    0.0000   -0.0000
       35 FE2    4d1-       0.9584    0.2674   -0.0237   -0.0068   -0.0000   -0.0001    0.0095    0.0049   -0.0000    0.0000
       36 FE2    3d0        0.0000   -0.0000    0.0000    0.0000    0.0008    0.0219   -0.0000   -0.0000    0.0005    0.0000
       37 FE2    4d0       -0.0002    0.0000    0.0000    0.0000    0.0120   -0.8756   -0.0000   -0.0000   -0.0031    0.0115
       38 FE2    3d1+       0.0135   -0.0485    0.0002   -0.0008   -0.0000   -0.0000   -0.0003    0.0006   -0.0000    0.0000
       39 FE2    4d1+      -0.2674    0.9584    0.0068   -0.0237    0.0000    0.0000   -0.0049    0.0095    0.0000   -0.0000
       40 FE2    3d2+       0.0000    0.0000   -0.0000   -0.0000   -0.0000   -0.0000    0.0000    0.0000   -0.0000    0.0000
       41 FE2    4d2+      -0.0001   -0.0000    0.0000    0.0000    0.0000    0.0000   -0.0000   -0.0000    0.0000   -0.0000
       42 FE2    4f3-      -0.0000   -0.0000   -0.0000   -0.0000   -0.0000   -0.0000   -0.0000   -0.0000    0.0000    0.0000
       43 FE2    4f2-      -0.0000    0.0000   -0.0001    0.0001   -0.0000    0.0000   -0.0000    0.0000    0.0000    0.0000
       44 FE2    4f1-       0.0078    0.0022    0.9163    0.2648    0.0002   -0.0000    0.2280    0.1179   -0.0001   -0.0000
       45 FE2    4f0       -0.0000    0.0000   -0.0002   -0.0000    0.9450    0.0079   -0.0001   -0.0000   -0.2425   -0.0042
       46 FE2    4f1+      -0.0022    0.0078   -0.2648    0.9163   -0.0000    0.0000   -0.1179    0.2280    0.0000    0.0000
       47 FE2    4f2+      -0.0000   -0.0000   -0.0001   -0.0001   -0.0000    0.0000   -0.0000   -0.0000    0.0000    0.0000
       48 FE2    4f3+       0.0000   -0.0000    0.0000   -0.0000   -0.0000   -0.0000    0.0000   -0.0000    0.0000    0.0000
 
          Orbital           31        32        33        34        35        36        37        38        39        40    
          Energy            0.0922   -0.2186   -0.0029   -0.0029    0.0603    0.1083    0.1132    0.1132    0.7512    0.7512
          Occ. No.          0.0000    0.0000    0.0000    0.0000    0.0000    0.0000    0.0000    0.0000    0.0000    0.0000
 
        1 O1     1s        -0.0002    0.0003   -0.0000    0.0000    0.0001    0.0001    0.0000    0.0000   -0.0000   -0.0000
        2 O1     2s        -0.0010    0.0022   -0.0000    0.0000    0.0001    0.0020   -0.0000   -0.0000   -0.0000   -0.0000
        3 O1     3s         0.0210   -0.0156    0.0000    0.0000   -0.0263    0.0339   -0.0000   -0.0000    0.0000    0.0000
        4 O1     2px       -0.0000    0.0000    0.0000    0.0001    0.0000   -0.0000    0.1183   -0.0801   -0.0001    0.0002
        5 O1     3px        0.0000    0.0000    0.0006    0.0019    0.0000   -0.0000    0.8195   -0.5550   -0.0004    0.0011
        6 O1     2py        0.0000    0.0000   -0.0002    0.0000   -0.0000    0.0000   -0.0801   -0.1183   -0.0002   -0.0002
        7 O1     3py       -0.0000    0.0000   -0.0022    0.0005   -0.0000    0.0001   -0.5550   -0.8195   -0.0016   -0.0011
        8 O1     2pz        0.0053   -0.0045   -0.0000   -0.0000    0.0603   -0.1130   -0.0000   -0.0000   -0.0000   -0.0000
        9 O1     3pz        0.0271   -0.0141   -0.0001   -0.0000    0.4747   -0.8705   -0.0001   -0.0000   -0.0000   -0.0000
       10 O1     3d2-       0.0000    0.0000   -0.0000   -0.0000   -0.0000    0.0000   -0.0001    0.0001    0.0054    0.0044
       11 O1     3d1-       0.0000   -0.0000    0.0000    0.0000    0.0000   -0.0001    0.0018    0.0023   -0.0010   -0.0010
       12 O1     3d0       -0.0067    0.0068   -0.0000   -0.0000    0.0104   -0.0127    0.0000    0.0000   -0.0000   -0.0000
       13 O1     3d1+      -0.0000    0.0000   -0.0000   -0.0000    0.0000   -0.0001   -0.0003    0.0023    0.0003    0.0002
       14 O1     3d2+       0.0000    0.0000   -0.0000   -0.0000   -0.0000    0.0000    0.0000   -0.0000   -0.0024   -0.0022
       15 FE2    1s        -0.0000    0.0000   -0.0000   -0.0000    0.0000   -0.0000   -0.0000   -0.0000   -0.0000   -0.0000
       16 FE2    2s         0.0001    0.0000   -0.0000   -0.0000    0.0000   -0.0000   -0.0000   -0.0000   -0.0000   -0.0000
       17 FE2    3s         0.0082    0.0023   -0.0000    0.0000   -0.0002   -0.0001   -0.0000   -0.0000   -0.0000   -0.0000
       18 FE2    4s        -0.5273   -0.7726    0.0000   -0.0000    0.0643    0.0098   -0.0000   -0.0000    0.0000    0.0000
       19 FE2    5s         0.7023   -0.6279    0.0000   -0.0000    0.0326    0.0046   -0.0000   -0.0000    0.0000    0.0000
       20 FE2    2px        0.0000    0.0000    0.0000    0.0000    0.0000    0.0000   -0.0000    0.0000   -0.0000   -0.0000
       21 FE2    3px       -0.0000   -0.0000   -0.0009   -0.0032   -0.0000    0.0000    0.0000   -0.0000    0.0000   -0.0000
       22 FE2    4px        0.0000    0.0000    0.2582    0.9141    0.0000   -0.0000   -0.0044    0.0029   -0.0000    0.0000
       23 FE2    5px        0.0000    0.0000    0.0702    0.2485    0.0000   -0.0000   -0.0012    0.0008   -0.0000    0.0000
       24 FE2    2py       -0.0000   -0.0000   -0.0000    0.0000   -0.0000   -0.0000    0.0000    0.0000    0.0000    0.0000
       25 FE2    3py        0.0000    0.0000    0.0032   -0.0009    0.0000   -0.0000   -0.0000   -0.0000    0.0000   -0.0000
       26 FE2    4py       -0.0000   -0.0001   -0.9141    0.2582   -0.0001    0.0000    0.0032    0.0045    0.0000    0.0000
       27 FE2    5py       -0.0000   -0.0000   -0.2485    0.0702   -0.0000    0.0000    0.0008    0.0012    0.0000    0.0000
       28 FE2    2pz       -0.0000   -0.0000    0.0000    0.0000   -0.0001   -0.0000   -0.0000   -0.0000   -0.0000   -0.0000
       29 FE2    3pz        0.0006    0.0005   -0.0000   -0.0000    0.0036    0.0019    0.0000    0.0000   -0.0000   -0.0000
       30 FE2    4pz       -0.0240   -0.0662    0.0001    0.0000   -0.8333   -0.4786   -0.0000   -0.0000   -0.0000   -0.0000
       31 FE2    5pz       -0.0088   -0.0096    0.0000    0.0000   -0.1330   -0.0761   -0.0000   -0.0000   -0.0000   -0.0000
       32 FE2    3d2-      -0.0000   -0.0000    0.0000    0.0000   -0.0000    0.0000    0.0000    0.0000   -0.0033    0.0009
       33 FE2    4d2-       0.0000    0.0000   -0.0000    0.0000    0.0000   -0.0000   -0.0001   -0.0014    0.9637   -0.2667
       34 FE2    3d1-       0.0000    0.0000    0.0034   -0.0009    0.0000    0.0000    0.0001    0.0001    0.0000   -0.0000
       35 FE2    4d1-      -0.0001   -0.0000    0.0786   -0.0222   -0.0000   -0.0000    0.0011    0.0017    0.0000    0.0001
       36 FE2    3d0       -0.0071   -0.0066    0.0000   -0.0000    0.0064    0.0020    0.0000    0.0000   -0.0000   -0.0000
       37 FE2    4d0       -0.4770   -0.0661   -0.0000   -0.0000    0.0305    0.0058   -0.0000   -0.0000   -0.0000   -0.0000
       38 FE2    3d1+      -0.0000   -0.0000   -0.0009   -0.0034   -0.0000   -0.0000   -0.0001    0.0001    0.0000   -0.0000
       39 FE2    4d1+       0.0000    0.0000   -0.0222   -0.0786    0.0000    0.0000   -0.0017    0.0012   -0.0001    0.0000
       40 FE2    3d2+      -0.0000   -0.0000    0.0000   -0.0000   -0.0000    0.0000    0.0000    0.0000   -0.0009   -0.0033
       41 FE2    4d2+       0.0000    0.0000   -0.0000   -0.0000    0.0000   -0.0000   -0.0016   -0.0007    0.2667    0.9637
       42 FE2    4f3-       0.0000    0.0000    0.0000   -0.0000    0.0000   -0.0000   -0.0004    0.0008    0.0000   -0.0000
       43 FE2    4f2-      -0.0000   -0.0000   -0.0000   -0.0000   -0.0000   -0.0000    0.0000   -0.0000    0.0003   -0.0001
       44 FE2    4f1-       0.0000    0.0000    0.1498   -0.0423   -0.0000   -0.0000   -0.0005   -0.0008   -0.0000    0.0000
[...]
ATVX     1  Mu1.0020  Se1.027                       0.25912145      0.00000000     -0.00000000     -0.00000000
ATVX     1  Mu1.0021  Se1.027                       0.26089396     -0.00000011      0.00000036     -0.00000000
ATVX     1  Mu1.0022  Se1.027                       0.26089805      0.00000006     -0.00000020     -0.00000000
ATVX     1  Mu1.0023  Se1.027                       0.26110355      0.00000000     -0.00000000     -0.00000000
ATVX     1  Mu1.0024  Se1.027                       0.26110363      0.00000000     -0.00000000     -0.00000000
ATVX     1  Mu1.0025  Se1.027                       0.26732662      0.00000000     -0.00000000     -0.00000000
ATVX     1  Mu1.0026  Se1.027                       0.26733219     -0.00000000      0.00000000     -0.00000000
ATVX     1  Mu1.0027  Se1.027                       0.28144367     -0.00000000     -0.00000000      0.00000000
ATVX     1  Mu1.0028  Se1.027                       0.28144654     -0.00000000     -0.00000000      0.00000000
ATVX     1  Mu1.0029  Se1.027                       0.29447043     -0.00000000      0.00000000     -0.00000000
ATVX     1  Mu1.0030  Se1.027                       0.29447552      0.00000000     -0.00000000     -0.00000000
ATVX     1  Mu1.0031  Se1.027                       0.29829711      0.00000000      0.00000000      0.00000000
ATVX     1  Mu1.0032  Se1.027                       0.29829977     -0.00000000     -0.00000000      0.00000000
ATVX     1  Mu1.0001  Se1.028                      -0.23886013      0.00000000      0.00000000      0.00000000
ATVX     1  Mu1.0002  Se1.028                      -0.23063999     -0.00000000     -0.00000000      0.00000000
ATVX     1  Mu1.0003  Se1.028                      -0.23063720      0.00000002      0.00000010      0.00000000
ATVX     1  Mu1.0004  Se1.028                      -0.18816476     -0.00000000      0.00000000     -0.00000000
ATVX     1  Mu1.0005  Se1.028                      -0.02881788     -0.00000003      0.00000104     -0.00000000
ATVX     1  Mu1.0006  Se1.028                      -0.02881784     -0.00000060      0.00002118     -0.00000000
ATVX     1  Mu1.0007  Se1.028                       0.15147535     -0.00000000      0.00000000     -0.00000000
ATVX     1  Mu1.0008  Se1.028                       0.15147536      0.00000000     -0.00000024     -0.00000000
ATVX     1  Mu1.0009  Se1.028                       0.15695394      0.00000000     -0.00000000     -0.00000000
ATVX     1  Mu1.0010  Se1.028                       0.15695665     -0.00000000      0.00000000     -0.00000000
ATVX     1  Mu1.0011  Se1.028                       0.15846373     -0.00000000      0.00000000     -0.00000000
ATVX     1  Mu1.0012  Se1.028                       0.15846622     -0.00000000      0.00000000     -0.00000000
ATVX     1  Mu1.0013  Se1.028                       0.20245735     -0.00000000      0.00000000     -0.00000000
ATVX     1  Mu1.0014  Se1.028                       0.20245736     -0.00000000      0.00000004     -0.00000000
ATVX     1  Mu1.0015  Se1.028                       0.25544721     -0.00000000      0.00000000     -0.00000000
ATVX     1  Mu1.0016  Se1.028                       0.25544723     -0.00000016      0.00000061     -0.00000000
ATVX     1  Mu1.0017  Se1.028                       0.25832679      0.00000000     -0.00000000     -0.00000000
ATVX     1  Mu1.0018  Se1.028                       0.25832956     -0.00000000      0.00000000     -0.00000000
ATVX     1  Mu1.0019  Se1.028                       0.26726559      0.00000000     -0.00000000     -0.00000000
ATVX     1  Mu1.0020  Se1.028                       0.26726828     -0.00000000      0.00000000     -0.00000000
ATVX     1  Mu1.0021  Se1.028                       0.26904079      0.00000000     -0.00000000     -0.00000000
ATVX     1  Mu1.0022  Se1.028                       0.26904488      0.00000000     -0.00000000     -0.00000000
ATVX     1  Mu1.0023  Se1.028                       0.26925038     -0.00000002      0.00000008     -0.00000000
ATVX     1  Mu1.0024  Se1.028                       0.26925046      0.00000052     -0.00000219     -0.00000000
ATVX     1  Mu1.0025  Se1.028                       0.27547345      0.00000019     -0.00000059     -0.00000000
ATVX     1  Mu1.0026  Se1.028                       0.27547902      0.00000000     -0.00000002     -0.00000000
ATVX     1  Mu1.0027  Se1.028                       0.28959050      0.00000000     -0.00000000     -0.00000000
ATVX     1  Mu1.0028  Se1.028                       0.28959337     -0.00000000      0.00000000     -0.00000000
ATVX     1  Mu1.0001  Se1.029                      -0.23885956     -0.00000000     -0.00000000      0.00000000
ATVX     1  Mu1.0002  Se1.029                      -0.23063942      0.00000002      0.00000010      0.00000000
ATVX     1  Mu1.0003  Se1.029                      -0.23063662      0.00000000      0.00000000      0.00000000
ATVX     1  Mu1.0004  Se1.029                      -0.18816418     -0.00000000     -0.00000000      0.00000000
ATVX     1  Mu1.0005  Se1.029                      -0.02881730     -0.00000060      0.00002117     -0.00000000
ATVX     1  Mu1.0006  Se1.029                      -0.02881726      0.00000003     -0.00000104     -0.00000000
ATVX     1  Mu1.0007  Se1.029                       0.15147593     -0.00000000      0.00000024     -0.00000000
ATVX     1  Mu1.0008  Se1.029                       0.15147594     -0.00000000      0.00000000     -0.00000000
ATVX     1  Mu1.0009  Se1.029                       0.15695452      0.00000000      0.00000000      0.00000000
ATVX     1  Mu1.0010  Se1.029                       0.15695722      0.00000000     -0.00000000     -0.00000000
ATVX     1  Mu1.0011  Se1.029                       0.15846431     -0.00000000      0.00000000     -0.00000000
ATVX     1  Mu1.0012  Se1.029                       0.15846679     -0.00000000      0.00000000     -0.00000000
ATVX     1  Mu1.0013  Se1.029                       0.20245793     -0.00000000      0.00000004     -0.00000000
ATVX     1  Mu1.0014  Se1.029                       0.20245794      0.00000000     -0.00000000     -0.00000000
ATVX     1  Mu1.0015  Se1.029                       0.25544778     -0.00000016      0.00000061     -0.00000000
ATVX     1  Mu1.0016  Se1.029                       0.25544780      0.00000000     -0.00000000     -0.00000000
ATVX     1  Mu1.0017  Se1.029                       0.25832736      0.00000000     -0.00000000     -0.00000000
ATVX     1  Mu1.0018  Se1.029                       0.25833013     -0.00000000      0.00000000     -0.00000000
ATVX     1  Mu1.0019  Se1.029                       0.26726616      0.00000000     -0.00000000     -0.00000000
ATVX     1  Mu1.0020  Se1.029                       0.26726885      0.00000000     -0.00000000     -0.00000000
ATVX     1  Mu1.0021  Se1.029                       0.26904136      0.00000000     -0.00000000     -0.00000000
ATVX     1  Mu1.0022  Se1.029                       0.26904545      0.00000000     -0.00000000     -0.00000000
ATVX     1  Mu1.0023  Se1.029                       0.26925095      0.00000052     -0.00000218     -0.00000000
ATVX     1  Mu1.0024  Se1.029                       0.26925104      0.00000002     -0.00000008     -0.00000000
ATVX     1  Mu1.0025  Se1.029                       0.27547402     -0.00000000      0.00000002     -0.00000000
ATVX     1  Mu1.0026  Se1.029                       0.27547960      0.00000019     -0.00000059     -0.00000000
ATVX     1  Mu1.0027  Se1.029                       0.28959108     -0.00000000      0.00000000     -0.00000000
ATVX     1  Mu1.0028  Se1.029                       0.28959394     -0.00000000      0.00000000     -0.00000000
ATVX     1  Mu1.0001  Se1.030                      -0.07923568     -0.00000000      0.00000000     -0.00000000
ATVX     1  Mu1.0002  Se1.030                      -0.07101554     -0.00000000     -0.00000000      0.00000000
ATVX     1  Mu1.0003  Se1.030                      -0.07101274     -0.00000000     -0.00000000      0.00000000
ATVX     1  Mu1.0004  Se1.030                      -0.02854030      0.00000000      0.00000002      0.00000000
ATVX     1  Mu1.0005  Se1.030                       0.13080658      0.00000000     -0.00000000     -0.00000000
ATVX     1  Mu1.0006  Se1.030                       0.13080662     -0.00000000      0.00000000     -0.00000000
ATVX     1  Mu1.0269  Se1.031                       2.28214648     -0.09039180      0.04119356     -0.00372356
ATVX     1  Mu1.0270  Se1.032                       2.28217275     -0.09045918      0.04122302     -0.00372900
AIVX     1  Mu1.0139  In1.011 Se1.033               3.33064350      0.11682841     -0.03806237     -0.00444677
AIVX     1  Mu1.0131  In1.008 Se1.034               6.28654893     -0.16947850      0.02696301     -0.00456965
AIVX     1  Mu1.0131  In1.009 Se1.035               6.29964190      0.16907524     -0.02683635     -0.00453736
AIVX     1  Mu1.0168  In1.009 Se1.035               6.56023304     -0.17700750      0.02698187     -0.00477599
AIVX     1  Mu1.0131  In1.010 Se1.036               6.29964288      0.16907525     -0.02683634     -0.00453736
AIVX     1  Mu1.0168  In1.010 Se1.036               6.56023401     -0.17700883      0.02698207     -0.00477606
AIVX     1  Mu1.0038  In1.011 Se1.037               3.47044234     -0.14654131      0.04043479     -0.00592537
AIVX     1  Mu1.0049  In1.011 Se1.038               3.72044156     -0.14673322      0.03785584     -0.00555471
AIVX     1  Mu1.0041  In1.011 Se1.041               3.53056615     -0.10236917      0.02771397     -0.00283706
BVATP    1  Mu1.0001  Se1.026 Se1.026               0.27702269     -0.00000000     -0.00000000      0.00000000
BVATP    1  Mu1.0002  Se1.026 Se1.026               0.27702269      0.00000000      0.00000000      0.00000000
BVATM    1  Mu1.0001  Se1.027 Se1.026               0.15018018      0.00000000     -0.00000000     -0.00000000
BVATM    1  Mu1.0001  Se1.028 Se1.026               0.15832701      0.00000000     -0.00000000     -0.00000000
BVATM    1  Mu1.0001  Se1.029 Se1.026               0.15832758      0.00000000     -0.00000000     -0.00000000
BVATM    1  Mu1.0001  Se1.032 Se1.031               1.95441882      0.07214218     -0.03724125     -0.00268666
BVATM    1  Mu1.0001  Se1.038 Se1.037               5.00931150      0.12958760     -0.02586934     -0.00335235
BJATP    1  Mu1.0002  In1.011 Se1.033 Se1.031       2.93766095     -0.08268838      0.02801947     -0.00231688
BJATP    1  Mu1.0001  In1.011 Se1.033 Se1.032       2.93766095     -0.08268838      0.02801943     -0.00231688
BJATM    1  Mu1.0002  In1.011 Se1.033 Se1.031       2.93766095      0.07877568     -0.02874214     -0.00226418
BJATM    1  Mu1.0001  In1.011 Se1.033 Se1.032       2.93766095      0.07877568     -0.02874215     -0.00226418
BJAIP    1  Se1.033 In1.011 Se1.033 In1.011         3.92090272      0.12263903     -0.03343892     -0.00410092
--
 
   (Skipping property calculation,
    use PROP keyword to activate)
--
 
  Total CASPT2 energies:
::    CASPT2 Root  1     Total energy:  -1345.82411380
 
  A NEW JOBIPH FILE NAMED 'JOBMIX' IS PREPARED.
********************************************************************************
--- Stop Module: caspt2 at Wed Dec 25 23:18:54 2024 /rc=_RC_ALL_IS_WELL_ ---
*** files: xmldump
    saved to directory /home/grierjones/DDCASPT2/iron_oxo_DDCASPT2/cluster/7.25
--- Module caspt2 spent 5 minutes 29 seconds ---

>>> EXPORT i = B

>>> EXPORT j = P

>>> IF (-FILE GMJ_e2_${i}_${j}.csv)

>>> COPY /tmp/7.25/GMJ_RHS_B_P.csv /home/grierjones/DDCASPT2/iron_oxo_DDCASPT2/cluster/7.25/GMJ_RHS_B_P.csv

>>> COPY /tmp/7.25/GMJ_IVECW_B_P.csv /home/grierjones/DDCASPT2/iron_oxo_DDCASPT2/cluster/7.25/GMJ_IVECW_B_P.csv

>>> COPY /tmp/7.25/GMJ_IVECX_B_P.csv /home/grierjones/DDCASPT2/iron_oxo_DDCASPT2/cluster/7.25/GMJ_IVECX_B_P.csv

>>> COPY /tmp/7.25/GMJ_IVECC2_B_P.csv /home/grierjones/DDCASPT2/iron_oxo_DDCASPT2/cluster/7.25/GMJ_IVECC2_B_P.csv

>>> COPY /tmp/7.25/GMJ_e2_B_P.csv /home/grierjones/DDCASPT2/iron_oxo_DDCASPT2/cluster/7.25/GMJ_e2_B_P.csv

>>> END FOREACH

>>> EXPORT j = M

>>> IF (-FILE GMJ_e2_${i}_${j}.csv)

>>> COPY /tmp/7.25/GMJ_RHS_B_M.csv /home/grierjones/DDCASPT2/iron_oxo_DDCASPT2/cluster/7.25/GMJ_RHS_B_M.csv

>>> COPY /tmp/7.25/GMJ_IVECW_B_M.csv /home/grierjones/DDCASPT2/iron_oxo_DDCASPT2/cluster/7.25/GMJ_IVECW_B_M.csv

>>> COPY /tmp/7.25/GMJ_IVECX_B_M.csv /home/grierjones/DDCASPT2/iron_oxo_DDCASPT2/cluster/7.25/GMJ_IVECX_B_M.csv

>>> COPY /tmp/7.25/GMJ_IVECC2_B_M.csv /home/grierjones/DDCASPT2/iron_oxo_DDCASPT2/cluster/7.25/GMJ_IVECC2_B_M.csv

>>> COPY /tmp/7.25/GMJ_e2_B_M.csv /home/grierjones/DDCASPT2/iron_oxo_DDCASPT2/cluster/7.25/GMJ_e2_B_M.csv

>>> END FOREACH

>>> END FOREACH

>>> EXPORT i = E

>>> EXPORT j = P

>>> IF (-FILE GMJ_e2_${i}_${j}.csv)

>>> COPY /tmp/7.25/GMJ_RHS_E_P.csv /home/grierjones/DDCASPT2/iron_oxo_DDCASPT2/cluster/7.25/GMJ_RHS_E_P.csv

>>> COPY /tmp/7.25/GMJ_IVECW_E_P.csv /home/grierjones/DDCASPT2/iron_oxo_DDCASPT2/cluster/7.25/GMJ_IVECW_E_P.csv

>>> COPY /tmp/7.25/GMJ_IVECX_E_P.csv /home/grierjones/DDCASPT2/iron_oxo_DDCASPT2/cluster/7.25/GMJ_IVECX_E_P.csv

>>> COPY /tmp/7.25/GMJ_IVECC2_E_P.csv /home/grierjones/DDCASPT2/iron_oxo_DDCASPT2/cluster/7.25/GMJ_IVECC2_E_P.csv

>>> COPY /tmp/7.25/GMJ_e2_E_P.csv /home/grierjones/DDCASPT2/iron_oxo_DDCASPT2/cluster/7.25/GMJ_e2_E_P.csv

>>> END FOREACH

>>> EXPORT j = M

>>> IF (-FILE GMJ_e2_${i}_${j}.csv)

>>> COPY /tmp/7.25/GMJ_RHS_E_M.csv /home/grierjones/DDCASPT2/iron_oxo_DDCASPT2/cluster/7.25/GMJ_RHS_E_M.csv

>>> COPY /tmp/7.25/GMJ_IVECW_E_M.csv /home/grierjones/DDCASPT2/iron_oxo_DDCASPT2/cluster/7.25/GMJ_IVECW_E_M.csv

>>> COPY /tmp/7.25/GMJ_IVECX_E_M.csv /home/grierjones/DDCASPT2/iron_oxo_DDCASPT2/cluster/7.25/GMJ_IVECX_E_M.csv

>>> COPY /tmp/7.25/GMJ_IVECC2_E_M.csv /home/grierjones/DDCASPT2/iron_oxo_DDCASPT2/cluster/7.25/GMJ_IVECC2_E_M.csv

>>> COPY /tmp/7.25/GMJ_e2_E_M.csv /home/grierjones/DDCASPT2/iron_oxo_DDCASPT2/cluster/7.25/GMJ_e2_E_M.csv

>>> END FOREACH

>>> END FOREACH

>>> EXPORT i = F

>>> EXPORT j = P

>>> IF (-FILE GMJ_e2_${i}_${j}.csv)

>>> COPY /tmp/7.25/GMJ_RHS_F_P.csv /home/grierjones/DDCASPT2/iron_oxo_DDCASPT2/cluster/7.25/GMJ_RHS_F_P.csv

>>> COPY /tmp/7.25/GMJ_IVECW_F_P.csv /home/grierjones/DDCASPT2/iron_oxo_DDCASPT2/cluster/7.25/GMJ_IVECW_F_P.csv

>>> COPY /tmp/7.25/GMJ_IVECX_F_P.csv /home/grierjones/DDCASPT2/iron_oxo_DDCASPT2/cluster/7.25/GMJ_IVECX_F_P.csv

>>> COPY /tmp/7.25/GMJ_IVECC2_F_P.csv /home/grierjones/DDCASPT2/iron_oxo_DDCASPT2/cluster/7.25/GMJ_IVECC2_F_P.csv

>>> COPY /tmp/7.25/GMJ_e2_F_P.csv /home/grierjones/DDCASPT2/iron_oxo_DDCASPT2/cluster/7.25/GMJ_e2_F_P.csv

>>> END FOREACH

>>> EXPORT j = M

>>> IF (-FILE GMJ_e2_${i}_${j}.csv)

>>> COPY /tmp/7.25/GMJ_RHS_F_M.csv /home/grierjones/DDCASPT2/iron_oxo_DDCASPT2/cluster/7.25/GMJ_RHS_F_M.csv

>>> COPY /tmp/7.25/GMJ_IVECW_F_M.csv /home/grierjones/DDCASPT2/iron_oxo_DDCASPT2/cluster/7.25/GMJ_IVECW_F_M.csv

>>> COPY /tmp/7.25/GMJ_IVECX_F_M.csv /home/grierjones/DDCASPT2/iron_oxo_DDCASPT2/cluster/7.25/GMJ_IVECX_F_M.csv

>>> COPY /tmp/7.25/GMJ_IVECC2_F_M.csv /home/grierjones/DDCASPT2/iron_oxo_DDCASPT2/cluster/7.25/GMJ_IVECC2_F_M.csv

>>> COPY /tmp/7.25/GMJ_e2_F_M.csv /home/grierjones/DDCASPT2/iron_oxo_DDCASPT2/cluster/7.25/GMJ_e2_F_M.csv

>>> END FOREACH

>>> END FOREACH

>>> EXPORT i = G

>>> EXPORT j = P

>>> IF (-FILE GMJ_e2_${i}_${j}.csv)

>>> COPY /tmp/7.25/GMJ_RHS_G_P.csv /home/grierjones/DDCASPT2/iron_oxo_DDCASPT2/cluster/7.25/GMJ_RHS_G_P.csv

>>> COPY /tmp/7.25/GMJ_IVECW_G_P.csv /home/grierjones/DDCASPT2/iron_oxo_DDCASPT2/cluster/7.25/GMJ_IVECW_G_P.csv

>>> COPY /tmp/7.25/GMJ_IVECX_G_P.csv /home/grierjones/DDCASPT2/iron_oxo_DDCASPT2/cluster/7.25/GMJ_IVECX_G_P.csv

>>> COPY /tmp/7.25/GMJ_IVECC2_G_P.csv /home/grierjones/DDCASPT2/iron_oxo_DDCASPT2/cluster/7.25/GMJ_IVECC2_G_P.csv

>>> COPY /tmp/7.25/GMJ_e2_G_P.csv /home/grierjones/DDCASPT2/iron_oxo_DDCASPT2/cluster/7.25/GMJ_e2_G_P.csv

>>> END FOREACH

>>> EXPORT j = M

>>> IF (-FILE GMJ_e2_${i}_${j}.csv)

>>> COPY /tmp/7.25/GMJ_RHS_G_M.csv /home/grierjones/DDCASPT2/iron_oxo_DDCASPT2/cluster/7.25/GMJ_RHS_G_M.csv

>>> COPY /tmp/7.25/GMJ_IVECW_G_M.csv /home/grierjones/DDCASPT2/iron_oxo_DDCASPT2/cluster/7.25/GMJ_IVECW_G_M.csv

>>> COPY /tmp/7.25/GMJ_IVECX_G_M.csv /home/grierjones/DDCASPT2/iron_oxo_DDCASPT2/cluster/7.25/GMJ_IVECX_G_M.csv

>>> COPY /tmp/7.25/GMJ_IVECC2_G_M.csv /home/grierjones/DDCASPT2/iron_oxo_DDCASPT2/cluster/7.25/GMJ_IVECC2_G_M.csv

>>> COPY /tmp/7.25/GMJ_e2_G_M.csv /home/grierjones/DDCASPT2/iron_oxo_DDCASPT2/cluster/7.25/GMJ_e2_G_M.csv

>>> END FOREACH

>>> END FOREACH

>>> EXPORT i = H

>>> EXPORT j = P

>>> IF (-FILE GMJ_e2_${i}_${j}.csv)

>>> COPY /tmp/7.25/GMJ_RHS_H_P.csv /home/grierjones/DDCASPT2/iron_oxo_DDCASPT2/cluster/7.25/GMJ_RHS_H_P.csv

>>> COPY /tmp/7.25/GMJ_IVECW_H_P.csv /home/grierjones/DDCASPT2/iron_oxo_DDCASPT2/cluster/7.25/GMJ_IVECW_H_P.csv

>>> COPY /tmp/7.25/GMJ_IVECX_H_P.csv /home/grierjones/DDCASPT2/iron_oxo_DDCASPT2/cluster/7.25/GMJ_IVECX_H_P.csv

>>> COPY /tmp/7.25/GMJ_IVECC2_H_P.csv /home/grierjones/DDCASPT2/iron_oxo_DDCASPT2/cluster/7.25/GMJ_IVECC2_H_P.csv

>>> COPY /tmp/7.25/GMJ_e2_H_P.csv /home/grierjones/DDCASPT2/iron_oxo_DDCASPT2/cluster/7.25/GMJ_e2_H_P.csv

>>> END FOREACH

>>> EXPORT j = M

>>> IF (-FILE GMJ_e2_${i}_${j}.csv)

>>> COPY /tmp/7.25/GMJ_RHS_H_M.csv /home/grierjones/DDCASPT2/iron_oxo_DDCASPT2/cluster/7.25/GMJ_RHS_H_M.csv

>>> COPY /tmp/7.25/GMJ_IVECW_H_M.csv /home/grierjones/DDCASPT2/iron_oxo_DDCASPT2/cluster/7.25/GMJ_IVECW_H_M.csv

>>> COPY /tmp/7.25/GMJ_IVECX_H_M.csv /home/grierjones/DDCASPT2/iron_oxo_DDCASPT2/cluster/7.25/GMJ_IVECX_H_M.csv

>>> COPY /tmp/7.25/GMJ_IVECC2_H_M.csv /home/grierjones/DDCASPT2/iron_oxo_DDCASPT2/cluster/7.25/GMJ_IVECC2_H_M.csv

>>> COPY /tmp/7.25/GMJ_e2_H_M.csv /home/grierjones/DDCASPT2/iron_oxo_DDCASPT2/cluster/7.25/GMJ_e2_H_M.csv

>>> END FOREACH

>>> END FOREACH

>>> EXPORT i = A

>>> IF (-FILE GMJ_e2_$i.csv)

>>> COPY /tmp/7.25/GMJ_RHS_A.csv /home/grierjones/DDCASPT2/iron_oxo_DDCASPT2/cluster/7.25/GMJ_RHS_A.csv

>>> COPY /tmp/7.25/GMJ_IVECW_A.csv /home/grierjones/DDCASPT2/iron_oxo_DDCASPT2/cluster/7.25/GMJ_IVECW_A.csv

>>> COPY /tmp/7.25/GMJ_IVECX_A.csv /home/grierjones/DDCASPT2/iron_oxo_DDCASPT2/cluster/7.25/GMJ_IVECX_A.csv

>>> COPY /tmp/7.25/GMJ_IVECC2_A.csv /home/grierjones/DDCASPT2/iron_oxo_DDCASPT2/cluster/7.25/GMJ_IVECC2_A.csv

>>> COPY /tmp/7.25/GMJ_e2_A.csv /home/grierjones/DDCASPT2/iron_oxo_DDCASPT2/cluster/7.25/GMJ_e2_A.csv

>>> END FOREACH

>>> EXPORT i = C

>>> IF (-FILE GMJ_e2_$i.csv)

>>> COPY /tmp/7.25/GMJ_RHS_C.csv /home/grierjones/DDCASPT2/iron_oxo_DDCASPT2/cluster/7.25/GMJ_RHS_C.csv

>>> COPY /tmp/7.25/GMJ_IVECW_C.csv /home/grierjones/DDCASPT2/iron_oxo_DDCASPT2/cluster/7.25/GMJ_IVECW_C.csv

>>> COPY /tmp/7.25/GMJ_IVECX_C.csv /home/grierjones/DDCASPT2/iron_oxo_DDCASPT2/cluster/7.25/GMJ_IVECX_C.csv

>>> COPY /tmp/7.25/GMJ_IVECC2_C.csv /home/grierjones/DDCASPT2/iron_oxo_DDCASPT2/cluster/7.25/GMJ_IVECC2_C.csv

>>> COPY /tmp/7.25/GMJ_e2_C.csv /home/grierjones/DDCASPT2/iron_oxo_DDCASPT2/cluster/7.25/GMJ_e2_C.csv

>>> END FOREACH

>>> EXPORT i = D

>>> IF (-FILE GMJ_e2_$i.csv)

>>> COPY /tmp/7.25/GMJ_RHS_D.csv /home/grierjones/DDCASPT2/iron_oxo_DDCASPT2/cluster/7.25/GMJ_RHS_D.csv

>>> COPY /tmp/7.25/GMJ_IVECW_D.csv /home/grierjones/DDCASPT2/iron_oxo_DDCASPT2/cluster/7.25/GMJ_IVECW_D.csv

>>> COPY /tmp/7.25/GMJ_IVECX_D.csv /home/grierjones/DDCASPT2/iron_oxo_DDCASPT2/cluster/7.25/GMJ_IVECX_D.csv

>>> COPY /tmp/7.25/GMJ_IVECC2_D.csv /home/grierjones/DDCASPT2/iron_oxo_DDCASPT2/cluster/7.25/GMJ_IVECC2_D.csv

>>> COPY /tmp/7.25/GMJ_e2_D.csv /home/grierjones/DDCASPT2/iron_oxo_DDCASPT2/cluster/7.25/GMJ_e2_D.csv

>>> END FOREACH

.########################.
.# Non-zero return code #.
.########################.

    Timing: Wall=396.37 User=392.63 System=3.62
************************************
*** WorkDir at /tmp/7.25 cleaned ***
************************************
