   This run of MOLCAS is using the pymolcas driver

                             OPE
                             OPE          NMOL  CASOP  ENMOLC A   SO
                 OPE        NMOLC        AS  OP EN  MO LC     AS  OP
                OPENM       OL CA        SO  PE NM  OL CA     SOP EN
                OP EN      MO   LC       AS  OP ENMOL  CASO   PENMOL
                OP  EN     MO   LC       AS  OP EN     MO     LC ASO
               OP   E  NMOL  C  AS       OP  EN MO     LC     AS  OP
               OP  E   NMO   LC AS        OPEN  MO     LCASOP EN   M
               O  PEN   MO  LCA  SO
            OPE   NMO   L   CAS    OP
        OPENMOL  CASOP     ENMOL   CASOPE
     OPENMOLCA   SOPENMOLCASOPEN   MOLCASOPE
    OPENMOLCAS   OP           EN   MOL    CAS
    OPENMOLCAS       OP  ENM        O     LCA
    OPENMOLCAS    OPEN  MOLCASO     P  E  NMO
    OPENMOLCAS     OP               E  N  MOL
    OPENMOLCA   SO           PENM   O  L  CAS    OPEN    MO    LCAS
    OPENMOLCA   SOP           ENM   O  L  CAS   OP  EN  MOLC  AS   O
    OPENMOLCA   SOPE           NM      O  LCA   S      OP  EN MO
    OPENMOLC                AS         O  PEN   M      OL  CA  SOPE
    OPENMO        LCASOPE  NMOL        C  ASO   P      ENMOLC     AS
    OPE     NMO      LCA  SO     P     E   NM   OL  CA SO  PE N   MO
          OPENMOLCA            SOPE   NMO        LCAS  O    P  ENMO
     OPENMOLCASOPENMOLCASOPENMOLCASOPENMOLCA
        OPENMOLCASOPENMOLCASOPENMOLCASOPE
            OPENMOLCASOPENMOLCASOPENM
               OPENMOLCASOPENMOLCA        version: ea724fe96-dirty
                   OPENMOLCASO
                       OPE                tag:

 OpenMolcas is free software; you can redistribute it and/or modify it
 under the terms of the GNU Lesser General Public License version 2.1.
 OpenMolcas is distributed in the hope that it will be useful, but it
 is provided "as is" and without any express or implied warranties.
 For more details see the full text of the license in the file
 LICENSE or in <http://www.gnu.org/licenses/>.

                 Copyright (C) The OpenMolcas Authors
           For the author list and the recommended citation,
                   consult the file CONTRIBUTORS.md

           *************************************************
           * pymolcas version py2.28                       *
           *   build c4a6d18ded8cb6cad61d2372a9abd97c      *
           *   (after the EMIL interpreter by V. Veryazov) *
           *************************************************

configuration info
------------------
C Compiler ID: Intel
C flags: -std=gnu99
Fortran Compiler ID: Intel
Fortran flags: -fpp -i8 -r8 -heap-arrays
Definitions: _MOLCAS_;_I8_;_LINUX_
Parallel: OFF (GA=OFF)


   --------------------------------------------------------------------------------
  |
  |              Project: ozone_126.25
  |       Submitted from: /home/grierjones/DDCASPT2/ozone/ANO-RCC-VTZP/ozone_126.25
  |         Scratch area: /tmp/ozone_126.25
  |      Save outputs to: /home/grierjones/DDCASPT2/ozone/ANO-RCC-VTZP/ozone_126.25
  |               Molcas: /home/grierjones/Test/build
  |
  | Scratch area is empty
  |
  |       MOLCAS_DRIVER = /usr/local/pymolcas
  | MOLCAS_KEEP_WORKDIR = NO
  |  MOLCAS_NEW_WORKDIR = YES
  |       MOLCAS_NPROCS = 1
  |        MOLCAS_PRINT = NORMAL
  |       MOLCAS_SOURCE = /home/grierjones/Test/build
  |    MOLCAS_STRUCTURE = 0
  |
   --------------------------------------------------------------------------------

++ ---------   Input file   ---------

&GATEWAY
coord=ozone_126.25.xyz
Basis = ANO-RCC-VTZP
Group = nosymm
Expert
End of Input

&SEWARD
End of Input

&SCF

>>> COPY $WorkDir/ozone_126.25.scf.h5 $CurrDir/

&RASSCF
Title= RASSCF
FileOrb
/home/grierjones/DDCASPT2/ozone/ANO-RCC-VTZP/ozone_126.00/ozone_126.00.RasOrb
NACTEL
4 0 0
Inactive
10
RAS2
3
Symmetry
1
Spin
1
orblisting
all
ITERation
300 200

>>> COPY $WorkDir/ozone_126.25.rasscf.h5 $CurrDir/

>>> COPY $WorkDir/GMJ_Fock_MO.csv $CurrDir/ozone_126.25.GMJ_Fock_MO.csv

>>> COPY $WorkDir/GMJ_PT2_Fock_MO.csv $CurrDir/ozone_126.25.GMJ_PT2_Fock_MO.csv

&MOTRA
Frozen=0
LUMORB

>>> COPY $WorkDir/GMJ_one_int_indx.csv $CurrDir/ozone_126.25.GMJ_one_int_indx.csv

>>> COPY $WorkDir/GMJ_one_int.csv $CurrDir/ozone_126.25.GMJ_one_int.csv

>>> COPY $WorkDir/GMJ_two_int_indx.csv $CurrDir/ozone_126.25.GMJ_two_int_indx.csv

>>> COPY $WorkDir/GMJ_two_int.csv $CurrDir/ozone_126.25.GMJ_two_int.csv

&CASPT2
Frozen
0
MAXITER
50

>>> FOREACH i IN (B,E,F,G,H)

  >>> FOREACH j IN (P,M)

    >>> IF (-FILE GMJ_e2_${i}_${j}.csv)

      >>> COPY $WorkDir/GMJ_RHS_${i}_${j}.csv $CurrDir/GMJ_RHS_${i}_${j}.csv

      >>> COPY $WorkDir/GMJ_IVECW_${i}_${j}.csv $CurrDir/GMJ_IVECW_${i}_${j}.csv

      >>> COPY $WorkDir/GMJ_IVECX_${i}_${j}.csv $CurrDir/GMJ_IVECX_${i}_${j}.csv

      >>> COPY $WorkDir/GMJ_IVECC2_${i}_${j}.csv $CurrDir/GMJ_IVECC2_${i}_${j}.csv

      >>> COPY $WorkDir/GMJ_e2_${i}_${j}.csv $CurrDir/GMJ_e2_${i}_${j}.csv

    >>> END IF

  >>> END FOREACH

>>> END FOREACH

>>> FOREACH i IN (A,C,D)

  >>> IF (-FILE GMJ_e2_$i.csv)

    >>> COPY $WorkDir/GMJ_RHS_$i.csv $CurrDir/GMJ_RHS_$i.csv

    >>> COPY $WorkDir/GMJ_IVECW_$i.csv $CurrDir/GMJ_IVECW_$i.csv

    >>> COPY $WorkDir/GMJ_IVECX_$i.csv $CurrDir/GMJ_IVECX_$i.csv

    >>> COPY $WorkDir/GMJ_IVECC2_$i.csv $CurrDir/GMJ_IVECC2_$i.csv

    >>> COPY $WorkDir/GMJ_e2_$i.csv $CurrDir/GMJ_e2_$i.csv

  >>> END IF

>>> END FOREACH

-- ----------------------------------

--- Start Module: gateway at Fri Dec 20 11:26:16 2024 ---
 
()()()()()()()()()()()()()()()()()()()()()()()()()()()()()()()()()()()()()()()()()()()()()()()()()()

                                              &GATEWAY

                                   only a single process is used
                       available to each process: 2.0 GB of memory, 1 thread?
()()()()()()()()()()()()()()()()()()()()()()()()()()()()()()()()()()()()()()()()()()()()()()()()()()
 
 ###############################################################################
 ###############################################################################
 ###                                                                         ###
 ###                                                                         ###
 ###                                                                         ###
 ###    WARNING: EXPERT option is ON!                                        ###
 ###                                                                         ###
 ###                                                                         ###
 ###############################################################################
 ###############################################################################
 
++    Symmetry information:
      ---------------------
 
                    Character Table for C1 
 
                             E  
                    a        1  x, y, xy, Rz, z, xz, Ry, yz, Rx, I
--
 
 
++    Basis set information:
      ----------------------
 
 
      Basis set label: O.ANO-RCC...4S3P2D1F.
 
      Electronic valence basis set:
      ------------------
      Associated Effective Charge   8.000000 au
      Associated Actual Charge      8.000000 au
      Nuclear Model: Point charge
 
      Shell  nPrim  nBasis  Cartesian Spherical Contaminant
         s      14       4        X                  
         p       9       3        X                  
         d       4       2                 X         
         f       3       1                 X         
--
 
 
++    Molecular structure info:
      -------------------------
 
                    ************************************************ 
                    **** Cartesian Coordinates / Bohr, Angstrom **** 
                    ************************************************ 
 
     Center  Label                x              y              z                     x              y              z
        1      O1               1.091721       2.154229       0.000000              0.577714       1.139969       0.000000
        2      O2               0.000000       0.000000       0.000000              0.000000       0.000000       0.000000
        3      O3               1.091721      -2.154229       0.000000              0.577714      -1.139969       0.000000
 
                    *************************************** 
                    *    InterNuclear Distances / Bohr    * 
                    *************************************** 
 
               1 O1            2 O2            3 O3    
    1 O1       0.000000
    2 O2       2.415069        0.000000
    3 O3       4.308458        2.415069        0.000000
 
                    ******************************************* 
                    *    InterNuclear Distances / Angstrom    * 
                    ******************************************* 
 
               1 O1            2 O2            3 O3    
    1 O1       0.000000
    2 O2       1.278000        0.000000
    3 O3       2.279938        1.278000        0.000000
 
                    ************************************** 
                    *    Valence Bond Angles / Degree    * 
                    ************************************** 
                          Atom centers                 Phi
                      1 O1       2 O2       3 O3       126.25
--
 
 
            Nuclear Potential Energy             67.85505517 au
 
 ###############################################################################
 ###############################################################################
 ###                                                                         ###
 ###                                                                         ###
 ###    There were warnings during the execution                             ###
 ###    Please, check the output with care!                                  ###
 ###                                                                         ###
 ###                                                                         ###
 ###############################################################################
 ###############################################################################
--- Stop Module: gateway at Fri Dec 20 11:26:16 2024 /rc=_RC_ALL_IS_WELL_ ---
*** files: xmldump
    saved to directory /home/grierjones/DDCASPT2/ozone/ANO-RCC-VTZP/ozone_126.25

--- Start Module: seward at Fri Dec 20 11:26:16 2024 ---
 
()()()()()()()()()()()()()()()()()()()()()()()()()()()()()()()()()()()()()()()()()()()()()()()()()()

                                              &SEWARD

                                   only a single process is used
                       available to each process: 2.0 GB of memory, 1 thread?
()()()()()()()()()()()()()()()()()()()()()()()()()()()()()()()()()()()()()()()()()()()()()()()()()()
 
 ###############################################################################
 ###############################################################################
 ###                                                                         ###
 ###                                                                         ###
 ###                                                                         ###
 ###    WARNING: EXPERT option is ON!                                        ###
 ###                                                                         ###
 ###                                                                         ###
 ###############################################################################
 ###############################################################################
               SEWARD will generate:
                  Multipole Moment integrals up to order  2
                  Kinetic Energy integrals
                  Nuclear Attraction integrals (point charge)
                  One-Electron Hamiltonian integrals
                  Velocity integrals
                  Relativistic Douglas-Kroll-Hess integrals:
                    - Parametrization         : EXP
                    - DKH order of Hamiltonian: 2
                    - DKH order of Properties : 0
                         - multipole moment operators
                         - electric potential operators
                         - contact operators
                  Atomic mean-field integrals
                  Two-Electron Repulsion integrals
 
                   Integrals are discarded if absolute value <: 0.10E-13
                   Integral cutoff threshold is set to       <: 0.10E-15
 
            Nuclear Potential Energy             67.85505517 au
 
 
      Basis set specifications :
      Symmetry species         a  
      Basis functions           90
 
 
  Input file to MOLDEN was generated!
 
 ###############################################################################
 ###############################################################################
 ###                                                                         ###
 ###                                                                         ###
 ###    There were warnings during the execution                             ###
 ###    Please, check the output with care!                                  ###
 ###                                                                         ###
 ###                                                                         ###
 ###############################################################################
 ###############################################################################
--- Stop Module: seward at Fri Dec 20 11:26:19 2024 /rc=_RC_ALL_IS_WELL_ ---
*** files: ozone_126.25.GssOrb ozone_126.25.guessorb.h5 ozone_126.25.guessorb.molden xmldump
    saved to directory /home/grierjones/DDCASPT2/ozone/ANO-RCC-VTZP/ozone_126.25
--- Module seward spent 2 seconds ---

*** symbolic link created: INPORB -> ozone_126.25.GssOrb
--- Start Module: scf at Fri Dec 20 11:26:19 2024 ---
 
()()()()()()()()()()()()()()()()()()()()()()()()()()()()()()()()()()()()()()()()()()()()()()()()()()

                                                &SCF

                                   only a single process is used
                       available to each process: 2.0 GB of memory, 1 thread?
()()()()()()()()()()()()()()()()()()()()()()()()()()()()()()()()()()()()()()()()()()()()()()()()()()
 
++    Input section:
      --------------
 
      Header of the integral files:
      
       Integrals generated by seward 4.2.0  , Fri Dec 20 11:26:16 2024
 
 
      Cartesian coordinates in Angstrom:
      -----------------------------------------------------
      No.  Label        X            Y            Z        
      -----------------------------------------------------
       1   O1         0.57771400   1.13996900   0.00000000
       2   O2         0.00000000   0.00000000   0.00000000
       3   O3         0.57771400  -1.13996900   0.00000000
      -----------------------------------------------------
      Nuclear repulsion energy =   67.85505517
--
 
++    Orbital specifications:
      -----------------------
 
      Symmetry species               1
                                     a
      Frozen orbitals                0
      Occupied orbitals             12
      Secondary orbitals            78
      Deleted orbitals               0
      Total number of orbitals      90
      Number of basis functions     90
--
 
      Molecular charge                           0.000
 
++    Optimization specifications:
      ----------------------------
 
      SCF Algorithm: Conventional
      Minimized density differences are used
      Number of density matrices in core                5
      Maximum number of NDDO SCF iterations           400
      Maximum number of HF SCF iterations             400
      Threshold for SCF energy change            0.10E-08
      Threshold for density matrix               0.10E-03
      Threshold for Fock matrix                  0.15E-03
      Threshold for linear dependence            0.10E-08
      Threshold at which DIIS is turned on       0.15E+00
      Threshold at which QNR/C2DIIS is turned on 0.75E-01
      Threshold for Norm(delta) (QNR/C2DIIS)     0.20E-04
      DIIS extrapolation of the SCF procedure
      All orbitals punched on: SCFORB
--
 
      Input vectors read from INPORB
      Orbital file label: *Guess orbitals
 
 
++ Convergence information
                                   SCF        iterations: Energy and convergence statistics
 
Iter     Tot. SCF        One-elec.       Two-elec.     Energy      Max Dij or  Max Fij      DNorm      TNorm      AccCon     Time
         Energy          Energy          Energy        Change      Delta Norm                                                in Sec.
   1  -223.902637748  -439.365109740   147.607416825   0.00E+00    0.63E+00*   0.26E+00*    0.73E+01   0.11E+03   None         0.
   2  -224.111528960  -445.679126673   153.712542547  -0.21E+00*   0.23E+00*   0.18E+00*    0.27E+01   0.11E+03   EDIIS        0.
   3  -224.468479362  -443.013069798   150.689535269  -0.36E+00*   0.23E+00*   0.86E-01*    0.68E+00   0.11E+03   EDIIS        0.
   4  -224.468731395  -443.726306546   151.402519984  -0.25E-03*   0.14E-01*   0.46E-01*    0.28E+00   0.11E+03   EDIIS        0.
   5  -224.508235756  -443.315961396   150.952670473  -0.40E-01*   0.70E-02*   0.28E-02*    0.35E-01   0.11E+03   c2DIIS       0.
   6  -224.508421644  -443.344805618   150.981328807  -0.19E-03*   0.37E-02*   0.13E-02*    0.95E-02   0.11E+03   QNRc2DIIS    0.
   7  -224.508463498  -443.338973529   150.975454864  -0.42E-04*   0.54E-02*   0.11E-02*    0.39E-02   0.11E+03   QNRc2DIIS    0.
   8  -224.508485399  -443.341928354   150.978387788  -0.22E-04*   0.92E-03*   0.51E-03*    0.32E-02   0.11E+03   QNRc2DIIS    0.
   9  -224.508486884  -443.342385860   150.978843809  -0.15E-05*   0.74E-03*   0.37E-03*    0.64E-03   0.11E+03   QNRc2DIIS    0.
  10  -224.508487664  -443.339196990   150.975654159  -0.78E-06*   0.87E-04*   0.51E-04     0.28E-03   0.11E+03   QNRc2DIIS    0.
  11  -224.508487700  -443.341278404   150.977735537  -0.36E-07*   0.26E-04*   0.82E-05     0.91E-04   0.11E+03   QNRc2DIIS    0.
  12  -224.508487702  -443.341172757   150.977629888  -0.19E-08*   0.11E-04    0.24E-05     0.16E-04   0.11E+03   QNRc2DIIS    0.
  13  -224.508487702  -443.341113432   150.977570563  -0.18E-09    0.65E-06    0.20E-06     0.33E-03   0.11E+03   QNRc2DIIS    0.
 
       Convergence after 13 Macro Iterations
--
 
 *****************************************************************************************************************************
 *                                                                                                                           *
 *                                             SCF/KS-DFT Program, Final results                                             *
 *                                                                                                                           *
 *                                                                                                                           *
 *                                                                                                                           *
 *                                                       Final Results                                                       *
 *                                                                                                                           *
 *****************************************************************************************************************************
 
::    Total SCF energy                               -224.5084877022
      One-electron energy                            -443.3411134322
      Two-electron energy                             150.9775705631
      Nuclear repulsion energy                         67.8550551669
      Kinetic energy (interpolated)                   225.0296507460
      Virial theorem                                    0.9976840250
      Total spin, S(S+1)                                0.0000000000
      Total spin, S                                     0.0000000000
      Max non-diagonal density matrix element           0.0000005788
      Max non-diagonal Fock matrix element              0.0000000722
 
 
      All orbitals with orbital energies smaller than  E(LUMO)+0.5 are printed
 
++    Molecular orbitals:
      -------------------
 
      Title: SCF orbitals

      Molecular orbitals for symmetry species 1: a  
 
          Orbital            1         2         3         4         5         6         7         8         9        10    
          Energy          -20.9288  -20.7315  -20.7315   -1.7411   -1.4448   -1.0897   -0.8321   -0.8031   -0.7770   -0.5788
          Occ. No.          2.0000    2.0000    2.0000    2.0000    2.0000    2.0000    2.0000    2.0000    2.0000    2.0000
 
        1 O1     1s         0.0023   -0.7064    0.7063   -0.0132    0.0120    0.0107   -0.0108   -0.0230    0.0000    0.0071
        2 O1     2s         0.0033    0.0051   -0.0054    0.3369   -0.5681    0.6060   -0.2333   -0.4296   -0.0000    0.0639
        3 O1     3s         0.0019    0.0037   -0.0038   -0.0092    0.0195    0.0181   -0.0206   -0.0512    0.0000    0.0177
        4 O1     4s         0.0003    0.0008   -0.0007   -0.0005    0.0040    0.0029   -0.0041   -0.0109   -0.0000    0.0041
        5 O1     2px       -0.0008   -0.0012    0.0011   -0.0462    0.0573    0.0995    0.1879   -0.3095   -0.0000   -0.5667
        6 O1     3px       -0.0006   -0.0013    0.0010    0.0119   -0.0080   -0.0166   -0.0102    0.0278   -0.0000   -0.0086
        7 O1     4px       -0.0000    0.0006   -0.0007    0.0024    0.0000    0.0007   -0.0005    0.0018   -0.0000    0.0040
        8 O1     2py       -0.0020   -0.0021    0.0025   -0.1115    0.0740    0.1045   -0.3220   -0.2836   -0.0000    0.4429
        9 O1     3py       -0.0011   -0.0022    0.0024    0.0141   -0.0157   -0.0176    0.0312    0.0394    0.0000   -0.0045
       10 O1     4py        0.0005    0.0014   -0.0014    0.0011   -0.0036    0.0011    0.0039    0.0034    0.0000   -0.0032
       11 O1     2pz        0.0000    0.0000    0.0000   -0.0000   -0.0000   -0.0000   -0.0000   -0.0000    0.3806   -0.0000
       12 O1     3pz       -0.0000   -0.0000   -0.0000    0.0000    0.0000   -0.0000   -0.0000    0.0000   -0.0177   -0.0000
       13 O1     4pz       -0.0000    0.0000    0.0000    0.0000   -0.0000   -0.0000   -0.0000    0.0000   -0.0068   -0.0000
       14 O1     3d2-       0.0003    0.0009   -0.0009    0.0146   -0.0141   -0.0119    0.0003    0.0265    0.0000    0.0016
       15 O1     4d2-       0.0001    0.0005   -0.0005    0.0015   -0.0017   -0.0008    0.0003    0.0023    0.0000    0.0009
       16 O1     3d1-       0.0000   -0.0000   -0.0000    0.0000    0.0000   -0.0000    0.0000    0.0000   -0.0286    0.0000
       17 O1     4d1-       0.0000    0.0000    0.0000    0.0000    0.0000   -0.0000    0.0000    0.0000   -0.0045    0.0000
       18 O1     3d0       -0.0003   -0.0005    0.0005   -0.0104    0.0092    0.0043   -0.0088   -0.0146   -0.0000    0.0048
       19 O1     4d0       -0.0002   -0.0004    0.0004   -0.0004    0.0010   -0.0001   -0.0006   -0.0009   -0.0000    0.0005
       20 O1     3d1+      -0.0000    0.0000    0.0000    0.0000    0.0000   -0.0000   -0.0000    0.0000   -0.0147    0.0000
       21 O1     4d1+      -0.0000   -0.0000   -0.0000   -0.0000   -0.0000   -0.0000   -0.0000    0.0000   -0.0029   -0.0000
       22 O1     3d2+      -0.0005   -0.0007    0.0008   -0.0141    0.0076    0.0044   -0.0260   -0.0112   -0.0000    0.0181
       23 O1     4d2+      -0.0003   -0.0003    0.0004   -0.0019    0.0011    0.0008   -0.0024   -0.0006   -0.0000    0.0029
       24 O1     4f3-       0.0001    0.0000   -0.0000    0.0019   -0.0003    0.0011    0.0072   -0.0008    0.0000   -0.0056
       25 O1     4f2-      -0.0000   -0.0000    0.0000    0.0000   -0.0000    0.0000   -0.0000   -0.0000    0.0055   -0.0000
       26 O1     4f1-       0.0000    0.0002   -0.0001    0.0031   -0.0028   -0.0009    0.0022    0.0033    0.0000   -0.0009
       27 O1     4f0       -0.0000    0.0000    0.0000   -0.0000    0.0000    0.0000   -0.0000   -0.0000   -0.0038   -0.0000
       28 O1     4f1+       0.0000    0.0001   -0.0001    0.0014   -0.0015   -0.0008    0.0004    0.0016    0.0000   -0.0012
       29 O1     4f2+       0.0000    0.0000    0.0000   -0.0000    0.0000   -0.0000    0.0000   -0.0000   -0.0045   -0.0000
       30 O1     4f3+       0.0000    0.0002   -0.0002    0.0054   -0.0053   -0.0027    0.0019    0.0070    0.0000   -0.0010
       31 O2     1s         0.9991    0.0000   -0.0008   -0.0275    0.0000   -0.0168   -0.0078   -0.0000   -0.0000    0.0000
       32 O2     2s        -0.0065   -0.0000    0.0111    0.6201   -0.0000   -0.6598   -0.0840    0.0000   -0.0000    0.0000
       33 O2     3s        -0.0046   -0.0000    0.0064   -0.0689    0.0000   -0.0158   -0.0141   -0.0000    0.0000    0.0000
       34 O2     4s        -0.0010   -0.0000    0.0010   -0.0124    0.0000   -0.0041   -0.0043   -0.0000    0.0000    0.0000
       35 O2     2px       -0.0011   -0.0000    0.0034    0.0929    0.0000    0.2214    0.6741    0.0000    0.0000   -0.0000
       36 O2     3px       -0.0019   -0.0000    0.0021   -0.0374   -0.0000   -0.0300   -0.0711   -0.0000    0.0000   -0.0000
       37 O2     4px        0.0016    0.0000   -0.0007   -0.0030   -0.0000    0.0011   -0.0092   -0.0000   -0.0000   -0.0000
       38 O2     2py        0.0000   -0.0059   -0.0000   -0.0000   -0.3317    0.0000   -0.0000    0.5533    0.0000   -0.1440
       39 O2     3py        0.0000   -0.0038   -0.0000    0.0000    0.0637   -0.0000    0.0000   -0.0572   -0.0000   -0.0080
       40 O2     4py       -0.0000    0.0012    0.0000    0.0000   -0.0019   -0.0000   -0.0000   -0.0092   -0.0000   -0.0005
       41 O2     2pz        0.0000    0.0000    0.0000   -0.0000    0.0000   -0.0000   -0.0000   -0.0000    0.6808    0.0000
       42 O2     3pz        0.0000    0.0000    0.0000   -0.0000   -0.0000   -0.0000    0.0000   -0.0000   -0.0465   -0.0000
       43 O2     4pz        0.0000    0.0000    0.0000   -0.0000   -0.0000   -0.0000    0.0000    0.0000   -0.0164   -0.0000
       44 O2     3d2-       0.0000   -0.0014   -0.0000   -0.0000   -0.0383    0.0000   -0.0000    0.0270   -0.0000   -0.0426
       45 O2     4d2-       0.0000   -0.0006   -0.0000   -0.0000   -0.0042    0.0000    0.0000    0.0025   -0.0000   -0.0075
       46 O2     3d1-      -0.0000    0.0000   -0.0000   -0.0000   -0.0000    0.0000   -0.0000   -0.0000   -0.0000   -0.0000
       47 O2     4d1-      -0.0000    0.0000   -0.0000   -0.0000    0.0000    0.0000    0.0000   -0.0000   -0.0000   -0.0000
       48 O2     3d0        0.0005    0.0000   -0.0011   -0.0150   -0.0000   -0.0060   -0.0142   -0.0000   -0.0000    0.0000
       49 O2     4d0        0.0006    0.0000   -0.0006    0.0009   -0.0000   -0.0003   -0.0008    0.0000   -0.0000   -0.0000
       50 O2     3d1+      -0.0000    0.0000    0.0000   -0.0000    0.0000   -0.0000   -0.0000   -0.0000    0.0299    0.0000
       51 O2     4d1+      -0.0000   -0.0000    0.0000   -0.0000    0.0000   -0.0000   -0.0000   -0.0000    0.0044   -0.0000
       52 O2     3d2+       0.0005    0.0000   -0.0010   -0.0145   -0.0000   -0.0011    0.0190    0.0000    0.0000    0.0000
       53 O2     4d2+       0.0002    0.0000   -0.0005   -0.0015   -0.0000   -0.0005    0.0017    0.0000    0.0000   -0.0000
       54 O2     4f3-       0.0000    0.0000    0.0000    0.0000    0.0023   -0.0000    0.0000   -0.0051   -0.0000   -0.0088
       55 O2     4f2-       0.0000    0.0000    0.0000   -0.0000   -0.0000   -0.0000    0.0000    0.0000    0.0000   -0.0000
       56 O2     4f1-      -0.0000    0.0001    0.0000    0.0000    0.0052   -0.0000    0.0000   -0.0043   -0.0000    0.0011
       57 O2     4f0       -0.0000    0.0000    0.0000    0.0000    0.0000    0.0000   -0.0000    0.0000   -0.0061   -0.0000
       58 O2     4f1+       0.0001    0.0000   -0.0001   -0.0027   -0.0000   -0.0003   -0.0019   -0.0000    0.0000   -0.0000
       59 O2     4f2+       0.0000   -0.0000   -0.0000    0.0000    0.0000    0.0000    0.0000    0.0000   -0.0065    0.0000
       60 O2     4f3+       0.0001    0.0000   -0.0002   -0.0096   -0.0000   -0.0011   -0.0055   -0.0000   -0.0000    0.0000
       61 O3     1s         0.0023    0.7064    0.7063   -0.0132   -0.0120    0.0107   -0.0108    0.0230   -0.0000   -0.0071
       62 O3     2s         0.0033   -0.0051   -0.0054    0.3369    0.5681    0.6060   -0.2333    0.4296    0.0000   -0.0639
       63 O3     3s         0.0019   -0.0037   -0.0038   -0.0092   -0.0195    0.0181   -0.0206    0.0512   -0.0000   -0.0177
       64 O3     4s         0.0003   -0.0008   -0.0007   -0.0005   -0.0040    0.0029   -0.0041    0.0109   -0.0000   -0.0041
       65 O3     2px       -0.0008    0.0012    0.0011   -0.0462   -0.0573    0.0995    0.1879    0.3095    0.0000    0.5667
       66 O3     3px       -0.0006    0.0013    0.0010    0.0119    0.0080   -0.0166   -0.0102   -0.0278    0.0000    0.0086
       67 O3     4px       -0.0000   -0.0006   -0.0007    0.0024   -0.0000    0.0007   -0.0005   -0.0018    0.0000   -0.0040
       68 O3     2py        0.0020   -0.0021   -0.0025    0.1115    0.0740   -0.1045    0.3220   -0.2836   -0.0000    0.4429
       69 O3     3py        0.0011   -0.0022   -0.0024   -0.0141   -0.0157    0.0176   -0.0312    0.0394   -0.0000   -0.0045
       70 O3     4py       -0.0005    0.0014    0.0014   -0.0011   -0.0036   -0.0011   -0.0039    0.0034    0.0000   -0.0032
       71 O3     2pz       -0.0000   -0.0000   -0.0000    0.0000    0.0000   -0.0000   -0.0000   -0.0000    0.3806    0.0000
       72 O3     3pz       -0.0000   -0.0000   -0.0000    0.0000    0.0000   -0.0000   -0.0000    0.0000   -0.0177   -0.0000
       73 O3     4pz       -0.0000   -0.0000    0.0000    0.0000    0.0000   -0.0000   -0.0000    0.0000   -0.0068   -0.0000
       74 O3     3d2-      -0.0003    0.0009    0.0009   -0.0146   -0.0141    0.0119   -0.0003    0.0265    0.0000    0.0016
       75 O3     4d2-      -0.0001    0.0005    0.0005   -0.0015   -0.0017    0.0008   -0.0003    0.0023    0.0000    0.0009
       76 O3     3d1-      -0.0000   -0.0000   -0.0000    0.0000   -0.0000   -0.0000   -0.0000   -0.0000    0.0286    0.0000
       77 O3     4d1-       0.0000    0.0000    0.0000    0.0000   -0.0000   -0.0000   -0.0000   -0.0000    0.0045   -0.0000
       78 O3     3d0       -0.0003    0.0005    0.0005   -0.0104   -0.0092    0.0043   -0.0088    0.0146    0.0000   -0.0048
       79 O3     4d0       -0.0002    0.0004    0.0004   -0.0004   -0.0010   -0.0001   -0.0006    0.0009    0.0000   -0.0005
       80 O3     3d1+       0.0000    0.0000    0.0000    0.0000    0.0000   -0.0000   -0.0000    0.0000   -0.0147   -0.0000
       81 O3     4d1+       0.0000    0.0000    0.0000    0.0000    0.0000   -0.0000    0.0000   -0.0000   -0.0029   -0.0000
       82 O3     3d2+      -0.0005    0.0007    0.0008   -0.0141   -0.0076    0.0044   -0.0260    0.0112    0.0000   -0.0181
       83 O3     4d2+      -0.0003    0.0003    0.0004   -0.0019   -0.0011    0.0008   -0.0024    0.0006   -0.0000   -0.0029
       84 O3     4f3-      -0.0001    0.0000    0.0000   -0.0019   -0.0003   -0.0011   -0.0072   -0.0008    0.0000   -0.0056
       85 O3     4f2-      -0.0000    0.0000   -0.0000    0.0000    0.0000   -0.0000   -0.0000    0.0000   -0.0055   -0.0000
       86 O3     4f1-      -0.0000    0.0002    0.0001   -0.0031   -0.0028    0.0009   -0.0022    0.0033    0.0000   -0.0009
       87 O3     4f0       -0.0000    0.0000   -0.0000   -0.0000    0.0000    0.0000    0.0000    0.0000   -0.0038   -0.0000
       88 O3     4f1+       0.0000   -0.0001   -0.0001    0.0014    0.0015   -0.0008    0.0004   -0.0016   -0.0000    0.0012
       89 O3     4f2+      -0.0000   -0.0000    0.0000   -0.0000   -0.0000    0.0000    0.0000    0.0000   -0.0045   -0.0000
       90 O3     4f3+       0.0000   -0.0002   -0.0002    0.0054    0.0053   -0.0027    0.0019   -0.0070   -0.0000    0.0010
 
          Orbital           11        12        13        14        15        16        17        18        19        20    
          Energy           -0.5399   -0.4947   -0.0463    0.1748    0.1828    0.2360    0.2597    0.3482    0.3627    0.3800
          Occ. No.          2.0000    2.0000    0.0000    0.0000    0.0000    0.0000    0.0000    0.0000    0.0000    0.0000
 
        1 O1     1s         0.0046   -0.0000    0.0000   -0.1989   -0.1316    0.0000   -0.0075   -0.0197    0.0731    0.0000
        2 O1     2s         0.0273   -0.0000    0.0000   -1.4643   -0.9851    0.0000    0.0431   -0.0467    0.4075    0.0000
        3 O1     3s         0.0173   -0.0000    0.0000   -0.8513   -0.5461    0.0000   -0.1125   -0.0354    0.5744    0.0000
        4 O1     4s         0.0049    0.0000    0.0000   -0.1917   -0.1143    0.0000   -0.0376   -0.0022    0.1628    0.0000
        5 O1     2px        0.6581    0.0000   -0.0000    0.4326    0.2105   -0.0000   -0.1577   -0.2330    0.0068    0.0000
        6 O1     3px        0.0104    0.0000   -0.0000    0.4037    0.3059   -0.0000    0.2458   -0.7626    0.2666    0.0000
        7 O1     4px       -0.0047   -0.0000    0.0000    0.0412    0.0735   -0.0000    0.1350   -0.3030    0.1410    0.0000
        8 O1     2py       -0.0683    0.0000    0.0000    0.5521    0.8509   -0.0000   -0.4101   -0.2728   -0.0766   -0.0000
        9 O1     3py       -0.0155    0.0000   -0.0000    0.7119    0.6989   -0.0000   -0.2940   -0.1776   -0.7043   -0.0000
       10 O1     4py       -0.0009    0.0000   -0.0000    0.1119    0.0796   -0.0000   -0.1143   -0.0361   -0.1676   -0.0000
       11 O1     2pz        0.0000   -0.7033    0.6680    0.0000    0.0000   -0.1518   -0.0000    0.0000    0.0000   -0.1689
       12 O1     3pz       -0.0000   -0.0333    0.1655    0.0000    0.0000    0.3270   -0.0000    0.0000    0.0000   -0.9216
       13 O1     4pz       -0.0000    0.0067    0.0258    0.0000    0.0000    0.1910   -0.0000    0.0000    0.0000   -0.3704
       14 O1     3d2-      -0.0119   -0.0000    0.0000   -0.0755   -0.0456    0.0000   -0.0068   -0.0004    0.0328    0.0000
       15 O1     4d2-      -0.0013   -0.0000    0.0000   -0.0485   -0.0305    0.0000   -0.0022    0.0143    0.0199    0.0000
       16 O1     3d1-      -0.0000    0.0231    0.0086   -0.0000    0.0000    0.0127   -0.0000   -0.0000   -0.0000    0.0020
       17 O1     4d1-      -0.0000    0.0057    0.0002   -0.0000    0.0000    0.0042    0.0000   -0.0000   -0.0000    0.0097
       18 O1     3d0        0.0052    0.0000   -0.0000    0.0526    0.0436    0.0000    0.0165   -0.0062   -0.0392   -0.0000
       19 O1     4d0        0.0003    0.0000   -0.0000    0.0341    0.0291   -0.0000    0.0069   -0.0108   -0.0214   -0.0000
       20 O1     3d1+       0.0000    0.0113    0.0052   -0.0000   -0.0000    0.0038    0.0000   -0.0000   -0.0000    0.0151
       21 O1     4d1+      -0.0000    0.0027    0.0001    0.0000   -0.0000   -0.0003   -0.0000   -0.0000   -0.0000    0.0130
       22 O1     3d2+       0.0025    0.0000   -0.0000    0.0504    0.0508   -0.0000    0.0383    0.0023   -0.1000   -0.0000
       23 O1     4d2+      -0.0009   -0.0000   -0.0000    0.0296    0.0368   -0.0000    0.0138   -0.0007   -0.0608   -0.0000
       24 O1     4f3-       0.0016    0.0000    0.0000   -0.0028   -0.0008    0.0000    0.0024   -0.0037    0.0107    0.0000
       25 O1     4f2-       0.0000   -0.0041    0.0000    0.0000    0.0000    0.0020   -0.0000    0.0000    0.0000   -0.0056
       26 O1     4f1-      -0.0015   -0.0000    0.0000   -0.0057   -0.0046    0.0000   -0.0003    0.0053    0.0075    0.0000
       27 O1     4f0       -0.0000    0.0016    0.0015    0.0000    0.0000   -0.0016    0.0000    0.0000   -0.0000    0.0059
       28 O1     4f1+       0.0003    0.0000   -0.0000   -0.0018   -0.0028    0.0000   -0.0006    0.0048    0.0018    0.0000
       29 O1     4f2+      -0.0000    0.0033   -0.0006   -0.0000   -0.0000   -0.0010   -0.0000   -0.0000   -0.0000    0.0026
       30 O1     4f3+      -0.0033   -0.0000   -0.0000   -0.0089   -0.0053    0.0000    0.0017    0.0090    0.0068    0.0000
       31 O2     1s         0.0212    0.0000   -0.0000   -0.0000    0.3146   -0.0000   -0.0434   -0.0000   -0.1850   -0.0000
       32 O2     2s         0.2579    0.0000   -0.0000   -0.0000    2.2953   -0.0000   -0.4409   -0.0000   -1.0701   -0.0000
       33 O2     3s         0.0516    0.0000   -0.0000   -0.0000    1.2419   -0.0000   -0.0616   -0.0000   -0.7171   -0.0000
       34 O2     4s         0.0128    0.0000   -0.0000   -0.0000    0.2646   -0.0000   -0.0147   -0.0000   -0.1172   -0.0000
       35 O2     2px       -0.5078    0.0000   -0.0000   -0.0000    0.7539    0.0000   -0.3414   -0.0000   -0.2618   -0.0000
       36 O2     3px       -0.0069    0.0000   -0.0000   -0.0000    0.7650   -0.0000    0.2425   -0.0000   -0.8631   -0.0000
       37 O2     4px       -0.0018   -0.0000   -0.0000   -0.0000    0.1282   -0.0000    0.1403   -0.0000   -0.1373   -0.0000
       38 O2     2py        0.0000    0.0000   -0.0000    1.3964    0.0000    0.0000   -0.0000   -0.1251    0.0000   -0.0000
       39 O2     3py       -0.0000    0.0000   -0.0000    1.3702    0.0000    0.0000   -0.0000    0.4572   -0.0000   -0.0000
       40 O2     4py       -0.0000   -0.0000    0.0000    0.1399    0.0000    0.0000   -0.0000    0.2171   -0.0000    0.0000
       41 O2     2pz        0.0000    0.0000   -0.8647   -0.0000    0.0000    0.0101    0.0000    0.0000   -0.0000   -0.0000
       42 O2     3pz       -0.0000    0.0000   -0.1863   -0.0000    0.0000    0.3663    0.0000    0.0000   -0.0000   -0.0000
       43 O2     4pz       -0.0000   -0.0000   -0.0213   -0.0000    0.0000    0.2001    0.0000    0.0000   -0.0000   -0.0000
       44 O2     3d2-       0.0000    0.0000   -0.0000    0.1356    0.0000   -0.0000   -0.0000    0.0854    0.0000    0.0000
       45 O2     4d2-       0.0000    0.0000   -0.0000    0.0838    0.0000   -0.0000   -0.0000    0.0632   -0.0000    0.0000
       46 O2     3d1-       0.0000   -0.0592   -0.0000    0.0000   -0.0000    0.0000    0.0000   -0.0000   -0.0000    0.0994
       47 O2     4d1-       0.0000   -0.0139    0.0000    0.0000   -0.0000    0.0000    0.0000   -0.0000   -0.0000    0.0597
       48 O2     3d0        0.0188    0.0000   -0.0000    0.0000   -0.0675    0.0000   -0.0578    0.0000    0.1601    0.0000
       49 O2     4d0        0.0022    0.0000   -0.0000    0.0000   -0.0454    0.0000   -0.0285    0.0000    0.0814    0.0000
       50 O2     3d1+       0.0000    0.0000    0.0045    0.0000   -0.0000   -0.0270   -0.0000   -0.0000    0.0000   -0.0000
       51 O2     4d1+       0.0000   -0.0000    0.0011    0.0000   -0.0000   -0.0110   -0.0000   -0.0000    0.0000   -0.0000
       52 O2     3d2+       0.0398    0.0000   -0.0000    0.0000   -0.0536    0.0000   -0.0862    0.0000    0.0569    0.0000
       53 O2     4d2+       0.0083    0.0000   -0.0000    0.0000   -0.0313    0.0000   -0.0356    0.0000    0.0059    0.0000
       54 O2     4f3-       0.0000    0.0000    0.0000   -0.0072   -0.0000   -0.0000    0.0000    0.0020   -0.0000    0.0000
       55 O2     4f2-      -0.0000   -0.0080   -0.0000   -0.0000   -0.0000    0.0000    0.0000   -0.0000   -0.0000    0.0069
       56 O2     4f1-       0.0000    0.0000    0.0000   -0.0087   -0.0000    0.0000    0.0000   -0.0114    0.0000   -0.0000
       57 O2     4f0        0.0000    0.0000   -0.0020    0.0000    0.0000   -0.0021   -0.0000    0.0000    0.0000    0.0000
       58 O2     4f1+      -0.0005    0.0000   -0.0000    0.0000   -0.0049    0.0000   -0.0050    0.0000    0.0108    0.0000
       59 O2     4f2+       0.0000   -0.0000    0.0009   -0.0000    0.0000   -0.0018   -0.0000   -0.0000    0.0000    0.0000
       60 O2     4f3+       0.0053    0.0000   -0.0000    0.0000   -0.0107    0.0000   -0.0083    0.0000    0.0155    0.0000
       61 O3     1s         0.0046    0.0000   -0.0000    0.1989   -0.1316    0.0000   -0.0075    0.0197    0.0731    0.0000
       62 O3     2s         0.0273    0.0000   -0.0000    1.4643   -0.9851    0.0000    0.0431    0.0467    0.4075    0.0000
       63 O3     3s         0.0173    0.0000   -0.0000    0.8513   -0.5461    0.0000   -0.1125    0.0354    0.5744    0.0000
       64 O3     4s         0.0049    0.0000   -0.0000    0.1917   -0.1143    0.0000   -0.0376    0.0022    0.1628    0.0000
       65 O3     2px        0.6581    0.0000    0.0000   -0.4326    0.2105   -0.0000   -0.1577    0.2330    0.0068    0.0000
       66 O3     3px        0.0104   -0.0000    0.0000   -0.4037    0.3059   -0.0000    0.2458    0.7626    0.2666    0.0000
       67 O3     4px       -0.0047   -0.0000    0.0000   -0.0412    0.0735   -0.0000    0.1350    0.3030    0.1410    0.0000
       68 O3     2py        0.0683   -0.0000    0.0000    0.5521   -0.8509    0.0000    0.4101   -0.2728    0.0766    0.0000
       69 O3     3py        0.0155    0.0000   -0.0000    0.7119   -0.6989    0.0000    0.2940   -0.1776    0.7043    0.0000
       70 O3     4py        0.0009   -0.0000   -0.0000    0.1119   -0.0796    0.0000    0.1143   -0.0361    0.1676    0.0000
       71 O3     2pz       -0.0000    0.7033    0.6680    0.0000   -0.0000   -0.1518    0.0000   -0.0000   -0.0000    0.1689
       72 O3     3pz       -0.0000    0.0333    0.1655    0.0000   -0.0000    0.3270   -0.0000   -0.0000   -0.0000    0.9216
       73 O3     4pz       -0.0000   -0.0067    0.0258    0.0000    0.0000    0.1910   -0.0000   -0.0000   -0.0000    0.3704
       74 O3     3d2-       0.0119    0.0000    0.0000   -0.0755    0.0456   -0.0000    0.0068   -0.0004   -0.0328   -0.0000
       75 O3     4d2-       0.0013   -0.0000    0.0000   -0.0485    0.0305   -0.0000    0.0022    0.0143   -0.0199   -0.0000
       76 O3     3d1-      -0.0000    0.0231   -0.0086    0.0000   -0.0000   -0.0127   -0.0000   -0.0000    0.0000    0.0020
       77 O3     4d1-      -0.0000    0.0057   -0.0002    0.0000   -0.0000   -0.0042   -0.0000   -0.0000   -0.0000    0.0097
       78 O3     3d0        0.0052   -0.0000    0.0000   -0.0526    0.0436   -0.0000    0.0165    0.0062   -0.0392   -0.0000
       79 O3     4d0        0.0003   -0.0000    0.0000   -0.0341    0.0291   -0.0000    0.0069    0.0108   -0.0214   -0.0000
       80 O3     3d1+       0.0000   -0.0113    0.0052    0.0000    0.0000    0.0038   -0.0000    0.0000    0.0000   -0.0151
       81 O3     4d1+       0.0000   -0.0027    0.0001   -0.0000    0.0000   -0.0003   -0.0000    0.0000    0.0000   -0.0130
       82 O3     3d2+       0.0025   -0.0000    0.0000   -0.0504    0.0508   -0.0000    0.0383   -0.0023   -0.1000   -0.0000
       83 O3     4d2+      -0.0009   -0.0000    0.0000   -0.0296    0.0368   -0.0000    0.0138    0.0007   -0.0608   -0.0000
       84 O3     4f3-      -0.0016   -0.0000    0.0000   -0.0028    0.0008   -0.0000   -0.0024   -0.0037   -0.0107   -0.0000
       85 O3     4f2-       0.0000   -0.0041   -0.0000   -0.0000    0.0000   -0.0020   -0.0000    0.0000    0.0000   -0.0056
       86 O3     4f1-       0.0015    0.0000    0.0000   -0.0057    0.0046   -0.0000    0.0003    0.0053   -0.0075   -0.0000
       87 O3     4f0       -0.0000   -0.0016    0.0015    0.0000    0.0000   -0.0016   -0.0000    0.0000    0.0000   -0.0059
       88 O3     4f1+       0.0003   -0.0000   -0.0000    0.0018   -0.0028    0.0000   -0.0006   -0.0048    0.0018    0.0000
       89 O3     4f2+       0.0000   -0.0033   -0.0006   -0.0000    0.0000   -0.0010   -0.0000    0.0000    0.0000   -0.0026
       90 O3     4f3+      -0.0033   -0.0000    0.0000    0.0089   -0.0053    0.0000    0.0017   -0.0090    0.0068    0.0000
 
          Orbital           21    
          Energy            0.4226
          Occ. No.          0.0000
 
        1 O1     1s        -0.0045
        2 O1     2s        -0.0147
        3 O1     3s         0.1835
        4 O1     4s         0.0969
        5 O1     2px        0.3068
        6 O1     3px        0.7124
        7 O1     4px        0.1911
        8 O1     2py       -0.0699
        9 O1     3py        0.5120
       10 O1     4py        0.1768
       11 O1     2pz        0.0000
       12 O1     3pz        0.0000
       13 O1     4pz        0.0000
       14 O1     3d2-      -0.1153
       15 O1     4d2-      -0.0788
       16 O1     3d1-      -0.0000
       17 O1     4d1-      -0.0000
       18 O1     3d0        0.0351
       19 O1     4d0        0.0244
       20 O1     3d1+       0.0000
       21 O1     4d1+       0.0000
       22 O1     3d2+       0.0309
       23 O1     4d2+       0.0168
       24 O1     4f3-       0.0035
       25 O1     4f2-       0.0000
       26 O1     4f1-      -0.0060
       27 O1     4f0       -0.0000
       28 O1     4f1+      -0.0051
       29 O1     4f2+       0.0000
       30 O1     4f3+      -0.0137
       31 O2     1s         0.1172
       32 O2     2s         0.6112
       33 O2     3s         0.7579
       34 O2     4s         0.2050
       35 O2     2px       -0.5555
       36 O2     3px       -1.0374
       37 O2     4px       -0.3550
       38 O2     2py        0.0000
       39 O2     3py        0.0000
       40 O2     4py       -0.0000
       41 O2     2pz       -0.0000
       42 O2     3pz       -0.0000
       43 O2     4pz       -0.0000
       44 O2     3d2-       0.0000
       45 O2     4d2-       0.0000
       46 O2     3d1-       0.0000
       47 O2     4d1-       0.0000
       48 O2     3d0       -0.0500
       49 O2     4d0       -0.0091
       50 O2     3d1+       0.0000
       51 O2     4d1+       0.0000
       52 O2     3d2+      -0.0839
       53 O2     4d2+      -0.0396
       54 O2     4f3-      -0.0000
       55 O2     4f2-      -0.0000
       56 O2     4f1-      -0.0000
       57 O2     4f0        0.0000
       58 O2     4f1+       0.0045
       59 O2     4f2+       0.0000
       60 O2     4f3+       0.0031
       61 O3     1s        -0.0045
       62 O3     2s        -0.0147
       63 O3     3s         0.1835
       64 O3     4s         0.0969
       65 O3     2px        0.3068
       66 O3     3px        0.7124
       67 O3     4px        0.1911
       68 O3     2py        0.0699
       69 O3     3py       -0.5120
       70 O3     4py       -0.1768
       71 O3     2pz        0.0000
       72 O3     3pz        0.0000
       73 O3     4pz        0.0000
       74 O3     3d2-       0.1153
       75 O3     4d2-       0.0788
       76 O3     3d1-       0.0000
       77 O3     4d1-       0.0000
       78 O3     3d0        0.0351
       79 O3     4d0        0.0244
       80 O3     3d1+       0.0000
       81 O3     4d1+       0.0000
       82 O3     3d2+       0.0309
       83 O3     4d2+       0.0168
       84 O3     4f3-      -0.0035
       85 O3     4f2-      -0.0000
       86 O3     4f1-       0.0060
       87 O3     4f0       -0.0000
       88 O3     4f1+      -0.0051
       89 O3     4f2+      -0.0000
       90 O3     4f3+      -0.0137
--
 
 
++    Molecular charges:
      ------------------
 
      Mulliken charges per centre and basis function type
      ---------------------------------------------------
 
                O1      O2      O3    
      1s       1.9979  1.9982  1.9979
      2s       1.9460  1.7048  1.9460
      2px      1.7905  1.5677  1.7905
      2pz      1.3747  1.1646  1.3747
      2py      1.0322  1.0402  1.0322
      3s      -0.0016 -0.0247 -0.0016
      3px     -0.0120 -0.0182 -0.0120
      3pz     -0.0101 -0.0139 -0.0101
      3py      0.0038  0.0032  0.0038
      4s       0.0044  0.0023  0.0044
      3d2+     0.0139  0.0380  0.0139
      3d1+     0.0033  0.0077  0.0033
      3d0      0.0057  0.0075  0.0057
      3d1-     0.0120  0.0479  0.0120
      3d2-     0.0146  0.0415  0.0146
      4px      0.0006  0.0016  0.0006
      4pz      0.0013  0.0017  0.0013
      4py      0.0027  0.0031  0.0027
      4d2+     0.0007  0.0068  0.0007
      4d1+     0.0006  0.0010  0.0006
      4d0     -0.0000 -0.0002 -0.0000
      4d1-     0.0014  0.0122  0.0014
      4d2-     0.0005  0.0048  0.0005
      4f3+     0.0027  0.0029  0.0027
      4f2+     0.0008  0.0013  0.0008
      4f1+     0.0003  0.0005  0.0003
      4f0      0.0009  0.0016  0.0009
      4f1-     0.0010  0.0012  0.0010
      4f2-     0.0014  0.0037  0.0014
      4f3-     0.0022  0.0069  0.0022
      Total    8.1920  7.6160  8.1920
 
      N-E     -0.1920  0.3840 -0.1920
 
      Total electronic charge=   24.000000
 
      Total            charge=   -0.000000
--
 
 
  Input file to MOLDEN was generated!
 
 
++    Static properties:
      ------------------
 
 
      LoProp Charges per center
 

                   O1       O2       O3    
      Nuclear      8.0000   8.0000   8.0000
      Electronic  -8.2058  -7.5884  -8.2058
 
      Total       -0.2058   0.4116  -0.2058
--
 
 
++    Natural Bond Order analysis
      ---------------------------
      Based on LoProp computed density
      -------------------------------------------------------------------------------------
      Atom A       Atom B       Bond Order | Atom A       Atom B       Bond Order
        O1           O2             1.997  |   O2           O3             1.997
      -------------------------------------------------------------------------------------
      NBO located     11.998 core electrons.
      NBO located      3.936 lone pair electrons.
      NBO located      7.988 electrons involved in    2 bonds.
      The remaining    0.078 electrons are to be considered as diffuse
--
 
 
++    Molecular properties:
      ---------------------
 
      Charge (e):
                      =   -0.0000
      Dipole Moment (Debye):
      Origin of the operator (Ang)=    0.0000    0.0000    0.0000
                   X= -6.2414E-01               Y= -7.3198E-11               Z=  1.7843E-13           Total=  6.2414E-01
      Quadrupole Moment (Debye*Ang):
      Origin of the operator (Ang)=    0.3851    0.0000    0.0000
                  XX= -1.5981E+01              XY= -2.9034E-11              XZ=  4.7614E-14              YY= -1.7212E+01
                  YZ=  3.2604E-13              ZZ= -1.4912E+01
      In traceless form (Debye*Ang)
                  XX=  8.0535E-02              XY= -4.3551E-11              XZ=  7.1421E-14              YY= -1.7648E+00
                  YZ=  4.8905E-13              ZZ=  1.6842E+00
--
 
 
  Input file to MOLDEN was generated!
 
 ###############################################################################
 ###############################################################################
 ###                                                                         ###
 ###                                                                         ###
 ###    RunFile label nBas                                                   ###
 ###    was used       78 times                                              ###
 ###                                                                         ###
 ###                                                                         ###
 ###############################################################################
 ###############################################################################
--- Stop Module: scf at Fri Dec 20 11:26:20 2024 /rc=_RC_ALL_IS_WELL_ ---
*** files: ozone_126.25.LprOrb ozone_126.25.LoProp.molden ozone_126.25.scf.molden ozone_126.25.ScfOrb ozone_126.25.scf.h5 xmldump
    saved to directory /home/grierjones/DDCASPT2/ozone/ANO-RCC-VTZP/ozone_126.25

>>> COPY /tmp/ozone_126.25/ozone_126.25.scf.h5 /home/grierjones/DDCASPT2/ozone/ANO-RCC-VTZP/ozone_126.25/

*** symbolic link created: INPORB -> ozone_126.25.ScfOrb
--- Start Module: rasscf at Fri Dec 20 11:26:20 2024 ---
 
()()()()()()()()()()()()()()()()()()()()()()()()()()()()()()()()()()()()()()()()()()()()()()()()()()

                                              &RASSCF

                                   only a single process is used
                       available to each process: 2.0 GB of memory, 1 thread?
()()()()()()()()()()()()()()()()()()()()()()()()()()()()()()()()()()()()()()()()()()()()()()()()()()
 
 
 *************** WARNING ****************
 ###############################################################################
 ###############################################################################
 ###                                                                         ###
 ###                                                                         ###
 ###    Too many macro-iterations.                                           ###
 ###                                                                         ###
 ###                                                                         ###
 ###############################################################################
 ###############################################################################
 Too many macro-iterations requested.
 Reset to maximum, new MAXIT=     200
 ****************************************
 
 *************** WARNING ****************
 ###############################################################################
 ###############################################################################
 ###                                                                         ###
 ###                                                                         ###
 ###    Too many SX-iterations.                                              ###
 ###                                                                         ###
 ###                                                                         ###
 ###############################################################################
 ###############################################################################
 Too many SX-iterations requested.
 Reset to maximum, new ITMAX=     100
 ****************************************
 
      Header of the ONEINT file:
      --------------------------
      
      Integrals generated by seward 4.2.0  , Fri Dec 20 11:26:16 2024
 
 
      OrdInt status: non-squared
 
 
      Cartesian coordinates in Angstrom:
      -----------------------------------------------------
      No.  Label        X            Y            Z        
      -----------------------------------------------------
       1   O1         0.57771400   1.13996900   0.00000000
       2   O2         0.00000000   0.00000000   0.00000000
       3   O3         0.57771400  -1.13996900   0.00000000
      -----------------------------------------------------
      Nuclear repulsion energy =   67.85505517
 
++    Wave function specifications:
      -----------------------------
 
      Number of closed shell electrons          20
      Number of electrons in active shells       4
      Max number of holes in RAS1 space          0
      Max nr of electrons in RAS3 space          0
      Number of inactive orbitals               10
      Number of active orbitals                  3
      Number of secondary orbitals              77
      Spin quantum number                      0.0
      State symmetry                             1
--
 
++    Orbital specifications:
      -----------------------
 
      Symmetry species                           1
                                                 a
      Frozen orbitals                            0
      Inactive orbitals                         10
      Active orbitals                            3
      RAS1 orbitals                              0
      RAS2 orbitals                              3
      RAS3 orbitals                              0
      Secondary orbitals                        77
      Deleted orbitals                           0
      Number of basis functions                 90
--
 
++    CI expansion specifications:
      ----------------------------
 
      Number of CSFs                             6
      Number of determinants                     6
      Number of root(s) required                 1
      Root chosen for geometry opt.              1
      CI root used                               1
         
      highest root included in the CI            1
      max. size of the explicit Hamiltonian      6
--
 
++    Optimization specifications:
      ----------------------------
 
      RASSCF algorithm: Conventional
      Maximum number of macro iterations       200
      Maximum number of SX iterations          100
      Threshold for RASSCF energy            0.100E-07
      Threshold for max MO rotation          0.100E+00
      Threshold for max BLB element          0.100E-03
      Level shift parameter                  0.500E+00
      Make Quasi-Newton update
--
 
      The MO-coefficients are taken from the file:
      /home/grierjones/DDCASPT2/ozone/ANO-RCC-VTZP/ozone_126.00/ozone_126.00.RasOrb                                                   
      Title: RASSCF average (pseudo-natural) orbitals                                      
 
      Total molecular charge    0.00
 
      ************************************************************************************************************************
      *                                                                                                                      *
      *                                            Wave function control section                                             *
      *                                                                                                                      *
      ************************************************************************************************************************
 
 
                                         RASSCF iterations: Energy and convergence statistics
                                         ----------------------------------------------------
 
      Iter CI   SX   CI       RASSCF       Energy    max ROT     max BLB   max BLB  Level Ln srch  Step   QN   Walltime
          iter iter root      energy       change     param      element    value   shift minimum  type update hh:mm:ss
 Nr of preliminary CI iterations:   1
        1   1    3    1  -224.60166466    0.00E+00   0.48E-03    9  24 1 -0.12E-02*  0.18   0.00    SX    NO    0:00:00
        2   1    3    1  -224.60166950   -0.48E-05*  0.28E-03    9  24 1 -0.70E-03*  0.18   0.00    SX    NO    0:00:00
        3   1    3    1  -224.60167064   -0.11E-05*  0.16E-03    9  24 1 -0.42E-03*  0.18   0.00    SX    NO    0:00:00
        4   1    3    1  -224.60167103   -0.39E-06*  0.95E-04    9  24 1 -0.24E-03*  0.18   0.00    SX    NO    0:00:00
        5   1    3    1  -224.60167116   -0.13E-06*  0.14E-03    9  24 1 -0.15E-03*  0.18   2.50    LS   YES    0:00:00
        6   1    3    1  -224.60167123   -0.68E-07*  0.28E-04    8  24 1 -0.93E-04   0.18   0.92    QN   YES    0:00:00
        7   1    3    1  -224.60167125   -0.15E-07* -0.10E-04    8  24 1  0.50E-04   0.18   0.78    QN   YES    0:00:00
        8   1    2    1  -224.60167125   -0.11E-09   0.49E-05    8  24 1 -0.36E-04   0.18   0.44    QN   YES    0:00:00
      Convergence after  8 iterations
 
  Dmat in MO in SXCTL bf call to SXHAM                                                                                    
  mat. size =     3x    3
 
        1.9922607961997212
        0.0000000000007902      1.6381579303427500
       -0.0007175526507504     -0.0000000000012340      0.3695812734575262
        9   1    2    1  -224.60167125   -0.68E-09   0.49E-05   10  21 1  0.33E-05   0.18   0.44    QN   YES    0:00:00
 
      ************************************************************************************************************************
                                                      Wave function printout:
                       occupation of active orbitals, and spin coupling of open shells (u,d: Spin up or down)
      ************************************************************************************************************************
 
      Note: transformation to natural orbitals
      has been made, which may change the order of the CSFs.
 
      printout of CI-coefficients larger than  0.05 for root  1
      energy=    -224.601671
      conf/sym  111     Coeff  Weight
             1  220  -0.90289 0.81521
             3  202   0.42535 0.18092
             6  022   0.06220 0.00387
 
      Natural orbitals and occupation numbers for root  1
      sym 1:   1.992261   1.638158   0.369581
 
      ************************************************************************************************************************
      *                                                                                                                      *
      *                                                    Final results                                                     *
      *                                                                                                                      *
      ************************************************************************************************************************
 
 
++    Wave function specifications:
      -----------------------------
 
      Number of closed shell electrons          20
      Number of electrons in active shells       4
      Max number of holes in RAS1 space          0
      Max nr of electrons in RAS3 space          0
      Number of inactive orbitals               10
      Number of active orbitals                  3
      Number of secondary orbitals              77
      Spin quantum number                      0.0
      State symmetry                             1
--
 
++    Orbital specifications:
      -----------------------
 
      Symmetry species                           1
                                                 a
      Frozen orbitals                            0
      Inactive orbitals                         10
      Active orbitals                            3
      RAS1 orbitals                              0
      RAS2 orbitals                              3
      RAS3 orbitals                              0
      Secondary orbitals                        77
      Deleted orbitals                           0
      Number of basis functions                 90
--
 
++    CI expansion specifications:
      ----------------------------
 
      Number of CSFs                             6
      Number of determinants                     6
      Number of root(s) required                 1
      CI root used                               1
      highest root included in the CI            1
      Root passed to geometry opt.               1
--
 
++    Final optimization conditions:
      ------------------------------
 
      Average CI energy                            -224.60167125
      RASSCF energy for state  1                   -224.60167125
      Super-CI energy                                -0.00000000
      RASSCF energy change                           -0.00000000
      Max change in MO coefficients              -0.595E-05
      Max non-diagonal density matrix element     0.489E-05
      Maximum BLB matrix element                  0.328E-05
      (orbital pair  10,  21 in symmetry   1)
      Norm of electronic gradient            0.227E-04
--
 
 
      Final state energy(ies):
      ------------------------
 
::    RASSCF root number  1 Total energy:   -224.60167125
 
++    Molecular orbitals:
      -------------------
 
      Pseudonatural active orbitals and approximate occupation numbers
 
 
 
 
      Molecular orbitals for symmetry species 1: a  
 
 
      Orbital                1         2         3         4         5         6         7         8         9        10
      Energy          -20.8273  -20.7260  -20.7260   -1.7061   -1.4275   -1.0712   -0.7952   -0.7867   -0.5794   -0.5241
      Occ. No.          2.0000    2.0000    2.0000    2.0000    2.0000    2.0000    2.0000    2.0000    2.0000    2.0000
 
    1 O1     1s         0.0038   -0.7064    0.7063   -0.0132    0.0109    0.0124   -0.0089    0.0220    0.0071    0.0038
    2 O1     2s         0.0040    0.0049   -0.0052    0.3548   -0.5861    0.6130   -0.1801    0.3957    0.0632    0.0137
    3 O1     3s         0.0023    0.0036   -0.0037   -0.0114    0.0187    0.0215   -0.0171    0.0491    0.0173    0.0185
    4 O1     4s         0.0004    0.0007   -0.0007   -0.0011    0.0042    0.0032   -0.0036    0.0104    0.0041    0.0058
    5 O1     2px       -0.0010   -0.0012    0.0011   -0.0464    0.0554    0.1053    0.2426    0.3337   -0.5598    0.6470
    6 O1     3px       -0.0007   -0.0012    0.0010    0.0126   -0.0076   -0.0172   -0.0134   -0.0268   -0.0086    0.0153
    7 O1     4px        0.0000    0.0005   -0.0007    0.0023    0.0001    0.0003   -0.0016   -0.0026    0.0043   -0.0046
    8 O1     2py       -0.0024   -0.0020    0.0024   -0.1142    0.0721    0.1311   -0.3418    0.3042    0.4533   -0.0184
    9 O1     3py       -0.0014   -0.0021    0.0023    0.0155   -0.0153   -0.0210    0.0278   -0.0377   -0.0034   -0.0169
   10 O1     4py        0.0006    0.0014   -0.0014    0.0009   -0.0037    0.0009    0.0051   -0.0041   -0.0037   -0.0022
   11 O1     2pz       -0.0000    0.0000   -0.0000   -0.0000   -0.0000    0.0000   -0.0000   -0.0000    0.0000   -0.0000
   12 O1     3pz       -0.0000    0.0000   -0.0000    0.0000   -0.0000    0.0000   -0.0000    0.0000    0.0000   -0.0000
   13 O1     4pz        0.0000   -0.0000    0.0000   -0.0000   -0.0000   -0.0000    0.0000   -0.0000   -0.0000    0.0000
   14 O1     3d2-       0.0004    0.0009   -0.0009    0.0141   -0.0132   -0.0126   -0.0019   -0.0264    0.0011   -0.0106
   15 O1     4d2-       0.0001    0.0005   -0.0005    0.0013   -0.0015   -0.0009    0.0000   -0.0023    0.0007   -0.0009
   16 O1     3d1-       0.0000   -0.0000    0.0000    0.0000   -0.0000    0.0000   -0.0000   -0.0000   -0.0000   -0.0000
   17 O1     4d1-      -0.0000   -0.0000    0.0000   -0.0000   -0.0000   -0.0000    0.0000   -0.0000   -0.0000    0.0000
   18 O1     3d0       -0.0004   -0.0005    0.0005   -0.0114    0.0099    0.0049   -0.0083    0.0146    0.0054    0.0055
   19 O1     4d0       -0.0002   -0.0004    0.0004   -0.0007    0.0014   -0.0003   -0.0007    0.0008    0.0007    0.0003
   20 O1     3d1+       0.0000    0.0000    0.0000   -0.0000    0.0000   -0.0000    0.0000   -0.0000   -0.0000    0.0000
   21 O1     4d1+      -0.0000   -0.0000    0.0000    0.0000    0.0000   -0.0000   -0.0000   -0.0000   -0.0000   -0.0000
   22 O1     3d2+      -0.0005   -0.0007    0.0007   -0.0141    0.0074    0.0063   -0.0255    0.0117    0.0175    0.0055
   23 O1     4d2+      -0.0003   -0.0003    0.0004   -0.0018    0.0010    0.0009   -0.0025    0.0008    0.0026   -0.0002
   24 O1     4f3-       0.0001    0.0000   -0.0000    0.0020   -0.0004    0.0006    0.0071    0.0007   -0.0052    0.0007
   25 O1     4f2-      -0.0000    0.0000   -0.0000   -0.0000   -0.0000   -0.0000   -0.0000    0.0000    0.0000   -0.0000
   26 O1     4f1-       0.0001    0.0001   -0.0001    0.0032   -0.0029   -0.0008    0.0016   -0.0029   -0.0007   -0.0015
   27 O1     4f0       -0.0000   -0.0000   -0.0000   -0.0000    0.0000   -0.0000   -0.0000   -0.0000   -0.0000    0.0000
   28 O1     4f1+       0.0000    0.0001   -0.0001    0.0015   -0.0015   -0.0006    0.0004   -0.0013   -0.0015    0.0007
   29 O1     4f2+      -0.0000   -0.0000   -0.0000    0.0000   -0.0000    0.0000    0.0000    0.0000   -0.0000    0.0000
   30 O1     4f3+       0.0000    0.0002   -0.0002    0.0052   -0.0050   -0.0029    0.0012   -0.0068   -0.0010   -0.0032
   31 O2     1s         0.9989    0.0000   -0.0029   -0.0282    0.0000   -0.0150   -0.0101    0.0000   -0.0000    0.0258
   32 O2     2s        -0.0076   -0.0000    0.0107    0.5965   -0.0000   -0.6648   -0.1345    0.0000   -0.0000    0.3236
   33 O2     3s        -0.0055   -0.0000    0.0062   -0.0597   -0.0000   -0.0243   -0.0186    0.0000   -0.0000    0.0665
   34 O2     4s        -0.0011   -0.0000    0.0010   -0.0118   -0.0000   -0.0048   -0.0054    0.0000   -0.0000    0.0160
   35 O2     2px       -0.0014   -0.0000    0.0033    0.0947   -0.0000    0.1617    0.6200   -0.0000    0.0000   -0.5498
   36 O2     3px       -0.0022   -0.0000    0.0021   -0.0361   -0.0000   -0.0211   -0.0568    0.0000    0.0000   -0.0163
   37 O2     4px        0.0019    0.0000   -0.0007   -0.0042    0.0000    0.0019   -0.0104    0.0000   -0.0000   -0.0009
   38 O2     2py        0.0000   -0.0057   -0.0000    0.0000   -0.2997    0.0000   -0.0000   -0.5190   -0.1419   -0.0000
   39 O2     3py        0.0000   -0.0037   -0.0000    0.0000    0.0596   -0.0000    0.0000    0.0519   -0.0117   -0.0000
   40 O2     4py       -0.0000    0.0011    0.0000    0.0000   -0.0012    0.0000    0.0000    0.0096   -0.0009   -0.0000
   41 O2     2pz        0.0000   -0.0000    0.0000    0.0000    0.0000    0.0000   -0.0000   -0.0000   -0.0000    0.0000
   42 O2     3pz       -0.0000   -0.0000    0.0000    0.0000    0.0000    0.0000    0.0000   -0.0000   -0.0000    0.0000
   43 O2     4pz       -0.0000    0.0000   -0.0000   -0.0000    0.0000   -0.0000   -0.0000   -0.0000    0.0000   -0.0000
   44 O2     3d2-       0.0000   -0.0013   -0.0000   -0.0000   -0.0376    0.0000   -0.0000   -0.0306   -0.0413   -0.0000
   45 O2     4d2-       0.0000   -0.0006   -0.0000    0.0000   -0.0038   -0.0000    0.0000   -0.0032   -0.0069   -0.0000
   46 O2     3d1-      -0.0000   -0.0000    0.0000   -0.0000    0.0000    0.0000    0.0000   -0.0000   -0.0000   -0.0000
   47 O2     4d1-       0.0000   -0.0000    0.0000   -0.0000    0.0000    0.0000    0.0000   -0.0000   -0.0000   -0.0000
   48 O2     3d0        0.0009    0.0000   -0.0010   -0.0147    0.0000   -0.0058   -0.0157    0.0000   -0.0000    0.0225
   49 O2     4d0        0.0006    0.0000   -0.0005    0.0007    0.0000   -0.0006   -0.0013   -0.0000   -0.0000    0.0029
   50 O2     3d1+      -0.0000   -0.0000    0.0000    0.0000   -0.0000    0.0000    0.0000   -0.0000   -0.0000   -0.0000
   51 O2     4d1+       0.0000   -0.0000    0.0000    0.0000   -0.0000    0.0000    0.0000   -0.0000   -0.0000   -0.0000
   52 O2     3d2+       0.0006    0.0000   -0.0010   -0.0142   -0.0000    0.0011    0.0227   -0.0000   -0.0000    0.0337
   53 O2     4d2+       0.0003    0.0000   -0.0005   -0.0015   -0.0000    0.0004    0.0028   -0.0000   -0.0000    0.0062
   54 O2     4f3-      -0.0000    0.0000    0.0000   -0.0000    0.0020   -0.0000    0.0000    0.0050   -0.0085   -0.0000
   55 O2     4f2-       0.0000   -0.0000    0.0000    0.0000    0.0000   -0.0000    0.0000   -0.0000   -0.0000   -0.0000
   56 O2     4f1-      -0.0000    0.0001    0.0000    0.0000    0.0062   -0.0000    0.0000    0.0056    0.0014   -0.0000
   57 O2     4f0       -0.0000    0.0000   -0.0000   -0.0000    0.0000   -0.0000   -0.0000   -0.0000   -0.0000    0.0000
   58 O2     4f1+       0.0001    0.0000   -0.0001   -0.0031    0.0000   -0.0006   -0.0034    0.0000   -0.0000    0.0008
   59 O2     4f2+      -0.0000    0.0000    0.0000    0.0000   -0.0000   -0.0000    0.0000   -0.0000    0.0000    0.0000
   60 O2     4f3+       0.0002    0.0000   -0.0002   -0.0097   -0.0000   -0.0002   -0.0051    0.0000   -0.0000    0.0062
   61 O3     1s         0.0038    0.7064    0.7063   -0.0132   -0.0109    0.0124   -0.0089   -0.0220   -0.0071    0.0038
   62 O3     2s         0.0040   -0.0049   -0.0052    0.3548    0.5861    0.6130   -0.1801   -0.3957   -0.0632    0.0137
   63 O3     3s         0.0023   -0.0036   -0.0037   -0.0114   -0.0187    0.0215   -0.0171   -0.0491   -0.0173    0.0185
   64 O3     4s         0.0004   -0.0007   -0.0007   -0.0011   -0.0042    0.0032   -0.0036   -0.0104   -0.0041    0.0058
   65 O3     2px       -0.0010    0.0012    0.0011   -0.0464   -0.0554    0.1053    0.2426   -0.3337    0.5598    0.6470
   66 O3     3px       -0.0007    0.0012    0.0010    0.0126    0.0076   -0.0172   -0.0134    0.0268    0.0086    0.0153
   67 O3     4px        0.0000   -0.0005   -0.0007    0.0023   -0.0001    0.0003   -0.0016    0.0026   -0.0043   -0.0046
   68 O3     2py        0.0024   -0.0020   -0.0024    0.1142    0.0721   -0.1311    0.3418    0.3042    0.4533    0.0184
   69 O3     3py        0.0014   -0.0021   -0.0023   -0.0155   -0.0153    0.0210   -0.0278   -0.0377   -0.0034    0.0169
   70 O3     4py       -0.0006    0.0014    0.0014   -0.0009   -0.0037   -0.0009   -0.0051   -0.0041   -0.0037    0.0022
   71 O3     2pz       -0.0000   -0.0000    0.0000   -0.0000   -0.0000   -0.0000    0.0000    0.0000    0.0000    0.0000
   72 O3     3pz        0.0000    0.0000   -0.0000   -0.0000   -0.0000   -0.0000    0.0000    0.0000   -0.0000   -0.0000
   73 O3     4pz       -0.0000    0.0000   -0.0000    0.0000   -0.0000   -0.0000    0.0000    0.0000   -0.0000   -0.0000
   74 O3     3d2-      -0.0004    0.0009    0.0009   -0.0141   -0.0132    0.0126    0.0019   -0.0264    0.0011    0.0106
   75 O3     4d2-      -0.0001    0.0005    0.0005   -0.0013   -0.0015    0.0009   -0.0000   -0.0023    0.0007    0.0009
   76 O3     3d1-      -0.0000    0.0000   -0.0000   -0.0000    0.0000    0.0000   -0.0000   -0.0000    0.0000   -0.0000
   77 O3     4d1-      -0.0000    0.0000    0.0000   -0.0000   -0.0000    0.0000   -0.0000   -0.0000    0.0000   -0.0000
   78 O3     3d0       -0.0004    0.0005    0.0005   -0.0114   -0.0099    0.0049   -0.0083   -0.0146   -0.0054    0.0055
   79 O3     4d0       -0.0002    0.0004    0.0004   -0.0007   -0.0014   -0.0003   -0.0007   -0.0008   -0.0007    0.0003
   80 O3     3d1+       0.0000    0.0000    0.0000    0.0000   -0.0000    0.0000    0.0000    0.0000   -0.0000    0.0000
   81 O3     4d1+       0.0000   -0.0000   -0.0000    0.0000    0.0000    0.0000   -0.0000    0.0000   -0.0000   -0.0000
   82 O3     3d2+      -0.0005    0.0007    0.0007   -0.0141   -0.0074    0.0063   -0.0255   -0.0117   -0.0175    0.0055
   83 O3     4d2+      -0.0003    0.0003    0.0004   -0.0018   -0.0010    0.0009   -0.0025   -0.0008   -0.0026   -0.0002
   84 O3     4f3-      -0.0001    0.0000    0.0000   -0.0020   -0.0004   -0.0006   -0.0071    0.0007   -0.0052   -0.0007
   85 O3     4f2-       0.0000   -0.0000    0.0000   -0.0000    0.0000   -0.0000    0.0000    0.0000   -0.0000   -0.0000
   86 O3     4f1-      -0.0001    0.0001    0.0001   -0.0032   -0.0029    0.0008   -0.0016   -0.0029   -0.0007    0.0015
   87 O3     4f0        0.0000   -0.0000    0.0000    0.0000    0.0000   -0.0000    0.0000    0.0000    0.0000    0.0000
   88 O3     4f1+       0.0000   -0.0001   -0.0001    0.0015    0.0015   -0.0006    0.0004    0.0013    0.0015    0.0007
   89 O3     4f2+       0.0000   -0.0000    0.0000    0.0000    0.0000   -0.0000    0.0000    0.0000    0.0000   -0.0000
   90 O3     4f3+       0.0000   -0.0002   -0.0002    0.0052    0.0050   -0.0029    0.0012    0.0068    0.0010   -0.0032
 
 
      Orbital               11        12        13        14        15        16        17        18        19        20
      Energy            0.0000    0.0000    0.0000    0.1756    0.1899    0.2278    0.2666    0.3530    0.3725    0.3766
      Occ. No.          1.9923    1.6382    0.3696    0.0000    0.0000    0.0000    0.0000    0.0000    0.0000    0.0000
 
    1 O1     1s         0.0000    0.0000    0.0000   -0.1986   -0.1341    0.0000    0.0045   -0.0142    0.0737   -0.0000
    2 O1     2s         0.0000    0.0000    0.0000   -1.4595   -1.0020    0.0000    0.1159   -0.0205    0.4060   -0.0000
    3 O1     3s         0.0000    0.0000    0.0000   -0.8520   -0.5487    0.0000   -0.0444   -0.0101    0.5891   -0.0000
    4 O1     4s         0.0000    0.0000   -0.0000   -0.1919   -0.1129    0.0000   -0.0198    0.0031    0.1659   -0.0000
    5 O1     2px       -0.0000   -0.0000    0.0000    0.4223    0.2134    0.0000   -0.1369   -0.2277   -0.0285   -0.0000
    6 O1     3px       -0.0000   -0.0000   -0.0000    0.4120    0.3342    0.0000    0.2896   -0.8016    0.1644   -0.0000
    7 O1     4px        0.0000    0.0000    0.0000    0.0453    0.0823    0.0000    0.1541   -0.3156    0.1063   -0.0000
    8 O1     2py        0.0000    0.0000   -0.0000    0.5427    0.8431   -0.0000   -0.4252   -0.2366   -0.0490    0.0000
    9 O1     3py       -0.0000   -0.0000   -0.0000    0.7226    0.7115   -0.0000   -0.3729   -0.1625   -0.7119    0.0000
   10 O1     4py        0.0000    0.0000    0.0000    0.1160    0.0819   -0.0000   -0.1302   -0.0288   -0.1667    0.0000
   11 O1     2pz       -0.2678   -0.7054    0.6834   -0.0000    0.0000    0.0103    0.0000   -0.0000   -0.0000   -0.1940
   12 O1     3pz        0.0238    0.0028   -0.0576   -0.0000    0.0000    0.4117    0.0000   -0.0000   -0.0000   -0.9226
   13 O1     4pz        0.0050    0.0089   -0.0015   -0.0000    0.0000    0.2083    0.0000   -0.0000   -0.0000   -0.3696
   14 O1     3d2-       0.0000    0.0000    0.0000   -0.0767   -0.0489    0.0000   -0.0050    0.0047    0.0422   -0.0000
   15 O1     4d2-       0.0000    0.0000    0.0000   -0.0494   -0.0330    0.0000   -0.0012    0.0168    0.0260   -0.0000
   16 O1     3d1-       0.0272    0.0167    0.0094   -0.0000    0.0000    0.0077    0.0000    0.0000   -0.0000    0.0043
   17 O1     4d1-       0.0042    0.0031    0.0044   -0.0000    0.0000    0.0002    0.0000    0.0000    0.0000    0.0103
   18 O1     3d0       -0.0000   -0.0000   -0.0000    0.0535    0.0453   -0.0000    0.0119   -0.0100   -0.0449    0.0000
   19 O1     4d0       -0.0000   -0.0000   -0.0000    0.0350    0.0304   -0.0000    0.0040   -0.0125   -0.0243    0.0000
   20 O1     3d1+       0.0129    0.0077    0.0029    0.0000    0.0000    0.0041   -0.0000    0.0000    0.0000    0.0155
   21 O1     4d1+       0.0021    0.0012    0.0006    0.0000   -0.0000   -0.0005   -0.0000    0.0000    0.0000    0.0127
   22 O1     3d2+      -0.0000   -0.0000   -0.0000    0.0512    0.0505   -0.0000    0.0296    0.0010   -0.1083    0.0000
   23 O1     4d2+      -0.0000   -0.0000   -0.0000    0.0303    0.0368   -0.0000    0.0079   -0.0011   -0.0640    0.0000
   24 O1     4f3-       0.0000    0.0000   -0.0000   -0.0029   -0.0004    0.0000    0.0036   -0.0042    0.0102   -0.0000
   25 O1     4f2-      -0.0050   -0.0035    0.0004   -0.0000    0.0000    0.0024   -0.0000   -0.0000   -0.0000   -0.0060
   26 O1     4f1-       0.0000    0.0000   -0.0000   -0.0059   -0.0047    0.0000    0.0003    0.0053    0.0084   -0.0000
   27 O1     4f0        0.0037   -0.0009    0.0098    0.0000    0.0000   -0.0021    0.0000    0.0000    0.0000    0.0063
   28 O1     4f1+       0.0000   -0.0000    0.0000   -0.0019   -0.0031   -0.0000   -0.0007    0.0051    0.0024   -0.0000
   29 O1     4f2+       0.0043    0.0030   -0.0005    0.0000    0.0000   -0.0016   -0.0000    0.0000    0.0000    0.0029
   30 O1     4f3+       0.0000    0.0000    0.0000   -0.0091   -0.0055    0.0000    0.0020    0.0092    0.0083   -0.0000
   31 O2     1s        -0.0000   -0.0000   -0.0000   -0.0000    0.3191   -0.0000   -0.0640   -0.0000   -0.1963    0.0000
   32 O2     2s        -0.0000   -0.0000   -0.0000   -0.0000    2.3284   -0.0000   -0.5733   -0.0000   -1.1179    0.0000
   33 O2     3s        -0.0000    0.0000   -0.0000   -0.0000    1.2847   -0.0000   -0.1558   -0.0000   -0.7844    0.0000
   34 O2     4s        -0.0000    0.0000   -0.0000   -0.0000    0.2749   -0.0000   -0.0310   -0.0000   -0.1340    0.0000
   35 O2     2px       -0.0000    0.0000   -0.0000   -0.0000    0.7506   -0.0000   -0.4270   -0.0000   -0.1497    0.0000
   36 O2     3px       -0.0000   -0.0000   -0.0000   -0.0000    0.7398   -0.0000    0.0952   -0.0000   -0.7696    0.0000
   37 O2     4px        0.0000    0.0000   -0.0000   -0.0000    0.1174   -0.0000    0.1157   -0.0000   -0.1193    0.0000
   38 O2     2py        0.0000   -0.0000    0.0000    1.3800    0.0000    0.0000   -0.0000   -0.1288    0.0000   -0.0000
[...]

                                               &MOTRA

                                   only a single process is used
                       available to each process: 2.0 GB of memory, 1 thread?
()()()()()()()()()()()()()()()()()()()()()()()()()()()()()()()()()()()()()()()()()()()()()()()()()()
 
 
      *** WARNING: Default frozen orbitals is overwritten by user input.
      *** Default values:   3
 
      Header of the integral files:
      
       Integrals generated by seward 4.2.0  , Fri Dec 20 11:26:16 2024
 
 
      Header of MO coefficients source file:
      * RASSCF average (pseudo-natural) orbitals                                      
 
 
      Cartesian coordinates in Angstrom:
      -----------------------------------------------------
      No.  Label        X            Y            Z        
      -----------------------------------------------------
       1   O1         0.57771400   1.13996900   0.00000000
       2   O2         0.00000000   0.00000000   0.00000000
       3   O3         0.57771400  -1.13996900   0.00000000
      -----------------------------------------------------
      Nuclear repulsion energy =   67.85505517
 
      Orbital specifications:
      -----------------------
 
      Symmetry species:              1
      Number of basis functions:    90
      Frozen orbitals:               0
      Deleted orbitals:              0
      Number of orbitals used:      90

       SYMMETRY  BASIS FUNCTIONS       ORBITALS      INTEGRALS   CPU(SEC)  I/O(SEC)
 
        1 1 1 1   90  90  90  90    90  90  90  90     8386560       0.00      0.00

       TOTAL CPU TIME(SEC)    4.58TOTAL I/O TIME(SEC)   11.53
 
--- Stop Module: motra at Fri Dec 20 11:26:32 2024 /rc=_RC_ALL_IS_WELL_ ---
*** files: xmldump
    saved to directory /home/grierjones/DDCASPT2/ozone/ANO-RCC-VTZP/ozone_126.25
--- Module motra spent 11 seconds ---

>>> COPY /tmp/ozone_126.25/GMJ_one_int_indx.csv /home/grierjones/DDCASPT2/ozone/ANO-RCC-VTZP/ozone_126.25/ozone_126.25.GMJ_one_int_indx.csv

>>> COPY /tmp/ozone_126.25/GMJ_one_int.csv /home/grierjones/DDCASPT2/ozone/ANO-RCC-VTZP/ozone_126.25/ozone_126.25.GMJ_one_int.csv

>>> COPY /tmp/ozone_126.25/GMJ_two_int_indx.csv /home/grierjones/DDCASPT2/ozone/ANO-RCC-VTZP/ozone_126.25/ozone_126.25.GMJ_two_int_indx.csv

>>> COPY /tmp/ozone_126.25/GMJ_two_int.csv /home/grierjones/DDCASPT2/ozone/ANO-RCC-VTZP/ozone_126.25/ozone_126.25.GMJ_two_int.csv

*** symbolic link created: INPORB -> ozone_126.25.RasOrb
--- Start Module: caspt2 at Fri Dec 20 11:26:33 2024 ---
 
()()()()()()()()()()()()()()()()()()()()()()()()()()()()()()()()()()()()()()()()()()()()()()()()()()

                                              &CASPT2

                                   only a single process is used
                       available to each process: 2.0 GB of memory, 1 thread?
()()()()()()()()()()()()()()()()()()()()()()()()()()()()()()()()()()()()()()()()()()()()()()()()()()
 
 Cholesky algorithm in CASPT2 =    1
 
 ###############################################################################
 ###############################################################################
 ###                                                                         ###
 ###                                                                         ###
 ###    User changed nr of frozen orbitals.                                  ###
 ###                                                                         ###
 ###                                                                         ###
 ###############################################################################
 ###############################################################################
 
++    Wave function specifications:
      -----------------------------
 
      Number of closed shell electrons          20
      Number of electrons in active shells       4
      Max number of holes in RAS1 space          0
      Max number of electrons in RAS3 space      0
      Number of inactive orbitals               10
      Number of active orbitals                  3
      Number of secondary orbitals              77
      Spin quantum number                      0.0
      State symmetry                             1
      Number of CSFs                             6
      Number of root(s) available                1
      Root passed to geometry opt.               1
      A file JOBMIX will be created.
      This is a CASSCF or RASSCF reference function
--
 
++    Orbital specifications:
      -----------------------
 
      Symmetry species                           1
                                                 a
      Frozen orbitals                            0
      Inactive orbitals                         10
      Active orbitals                            3
      Secondary orbitals                        77
      Deleted orbitals                           0
      Number of basis functions                 90
--
 
      Type of Fock operator: STANDARD
      Type of 0-order Hamiltonian: STANDARD WITH DEFAULT IPEA
        "IP-EA" denominator shift =      0.25
      The input orbitals and the CI vector will be transformed.
 
--------------------------------------------------------------------------------
 Estimated memory requirements:
  POLY3 :                   250202
  RHS:                      446386
  SIGMA :                   610360
  PRPCTL:                        0
 Available workspace:    230385072
 
++ CASPT2 computation for group   1
 
********************************************************************************
 Multi-State initialization phase begins for group   1
--------------------------------------------------------------------------------
********************************************************************************
 Compute H0 matrices for state    1
--------------------------------------------------------------------------------
--------------------------------------------------------------------------------
 H0 matrices have been computed.
 
********************************************************************************
  CASPT2 EQUATION SOLUTION
--------------------------------------------------------------------------------
 
  Total nr of CASPT2 parameters:
   Before reduction:      541275
   After  reduction:      532232
 
 The contributions to the second order correlation energy in atomic units.
-----------------------------------------------------------------------------------------------------------------------------
  IT.      VJTU        VJTI        ATVX        AIVX        VJAI        BVAT        BJAT        BJAI        TOTAL       RNORM  
-----------------------------------------------------------------------------------------------------------------------------
   1    -0.000000   -0.001223   -0.012818   -0.094352   -0.019024   -0.023421   -0.174829   -0.366032   -0.691699    0.002823
   2    -0.000000   -0.001243   -0.012874   -0.094748   -0.019048   -0.023429   -0.174890   -0.366037   -0.692269    0.000238
   3    -0.000000   -0.001244   -0.012875   -0.094753   -0.019049   -0.023429   -0.174891   -0.366037   -0.692277    0.000028
   4    -0.000000   -0.001244   -0.012874   -0.094751   -0.019049   -0.023429   -0.174890   -0.366037   -0.692274    0.000004
-------------------------------------------------------------------------------------------------------------------
 
  FINAL CASPT2 RESULT:
 
  Correlation energy /Case, /Symm, and sums:
 VJTU     -0.00000000 -0.00000000
 VJTIP    -0.00124391 -0.00124391
 VJTIM     0.00000000  0.00000000
 ATVX     -0.01287428 -0.01287428
 AIVX     -0.09475112 -0.09475112
 VJAIP    -0.01340611 -0.01340611
 VJAIM    -0.00564246 -0.00564246
 BVATP    -0.02195230 -0.02195230
 BVATM    -0.00147644 -0.00147644
 BJATP    -0.07175087 -0.07175087
 BJATM    -0.10313920 -0.10313920
 BJAIP    -0.25200529 -0.25200529
 BJAIM    -0.11403181 -0.11403181
 Summed:  -0.69227379 -0.69227379
 
      Reference energy:        -224.6016712469
      E2 (Non-variational):      -0.6922737928
      E2 (Variational):          -0.6922738316
      Total energy:            -225.2939450785
      Residual norm:              0.0000004044
      Reference weight:           0.84960
 
      Contributions to the CASPT2 correlation energy
      Active & Virtual Only:         -0.0363030152
      One Inactive Excited:          -0.2696411916
      Two Inactive Excited:          -0.3863295861
 
 
++ Denominators, etc.
----------------------------------------------------------------------------------------------------
 Report on small energy denominators, large coefficients, and large energy contributions.
CASE  SYMM ACTIVE-MIX  NON-ACTIVE INDICES          DENOMINATOR     RHS VALUE       COEFFICIENT     CONTRIBUTION
ATVX     1  Mu1.0005  Se1.020                       1.48492749     -0.05658202      0.03733625     -0.00211256
ATVX     1  Mu1.0005  Se1.043                       3.03251156      0.08413722     -0.02721191     -0.00228953
AIVX     1  Mu1.0002  In1.009 Se1.015               1.05140314      0.03311127     -0.03067836     -0.00101580
AIVX     1  Mu1.0004  In1.007 Se1.017               1.66258440     -0.04523380      0.02792526     -0.00126317
AIVX     1  Mu1.0002  In1.008 Se1.017               1.33542105     -0.04946909      0.03633069     -0.00179725
AIVX     1  Mu1.0004  In1.010 Se1.017               1.39144839      0.03649362     -0.02642416     -0.00096431
AIVX     1  Mu1.0004  In1.007 Se1.019               1.76848960      0.06778891     -0.03896887     -0.00264166
AIVX     1  Mu1.0002  In1.008 Se1.019               1.44132624      0.03742487     -0.02548605     -0.00095381
AIVX     1  Mu1.0002  In1.009 Se1.019               1.23400420      0.06198945     -0.04882725     -0.00302677
AIVX     1  Mu1.0003  In1.009 Se1.019               1.31958284     -0.04365387      0.03239602     -0.00141421
AIVX     1  Mu1.0002  In1.008 Se1.021               1.49624535     -0.04886805      0.03170066     -0.00154915
AIVX     1  Mu1.0004  In1.008 Se1.024               1.89552096      0.11281017     -0.06041523     -0.00681545
AIVX     1  Mu1.0006  In1.008 Se1.024               2.06345310     -0.06914518      0.03391743     -0.00234523
AIVX     1  Mu1.0002  In1.010 Se1.024               1.31416228     -0.07034532      0.05241610     -0.00368723
AIVX     1  Mu1.0003  In1.010 Se1.024               1.39974091      0.04622355     -0.03231610     -0.00149377
BJAIP    1  Se1.024 In1.008 Se1.024 In1.008         2.58936988      0.10254730     -0.03960317     -0.00406120
BJAIP    1  Se1.017 In1.008 Se1.024 In1.010         2.08529731      0.05649351     -0.02709134     -0.00153049
BJAIP    1  Se1.024 In1.010 Se1.024 In1.010         2.06403854      0.05649323     -0.02737024     -0.00154623
BJAIM    1  Se1.019 In1.007 Se1.023 In1.008         2.46233852      0.06351020     -0.02579262     -0.00163809
--
 
   (Skipping property calculation,
    use PROP keyword to activate)
--
 
  Total CASPT2 energies:
::    CASPT2 Root  1     Total energy:   -225.29394508
 
  A NEW JOBIPH FILE NAMED 'JOBMIX' IS PREPARED.
********************************************************************************
--- Stop Module: caspt2 at Fri Dec 20 11:26:34 2024 /rc=_RC_ALL_IS_WELL_ ---
*** files: xmldump
    saved to directory /home/grierjones/DDCASPT2/ozone/ANO-RCC-VTZP/ozone_126.25
--- Module caspt2 spent 1 second ---

>>> EXPORT i = B

>>> EXPORT j = P

>>> IF (-FILE GMJ_e2_${i}_${j}.csv)

>>> COPY /tmp/ozone_126.25/GMJ_RHS_B_P.csv /home/grierjones/DDCASPT2/ozone/ANO-RCC-VTZP/ozone_126.25/GMJ_RHS_B_P.csv

>>> COPY /tmp/ozone_126.25/GMJ_IVECW_B_P.csv /home/grierjones/DDCASPT2/ozone/ANO-RCC-VTZP/ozone_126.25/GMJ_IVECW_B_P.csv

>>> COPY /tmp/ozone_126.25/GMJ_IVECX_B_P.csv /home/grierjones/DDCASPT2/ozone/ANO-RCC-VTZP/ozone_126.25/GMJ_IVECX_B_P.csv

>>> COPY /tmp/ozone_126.25/GMJ_IVECC2_B_P.csv /home/grierjones/DDCASPT2/ozone/ANO-RCC-VTZP/ozone_126.25/GMJ_IVECC2_B_P.csv

>>> COPY /tmp/ozone_126.25/GMJ_e2_B_P.csv /home/grierjones/DDCASPT2/ozone/ANO-RCC-VTZP/ozone_126.25/GMJ_e2_B_P.csv

>>> END FOREACH

>>> EXPORT j = M

>>> IF (-FILE GMJ_e2_${i}_${j}.csv)
(Skipped)

>>> END FOREACH

>>> END FOREACH

>>> EXPORT i = E

>>> EXPORT j = P

>>> IF (-FILE GMJ_e2_${i}_${j}.csv)

>>> COPY /tmp/ozone_126.25/GMJ_RHS_E_P.csv /home/grierjones/DDCASPT2/ozone/ANO-RCC-VTZP/ozone_126.25/GMJ_RHS_E_P.csv

>>> COPY /tmp/ozone_126.25/GMJ_IVECW_E_P.csv /home/grierjones/DDCASPT2/ozone/ANO-RCC-VTZP/ozone_126.25/GMJ_IVECW_E_P.csv

>>> COPY /tmp/ozone_126.25/GMJ_IVECX_E_P.csv /home/grierjones/DDCASPT2/ozone/ANO-RCC-VTZP/ozone_126.25/GMJ_IVECX_E_P.csv

>>> COPY /tmp/ozone_126.25/GMJ_IVECC2_E_P.csv /home/grierjones/DDCASPT2/ozone/ANO-RCC-VTZP/ozone_126.25/GMJ_IVECC2_E_P.csv

>>> COPY /tmp/ozone_126.25/GMJ_e2_E_P.csv /home/grierjones/DDCASPT2/ozone/ANO-RCC-VTZP/ozone_126.25/GMJ_e2_E_P.csv

>>> END FOREACH

>>> EXPORT j = M

>>> IF (-FILE GMJ_e2_${i}_${j}.csv)

>>> COPY /tmp/ozone_126.25/GMJ_RHS_E_M.csv /home/grierjones/DDCASPT2/ozone/ANO-RCC-VTZP/ozone_126.25/GMJ_RHS_E_M.csv

>>> COPY /tmp/ozone_126.25/GMJ_IVECW_E_M.csv /home/grierjones/DDCASPT2/ozone/ANO-RCC-VTZP/ozone_126.25/GMJ_IVECW_E_M.csv

>>> COPY /tmp/ozone_126.25/GMJ_IVECX_E_M.csv /home/grierjones/DDCASPT2/ozone/ANO-RCC-VTZP/ozone_126.25/GMJ_IVECX_E_M.csv

>>> COPY /tmp/ozone_126.25/GMJ_IVECC2_E_M.csv /home/grierjones/DDCASPT2/ozone/ANO-RCC-VTZP/ozone_126.25/GMJ_IVECC2_E_M.csv

>>> COPY /tmp/ozone_126.25/GMJ_e2_E_M.csv /home/grierjones/DDCASPT2/ozone/ANO-RCC-VTZP/ozone_126.25/GMJ_e2_E_M.csv

>>> END FOREACH

>>> END FOREACH

>>> EXPORT i = F

>>> EXPORT j = P

>>> IF (-FILE GMJ_e2_${i}_${j}.csv)

>>> COPY /tmp/ozone_126.25/GMJ_RHS_F_P.csv /home/grierjones/DDCASPT2/ozone/ANO-RCC-VTZP/ozone_126.25/GMJ_RHS_F_P.csv

>>> COPY /tmp/ozone_126.25/GMJ_IVECW_F_P.csv /home/grierjones/DDCASPT2/ozone/ANO-RCC-VTZP/ozone_126.25/GMJ_IVECW_F_P.csv

>>> COPY /tmp/ozone_126.25/GMJ_IVECX_F_P.csv /home/grierjones/DDCASPT2/ozone/ANO-RCC-VTZP/ozone_126.25/GMJ_IVECX_F_P.csv

>>> COPY /tmp/ozone_126.25/GMJ_IVECC2_F_P.csv /home/grierjones/DDCASPT2/ozone/ANO-RCC-VTZP/ozone_126.25/GMJ_IVECC2_F_P.csv

>>> COPY /tmp/ozone_126.25/GMJ_e2_F_P.csv /home/grierjones/DDCASPT2/ozone/ANO-RCC-VTZP/ozone_126.25/GMJ_e2_F_P.csv

>>> END FOREACH

>>> EXPORT j = M

>>> IF (-FILE GMJ_e2_${i}_${j}.csv)

>>> COPY /tmp/ozone_126.25/GMJ_RHS_F_M.csv /home/grierjones/DDCASPT2/ozone/ANO-RCC-VTZP/ozone_126.25/GMJ_RHS_F_M.csv

>>> COPY /tmp/ozone_126.25/GMJ_IVECW_F_M.csv /home/grierjones/DDCASPT2/ozone/ANO-RCC-VTZP/ozone_126.25/GMJ_IVECW_F_M.csv

>>> COPY /tmp/ozone_126.25/GMJ_IVECX_F_M.csv /home/grierjones/DDCASPT2/ozone/ANO-RCC-VTZP/ozone_126.25/GMJ_IVECX_F_M.csv

>>> COPY /tmp/ozone_126.25/GMJ_IVECC2_F_M.csv /home/grierjones/DDCASPT2/ozone/ANO-RCC-VTZP/ozone_126.25/GMJ_IVECC2_F_M.csv

>>> COPY /tmp/ozone_126.25/GMJ_e2_F_M.csv /home/grierjones/DDCASPT2/ozone/ANO-RCC-VTZP/ozone_126.25/GMJ_e2_F_M.csv

>>> END FOREACH

>>> END FOREACH

>>> EXPORT i = G

>>> EXPORT j = P

>>> IF (-FILE GMJ_e2_${i}_${j}.csv)

>>> COPY /tmp/ozone_126.25/GMJ_RHS_G_P.csv /home/grierjones/DDCASPT2/ozone/ANO-RCC-VTZP/ozone_126.25/GMJ_RHS_G_P.csv

>>> COPY /tmp/ozone_126.25/GMJ_IVECW_G_P.csv /home/grierjones/DDCASPT2/ozone/ANO-RCC-VTZP/ozone_126.25/GMJ_IVECW_G_P.csv

>>> COPY /tmp/ozone_126.25/GMJ_IVECX_G_P.csv /home/grierjones/DDCASPT2/ozone/ANO-RCC-VTZP/ozone_126.25/GMJ_IVECX_G_P.csv

>>> COPY /tmp/ozone_126.25/GMJ_IVECC2_G_P.csv /home/grierjones/DDCASPT2/ozone/ANO-RCC-VTZP/ozone_126.25/GMJ_IVECC2_G_P.csv

>>> COPY /tmp/ozone_126.25/GMJ_e2_G_P.csv /home/grierjones/DDCASPT2/ozone/ANO-RCC-VTZP/ozone_126.25/GMJ_e2_G_P.csv

>>> END FOREACH

>>> EXPORT j = M

>>> IF (-FILE GMJ_e2_${i}_${j}.csv)

>>> COPY /tmp/ozone_126.25/GMJ_RHS_G_M.csv /home/grierjones/DDCASPT2/ozone/ANO-RCC-VTZP/ozone_126.25/GMJ_RHS_G_M.csv

>>> COPY /tmp/ozone_126.25/GMJ_IVECW_G_M.csv /home/grierjones/DDCASPT2/ozone/ANO-RCC-VTZP/ozone_126.25/GMJ_IVECW_G_M.csv

>>> COPY /tmp/ozone_126.25/GMJ_IVECX_G_M.csv /home/grierjones/DDCASPT2/ozone/ANO-RCC-VTZP/ozone_126.25/GMJ_IVECX_G_M.csv

>>> COPY /tmp/ozone_126.25/GMJ_IVECC2_G_M.csv /home/grierjones/DDCASPT2/ozone/ANO-RCC-VTZP/ozone_126.25/GMJ_IVECC2_G_M.csv

>>> COPY /tmp/ozone_126.25/GMJ_e2_G_M.csv /home/grierjones/DDCASPT2/ozone/ANO-RCC-VTZP/ozone_126.25/GMJ_e2_G_M.csv

>>> END FOREACH

>>> END FOREACH

>>> EXPORT i = H

>>> EXPORT j = P

>>> IF (-FILE GMJ_e2_${i}_${j}.csv)

>>> COPY /tmp/ozone_126.25/GMJ_RHS_H_P.csv /home/grierjones/DDCASPT2/ozone/ANO-RCC-VTZP/ozone_126.25/GMJ_RHS_H_P.csv

>>> COPY /tmp/ozone_126.25/GMJ_IVECW_H_P.csv /home/grierjones/DDCASPT2/ozone/ANO-RCC-VTZP/ozone_126.25/GMJ_IVECW_H_P.csv

>>> COPY /tmp/ozone_126.25/GMJ_IVECX_H_P.csv /home/grierjones/DDCASPT2/ozone/ANO-RCC-VTZP/ozone_126.25/GMJ_IVECX_H_P.csv

>>> COPY /tmp/ozone_126.25/GMJ_IVECC2_H_P.csv /home/grierjones/DDCASPT2/ozone/ANO-RCC-VTZP/ozone_126.25/GMJ_IVECC2_H_P.csv

>>> COPY /tmp/ozone_126.25/GMJ_e2_H_P.csv /home/grierjones/DDCASPT2/ozone/ANO-RCC-VTZP/ozone_126.25/GMJ_e2_H_P.csv

>>> END FOREACH

>>> EXPORT j = M

>>> IF (-FILE GMJ_e2_${i}_${j}.csv)

>>> COPY /tmp/ozone_126.25/GMJ_RHS_H_M.csv /home/grierjones/DDCASPT2/ozone/ANO-RCC-VTZP/ozone_126.25/GMJ_RHS_H_M.csv

>>> COPY /tmp/ozone_126.25/GMJ_IVECW_H_M.csv /home/grierjones/DDCASPT2/ozone/ANO-RCC-VTZP/ozone_126.25/GMJ_IVECW_H_M.csv

>>> COPY /tmp/ozone_126.25/GMJ_IVECX_H_M.csv /home/grierjones/DDCASPT2/ozone/ANO-RCC-VTZP/ozone_126.25/GMJ_IVECX_H_M.csv

>>> COPY /tmp/ozone_126.25/GMJ_IVECC2_H_M.csv /home/grierjones/DDCASPT2/ozone/ANO-RCC-VTZP/ozone_126.25/GMJ_IVECC2_H_M.csv

>>> COPY /tmp/ozone_126.25/GMJ_e2_H_M.csv /home/grierjones/DDCASPT2/ozone/ANO-RCC-VTZP/ozone_126.25/GMJ_e2_H_M.csv

>>> END FOREACH

>>> END FOREACH

>>> EXPORT i = A

>>> IF (-FILE GMJ_e2_$i.csv)

>>> COPY /tmp/ozone_126.25/GMJ_RHS_A.csv /home/grierjones/DDCASPT2/ozone/ANO-RCC-VTZP/ozone_126.25/GMJ_RHS_A.csv

>>> COPY /tmp/ozone_126.25/GMJ_IVECW_A.csv /home/grierjones/DDCASPT2/ozone/ANO-RCC-VTZP/ozone_126.25/GMJ_IVECW_A.csv

>>> COPY /tmp/ozone_126.25/GMJ_IVECX_A.csv /home/grierjones/DDCASPT2/ozone/ANO-RCC-VTZP/ozone_126.25/GMJ_IVECX_A.csv

>>> COPY /tmp/ozone_126.25/GMJ_IVECC2_A.csv /home/grierjones/DDCASPT2/ozone/ANO-RCC-VTZP/ozone_126.25/GMJ_IVECC2_A.csv

>>> COPY /tmp/ozone_126.25/GMJ_e2_A.csv /home/grierjones/DDCASPT2/ozone/ANO-RCC-VTZP/ozone_126.25/GMJ_e2_A.csv

>>> END FOREACH

>>> EXPORT i = C

>>> IF (-FILE GMJ_e2_$i.csv)

>>> COPY /tmp/ozone_126.25/GMJ_RHS_C.csv /home/grierjones/DDCASPT2/ozone/ANO-RCC-VTZP/ozone_126.25/GMJ_RHS_C.csv

>>> COPY /tmp/ozone_126.25/GMJ_IVECW_C.csv /home/grierjones/DDCASPT2/ozone/ANO-RCC-VTZP/ozone_126.25/GMJ_IVECW_C.csv

>>> COPY /tmp/ozone_126.25/GMJ_IVECX_C.csv /home/grierjones/DDCASPT2/ozone/ANO-RCC-VTZP/ozone_126.25/GMJ_IVECX_C.csv

>>> COPY /tmp/ozone_126.25/GMJ_IVECC2_C.csv /home/grierjones/DDCASPT2/ozone/ANO-RCC-VTZP/ozone_126.25/GMJ_IVECC2_C.csv

>>> COPY /tmp/ozone_126.25/GMJ_e2_C.csv /home/grierjones/DDCASPT2/ozone/ANO-RCC-VTZP/ozone_126.25/GMJ_e2_C.csv

>>> END FOREACH

>>> EXPORT i = D

>>> IF (-FILE GMJ_e2_$i.csv)

>>> COPY /tmp/ozone_126.25/GMJ_RHS_D.csv /home/grierjones/DDCASPT2/ozone/ANO-RCC-VTZP/ozone_126.25/GMJ_RHS_D.csv

>>> COPY /tmp/ozone_126.25/GMJ_IVECW_D.csv /home/grierjones/DDCASPT2/ozone/ANO-RCC-VTZP/ozone_126.25/GMJ_IVECW_D.csv

>>> COPY /tmp/ozone_126.25/GMJ_IVECX_D.csv /home/grierjones/DDCASPT2/ozone/ANO-RCC-VTZP/ozone_126.25/GMJ_IVECX_D.csv

>>> COPY /tmp/ozone_126.25/GMJ_IVECC2_D.csv /home/grierjones/DDCASPT2/ozone/ANO-RCC-VTZP/ozone_126.25/GMJ_IVECC2_D.csv

>>> COPY /tmp/ozone_126.25/GMJ_e2_D.csv /home/grierjones/DDCASPT2/ozone/ANO-RCC-VTZP/ozone_126.25/GMJ_e2_D.csv

>>> END FOREACH

.########################.
.# Non-zero return code #.
.########################.

    Timing: Wall=17.65 User=9.53 System=8.11
********************************************
*** WorkDir at /tmp/ozone_126.25 cleaned ***
********************************************
