   This run of MOLCAS is using the pymolcas driver

                             OPE
                             OPE          NMOL  CASOP  ENMOLC A   SO
                 OPE        NMOLC        AS  OP EN  MO LC     AS  OP
                OPENM       OL CA        SO  PE NM  OL CA     SOP EN
                OP EN      MO   LC       AS  OP ENMOL  CASO   PENMOL
                OP  EN     MO   LC       AS  OP EN     MO     LC ASO
               OP   E  NMOL  C  AS       OP  EN MO     LC     AS  OP
               OP  E   NMO   LC AS        OPEN  MO     LCASOP EN   M
               O  PEN   MO  LCA  SO
            OPE   NMO   L   CAS    OP
        OPENMOL  CASOP     ENMOL   CASOPE
     OPENMOLCA   SOPENMOLCASOPEN   MOLCASOPE
    OPENMOLCAS   OP           EN   MOL    CAS
    OPENMOLCAS       OP  ENM        O     LCA
    OPENMOLCAS    OPEN  MOLCASO     P  E  NMO
    OPENMOLCAS     OP               E  N  MOL
    OPENMOLCA   SO           PENM   O  L  CAS    OPEN    MO    LCAS
    OPENMOLCA   SOP           ENM   O  L  CAS   OP  EN  MOLC  AS   O
    OPENMOLCA   SOPE           NM      O  LCA   S      OP  EN MO
    OPENMOLC                AS         O  PEN   M      OL  CA  SOPE
    OPENMO        LCASOPE  NMOL        C  ASO   P      ENMOLC     AS
    OPE     NMO      LCA  SO     P     E   NM   OL  CA SO  PE N   MO
          OPENMOLCA            SOPE   NMO        LCAS  O    P  ENMO
     OPENMOLCASOPENMOLCASOPENMOLCASOPENMOLCA
        OPENMOLCASOPENMOLCASOPENMOLCASOPE
            OPENMOLCASOPENMOLCASOPENM
               OPENMOLCASOPENMOLCA        version: ea724fe96-dirty
                   OPENMOLCASO
                       OPE                tag:

 OpenMolcas is free software; you can redistribute it and/or modify it
 under the terms of the GNU Lesser General Public License version 2.1.
 OpenMolcas is distributed in the hope that it will be useful, but it
 is provided "as is" and without any express or implied warranties.
 For more details see the full text of the license in the file
 LICENSE or in <http://www.gnu.org/licenses/>.

                 Copyright (C) The OpenMolcas Authors
           For the author list and the recommended citation,
                   consult the file CONTRIBUTORS.md

           *************************************************
           * pymolcas version py2.28                       *
           *   build c4a6d18ded8cb6cad61d2372a9abd97c      *
           *   (after the EMIL interpreter by V. Veryazov) *
           *************************************************

configuration info
------------------
C Compiler ID: Intel
C flags: -std=gnu99
Fortran Compiler ID: Intel
Fortran flags: -fpp -i8 -r8 -heap-arrays
Definitions: _MOLCAS_;_I8_;_LINUX_
Parallel: OFF (GA=OFF)


   -------------------------------------------------------------------------------
  |
  |              Project: 6.82
  |       Submitted from: /home/grierjones/DDCASPT2/iron_oxo_DDCASPT2/cluster/6.82
  |         Scratch area: /tmp/6.82
  |      Save outputs to: /home/grierjones/DDCASPT2/iron_oxo_DDCASPT2/cluster/6.82
  |               Molcas: /home/grierjones/Test/build
  |
  | Scratch area is empty
  |
  |       MOLCAS_DRIVER = /usr/local/pymolcas
  | MOLCAS_KEEP_WORKDIR = NO
  |  MOLCAS_NEW_WORKDIR = YES
  |       MOLCAS_NPROCS = 1
  |        MOLCAS_PRINT = NORMAL
  |       MOLCAS_SOURCE = /home/grierjones/Test/build
  |    MOLCAS_STRUCTURE = 0
  |
   -------------------------------------------------------------------------------

++ ---------   Input file   ---------

&GATEWAY
coord=6.82.xyz
Basis = ANO-RCC-VDZP
Group = nosymm
Expert
End of Input

&SEWARD
End of Input

&SCF
UHF
charge
2
spin
5

>>> COPY $WorkDir/6.82.scf.h5 $CurrDir/

&RASSCF
Title= RASSCF
FileOrb
/home/grierjones/DDCASPT2/iron_oxo_DDCASPT2/cluster/6.81/6.81.RasOrb
NACTEL
10 0 0
RAS2
14
Symmetry
1
Spin
5
charge
2
orblisting
all
ITERation
300 200

>>> COPY $WorkDir/6.82.rasscf.h5 $CurrDir/

>>> COPY $WorkDir/GMJ_Fock_MO.csv $CurrDir/6.82.GMJ_Fock_MO.csv

>>> COPY $WorkDir/GMJ_PT2_Fock_MO.csv $CurrDir/6.82.GMJ_PT2_Fock_MO.csv

&MOTRA
Frozen=0
LUMORB

>>> COPY $WorkDir/GMJ_one_int_indx.csv $CurrDir/6.82.GMJ_one_int_indx.csv

>>> COPY $WorkDir/GMJ_one_int.csv $CurrDir/6.82.GMJ_one_int.csv

>>> COPY $WorkDir/GMJ_two_int_indx.csv $CurrDir/6.82.GMJ_two_int_indx.csv

>>> COPY $WorkDir/GMJ_two_int.csv $CurrDir/6.82.GMJ_two_int.csv

&CASPT2
Frozen
0
MAXITER
50

>>> FOREACH i IN (B,E,F,G,H)

  >>> FOREACH j IN (P,M)

    >>> IF (-FILE GMJ_e2_${i}_${j}.csv)

      >>> COPY $WorkDir/GMJ_RHS_${i}_${j}.csv $CurrDir/GMJ_RHS_${i}_${j}.csv

      >>> COPY $WorkDir/GMJ_IVECW_${i}_${j}.csv $CurrDir/GMJ_IVECW_${i}_${j}.csv

      >>> COPY $WorkDir/GMJ_IVECX_${i}_${j}.csv $CurrDir/GMJ_IVECX_${i}_${j}.csv

      >>> COPY $WorkDir/GMJ_IVECC2_${i}_${j}.csv $CurrDir/GMJ_IVECC2_${i}_${j}.csv

      >>> COPY $WorkDir/GMJ_e2_${i}_${j}.csv $CurrDir/GMJ_e2_${i}_${j}.csv

    >>> END IF

  >>> END FOREACH

>>> END FOREACH

>>> FOREACH i IN (A,C,D)

  >>> IF (-FILE GMJ_e2_$i.csv)

    >>> COPY $WorkDir/GMJ_RHS_$i.csv $CurrDir/GMJ_RHS_$i.csv

    >>> COPY $WorkDir/GMJ_IVECW_$i.csv $CurrDir/GMJ_IVECW_$i.csv

    >>> COPY $WorkDir/GMJ_IVECX_$i.csv $CurrDir/GMJ_IVECX_$i.csv

    >>> COPY $WorkDir/GMJ_IVECC2_$i.csv $CurrDir/GMJ_IVECC2_$i.csv

    >>> COPY $WorkDir/GMJ_e2_$i.csv $CurrDir/GMJ_e2_$i.csv

  >>> END IF

>>> END FOREACH

-- ----------------------------------

--- Start Module: gateway at Sun Dec 22 16:45:34 2024 ---
 
()()()()()()()()()()()()()()()()()()()()()()()()()()()()()()()()()()()()()()()()()()()()()()()()()()

                                              &GATEWAY

                                   only a single process is used
                       available to each process: 2.0 GB of memory, 1 thread?
()()()()()()()()()()()()()()()()()()()()()()()()()()()()()()()()()()()()()()()()()()()()()()()()()()
 
 ###############################################################################
 ###############################################################################
 ###                                                                         ###
 ###                                                                         ###
 ###                                                                         ###
 ###    WARNING: EXPERT option is ON!                                        ###
 ###                                                                         ###
 ###                                                                         ###
 ###############################################################################
 ###############################################################################
 
++    Symmetry information:
      ---------------------
 
                    Character Table for C1 
 
                             E  
                    a        1  x, y, xy, Rz, z, xz, Ry, yz, Rx, I
--
 
 
++    Basis set information:
      ----------------------
 
 
      Basis set label: O.ANO-RCC...3S2P1D.
 
      Electronic valence basis set:
      ------------------
      Associated Effective Charge   8.000000 au
      Associated Actual Charge      8.000000 au
      Nuclear Model: Point charge
 
      Shell  nPrim  nBasis  Cartesian Spherical Contaminant
         s      14       3        X                  
         p       9       2        X                  
         d       4       1                 X         
 
 
      Basis set label: FE.ANO-RCC...5S4P2D1F.
 
      Electronic valence basis set:
      ------------------
      Associated Effective Charge  26.000000 au
      Associated Actual Charge     26.000000 au
      Nuclear Model: Point charge
 
      Shell  nPrim  nBasis  Cartesian Spherical Contaminant
         s      21       5        X                  
         p      15       4        X                  
         d      10       2                 X         
         f       6       1                 X         
--
 
 
++    Molecular structure info:
      -------------------------
 
                    ************************************************ 
                    **** Cartesian Coordinates / Bohr, Angstrom **** 
                    ************************************************ 
 
     Center  Label                x              y              z                     x              y              z
        1      O1               0.000000       0.000000       7.958430              0.000000       0.000000       4.211420
        2      FE2              0.000000       0.000000      -4.934869              0.000000       0.000000      -2.611420
--
 
 
            Nuclear Potential Energy             16.13241111 au
 
 ###############################################################################
 ###############################################################################
 ###                                                                         ###
 ###                                                                         ###
 ###    There were warnings during the execution                             ###
 ###    Please, check the output with care!                                  ###
 ###                                                                         ###
 ###                                                                         ###
 ###############################################################################
 ###############################################################################
--- Stop Module: gateway at Sun Dec 22 16:45:34 2024 /rc=_RC_ALL_IS_WELL_ ---
*** files: xmldump
    saved to directory /home/grierjones/DDCASPT2/iron_oxo_DDCASPT2/cluster/6.82

--- Start Module: seward at Sun Dec 22 16:45:34 2024 ---
 
()()()()()()()()()()()()()()()()()()()()()()()()()()()()()()()()()()()()()()()()()()()()()()()()()()

                                              &SEWARD

                                   only a single process is used
                       available to each process: 2.0 GB of memory, 1 thread?
()()()()()()()()()()()()()()()()()()()()()()()()()()()()()()()()()()()()()()()()()()()()()()()()()()
 
 ###############################################################################
 ###############################################################################
 ###                                                                         ###
 ###                                                                         ###
 ###                                                                         ###
 ###    WARNING: EXPERT option is ON!                                        ###
 ###                                                                         ###
 ###                                                                         ###
 ###############################################################################
 ###############################################################################
               SEWARD will generate:
                  Multipole Moment integrals up to order  2
                  Kinetic Energy integrals
                  Nuclear Attraction integrals (point charge)
                  One-Electron Hamiltonian integrals
                  Velocity integrals
                  Relativistic Douglas-Kroll-Hess integrals:
                    - Parametrization         : EXP
                    - DKH order of Hamiltonian: 2
                    - DKH order of Properties : 0
                         - multipole moment operators
                         - electric potential operators
                         - contact operators
                  Atomic mean-field integrals
                  Two-Electron Repulsion integrals
 
                   Integrals are discarded if absolute value <: 0.10E-13
                   Integral cutoff threshold is set to       <: 0.10E-15
 
            Nuclear Potential Energy             16.13241111 au
 
 
      Basis set specifications :
      Symmetry species         a  
      Basis functions           48
 
 
  Input file to MOLDEN was generated!
 
 ###############################################################################
 ###############################################################################
 ###                                                                         ###
 ###                                                                         ###
 ###    There were warnings during the execution                             ###
 ###    Please, check the output with care!                                  ###
 ###                                                                         ###
 ###                                                                         ###
 ###############################################################################
 ###############################################################################
--- Stop Module: seward at Sun Dec 22 16:45:35 2024 /rc=_RC_ALL_IS_WELL_ ---
*** files: 6.82.GssOrb 6.82.guessorb.h5 6.82.guessorb.molden xmldump
    saved to directory /home/grierjones/DDCASPT2/iron_oxo_DDCASPT2/cluster/6.82

*** symbolic link created: INPORB -> 6.82.GssOrb
--- Start Module: scf at Sun Dec 22 16:45:35 2024 ---
 
()()()()()()()()()()()()()()()()()()()()()()()()()()()()()()()()()()()()()()()()()()()()()()()()()()

                                                &SCF

                                   only a single process is used
                       available to each process: 2.0 GB of memory, 1 thread?
()()()()()()()()()()()()()()()()()()()()()()()()()()()()()()()()()()()()()()()()()()()()()()()()()()
 
 *** Possible bug in opening file
 *** isFreeUnit resets the unit number
++    Input section:
      --------------
 
      Header of the integral files:
      
       Integrals generated by seward 4.2.0  , Sun Dec 22 16:45:34 2024
 
 
      Cartesian coordinates in Angstrom:
      -----------------------------------------------------
      No.  Label        X            Y            Z        
      -----------------------------------------------------
       1   O1         0.00000000   0.00000000   4.21142000
       2   FE2        0.00000000   0.00000000  -2.61142000
      -----------------------------------------------------
      Nuclear repulsion energy =   16.13241111
--
 
++    Orbital specifications:
      -----------------------
 
      Symmetry species               1
                                     a
      Frozen orbitals                0
      Start temperature = 0.500
      End temperature   = 0.010
      Temperature Factor= 0.460
      Deleted orbitals               0
      Total number of orbitals      48
      Number of basis functions     48
--
 
      Molecular charge                           2.000
 
++    Optimization specifications:
      ----------------------------
 
      SCF Algorithm: Conventional USCF
      D(i)-D(i-1) density differences are used
      Number of density matrices in core                5
      Maximum number of NDDO SCF iterations           400
      Maximum number of HF SCF iterations             400
      Threshold for SCF energy change            0.10E-08
      Threshold for density matrix               0.10E-03
      Threshold for Fock matrix                  0.15E-03
      Threshold for linear dependence            0.10E-08
      Threshold at which DIIS is turned on       0.15E+00
      Threshold at which QNR/C2DIIS is turned on 0.75E-01
      Threshold for Norm(delta) (QNR/C2DIIS)     0.20E-04
      DIIS extrapolation of the SCF procedure
      All orbitals punched on: UHFORB
--
 
      Input vectors read from INPORB
      Orbital file label: *Guess orbitals
 
 
++ Convergence information
                               UHF SCF        iterations: Energy and convergence statistics
 
Iter     Tot. SCF        One-elec.       Two-elec.     Energy      Max Dij or  Max Fij      DNorm      TNorm      AccCon     Time
         Energy          Energy          Energy        Change      Delta Norm                                                in Sec.
 
 The total and one-electron energies are shifted by a value of      1000. a.u.
 
   1  -343.323748814  -866.686963108   507.230803183   0.00E+00    0.16E+00*   0.35E+00*    0.75E+01   0.18E+03   None         0.
   2  -343.502730417  -862.735717564   503.100576037  -0.18E+00*   0.11E+00*   0.14E+00*    0.10E+01   0.18E+03   EDIIS        0.
   3  -341.582358560  -910.901329449   553.186559779   0.19E+01*   0.62E-01*   0.13E+00*    0.18E+01   0.19E+03   EDIIS        0.
   4  -342.777166704  -849.746288631   490.836710817  -0.12E+01*   0.76E-01*   0.59E-01*    0.15E+01   0.17E+03   EDIIS        0.
   5  -344.052158512  -884.789030843   524.604461222  -0.13E+01*   0.26E-01*   0.33E-01*    0.86E+00   0.18E+03   EDIIS        0.
   6  -344.069845329  -855.778061948   495.575805509  -0.18E-01*   0.79E-01*   0.73E-01*    0.18E+01   0.17E+03   EDIIS        0.
   7  -343.852223928  -892.366894566   532.382259528   0.22E+00*   0.78E-01*   0.41E-01*    0.15E+01   0.18E+03   EDIIS        0.
   8  -344.885635387  -869.425896735   508.407850238  -0.10E+01*   0.15E+00*   0.15E+00*    0.12E+01   0.18E+03   EDIIS        0.
   9  -344.068962389  -880.892608717   520.691235218   0.82E+00*   0.16E+00*   0.77E-01*    0.25E+01   0.18E+03   EDIIS        0.
  10  -345.015894530  -877.405090719   516.256785079  -0.95E+00*   0.18E+00*   0.12E+00*    0.15E+01   0.18E+03   EDIIS        0.
  11  -345.118944442  -859.812487888   498.561132336  -0.10E+00*   0.17E+00*   0.18E+00*    0.17E+01   0.17E+03   EDIIS        0.
  12  -345.288075131  -866.434138698   505.013652457  -0.17E+00*   0.10E+00*   0.92E-01*    0.78E+00   0.18E+03   EDIIS        0.
  13  -345.297205620  -866.339361417   504.909744687  -0.91E-02*   0.31E-01*   0.21E-01*    0.22E+00   0.18E+03   EDIIS        0.
 
       Fermi aufbau procedure completed!
      nOcc(alpha)=   18
      nOcc(beta) =   14
 
  14  -345.298316526  -866.419518899   504.988791263  -0.11E-02*   0.19E-01*   0.10E-01*    0.74E-01   0.18E+03   EDIIS        0.
  15  -345.298548561  -866.424722046   504.993762375  -0.23E-03*   0.75E-02*   0.42E-02*    0.33E-01   0.18E+03   EDIIS        0.
  16  -345.298610936  -866.424330397   504.993308351  -0.62E-04*   0.51E-02*   0.28E-02*    0.16E-01   0.18E+03   EDIIS        0.
  17  -345.298629802  -866.426603894   504.995562981  -0.19E-04*   0.27E-02*   0.15E-02*    0.90E-02   0.18E+03   EDIIS        0.
  18  -345.298635825  -866.425672902   504.994625968  -0.60E-05*   0.22E-03*   0.20E-02*    0.51E-02   0.18E+03   c2DIIS       0.
  19  -345.298638783  -866.426584136   504.995534242  -0.30E-05*   0.19E-03*   0.86E-04     0.63E-03   0.18E+03   QNRc2DIIS    0.
  20  -345.298638799  -866.425579652   504.994529743  -0.15E-07*   0.16E-03*   0.31E-04     0.27E-03   0.18E+03   QNRc2DIIS    0.
  21  -345.298638803  -866.425847755   504.994797841  -0.47E-08*   0.27E-04*   0.10E-04     0.23E-03   0.18E+03   QNRc2DIIS    0.
  22  -345.298638804  -866.425820476   504.994770562  -0.19E-09    0.15E-04    0.29E-05     0.38E-04   0.18E+03   QNRc2DIIS    0.
 
       Convergence after 22 Macro Iterations
--
 
 *****************************************************************************************************************************
 *                                                                                                                           *
 *                                             SCF/KS-DFT Program, Final results                                             *
 *                                                                                                                           *
 *                                                                                                                           *
 *                                                                                                                           *
 *                                                       Final Results                                                       *
 *                                                                                                                           *
 *****************************************************************************************************************************
 
::    Total SCF energy                              -1345.2986388036
      One-electron energy                           -1866.4258204762
      Two-electron energy                             504.9947705624
      Nuclear repulsion energy                         16.1324111102
      Kinetic energy (interpolated)                  1399.7980432851
      Virial theorem                                    0.9610662376
      Total spin, S(S+1)                                8.0092611427
      Total spin, S                                     2.3738930291
      Max non-diagonal density matrix element           0.0000079442
      Max non-diagonal Fock matrix element              0.0000021275
 
 
      All orbitals with orbital energies smaller than  E(LUMO)+0.5 are printed
 
++    Molecular orbitals:
      -------------------
 
      Title: UHF orbitals (alpha)

      Molecular orbitals for symmetry species 1: a  
 
          Orbital            1         2         3         4         5         6         7         8         9        10    
          Energy         -264.6182  -33.4957  -28.5595  -28.5595  -28.5595  -20.7892   -5.4438   -3.9838   -3.9838   -3.9838
          Occ. No.          1.0000    1.0000    1.0000    1.0000    1.0000    1.0000    1.0000    1.0000    1.0000    1.0000
 
        1 O1     1s         0.0000   -0.0000   -0.0000   -0.0000   -0.0000    1.0000   -0.0000    0.0000    0.0000   -0.0000
        2 O1     2s         0.0000   -0.0000   -0.0000   -0.0000   -0.0000   -0.0022   -0.0000    0.0000    0.0000   -0.0000
        3 O1     3s         0.0000   -0.0000   -0.0000   -0.0000   -0.0000    0.0004   -0.0001    0.0000    0.0000   -0.0001
        4 O1     2px       -0.0000    0.0000    0.0000   -0.0000   -0.0000   -0.0000   -0.0000   -0.0000    0.0000    0.0000
        5 O1     3px        0.0000   -0.0000    0.0000   -0.0000   -0.0000    0.0000    0.0000   -0.0000    0.0000    0.0000
        6 O1     2py       -0.0000    0.0000    0.0000    0.0000   -0.0000   -0.0000   -0.0000   -0.0000   -0.0000   -0.0000
        7 O1     3py       -0.0000   -0.0000    0.0000    0.0000   -0.0000    0.0000   -0.0000   -0.0000   -0.0000   -0.0000
        8 O1     2pz        0.0000    0.0000    0.0000    0.0000    0.0000   -0.0000    0.0001   -0.0000   -0.0000    0.0000
        9 O1     3pz        0.0000    0.0000    0.0000    0.0000    0.0000    0.0000    0.0003   -0.0000   -0.0000    0.0001
       10 O1     3d2-       0.0000   -0.0000   -0.0000    0.0000    0.0000   -0.0000   -0.0000   -0.0000   -0.0000    0.0000
       11 O1     3d1-       0.0000   -0.0000   -0.0000   -0.0000    0.0000    0.0000   -0.0000    0.0000    0.0000   -0.0000
       12 O1     3d0       -0.0000   -0.0000   -0.0000   -0.0000   -0.0000    0.0009   -0.0000   -0.0000    0.0000   -0.0000
       13 O1     3d1+       0.0000   -0.0000   -0.0000    0.0000    0.0000    0.0000   -0.0000    0.0000   -0.0000   -0.0000
       14 O1     3d2+       0.0000    0.0000   -0.0000   -0.0000   -0.0000    0.0000    0.0000    0.0000    0.0000   -0.0000
       15 FE2    1s         1.0000   -0.0000   -0.0000   -0.0000   -0.0000    0.0000    0.0000    0.0000    0.0000    0.0000
       16 FE2    2s         0.0000    1.0000   -0.0000   -0.0000   -0.0000    0.0000   -0.0035   -0.0000    0.0000   -0.0000
       17 FE2    3s        -0.0000    0.0035    0.0000    0.0000    0.0000   -0.0000    0.9999    0.0000    0.0000   -0.0000
       18 FE2    4s         0.0000   -0.0003    0.0000    0.0000    0.0000   -0.0000   -0.0077    0.0000   -0.0000    0.0000
       19 FE2    5s        -0.0000    0.0004    0.0000    0.0000    0.0000   -0.0000    0.0081   -0.0000   -0.0000    0.0000
       20 FE2    2px        0.0000   -0.0000   -0.0000    0.9985    0.0548   -0.0000   -0.0000   -0.0034    0.0010    0.0000
       21 FE2    3px       -0.0000    0.0000   -0.0000    0.0035    0.0002   -0.0000   -0.0000    0.9592   -0.2815   -0.0000
       22 FE2    4px        0.0000   -0.0000    0.0000   -0.0006   -0.0000    0.0000    0.0000   -0.0184    0.0054    0.0000
       23 FE2    5px       -0.0000    0.0000   -0.0000    0.0015    0.0001    0.0000   -0.0000    0.0175   -0.0051   -0.0000
       24 FE2    2py        0.0000    0.0000   -0.0000   -0.0548    0.9985   -0.0000    0.0000   -0.0010   -0.0034   -0.0000
       25 FE2    3py       -0.0000    0.0000   -0.0000   -0.0002    0.0035   -0.0000   -0.0000    0.2815    0.9592    0.0000
       26 FE2    4py        0.0000   -0.0000    0.0000    0.0000   -0.0006    0.0000    0.0000   -0.0054   -0.0184   -0.0000
       27 FE2    5py        0.0000   -0.0000   -0.0000   -0.0001    0.0015   -0.0000   -0.0000    0.0051    0.0175    0.0000
       28 FE2    2pz        0.0000    0.0000    1.0000    0.0000    0.0000    0.0000   -0.0000    0.0000    0.0000   -0.0035
       29 FE2    3pz       -0.0000    0.0000    0.0035    0.0000    0.0000   -0.0000    0.0000   -0.0000   -0.0000    0.9996
       30 FE2    4pz        0.0000    0.0000   -0.0006   -0.0000   -0.0000   -0.0000    0.0000    0.0000    0.0000   -0.0192
       31 FE2    5pz       -0.0000    0.0000    0.0015    0.0000    0.0000   -0.0000    0.0000   -0.0000   -0.0000    0.0182
       32 FE2    3d2-      -0.0000   -0.0000   -0.0000    0.0000    0.0000   -0.0000   -0.0000   -0.0000    0.0000    0.0000
       33 FE2    4d2-       0.0000    0.0000    0.0000    0.0000   -0.0000    0.0000    0.0000    0.0000   -0.0000    0.0000
       34 FE2    3d1-      -0.0000   -0.0000   -0.0000   -0.0000    0.0000   -0.0000    0.0000    0.0000    0.0000    0.0000
       35 FE2    4d1-       0.0000   -0.0000    0.0000    0.0000   -0.0000    0.0000   -0.0000   -0.0000   -0.0000   -0.0000
       36 FE2    3d0       -0.0000    0.0000    0.0000    0.0000    0.0000   -0.0000   -0.0000    0.0000   -0.0000    0.0000
       37 FE2    4d0        0.0000    0.0000    0.0000    0.0000    0.0000   -0.0000    0.0000    0.0000    0.0000   -0.0000
       38 FE2    3d1+       0.0000   -0.0000   -0.0000    0.0000    0.0000    0.0000   -0.0000    0.0000   -0.0000    0.0000
       39 FE2    4d1+      -0.0000    0.0000    0.0000   -0.0000   -0.0000   -0.0000   -0.0000   -0.0000    0.0000   -0.0000
       40 FE2    3d2+       0.0000   -0.0000   -0.0000    0.0000    0.0000    0.0000    0.0000    0.0000    0.0000   -0.0000
       41 FE2    4d2+      -0.0000    0.0000    0.0000   -0.0000   -0.0000    0.0000   -0.0000   -0.0000   -0.0000    0.0000
       42 FE2    4f3-       0.0000    0.0000   -0.0000   -0.0000   -0.0000    0.0000    0.0000   -0.0000   -0.0000    0.0000
       43 FE2    4f2-       0.0000    0.0000   -0.0000    0.0000    0.0000    0.0000   -0.0000    0.0000    0.0000    0.0000
       44 FE2    4f1-      -0.0000    0.0000   -0.0000    0.0000   -0.0000    0.0000    0.0000   -0.0000   -0.0000   -0.0000
       45 FE2    4f0        0.0000    0.0000    0.0000   -0.0000   -0.0000   -0.0000   -0.0000    0.0000    0.0000   -0.0000
       46 FE2    4f1+       0.0000    0.0000    0.0000   -0.0000   -0.0000    0.0000   -0.0000   -0.0000    0.0000    0.0000
       47 FE2    4f2+       0.0000   -0.0000   -0.0000   -0.0000   -0.0000    0.0000   -0.0000    0.0000   -0.0000   -0.0000
       48 FE2    4f3+       0.0000   -0.0000   -0.0000    0.0000   -0.0000   -0.0000   -0.0000    0.0000    0.0000   -0.0000
 
          Orbital           11        12        13        14        15        16        17        18        19        20    
          Energy           -1.6645   -1.6645   -1.6644   -1.6644   -1.6644   -1.2344   -0.9514   -0.6742   -0.4831   -0.4831
          Occ. No.          1.0000    1.0000    1.0000    1.0000    1.0000    1.0000    1.0000    1.0000    0.0000    0.0000
 
        1 O1     1s         0.0000    0.0000    0.0000    0.0000    0.0000    0.0021    0.0001    0.0001   -0.0000   -0.0000
        2 O1     2s         0.0000    0.0000    0.0000    0.0000    0.0000    0.9993    0.0014    0.0097   -0.0000   -0.0000
        3 O1     3s         0.0000    0.0000    0.0001    0.0000    0.0000    0.0221    0.0014   -0.0061   -0.0000   -0.0000
        4 O1     2px       -0.0000    0.0000   -0.0000    0.0000    0.0000   -0.0000    0.0000    0.0000   -0.0004    0.0000
        5 O1     3px       -0.0000    0.0000   -0.0000    0.0001    0.0000   -0.0000   -0.0000    0.0000   -0.0007    0.0000
        6 O1     2py        0.0000    0.0000    0.0000   -0.0000    0.0000    0.0000   -0.0000    0.0000   -0.0000   -0.0004
        7 O1     3py        0.0000    0.0000    0.0000   -0.0000    0.0001   -0.0000   -0.0000    0.0000   -0.0000   -0.0007
        8 O1     2pz       -0.0000   -0.0000   -0.0001   -0.0000   -0.0000   -0.0094   -0.0020    0.9988    0.0000    0.0000
        9 O1     3pz       -0.0000   -0.0000   -0.0003   -0.0000   -0.0000   -0.0034   -0.0038    0.0486    0.0000    0.0000
       10 O1     3d2-       0.0000    0.0000    0.0000   -0.0000   -0.0000   -0.0000   -0.0000    0.0000   -0.0000    0.0000
       11 O1     3d1-      -0.0000   -0.0000   -0.0000    0.0000   -0.0000    0.0000    0.0000   -0.0000    0.0000    0.0000
       12 O1     3d0        0.0000    0.0000    0.0000    0.0000    0.0000    0.0291    0.0001   -0.0029   -0.0000   -0.0000
       13 O1     3d1+       0.0000   -0.0000    0.0000   -0.0000   -0.0000    0.0000   -0.0000   -0.0000    0.0000   -0.0000
       14 O1     3d2+      -0.0000    0.0000   -0.0000    0.0000    0.0000    0.0000   -0.0000    0.0000   -0.0000   -0.0000
       15 FE2    1s         0.0000   -0.0000   -0.0000   -0.0000   -0.0000   -0.0000   -0.0000    0.0000   -0.0000   -0.0000
       16 FE2    2s        -0.0000   -0.0000   -0.0000   -0.0000    0.0000   -0.0000    0.0004    0.0000    0.0000    0.0000
       17 FE2    3s         0.0000    0.0000    0.0000    0.0000    0.0000    0.0000    0.0101    0.0000   -0.0000   -0.0000
       18 FE2    4s        -0.0000   -0.0000   -0.0000   -0.0000   -0.0000   -0.0000    0.9289    0.0013    0.0000    0.0000
       19 FE2    5s         0.0000   -0.0000   -0.0000   -0.0000   -0.0000   -0.0002   -0.3702    0.0008    0.0000    0.0000
       20 FE2    2px       -0.0000   -0.0000    0.0000   -0.0000   -0.0000    0.0000    0.0000   -0.0000    0.0005   -0.0000
       21 FE2    3px        0.0000   -0.0000    0.0000   -0.0000   -0.0000   -0.0000   -0.0000    0.0000    0.0186   -0.0007
       22 FE2    4px        0.0000   -0.0000    0.0000   -0.0000   -0.0000   -0.0000    0.0000   -0.0000    0.9987   -0.0360
       23 FE2    5px       -0.0000    0.0000    0.0000   -0.0000   -0.0000    0.0000    0.0000   -0.0000    0.0323   -0.0012
       24 FE2    2py       -0.0000   -0.0000   -0.0000    0.0000   -0.0000    0.0000   -0.0000   -0.0000    0.0000    0.0005
       25 FE2    3py       -0.0000   -0.0000   -0.0000    0.0000   -0.0000    0.0000    0.0000    0.0000    0.0007    0.0186
       26 FE2    4py       -0.0000   -0.0000   -0.0000    0.0000   -0.0000   -0.0000    0.0000    0.0000    0.0360    0.9987
       27 FE2    5py       -0.0000    0.0000   -0.0000    0.0000   -0.0000   -0.0000   -0.0000   -0.0000    0.0012    0.0323
       28 FE2    2pz       -0.0000   -0.0000   -0.0000   -0.0000   -0.0000   -0.0000   -0.0000    0.0000    0.0000    0.0000
       29 FE2    3pz       -0.0000   -0.0000   -0.0000   -0.0000   -0.0000   -0.0000   -0.0000    0.0000    0.0000    0.0000
       30 FE2    4pz       -0.0000   -0.0000   -0.0001   -0.0000   -0.0000   -0.0001   -0.0012    0.0002    0.0000    0.0000
       31 FE2    5pz       -0.0000   -0.0000   -0.0000   -0.0000   -0.0000   -0.0000   -0.0001    0.0001    0.0000    0.0000
       32 FE2    3d2-       0.9879    0.0743   -0.0000    0.0000   -0.0000    0.0000    0.0000    0.0000   -0.0000   -0.0000
       33 FE2    4d2-      -0.1360   -0.0102    0.0000   -0.0000    0.0000    0.0000    0.0000    0.0000    0.0000    0.0000
       34 FE2    3d1-       0.0000    0.0000    0.0000   -0.4192    0.8976    0.0000   -0.0000    0.0000    0.0000    0.0000
       35 FE2    4d1-      -0.0000   -0.0000   -0.0000    0.0577   -0.1236   -0.0000    0.0000   -0.0000   -0.0000   -0.0002
       36 FE2    3d0        0.0000    0.0000    0.9907    0.0000    0.0000   -0.0000   -0.0000    0.0001    0.0000   -0.0000
       37 FE2    4d0       -0.0000   -0.0000   -0.1364   -0.0000   -0.0000   -0.0000   -0.0001    0.0000   -0.0000   -0.0000
       38 FE2    3d1+      -0.0000    0.0000   -0.0000    0.8976    0.4192   -0.0000   -0.0000    0.0000    0.0000   -0.0000
       39 FE2    4d1+       0.0000   -0.0000    0.0000   -0.1236   -0.0577   -0.0000    0.0000   -0.0000   -0.0002    0.0000
       40 FE2    3d2+      -0.0743    0.9879   -0.0000   -0.0000   -0.0000    0.0000    0.0000    0.0000    0.0000    0.0000
       41 FE2    4d2+       0.0102   -0.1360    0.0000    0.0000    0.0000    0.0000    0.0000    0.0000    0.0000   -0.0000
       42 FE2    4f3-       0.0000   -0.0000   -0.0000   -0.0000   -0.0000   -0.0000   -0.0000    0.0000   -0.0000   -0.0000
       43 FE2    4f2-       0.0000    0.0000   -0.0000    0.0000   -0.0000    0.0000   -0.0000    0.0000    0.0000    0.0000
       44 FE2    4f1-       0.0000    0.0000    0.0000   -0.0000    0.0000    0.0000    0.0000   -0.0000   -0.0000   -0.0000
       45 FE2    4f0        0.0000    0.0000    0.0000    0.0000    0.0000   -0.0000   -0.0000   -0.0000   -0.0000   -0.0000
       46 FE2    4f1+      -0.0000    0.0000   -0.0000    0.0000    0.0000    0.0000   -0.0000    0.0000   -0.0000    0.0000
       47 FE2    4f2+      -0.0000    0.0000   -0.0000   -0.0000   -0.0000   -0.0000   -0.0000    0.0000    0.0000   -0.0000
       48 FE2    4f3+      -0.0000    0.0000    0.0000    0.0000    0.0000    0.0000    0.0000   -0.0000    0.0000   -0.0000
 
          Orbital           21        22        23        24    
          Energy           -0.4830   -0.2496   -0.0662   -0.0662
          Occ. No.          0.0000    0.0000    0.0000    0.0000
 
        1 O1     1s        -0.0002   -0.0005    0.0000    0.0000
        2 O1     2s        -0.0028   -0.0082   -0.0000    0.0000
        3 O1     3s        -0.0014   -0.0010    0.0000   -0.0000
        4 O1     2px        0.0000    0.0000    0.9439   -0.0323
        5 O1     3px        0.0000    0.0000    0.3283   -0.0113
        6 O1     2py        0.0000    0.0000   -0.0323   -0.9439
        7 O1     3py        0.0000    0.0000   -0.0113   -0.3283
        8 O1     2pz        0.0057    0.0138   -0.0000    0.0000
        9 O1     3pz        0.0041    0.0008   -0.0000    0.0000
       10 O1     3d2-      -0.0000   -0.0000   -0.0000    0.0000
       11 O1     3d1-      -0.0000   -0.0000    0.0001    0.0029
       12 O1     3d0       -0.0000    0.0001    0.0000   -0.0000
       13 O1     3d1+      -0.0000   -0.0000   -0.0029    0.0001
       14 O1     3d2+      -0.0000   -0.0000   -0.0000    0.0000
       15 FE2    1s         0.0000    0.0000   -0.0000   -0.0000
       16 FE2    2s         0.0000   -0.0002   -0.0000    0.0000
       17 FE2    3s         0.0000   -0.0047    0.0000   -0.0000
       18 FE2    4s         0.0008    0.3701   -0.0000    0.0000
       19 FE2    5s        -0.0007    0.9292   -0.0000    0.0000
       20 FE2    2px       -0.0000   -0.0000   -0.0000    0.0000
       21 FE2    3px       -0.0000   -0.0000   -0.0000    0.0000
       22 FE2    4px       -0.0000   -0.0000   -0.0015    0.0001
       23 FE2    5px       -0.0000    0.0000    0.0005   -0.0000
       24 FE2    2py       -0.0000    0.0000    0.0000    0.0000
       25 FE2    3py       -0.0000   -0.0000    0.0000    0.0000
       26 FE2    4py       -0.0000   -0.0000    0.0001    0.0015
       27 FE2    5py       -0.0000    0.0000   -0.0000   -0.0005
       28 FE2    2pz        0.0005    0.0000   -0.0000   -0.0000
       29 FE2    3pz        0.0186    0.0000   -0.0000    0.0000
       30 FE2    4pz        0.9994    0.0008   -0.0000    0.0000
       31 FE2    5pz        0.0323   -0.0001    0.0000   -0.0000
       32 FE2    3d2-       0.0000   -0.0000    0.0000    0.0000
       33 FE2    4d2-      -0.0000   -0.0000    0.0000   -0.0000
       34 FE2    3d1-       0.0000    0.0000   -0.0000   -0.0003
       35 FE2    4d1-       0.0000    0.0000   -0.0001   -0.0021
       36 FE2    3d0        0.0000   -0.0000    0.0000   -0.0000
       37 FE2    4d0       -0.0003   -0.0002    0.0000   -0.0000
       38 FE2    3d1+       0.0000    0.0000    0.0003   -0.0000
       39 FE2    4d1+       0.0000    0.0000    0.0021   -0.0001
       40 FE2    3d2+      -0.0000   -0.0000    0.0000    0.0000
       41 FE2    4d2+      -0.0000   -0.0000    0.0000    0.0000
       42 FE2    4f3-       0.0000   -0.0000    0.0000    0.0000
       43 FE2    4f2-       0.0000   -0.0000    0.0000    0.0000
       44 FE2    4f1-       0.0000    0.0000   -0.0000   -0.0000
       45 FE2    4f0       -0.0000   -0.0000    0.0000   -0.0000
       46 FE2    4f1+       0.0000    0.0000    0.0000   -0.0000
       47 FE2    4f2+       0.0000   -0.0000    0.0000   -0.0000
       48 FE2    4f3+       0.0000    0.0000   -0.0000    0.0000
--
 
 
  Input file to MOLDEN was generated!
 
 
++    Static properties:
      ------------------
 
 
      LoProp Charges per center
 

                   O1       FE2   
      Nuclear      8.0000  26.0000
      Electronic  -8.0000 -24.0000
 
      Total       -0.0000   2.0000
--
 
 
      All orbitals with orbital energies smaller than  E(LUMO)+0.5 are printed
 
++    Molecular orbitals:
      -------------------
 
      Title: UHF orbitals (beta)

      Molecular orbitals for symmetry species 1: a  
 
          Orbital            1         2         3         4         5         6         7         8         9        10    
          Energy         -264.6103  -33.3191  -28.3871  -28.3871  -28.3871  -20.8740   -4.9697   -3.4213   -3.4213   -3.4213
          Occ. No.          1.0000    1.0000    1.0000    1.0000    1.0000    1.0000    1.0000    1.0000    1.0000    1.0000
 
        1 O1     1s         0.0000    0.0000   -0.0000   -0.0000    0.0000    1.0000    0.0000   -0.0000   -0.0000    0.0000
        2 O1     2s         0.0000    0.0000   -0.0000   -0.0000    0.0000    0.0019   -0.0000    0.0000   -0.0000    0.0000
        3 O1     3s         0.0000    0.0000   -0.0000   -0.0000    0.0000   -0.0017   -0.0000   -0.0000   -0.0000    0.0000
        4 O1     2px       -0.0000    0.0000    0.0000   -0.0000    0.0000   -0.0000   -0.0000    0.0000   -0.0000    0.0000
        5 O1     3px        0.0000   -0.0000    0.0000   -0.0000    0.0000    0.0000    0.0000    0.0000   -0.0000   -0.0000
        6 O1     2py       -0.0000    0.0000    0.0000    0.0000    0.0000   -0.0000   -0.0000    0.0000    0.0000    0.0000
        7 O1     3py       -0.0000   -0.0000    0.0000    0.0000    0.0000    0.0000   -0.0000    0.0000    0.0000    0.0000
        8 O1     2pz       -0.0000   -0.0000    0.0000    0.0000   -0.0000   -0.0000    0.0000   -0.0000    0.0000   -0.0000
        9 O1     3pz        0.0000   -0.0000    0.0000    0.0000   -0.0000    0.0000    0.0001    0.0000    0.0000   -0.0001
       10 O1     3d2-       0.0000   -0.0000    0.0000    0.0000   -0.0000    0.0000   -0.0000   -0.0000   -0.0000    0.0000
       11 O1     3d1-       0.0000   -0.0000   -0.0000   -0.0000   -0.0000   -0.0000   -0.0000   -0.0000   -0.0000   -0.0000
       12 O1     3d0       -0.0000    0.0000   -0.0000   -0.0000    0.0000   -0.0004   -0.0000   -0.0000   -0.0000    0.0000
       13 O1     3d1+       0.0000   -0.0000   -0.0000    0.0000   -0.0000   -0.0000   -0.0000   -0.0000    0.0000   -0.0000
       14 O1     3d2+       0.0000    0.0000   -0.0000   -0.0000   -0.0000   -0.0000    0.0000    0.0000    0.0000   -0.0000
       15 FE2    1s         1.0000   -0.0000    0.0000    0.0000   -0.0000    0.0000    0.0000    0.0000    0.0000    0.0000
       16 FE2    2s         0.0000    1.0000    0.0000    0.0000   -0.0000    0.0000    0.0011   -0.0000    0.0000   -0.0000
       17 FE2    3s        -0.0000   -0.0011   -0.0000   -0.0000    0.0000    0.0000    1.0000    0.0000    0.0000   -0.0000
       18 FE2    4s         0.0000    0.0002    0.0000    0.0000   -0.0000    0.0000   -0.0028    0.0000    0.0000   -0.0000
       19 FE2    5s        -0.0000   -0.0002    0.0000    0.0000   -0.0000    0.0000    0.0032   -0.0000    0.0000   -0.0000
       20 FE2    2px        0.0000   -0.0000    0.9991   -0.0420    0.0000   -0.0000   -0.0000    0.0031   -0.0009   -0.0000
       21 FE2    3px       -0.0000    0.0000   -0.0032    0.0001   -0.0000    0.0000   -0.0000    0.9639   -0.2658   -0.0000
       22 FE2    4px        0.0000   -0.0000    0.0005   -0.0000    0.0000   -0.0000    0.0000   -0.0110    0.0030    0.0000
       23 FE2    5px       -0.0000    0.0000   -0.0011    0.0000   -0.0000   -0.0000   -0.0000    0.0053   -0.0015   -0.0000
       24 FE2    2py        0.0000    0.0000    0.0420    0.9991    0.0000    0.0000    0.0000    0.0009    0.0031    0.0000
       25 FE2    3py       -0.0000    0.0000   -0.0001   -0.0032   -0.0000    0.0000   -0.0000    0.2658    0.9639    0.0000
       26 FE2    4py        0.0000   -0.0000    0.0000    0.0005    0.0000   -0.0000    0.0000   -0.0030   -0.0110   -0.0000
       27 FE2    5py        0.0000   -0.0000   -0.0000   -0.0011   -0.0000   -0.0000   -0.0000    0.0015    0.0053    0.0000
       28 FE2    2pz        0.0000    0.0000   -0.0000   -0.0000    1.0000    0.0000   -0.0000   -0.0000   -0.0000    0.0032
       29 FE2    3pz       -0.0000    0.0000    0.0000    0.0000   -0.0032   -0.0000    0.0000   -0.0000   -0.0000    0.9999
       30 FE2    4pz        0.0000   -0.0000   -0.0000   -0.0000    0.0005    0.0000    0.0000    0.0000    0.0000   -0.0114
       31 FE2    5pz       -0.0000   -0.0000    0.0000    0.0000   -0.0011    0.0000    0.0000   -0.0000   -0.0000    0.0055
       32 FE2    3d2-      -0.0000    0.0000    0.0000    0.0000   -0.0000   -0.0000   -0.0000   -0.0000    0.0000    0.0000
       33 FE2    4d2-       0.0000   -0.0000    0.0000    0.0000   -0.0000    0.0000    0.0000    0.0000   -0.0000    0.0000
       34 FE2    3d1-      -0.0000   -0.0000    0.0000    0.0000    0.0000   -0.0000    0.0000    0.0000    0.0000    0.0000
       35 FE2    4d1-       0.0000   -0.0000   -0.0000   -0.0000   -0.0000    0.0000   -0.0000   -0.0000   -0.0000   -0.0000
       36 FE2    3d0        0.0000   -0.0000   -0.0000   -0.0000    0.0000    0.0000   -0.0000    0.0000   -0.0000    0.0000
       37 FE2    4d0        0.0000   -0.0000    0.0000    0.0000   -0.0000    0.0000    0.0000    0.0000    0.0000   -0.0000
       38 FE2    3d1+       0.0000   -0.0000    0.0000   -0.0000    0.0000    0.0000   -0.0000    0.0000   -0.0000   -0.0000
       39 FE2    4d1+      -0.0000    0.0000   -0.0000    0.0000   -0.0000   -0.0000   -0.0000   -0.0000    0.0000   -0.0000
       40 FE2    3d2+       0.0000    0.0000    0.0000   -0.0000   -0.0000   -0.0000    0.0000    0.0000    0.0000   -0.0000
       41 FE2    4d2+      -0.0000    0.0000    0.0000   -0.0000    0.0000    0.0000   -0.0000   -0.0000   -0.0000    0.0000
       42 FE2    4f3-       0.0000    0.0000   -0.0000   -0.0000   -0.0000    0.0000    0.0000   -0.0000   -0.0000    0.0000
       43 FE2    4f2-       0.0000    0.0000    0.0000    0.0000    0.0000    0.0000   -0.0000    0.0000    0.0000    0.0000
       44 FE2    4f1-      -0.0000    0.0000   -0.0000   -0.0000   -0.0000    0.0000   -0.0000   -0.0000   -0.0000   -0.0000
       45 FE2    4f0        0.0000   -0.0000    0.0000    0.0000   -0.0000    0.0000   -0.0000    0.0000    0.0000   -0.0000
       46 FE2    4f1+       0.0000    0.0000   -0.0000    0.0000   -0.0000    0.0000    0.0000   -0.0000    0.0000    0.0000
       47 FE2    4f2+       0.0000   -0.0000   -0.0000   -0.0000   -0.0000    0.0000   -0.0000    0.0000   -0.0000   -0.0000
       48 FE2    4f3+       0.0000   -0.0000    0.0000   -0.0000   -0.0000   -0.0000   -0.0000    0.0000    0.0000   -0.0000
 
          Orbital           11        12        13        14        15        16        17        18        19        20    
          Energy           -1.5766   -0.8671   -0.8671   -0.7683   -0.5750   -0.5731   -0.5731   -0.5731   -0.5731   -0.5731
          Occ. No.          1.0000    1.0000    1.0000    1.0000    0.0000    0.0000    0.0000    0.0000    0.0000    0.0000
 
        1 O1     1s        -0.0020    0.0000   -0.0000    0.0000    0.0000   -0.0000    0.0000    0.0000   -0.0000   -0.0000
        2 O1     2s         0.9993   -0.0000   -0.0000    0.0073    0.0004   -0.0000    0.0000    0.0000   -0.0000   -0.0001
        3 O1     3s        -0.0283    0.0000   -0.0000   -0.0056    0.0004   -0.0000    0.0000    0.0000   -0.0000   -0.0000
        4 O1     2px       -0.0000    0.0414   -0.9981    0.0000   -0.0000    0.0000   -0.0000   -0.0000   -0.0000   -0.0000
        5 O1     3px        0.0000   -0.0019    0.0463   -0.0000    0.0000   -0.0000    0.0000   -0.0001   -0.0000   -0.0000
        6 O1     2py       -0.0000    0.9981    0.0414    0.0000    0.0000   -0.0000   -0.0000    0.0000   -0.0000   -0.0000
        7 O1     3py        0.0000   -0.0463   -0.0019   -0.0000   -0.0000   -0.0000   -0.0000    0.0000   -0.0001    0.0000
        8 O1     2pz       -0.0076   -0.0000    0.0000    0.9999    0.0004    0.0000   -0.0000   -0.0000    0.0000    0.0004
        9 O1     3pz       -0.0016    0.0000   -0.0000   -0.0103   -0.0010    0.0000   -0.0000   -0.0000    0.0000    0.0004
       10 O1     3d2-       0.0000   -0.0000    0.0000    0.0000   -0.0000    0.0000   -0.0000   -0.0000   -0.0000    0.0000
       11 O1     3d1-      -0.0000   -0.0027   -0.0001   -0.0000    0.0000   -0.0000   -0.0000    0.0000   -0.0000   -0.0000
       12 O1     3d0       -0.0214    0.0000   -0.0000   -0.0035    0.0000    0.0000   -0.0000   -0.0000   -0.0000    0.0000
       13 O1     3d1+      -0.0000   -0.0001    0.0027   -0.0000   -0.0000    0.0000    0.0000   -0.0000   -0.0000    0.0000
       14 O1     3d2+      -0.0000    0.0000    0.0000   -0.0000   -0.0000   -0.0000   -0.0000    0.0000    0.0000   -0.0000
       15 FE2    1s        -0.0000    0.0000   -0.0000    0.0000   -0.0000   -0.0000    0.0000   -0.0000   -0.0000   -0.0000
       16 FE2    2s        -0.0000   -0.0000    0.0000    0.0000   -0.0002   -0.0000    0.0000    0.0000    0.0000   -0.0000
       17 FE2    3s        -0.0000    0.0000   -0.0000    0.0000    0.0035    0.0000   -0.0000   -0.0000   -0.0000    0.0001
       18 FE2    4s        -0.0001   -0.0000   -0.0000    0.0001    0.9687    0.0000   -0.0000   -0.0000   -0.0000    0.0159
       19 FE2    5s        -0.0002   -0.0000    0.0000    0.0012   -0.2475   -0.0000    0.0000    0.0000    0.0000   -0.0041
       20 FE2    2px        0.0000   -0.0000    0.0000   -0.0000    0.0000   -0.0000    0.0000   -0.0000   -0.0000    0.0000
       21 FE2    3px       -0.0000   -0.0000    0.0000    0.0000   -0.0000   -0.0000    0.0000   -0.0000   -0.0000   -0.0000
       22 FE2    4px       -0.0000   -0.0000    0.0001   -0.0000    0.0000    0.0000    0.0000   -0.0001   -0.0000   -0.0000
       23 FE2    5px        0.0000   -0.0000    0.0000   -0.0000    0.0000   -0.0000    0.0000   -0.0000   -0.0000   -0.0000
       24 FE2    2py        0.0000   -0.0000   -0.0000   -0.0000   -0.0000   -0.0000   -0.0000    0.0000   -0.0000   -0.0000
       25 FE2    3py        0.0000   -0.0000   -0.0000    0.0000   -0.0000   -0.0000    0.0000    0.0000   -0.0000    0.0000
       26 FE2    4py       -0.0000   -0.0001   -0.0000    0.0000    0.0000   -0.0000    0.0000    0.0000   -0.0001    0.0000
       27 FE2    5py       -0.0000   -0.0000   -0.0000   -0.0000    0.0000   -0.0000    0.0000    0.0000   -0.0000   -0.0000
       28 FE2    2pz       -0.0000    0.0000    0.0000    0.0000    0.0000    0.0000    0.0000    0.0000   -0.0000   -0.0000
       29 FE2    3pz       -0.0000   -0.0000    0.0000    0.0000   -0.0000   -0.0000    0.0000    0.0000   -0.0000   -0.0000
       30 FE2    4pz       -0.0001   -0.0000   -0.0000    0.0006   -0.0005   -0.0000    0.0000    0.0000    0.0000   -0.0002
       31 FE2    5pz       -0.0001   -0.0000    0.0000    0.0002   -0.0001   -0.0000    0.0000    0.0000   -0.0000   -0.0000
       32 FE2    3d2-      -0.0000    0.0000    0.0000   -0.0000    0.0000    0.9920   -0.0032    0.0000   -0.0000   -0.0000
       33 FE2    4d2-       0.0000    0.0000   -0.0000   -0.0000    0.0000    0.1265   -0.0004    0.0000   -0.0000   -0.0000
       34 FE2    3d1-      -0.0000   -0.0000   -0.0000   -0.0000    0.0000    0.0000    0.0000   -0.4230    0.8973   -0.0000
       35 FE2    4d1-      -0.0000   -0.0000   -0.0000   -0.0000    0.0000    0.0000    0.0000   -0.0539    0.1144   -0.0000
       36 FE2    3d0       -0.0000    0.0000   -0.0000    0.0001   -0.0163    0.0000   -0.0000   -0.0000    0.0000    0.9918
       37 FE2    4d0       -0.0000   -0.0000    0.0000    0.0001   -0.0021    0.0000   -0.0000   -0.0000    0.0000    0.1264
       38 FE2    3d1+       0.0000   -0.0000    0.0000   -0.0000    0.0000    0.0000   -0.0000    0.8973    0.4230    0.0000
       39 FE2    4d1+      -0.0000   -0.0000    0.0000   -0.0000    0.0000    0.0000   -0.0000    0.1144    0.0539    0.0000
       40 FE2    3d2+      -0.0000   -0.0000    0.0000   -0.0000   -0.0000   -0.0032   -0.9920   -0.0000   -0.0000   -0.0000
       41 FE2    4d2+       0.0000   -0.0000    0.0000   -0.0000   -0.0000   -0.0004   -0.1265   -0.0000   -0.0000   -0.0000
       42 FE2    4f3-      -0.0000   -0.0000   -0.0000    0.0000   -0.0000   -0.0000    0.0000   -0.0000   -0.0000   -0.0000
       43 FE2    4f2-       0.0000    0.0000   -0.0000    0.0000   -0.0000    0.0000   -0.0000    0.0000   -0.0000   -0.0000
       44 FE2    4f1-       0.0000   -0.0000   -0.0000   -0.0000    0.0000    0.0000    0.0000   -0.0000    0.0000   -0.0000
       45 FE2    4f0       -0.0000   -0.0000   -0.0000   -0.0000   -0.0000    0.0000   -0.0000   -0.0000    0.0000    0.0000
       46 FE2    4f1+       0.0000   -0.0000    0.0000    0.0000   -0.0000    0.0000   -0.0000    0.0000    0.0000    0.0000
       47 FE2    4f2+      -0.0000    0.0000    0.0000    0.0000   -0.0000   -0.0000   -0.0000   -0.0000   -0.0000   -0.0000
       48 FE2    4f3+       0.0000   -0.0000    0.0000   -0.0000    0.0000   -0.0000   -0.0000    0.0000    0.0000    0.0000
 
          Orbital           21        22        23        24    
          Energy           -0.3930   -0.3930   -0.3928   -0.2278
          Occ. No.          0.0000    0.0000    0.0000    0.0000
 
        1 O1     1s        -0.0000   -0.0000   -0.0002   -0.0005
        2 O1     2s        -0.0000   -0.0000   -0.0026   -0.0070
        3 O1     3s        -0.0000   -0.0000   -0.0009    0.0000
        4 O1     2px       -0.0004   -0.0002    0.0000    0.0000
        5 O1     3px       -0.0003   -0.0001    0.0000    0.0000
        6 O1     2py        0.0002   -0.0004    0.0000    0.0000
        7 O1     3py        0.0001   -0.0003    0.0000    0.0000
        8 O1     2pz        0.0000    0.0000    0.0041    0.0104
        9 O1     3pz        0.0000    0.0000    0.0017   -0.0018
       10 O1     3d2-      -0.0000    0.0000   -0.0000   -0.0000
       11 O1     3d1-       0.0000   -0.0000    0.0000    0.0000
       12 O1     3d0        0.0000    0.0000    0.0000    0.0003
       13 O1     3d1+      -0.0000   -0.0000    0.0000    0.0000
       14 O1     3d2+      -0.0000   -0.0000    0.0000    0.0000
       15 FE2    1s        -0.0000   -0.0000    0.0000    0.0000
       16 FE2    2s         0.0000    0.0000   -0.0000    0.0002
       17 FE2    3s        -0.0000   -0.0000    0.0000   -0.0024
       18 FE2    4s        -0.0000   -0.0000    0.0002    0.2474
       19 FE2    5s        -0.0000    0.0000   -0.0010    0.9689
       20 FE2    2px       -0.0003   -0.0001    0.0000   -0.0000
       21 FE2    3px        0.0100    0.0046   -0.0000    0.0000
       22 FE2    4px        0.9080    0.4125   -0.0000   -0.0000
       23 FE2    5px        0.0656    0.0298   -0.0000   -0.0000
       24 FE2    2py        0.0001   -0.0003    0.0000    0.0000
       25 FE2    3py       -0.0046    0.0100   -0.0000   -0.0000
       26 FE2    4py       -0.4125    0.9080   -0.0000   -0.0000
       27 FE2    5py       -0.0298    0.0656   -0.0000    0.0000
       28 FE2    2pz       -0.0000   -0.0000   -0.0003   -0.0000
       29 FE2    3pz        0.0000    0.0000    0.0110    0.0000
       30 FE2    4pz        0.0000    0.0000    0.9974    0.0011
       31 FE2    5pz        0.0000    0.0000    0.0720   -0.0000
       32 FE2    3d2-      -0.0000   -0.0000    0.0000   -0.0000
       33 FE2    4d2-       0.0000    0.0000   -0.0000   -0.0000
       34 FE2    3d1-      -0.0000    0.0001   -0.0000   -0.0000
       35 FE2    4d1-       0.0000   -0.0000    0.0000    0.0000
       36 FE2    3d0        0.0000    0.0000    0.0002    0.0001
       37 FE2    4d0       -0.0000   -0.0000   -0.0001   -0.0001
       38 FE2    3d1+       0.0001    0.0000   -0.0000    0.0000
       39 FE2    4d1+      -0.0000   -0.0000    0.0000    0.0000
       40 FE2    3d2+      -0.0000    0.0000   -0.0000   -0.0000
       41 FE2    4d2+       0.0000   -0.0000   -0.0000   -0.0000
       42 FE2    4f3-       0.0000   -0.0000    0.0000   -0.0000
       43 FE2    4f2-       0.0000    0.0000   -0.0000   -0.0000
       44 FE2    4f1-       0.0000   -0.0000    0.0000    0.0000
       45 FE2    4f0       -0.0000   -0.0000   -0.0000   -0.0000
       46 FE2    4f1+      -0.0000   -0.0000    0.0000    0.0000
       47 FE2    4f2+       0.0000   -0.0000    0.0000   -0.0000
       48 FE2    4f3+       0.0000   -0.0000    0.0000    0.0000
--
 
 
++    Molecular charges:
      ------------------
 
      Mulliken charges per centre and basis function type
      ---------------------------------------------------
 
                            O1                      FE2   
                     alpha        beta       alpha        beta
      1s           1.0000      1.0000      1.0000      1.0000
      2s           0.9987      0.9987      1.0000      1.0000
      2px          0.0000      0.9978      1.0000      1.0000
      2pz          0.9976      0.9999      1.0000      1.0000
      2py          0.0000      0.9978      1.0000      1.0000
      3s           0.0005      0.0008      1.0000      1.0000
      3px          0.0000      0.0021      0.9993      0.9998
      3pz          0.0024      0.0001      0.9993      0.9998
      3py          0.0000      0.0021      0.9993      0.9998
      4s           0.0000      0.0000      0.8630      0.0000
      3d2+        -0.0000      0.0000      0.9814      0.0000
      3d1+        -0.0000      0.0000      0.9814     -0.0000
      3d0          0.0009      0.0005      0.9814     -0.0000
      3d1-        -0.0000      0.0000      0.9814     -0.0000
      3d2-        -0.0000      0.0000      0.9814      0.0000
      4px          0.0000      0.0000      0.0004      0.0001
      4pz          0.0000      0.0000      0.0004      0.0001
      4py          0.0000      0.0000      0.0004      0.0001
      5s           0.0000      0.0000      0.1370     -0.0000
      4d2+         0.0000      0.0000      0.0186      0.0000
      4d1+         0.0000      0.0000      0.0186     -0.0000
      4d0          0.0000      0.0000      0.0186     -0.0000
      4d1-         0.0000      0.0000      0.0186     -0.0000
      4d2-         0.0000      0.0000      0.0186      0.0000
      5px          0.0000      0.0000      0.0003      0.0000
      5pz          0.0000      0.0000      0.0003      0.0000
      5py          0.0000      0.0000      0.0003      0.0000
      4f3+         0.0000      0.0000      0.0000      0.0000
      4f2+         0.0000      0.0000      0.0000      0.0000
      4f1+         0.0000      0.0000      0.0000     -0.0000
      4f0          0.0000      0.0000      0.0000      0.0000
      4f1-         0.0000      0.0000      0.0000     -0.0000
      4f2-         0.0000      0.0000      0.0000      0.0000
      4f3-         0.0000      0.0000      0.0000      0.0000
      Total        3.0000      5.0000     15.0000      9.0000
      Total              8.0000                 24.0000
 
      Charge           -0.0000                  2.0000
 
      Total electronic charge=   32.000000
 
      Total            charge=    2.000000
--
 
 
  Input file to MOLDEN was generated!
 
 
++    Static properties:
      ------------------
 
 
      LoProp Charges per center
 

                   O1       FE2   
      Nuclear      8.0000  26.0000
      Electronic  -8.0000 -24.0000
 
      Total       -0.0000   2.0000
--
 
 
++    Natural Bond Order analysis
      ---------------------------
      Based on LoProp computed density
      -------------------------------------------------------------------------------------
      Atom A       Atom B       Bond Order
      -------------------------------------------------------------------------------------
      NBO located     20.000 core electrons.
      NBO located      3.996 lone pair electrons.
      NBO located      1.000 non-bonded electrons on atom O1        
      NBO located      1.000 non-bonded electrons on atom O1        
      NBO located      1.000 non-bonded electrons on atom FE2       
      NBO located      1.000 non-bonded electrons on atom FE2       
      NBO located      1.000 non-bonded electrons on atom FE2       
      NBO located      1.000 non-bonded electrons on atom FE2       
      NBO located      1.000 non-bonded electrons on atom FE2       
      NBO located      1.000 non-bonded electrons on atom FE2       
      The remaining    0.005 electrons are to be considered as diffuse
--
 
 
++    Molecular orbitals:
      -------------------
 
      Title: Natural orbitals

      Molecular orbitals for symmetry species 1: a  
 
          Orbital            1         2         3         4         5         6         7         8         9        10    
          Energy         -264.6142  -33.0569  -27.7123  -27.7136  -27.7128  -20.8102   -5.5593   -4.4606   -4.4620   -4.4627
          Occ. No.          2.0000    2.0000    2.0000    2.0000    2.0000    2.0000    2.0000    1.9999    1.9999    1.9999
 
        1 O1     1s         0.0000    0.0012    0.0198    0.0000    0.0000   -0.9992   -0.0116   -0.0006   -0.0000    0.0000
        2 O1     2s         0.0000   -0.0000   -0.0006   -0.0000   -0.0000    0.0336    0.0003   -0.0003   -0.0000    0.0000
        3 O1     3s         0.0000    0.0000   -0.0000   -0.0000   -0.0000    0.0005   -0.0000   -0.0000   -0.0000    0.0000
        4 O1     2px       -0.0000   -0.0000   -0.0000    0.0000    0.0000    0.0000    0.0000   -0.0000   -0.0000   -0.0000
        5 O1     3px        0.0000   -0.0000    0.0000   -0.0000   -0.0000   -0.0000    0.0000    0.0000   -0.0000   -0.0000
        6 O1     2py       -0.0000   -0.0000   -0.0000   -0.0000    0.0000    0.0000    0.0000    0.0000   -0.0000    0.0000
        7 O1     3py       -0.0000   -0.0000    0.0000    0.0000   -0.0000   -0.0000   -0.0000    0.0000   -0.0000    0.0000
        8 O1     2pz       -0.0000   -0.0000   -0.0000   -0.0000   -0.0000    0.0004    0.0004   -0.0002   -0.0000    0.0000
        9 O1     3pz        0.0000   -0.0000    0.0000    0.0000    0.0000   -0.0001    0.0002    0.0000    0.0000   -0.0000
       10 O1     3d2-       0.0000   -0.0000   -0.0000    0.0000    0.0000   -0.0000   -0.0000    0.0000   -0.0000    0.0000
       11 O1     3d1-       0.0000   -0.0000    0.0000   -0.0000    0.0000   -0.0000   -0.0000   -0.0000    0.0000   -0.0000
       12 O1     3d0       -0.0000    0.0000    0.0000    0.0000    0.0000   -0.0002   -0.0000   -0.0000   -0.0000    0.0000
       13 O1     3d1+       0.0000    0.0000   -0.0000    0.0000    0.0000   -0.0000   -0.0000   -0.0000    0.0000    0.0000
       14 O1     3d2+       0.0000    0.0000   -0.0000   -0.0000   -0.0000    0.0000    0.0000   -0.0000    0.0000   -0.0000
       15 FE2    1s         1.0000   -0.0000    0.0000   -0.0000   -0.0000   -0.0000    0.0000    0.0000    0.0000   -0.0000
       16 FE2    2s         0.0000    0.9939    0.0003   -0.0000   -0.0000   -0.0001    0.1103    0.0001    0.0000   -0.0000
       17 FE2    3s        -0.0000   -0.1103   -0.0000    0.0000    0.0000   -0.0117    0.9938    0.0002    0.0000   -0.0000
       18 FE2    4s         0.0000    0.0005    0.0000   -0.0000   -0.0000    0.0000   -0.0022   -0.0000   -0.0000    0.0000
       19 FE2    5s        -0.0000   -0.0006    0.0000    0.0000    0.0000   -0.0001    0.0045    0.0000    0.0000   -0.0000
       20 FE2    2px        0.0000    0.0000   -0.0000    0.9831    0.0533    0.0000    0.0000   -0.0000    0.1725    0.0296
       21 FE2    3px       -0.0000   -0.0000    0.0000   -0.1747   -0.0095   -0.0000   -0.0000   -0.0000    0.9702    0.1666
       22 FE2    4px        0.0000    0.0000   -0.0000    0.0026    0.0001    0.0000    0.0000    0.0000   -0.0149   -0.0026
       23 FE2    5px       -0.0000   -0.0000    0.0000   -0.0019   -0.0001   -0.0000   -0.0000   -0.0000    0.0115    0.0020
       24 FE2    2py        0.0000    0.0000   -0.0000   -0.0533    0.9831    0.0000    0.0000   -0.0000    0.0296   -0.1726
       25 FE2    3py       -0.0000   -0.0000    0.0000    0.0095   -0.1748   -0.0000   -0.0000   -0.0000    0.1666   -0.9702
       26 FE2    4py        0.0000    0.0000   -0.0000   -0.0001    0.0026    0.0000    0.0000    0.0000   -0.0026    0.0149
       27 FE2    5py       -0.0000   -0.0000    0.0000    0.0001   -0.0019   -0.0000   -0.0000   -0.0000    0.0020   -0.0115
       28 FE2    2pz       -0.0000   -0.0003    0.9844    0.0000    0.0000    0.0194    0.0002    0.1748    0.0000   -0.0000
       29 FE2    3pz       -0.0000    0.0000   -0.1748   -0.0000   -0.0000   -0.0040   -0.0003    0.9844    0.0000   -0.0000
       30 FE2    4pz        0.0000   -0.0000    0.0026    0.0000    0.0000    0.0001    0.0000   -0.0151   -0.0000    0.0000
       31 FE2    5pz       -0.0000   -0.0000   -0.0019   -0.0000   -0.0000   -0.0000    0.0000    0.0117    0.0000   -0.0000
       32 FE2    3d2-      -0.0000    0.0000   -0.0000    0.0000    0.0000    0.0000   -0.0000    0.0000   -0.0000    0.0000
       33 FE2    4d2-       0.0000   -0.0000   -0.0000   -0.0000   -0.0000   -0.0000    0.0000    0.0000    0.0000   -0.0000
       34 FE2    3d1-      -0.0000   -0.0000    0.0000    0.0000   -0.0000   -0.0000    0.0000   -0.0000    0.0000   -0.0000
       35 FE2    4d1-       0.0000   -0.0000   -0.0000   -0.0000    0.0000    0.0000   -0.0000    0.0000   -0.0000    0.0000
       36 FE2    3d0        0.0000    0.0000   -0.0000   -0.0000   -0.0000   -0.0000   -0.0000    0.0000    0.0000   -0.0000
       37 FE2    4d0        0.0000   -0.0000    0.0000    0.0000    0.0000   -0.0000    0.0000   -0.0000   -0.0000    0.0000
       38 FE2    3d1+       0.0000   -0.0000    0.0000   -0.0000   -0.0000   -0.0000   -0.0000   -0.0000    0.0000    0.0000
       39 FE2    4d1+      -0.0000    0.0000   -0.0000    0.0000    0.0000    0.0000   -0.0000    0.0000   -0.0000   -0.0000
       40 FE2    3d2+       0.0000    0.0000    0.0000    0.0000    0.0000   -0.0000   -0.0000   -0.0000    0.0000   -0.0000
       41 FE2    4d2+      -0.0000    0.0000   -0.0000    0.0000   -0.0000    0.0000   -0.0000    0.0000   -0.0000    0.0000
       42 FE2    4f3-       0.0000    0.0000   -0.0000   -0.0000   -0.0000   -0.0000    0.0000    0.0000   -0.0000    0.0000
       43 FE2    4f2-       0.0000    0.0000   -0.0000   -0.0000   -0.0000   -0.0000   -0.0000    0.0000    0.0000   -0.0000
       44 FE2    4f1-      -0.0000    0.0000   -0.0000   -0.0000    0.0000    0.0000   -0.0000    0.0000   -0.0000    0.0000
       45 FE2    4f0        0.0000    0.0000    0.0000    0.0000    0.0000   -0.0000   -0.0000   -0.0000   -0.0000    0.0000
       46 FE2    4f1+       0.0000    0.0000   -0.0000    0.0000    0.0000    0.0000    0.0000    0.0000   -0.0000   -0.0000
       47 FE2    4f2+       0.0000    0.0000    0.0000   -0.0000   -0.0000   -0.0000   -0.0000   -0.0000    0.0000    0.0000
       48 FE2    4f3+       0.0000   -0.0000    0.0000    0.0000   -0.0000    0.0000   -0.0000   -0.0000    0.0000   -0.0000
 
          Orbital           11        12        13        14        15        16        17        18        19        20    
          Energy           -0.7226   -1.4214   -0.7538   -0.7538   -1.0851   -1.0851   -1.0851   -0.7604   -0.7538   -0.7538
          Occ. No.          1.9983    1.9974    1.0000    1.0000    1.0000    1.0000    1.0000    1.0000    1.0000    1.0000
 
        1 O1     1s         0.0026    0.0335   -0.0000   -0.0000    0.0000   -0.0000    0.0000   -0.0001   -0.0000   -0.0000
        2 O1     2s         0.0658    0.9973   -0.0000   -0.0000    0.0000   -0.0000    0.0000   -0.0013   -0.0000   -0.0000
        3 O1     3s        -0.0060   -0.0028   -0.0000   -0.0000    0.0000   -0.0000    0.0001   -0.0014   -0.0000   -0.0000
        4 O1     2px        0.0000   -0.0000   -0.6404   -0.2980   -0.0000   -0.0000   -0.0000    0.0000    0.6399    0.2991
        5 O1     3px        0.0000    0.0000    0.0297    0.0138    0.0000    0.0000    0.0000   -0.0000   -0.0296   -0.0139
        6 O1     2py        0.0000   -0.0000    0.2980   -0.6404   -0.0000    0.0000    0.0000    0.0000   -0.2991    0.6399
        7 O1     3py        0.0000   -0.0000   -0.0138    0.0297    0.0000   -0.0000    0.0000   -0.0000    0.0139   -0.0296
        8 O1     2pz        0.9976   -0.0658    0.0000    0.0000   -0.0000    0.0000   -0.0001    0.0010   -0.0000   -0.0000
        9 O1     3pz        0.0190   -0.0035    0.0000    0.0000   -0.0000    0.0000   -0.0003    0.0037    0.0000    0.0000
       10 O1     3d2-       0.0000   -0.0000    0.0000    0.0000    0.0000    0.0000    0.0000    0.0000   -0.0000   -0.0000
       11 O1     3d1-      -0.0000    0.0000   -0.0008    0.0017    0.0000   -0.0000   -0.0000   -0.0000    0.0008   -0.0017
       12 O1     3d0       -0.0030    0.0040   -0.0000   -0.0000    0.0000   -0.0000    0.0000   -0.0001   -0.0000   -0.0000
       13 O1     3d1+      -0.0000    0.0000    0.0017    0.0008    0.0000    0.0000   -0.0000    0.0000   -0.0017   -0.0008
       14 O1     3d2+       0.0000    0.0000    0.0000   -0.0000   -0.0000    0.0000   -0.0000    0.0000   -0.0000    0.0000
       15 FE2    1s         0.0000   -0.0000    0.0000    0.0000   -0.0000    0.0000   -0.0000    0.0000    0.0000    0.0000
       16 FE2    2s         0.0000   -0.0000    0.0000    0.0000   -0.0000    0.0000   -0.0000    0.0003    0.0000    0.0000
       17 FE2    3s        -0.0003    0.0001   -0.0000   -0.0000    0.0000   -0.0000    0.0000   -0.0038   -0.0000   -0.0000
       18 FE2    4s         0.0002   -0.0000   -0.0000   -0.0000    0.0000   -0.0000   -0.0000   -0.9289   -0.0000   -0.0000
       19 FE2    5s         0.0012   -0.0003    0.0000    0.0000   -0.0000    0.0000   -0.0000    0.3702    0.0000    0.0000
       20 FE2    2px       -0.0000   -0.0000   -0.0000   -0.0000   -0.0000    0.0000    0.0000    0.0000   -0.0000   -0.0000
       21 FE2    3px        0.0000   -0.0000   -0.0000   -0.0000    0.0000    0.0000   -0.0000    0.0000   -0.0000   -0.0000
       22 FE2    4px       -0.0000   -0.0000    0.0000    0.0000    0.0000    0.0000   -0.0000    0.0000   -0.0001   -0.0000
       23 FE2    5px       -0.0000    0.0000    0.0000    0.0000    0.0000    0.0000    0.0000    0.0000   -0.0000   -0.0000
       24 FE2    2py        0.0000   -0.0000    0.0000   -0.0000   -0.0000   -0.0000   -0.0000    0.0000    0.0000   -0.0000
       25 FE2    3py       -0.0000   -0.0000    0.0000   -0.0000   -0.0000   -0.0000   -0.0000    0.0000    0.0000   -0.0000
       26 FE2    4py        0.0000    0.0000   -0.0000    0.0000   -0.0000   -0.0000   -0.0000    0.0000    0.0000   -0.0001
       27 FE2    5py       -0.0000   -0.0000   -0.0000    0.0000    0.0000   -0.0000   -0.0000    0.0000    0.0000   -0.0000
       28 FE2    2pz        0.0001    0.0000   -0.0000   -0.0000    0.0000   -0.0000   -0.0000   -0.0000   -0.0000   -0.0000
       29 FE2    3pz        0.0003    0.0003    0.0000    0.0000   -0.0000   -0.0000   -0.0000    0.0000    0.0000    0.0000
       30 FE2    4pz        0.0004   -0.0001    0.0000    0.0000   -0.0000    0.0000   -0.0001    0.0012    0.0000    0.0000
       31 FE2    5pz        0.0002   -0.0001    0.0000    0.0000   -0.0000    0.0000   -0.0000    0.0001    0.0000    0.0000
       32 FE2    3d2-      -0.0000   -0.0000    0.0000   -0.0000    0.9879    0.0743   -0.0000    0.0000    0.0000   -0.0000
       33 FE2    4d2-       0.0000    0.0000   -0.0000    0.0000   -0.1360   -0.0102    0.0000   -0.0000   -0.0000    0.0000
       34 FE2    3d1-      -0.0000    0.0000   -0.2955    0.6351    0.0000    0.0000    0.0000   -0.0000   -0.2966    0.6346
       35 FE2    4d1-      -0.0000   -0.0000    0.0407   -0.0874   -0.0000   -0.0000   -0.0000    0.0000    0.0408   -0.0874
       36 FE2    3d0        0.0001   -0.0000    0.0000   -0.0000    0.0000    0.0000    0.9907    0.0000    0.0000   -0.0000
       37 FE2    4d0        0.0001   -0.0000   -0.0000    0.0000   -0.0000   -0.0000   -0.1364    0.0001   -0.0000    0.0000
       38 FE2    3d1+      -0.0000    0.0000    0.6351    0.2955   -0.0000   -0.0000    0.0000   -0.0000    0.6346    0.2966
       39 FE2    4d1+      -0.0000   -0.0000   -0.0874   -0.0407    0.0000    0.0000   -0.0000    0.0000   -0.0874   -0.0408
       40 FE2    3d2+      -0.0000    0.0000    0.0000    0.0000   -0.0743    0.9879   -0.0000   -0.0000    0.0000    0.0000
       41 FE2    4d2+       0.0000    0.0000   -0.0000   -0.0000    0.0102   -0.1360    0.0000    0.0000   -0.0000   -0.0000
       42 FE2    4f3-       0.0000    0.0000   -0.0000   -0.0000    0.0000   -0.0000   -0.0000    0.0000    0.0000   -0.0000
       43 FE2    4f2-       0.0000    0.0000    0.0000   -0.0000    0.0000    0.0000   -0.0000    0.0000    0.0000   -0.0000
       44 FE2    4f1-      -0.0000    0.0000   -0.0000    0.0000    0.0000   -0.0000    0.0000   -0.0000   -0.0000    0.0000
       45 FE2    4f0       -0.0000   -0.0000    0.0000    0.0000   -0.0000    0.0000    0.0000    0.0000    0.0000    0.0000
       46 FE2    4f1+       0.0000    0.0000    0.0000    0.0000   -0.0000   -0.0000    0.0000   -0.0000    0.0000    0.0000
       47 FE2    4f2+       0.0000   -0.0000    0.0000    0.0000   -0.0000    0.0000   -0.0000   -0.0000    0.0000    0.0000
       48 FE2    4f3+      -0.0000    0.0000    0.0000    0.0000   -0.0000    0.0000    0.0000   -0.0000    0.0000    0.0000
 
          Orbital           21        22        23        24        25        26        27        28        29        30    
          Energy            1.3677    0.4290    0.9444    0.9444    0.9460   -0.2387    1.3180   -0.0434   -0.0434    0.0128
          Occ. No.          0.0026    0.0017    0.0001    0.0001    0.0001    0.0000    0.0000    0.0000    0.0000    0.0000
 
        1 O1     1s         0.0002   -0.0000   -0.0000   -0.0000   -0.0002    0.0005    0.0007   -0.0000    0.0000    0.0002
        2 O1     2s        -0.0007    0.0022   -0.0000   -0.0000   -0.0032    0.0075    0.0058   -0.0000    0.0000    0.0036
        3 O1     3s         0.7050    0.0418   -0.0000   -0.0000   -0.0068    0.0221    0.6963    0.0000    0.0000   -0.1280
        4 O1     2px       -0.0000   -0.0000   -0.0007    0.0001    0.0000    0.0000   -0.0000   -0.0011   -0.0000    0.0000
        5 O1     3px       -0.0000    0.0000   -0.0029    0.0003    0.0000   -0.0000    0.0000   -0.0090   -0.0003   -0.0000
        6 O1     2py        0.0000   -0.0000   -0.0001   -0.0007    0.0000   -0.0000   -0.0000   -0.0000    0.0011    0.0000
        7 O1     3py       -0.0000    0.0000   -0.0003   -0.0029    0.0000   -0.0000    0.0000   -0.0003    0.0090    0.0000
        8 O1     2pz        0.0078   -0.0186    0.0000    0.0000    0.0041   -0.0109    0.0002    0.0000   -0.0000   -0.0073
        9 O1     3pz       -0.0715    0.9970    0.0000    0.0000    0.0140   -0.0598    0.0028    0.0000    0.0000   -0.0502
       10 O1     3d2-      -0.0000   -0.0000    0.0000    0.0000    0.0000    0.0000    0.0000   -0.0000    0.0000    0.0000
       11 O1     3d1-       0.0000    0.0000    0.0000    0.0002   -0.0000   -0.0000   -0.0000    0.0000   -0.0010    0.0000
       12 O1     3d0        0.7055    0.0597   -0.0000   -0.0000   -0.0018    0.0027   -0.6918   -0.0000   -0.0000    0.1418
       13 O1     3d1+       0.0000    0.0000    0.0002   -0.0000   -0.0000   -0.0000   -0.0000    0.0010    0.0000    0.0000
       14 O1     3d2+       0.0000    0.0000   -0.0000   -0.0000   -0.0000    0.0000   -0.0000   -0.0000    0.0000    0.0000
       15 FE2    1s        -0.0000    0.0000    0.0000    0.0000    0.0000   -0.0000   -0.0000   -0.0000    0.0000   -0.0000
       16 FE2    2s        -0.0000    0.0000   -0.0000    0.0000    0.0000    0.0000   -0.0000    0.0000   -0.0000   -0.0000
       17 FE2    3s        -0.0000    0.0003    0.0000    0.0000   -0.0000    0.0033   -0.0000    0.0000    0.0000   -0.0000
       18 FE2    4s         0.0016    0.0021    0.0000    0.0000   -0.0002   -0.3708    0.0013   -0.0000    0.0000   -0.0021
       19 FE2    5s         0.0006    0.0011    0.0000    0.0000    0.0013   -0.9310    0.0015   -0.0000    0.0000   -0.0025
       20 FE2    2px        0.0000    0.0000   -0.0002    0.0000    0.0000    0.0000    0.0000   -0.0000   -0.0000   -0.0000
       21 FE2    3px        0.0000   -0.0000   -0.0180    0.0016    0.0000   -0.0000    0.0000    0.0070    0.0002    0.0000
       22 FE2    4px       -0.0000    0.0000   -0.5143    0.0468    0.0000   -0.0000    0.0000    0.8557    0.0306    0.0000
       23 FE2    5px       -0.0000   -0.0000    0.8526   -0.0776   -0.0000   -0.0000    0.0000    0.5163    0.0185    0.0000
       24 FE2    2py        0.0000   -0.0000   -0.0000   -0.0002    0.0000   -0.0000    0.0000   -0.0000    0.0000    0.0000
       25 FE2    3py        0.0000    0.0000   -0.0016   -0.0180    0.0000   -0.0000    0.0000    0.0002   -0.0070    0.0000
       26 FE2    4py       -0.0000    0.0000   -0.0468   -0.5143    0.0000   -0.0000    0.0000    0.0306   -0.8557    0.0000
       27 FE2    5py       -0.0000   -0.0000    0.0776    0.8526   -0.0000   -0.0000    0.0000    0.0185   -0.5163    0.0000
       28 FE2    2pz       -0.0000    0.0000   -0.0000   -0.0000   -0.0002   -0.0000    0.0000   -0.0000    0.0000    0.0000
       29 FE2    3pz       -0.0000    0.0002   -0.0000   -0.0000   -0.0181   -0.0000   -0.0014    0.0000   -0.0000   -0.0069
       30 FE2    4pz        0.0007   -0.0071   -0.0000   -0.0000   -0.5160   -0.0002   -0.1691    0.0000   -0.0000   -0.8401
       31 FE2    5pz        0.0006   -0.0006    0.0000    0.0000    0.8566   -0.0003   -0.1028    0.0000   -0.0000   -0.5070
       32 FE2    3d2-       0.0000    0.0000    0.0000   -0.0000    0.0000    0.0000   -0.0000    0.0000   -0.0000    0.0000
       33 FE2    4d2-       0.0000    0.0000    0.0000   -0.0000    0.0000    0.0000   -0.0000    0.0000   -0.0000    0.0000
       34 FE2    3d1-      -0.0000    0.0000   -0.0000   -0.0000    0.0000   -0.0000    0.0000    0.0000   -0.0002    0.0000
       35 FE2    4d1-      -0.0000    0.0000   -0.0000   -0.0002    0.0000   -0.0000    0.0000    0.0000   -0.0012    0.0000
       36 FE2    3d0        0.0000    0.0001   -0.0000    0.0000   -0.0000   -0.0002   -0.0012    0.0000    0.0000   -0.0001
       37 FE2    4d0        0.0002   -0.0013   -0.0000    0.0000    0.0000   -0.0010   -0.0087    0.0000    0.0000   -0.0007
       38 FE2    3d1+      -0.0000    0.0000   -0.0000    0.0000    0.0000   -0.0000    0.0000    0.0002    0.0000    0.0000
       39 FE2    4d1+      -0.0000    0.0000   -0.0002    0.0000    0.0000   -0.0000    0.0000    0.0012    0.0000    0.0000
       40 FE2    3d2+      -0.0000    0.0000   -0.0000   -0.0000    0.0000    0.0000   -0.0000    0.0000    0.0000    0.0000
       41 FE2    4d2+      -0.0000    0.0000   -0.0000   -0.0000    0.0000    0.0000   -0.0000    0.0000    0.0000    0.0000
       42 FE2    4f3-      -0.0000    0.0000    0.0000   -0.0000    0.0000    0.0000    0.0000   -0.0000   -0.0000    0.0000
       43 FE2    4f2-      -0.0000    0.0000   -0.0000   -0.0000   -0.0000   -0.0000    0.0000   -0.0000   -0.0000   -0.0000
       44 FE2    4f1-      -0.0000    0.0000   -0.0000   -0.0000    0.0000    0.0000    0.0000    0.0000   -0.0001    0.0000
       45 FE2    4f0        0.0000   -0.0000    0.0000    0.0000   -0.0000   -0.0000   -0.0002    0.0000    0.0000   -0.0001
       46 FE2    4f1+       0.0000    0.0000   -0.0000    0.0000    0.0000    0.0000   -0.0000    0.0001    0.0000    0.0000
       47 FE2    4f2+      -0.0000    0.0000    0.0000    0.0000   -0.0000   -0.0000    0.0000    0.0000    0.0000   -0.0000
       48 FE2    4f3+       0.0000   -0.0000    0.0000   -0.0000   -0.0000   -0.0000   -0.0000   -0.0000    0.0000    0.0000
 
          Orbital           31        32        33        34        35        36        37        38        39        40    
          Energy            0.2684    0.4268    0.2678    0.4258    0.2688    0.2703    0.2682    1.9623    2.1464    2.9207
          Occ. No.          0.0000    0.0000    0.0000    0.0000    0.0000    0.0000    0.0000    0.0000    0.0000    0.0000
 
        1 O1     1s         0.0000   -0.0000    0.0000    0.0000   -0.0000   -0.0000    0.0000   -0.0000    0.0000    0.0000
        2 O1     2s         0.0004   -0.0000    0.0000    0.0000   -0.0000   -0.0000    0.0000    0.0000    0.0000    0.0000
        3 O1     3s        -0.0035    0.0000   -0.0000   -0.0000    0.0000    0.0000   -0.0000   -0.0000   -0.0000   -0.0000
        4 O1     2px       -0.0000   -0.0463    0.0003   -0.0015   -0.0003    0.0002   -0.0000   -0.0027   -0.0002    0.0001
        5 O1     3px       -0.0004   -0.9983    0.0074   -0.0320   -0.0054    0.0001   -0.0005   -0.0004    0.0008   -0.0003
        6 O1     2py        0.0000    0.0015    0.0000   -0.0462    0.0033    0.0003    0.0006    0.0003   -0.0025    0.0011
        7 O1     3py        0.0000    0.0316    0.0002   -0.9958    0.0719    0.0051    0.0094    0.0001   -0.0018    0.0008
        8 O1     2pz       -0.0021    0.0000   -0.0000   -0.0000    0.0000    0.0000   -0.0000   -0.0000   -0.0000   -0.0000
        9 O1     3pz       -0.0169    0.0000   -0.0000   -0.0000    0.0000    0.0000    0.0000   -0.0000   -0.0000   -0.0000
       10 O1     3d2-      -0.0000    0.0003   -0.0001   -0.0000    0.0005    0.0023   -0.0007   -0.0031    0.0004   -0.0001
       11 O1     3d1-      -0.0000   -0.0008    0.0014    0.0016   -0.0053    0.0078   -0.0028    0.0910   -0.9120    0.3997
       12 O1     3d0        0.0067   -0.0000    0.0000    0.0000   -0.0000   -0.0000    0.0000    0.0000    0.0000    0.0000
       13 O1     3d1+       0.0000    0.0002    0.0006    0.0001    0.0001    0.0101   -0.0030   -0.9946   -0.0836    0.0366
       14 O1     3d2+       0.0001   -0.0051    0.0018    0.0001   -0.0084   -0.0353    0.0108    0.0481   -0.0060    0.0013
       15 FE2    1s        -0.0000    0.0000   -0.0000   -0.0000    0.0000    0.0000    0.0000   -0.0000   -0.0000   -0.0000
       16 FE2    2s        -0.0000    0.0000   -0.0000   -0.0000    0.0000    0.0000    0.0000   -0.0000   -0.0000   -0.0000
       17 FE2    3s        -0.0000    0.0000   -0.0000   -0.0000    0.0000   -0.0000    0.0000   -0.0000   -0.0000   -0.0000
       18 FE2    4s        -0.0001    0.0000   -0.0000   -0.0000    0.0000    0.0000   -0.0000   -0.0000    0.0000   -0.0000
       19 FE2    5s        -0.0000    0.0000   -0.0000   -0.0000    0.0000   -0.0000    0.0000   -0.0000    0.0000   -0.0000
       20 FE2    2px        0.0000    0.0000   -0.0000    0.0000    0.0000   -0.0000    0.0000   -0.0000   -0.0000    0.0000
       21 FE2    3px        0.0000   -0.0000    0.0000   -0.0000   -0.0000    0.0000    0.0000    0.0000    0.0000   -0.0000
       22 FE2    4px       -0.0000   -0.0022    0.0000   -0.0001   -0.0001    0.0011    0.0000    0.0005    0.0001   -0.0000
       23 FE2    5px       -0.0000   -0.0007    0.0000   -0.0000   -0.0000    0.0005    0.0000    0.0002    0.0000   -0.0000
       24 FE2    2py       -0.0000   -0.0000   -0.0000    0.0000   -0.0000   -0.0000   -0.0000    0.0000   -0.0000    0.0000
       25 FE2    3py       -0.0000    0.0000    0.0000   -0.0000    0.0000   -0.0000    0.0000   -0.0000    0.0000   -0.0000
       26 FE2    4py        0.0000    0.0001    0.0000   -0.0022    0.0002    0.0000    0.0012   -0.0000    0.0004   -0.0002
       27 FE2    5py        0.0000    0.0000    0.0000   -0.0007    0.0001    0.0000    0.0005   -0.0000    0.0001   -0.0001
       28 FE2    2pz       -0.0000    0.0000   -0.0000   -0.0000    0.0000    0.0000   -0.0000   -0.0000   -0.0000   -0.0000
       29 FE2    3pz        0.0000   -0.0000    0.0000    0.0000   -0.0000   -0.0000    0.0000   -0.0000    0.0000    0.0000
       30 FE2    4pz        0.0016   -0.0000    0.0000    0.0000   -0.0000    0.0000   -0.0000    0.0000    0.0000    0.0000
       31 FE2    5pz        0.0006   -0.0000    0.0000    0.0000   -0.0000    0.0000   -0.0000    0.0000    0.0000    0.0000
       32 FE2    3d2-       0.0000   -0.0011   -0.0037    0.0098    0.1359    0.0046   -0.0012    0.0002   -0.0006    0.0003
       33 FE2    4d2-       0.0001   -0.0079   -0.0270    0.0712    0.9870    0.0334   -0.0086    0.0014   -0.0044    0.0019
       34 FE2    3d1-       0.0000    0.0001   -0.0003   -0.0009   -0.0011    0.0001   -0.1364    0.0004    0.0004   -0.0002
       35 FE2    4d1-       0.0000    0.0007   -0.0018   -0.0066   -0.0083    0.0005   -0.9905    0.0033    0.0026   -0.0011
       36 FE2    3d0       -0.1364    0.0001   -0.0000   -0.0000    0.0000    0.0000   -0.0000    0.0000   -0.0000   -0.0000
       37 FE2    4d0       -0.9907    0.0004   -0.0000   -0.0000    0.0001    0.0001   -0.0000    0.0000   -0.0000   -0.0000
       38 FE2    3d1+      -0.0000    0.0005   -0.0003   -0.0003    0.0047   -0.1362   -0.0002   -0.0015   -0.0011    0.0005
       39 FE2    4d1+      -0.0002    0.0033   -0.0022   -0.0025    0.0339   -0.9894   -0.0012   -0.0110   -0.0079    0.0035
       40 FE2    3d2+      -0.0000    0.0010    0.1363    0.0003    0.0037   -0.0002   -0.0003    0.0001    0.0002   -0.0001
       41 FE2    4d2+      -0.0000    0.0071    0.9903    0.0024    0.0271   -0.0012   -0.0021    0.0004    0.0011   -0.0005
       42 FE2    4f3-      -0.0000    0.0000    0.0000   -0.0000   -0.0000   -0.0000    0.0000   -0.0000   -0.0000   -0.0000
       43 FE2    4f2-      -0.0000   -0.0000    0.0000   -0.0000   -0.0000   -0.0000    0.0000   -0.0000    0.3734    0.8521
       44 FE2    4f1-       0.0000    0.0001    0.0000   -0.0001   -0.0000   -0.0001    0.0000   -0.0000    0.0000   -0.0000
       45 FE2    4f0        0.0041    0.0000    0.0001   -0.0000   -0.0006   -0.0026    0.0004   -0.0008    0.0000   -0.0000
       46 FE2    4f1+       0.0000    0.0003    0.0000   -0.0000   -0.0001   -0.0001    0.0000   -0.0000    0.0000   -0.0000
       47 FE2    4f2+      -0.0000    0.0000   -0.0000   -0.0000   -0.0000   -0.0000    0.0000   -0.0000    0.1472    0.3359
       48 FE2    4f3+      -0.0000   -0.0000   -0.0000    0.0000    0.0000    0.0000   -0.0000    0.0000    0.0000    0.0000
 
          Orbital           41        42        43        44        45        46    
          Energy            1.9559    3.1048    3.1048    3.1048    3.1048    3.1048
          Occ. No.          0.0000    0.0000    0.0000    0.0000    0.0000    0.0000
 
        1 O1     1s         0.0000    0.0000    0.0000   -0.0000    0.0000    0.0000
        2 O1     2s         0.0000    0.0000   -0.0000   -0.0000    0.0000    0.0000
        3 O1     3s        -0.0000   -0.0000    0.0000    0.0000   -0.0000   -0.0000
        4 O1     2px       -0.0000   -0.0000   -0.0000    0.0000   -0.0000    0.0000
        5 O1     3px       -0.0000   -0.0000   -0.0000    0.0000    0.0001    0.0002
        6 O1     2py        0.0000    0.0000   -0.0000   -0.0000    0.0000   -0.0000
        7 O1     3py        0.0000    0.0000   -0.0000   -0.0000    0.0000   -0.0002
        8 O1     2pz       -0.0000   -0.0000    0.0000    0.0000   -0.0000   -0.0000
        9 O1     3pz       -0.0000   -0.0000    0.0000    0.0000   -0.0000   -0.0000
       10 O1     3d2-       0.9979    0.0000   -0.0000   -0.0000   -0.0000   -0.0000
       11 O1     3d1-      -0.0000   -0.0000   -0.0000    0.0000   -0.0000    0.0000
       12 O1     3d0        0.0000    0.0000   -0.0000   -0.0000    0.0000    0.0000
       13 O1     3d1+      -0.0000   -0.0000    0.0000    0.0000    0.0000    0.0000
       14 O1     3d2+       0.0640    0.0000   -0.0000    0.0000    0.0001    0.0001
       15 FE2    1s        -0.0000   -0.0000   -0.0000    0.0000   -0.0000   -0.0000
       16 FE2    2s        -0.0000   -0.0000    0.0000    0.0000   -0.0000   -0.0000
       17 FE2    3s        -0.0000   -0.0000    0.0000    0.0000   -0.0000   -0.0000
       18 FE2    4s         0.0000    0.0000    0.0000   -0.0000    0.0000    0.0000
       19 FE2    5s         0.0000    0.0000    0.0000   -0.0000    0.0000    0.0000
       20 FE2    2px       -0.0000    0.0000   -0.0000   -0.0000    0.0000    0.0000
       21 FE2    3px        0.0000    0.0000    0.0000    0.0000    0.0000    0.0000
       22 FE2    4px        0.0000    0.0000    0.0000    0.0000   -0.0001   -0.0000
       23 FE2    5px        0.0000   -0.0000   -0.0000    0.0000   -0.0000   -0.0000
       24 FE2    2py       -0.0000    0.0000    0.0000    0.0000   -0.0000    0.0000
       25 FE2    3py        0.0000    0.0000   -0.0000   -0.0000   -0.0000    0.0000
       26 FE2    4py        0.0000    0.0000    0.0000   -0.0000    0.0000   -0.0001
       27 FE2    5py        0.0000    0.0000    0.0000   -0.0000    0.0000   -0.0000
       28 FE2    2pz       -0.0000    0.0000   -0.0000    0.0000   -0.0000   -0.0000
       29 FE2    3pz        0.0000    0.0000    0.0000   -0.0000    0.0000    0.0000
       30 FE2    4pz        0.0000    0.0000    0.0000   -0.0000    0.0000    0.0000
       31 FE2    5pz        0.0000    0.0000    0.0000   -0.0000    0.0000    0.0000
       32 FE2    3d2-      -0.0000   -0.0000    0.0000    0.0000    0.0000    0.0000
       33 FE2    4d2-      -0.0000    0.0000   -0.0000    0.0000    0.0001    0.0000
       34 FE2    3d1-       0.0000    0.0000   -0.0000    0.0000    0.0000    0.0000
       35 FE2    4d1-       0.0000   -0.0000    0.0000    0.0000    0.0000    0.0000
       36 FE2    3d0       -0.0000   -0.0000    0.0000    0.0000   -0.0000   -0.0000
       37 FE2    4d0       -0.0000   -0.0000    0.0000    0.0000   -0.0000   -0.0000
       38 FE2    3d1+       0.0000    0.0000   -0.0000   -0.0000   -0.0000   -0.0000
       39 FE2    4d1+       0.0000   -0.0000    0.0000   -0.0000   -0.0001   -0.0001
       40 FE2    3d2+      -0.0000   -0.0000   -0.0000   -0.0000   -0.0000   -0.0000
       41 FE2    4d2+      -0.0000   -0.0000   -0.0000    0.0000   -0.0000   -0.0000
       42 FE2    4f3-      -0.0000    0.9980   -0.0624   -0.0000   -0.0000    0.0000
       43 FE2    4f2-       0.0000    0.0000   -0.0000   -0.3667    0.0000    0.0000
       44 FE2    4f1-       0.0000   -0.0000    0.0000   -0.0000   -0.2692    0.9631
       45 FE2    4f0        0.0000   -0.0000    0.0000   -0.0000   -0.0000    0.0000
       46 FE2    4f1+      -0.0000    0.0000    0.0000    0.0000    0.9631    0.2692
       47 FE2    4f2+       0.0000    0.0000    0.0000    0.9303    0.0000    0.0000
       48 FE2    4f3+       0.0000    0.0624    0.9980   -0.0000   -0.0000   -0.0000
--
 
 
++    Molecular properties:
      ---------------------
 
      Charge (e):
                      =    2.0000
      Dipole Moment (Debye):
      Origin of the operator (Ang)=    0.0000    0.0000    0.0000
                   X= -2.3603E-12               Y= -2.0427E-12               Z= -2.5006E+01           Total=  2.5006E+01
      Center of Charge (Ang)
                     X=   -0.00000000               Y=   -0.00000000               Z=   -2.60306536
      Quadrupole Moment (Debye*Ang):
      Origin of the operator (Ang)=    0.0000    0.0000   -1.0942
                  XX= -1.4216E+01              XY=  5.8224E-13              XZ= -1.6698E-10              YY= -1.4216E+01
                  YZ= -1.9579E-10              ZZ=  7.2231E+00
      In traceless form (Debye*Ang)
                  XX= -1.0719E+01              XY=  8.7336E-13              XZ= -2.5047E-10              YY= -1.0719E+01
                  YZ= -2.9368E-10              ZZ=  2.1439E+01
--
 
 
  Input file to MOLDEN was generated!
 
 ###############################################################################
 ###############################################################################
 ###                                                                         ###
 ###                                                                         ###
 ###    RunFile label nBas                                                   ###
 ###    was used       86 times                                              ###
 ###                                                                         ###
 ###                                                                         ###
 ###############################################################################
 ###############################################################################
--- Stop Module: scf at Sun Dec 22 16:45:35 2024 /rc=_RC_ALL_IS_WELL_ ---
*** files: 6.82.LprOrb 6.82.LoProp.molden 6.82.scf.molden 6.82.scf.h5 6.82.UhfOrb 6.82.UnaOrb xmldump
    saved to directory /home/grierjones/DDCASPT2/iron_oxo_DDCASPT2/cluster/6.82

>>> COPY /tmp/6.82/6.82.scf.h5 /home/grierjones/DDCASPT2/iron_oxo_DDCASPT2/cluster/6.82/

*** symbolic link created: INPORB -> 6.82.UnaOrb
--- Start Module: rasscf at Sun Dec 22 16:45:35 2024 ---
 
()()()()()()()()()()()()()()()()()()()()()()()()()()()()()()()()()()()()()()()()()()()()()()()()()()

                                              &RASSCF

                                   only a single process is used
                       available to each process: 2.0 GB of memory, 1 thread?
()()()()()()()()()()()()()()()()()()()()()()()()()()()()()()()()()()()()()()()()()()()()()()()()()()
 
 ###############################################################################
 ###############################################################################
 ###                                                                         ###
 ###                                                                         ###
 ###    LUMORB input error.                                                  ###
 ###                                                                         ###
 ###                                                                         ###
 ###############################################################################
 ###############################################################################
  Keyword LUMORB used with file name StartOrbFile=
 /home/grierjones/DDCASPT2/iron_oxo_DDCASPT2/cluster/6.81/6.81.RasOrb           
                                                  
  but that file cannot be used. Perhaps it does
  not exist?
 
 *************** WARNING ****************
 ###############################################################################
 ###############################################################################
 ###                                                                         ###
 ###                                                                         ###
 ###    Too many macro-iterations.                                           ###
 ###                                                                         ###
 ###                                                                         ###
 ###############################################################################
 ###############################################################################
 Too many macro-iterations requested.
 Reset to maximum, new MAXIT=     200
 ****************************************
 
 *************** WARNING ****************
 ###############################################################################
 ###############################################################################
 ###                                                                         ###
 ###                                                                         ###
 ###    Too many SX-iterations.                                              ###
 ###                                                                         ###
 ###                                                                         ###
 ###############################################################################
 ###############################################################################
 Too many SX-iterations requested.
 Reset to maximum, new ITMAX=     100
 ****************************************
 
      Header of the ONEINT file:
      --------------------------
      
      Integrals generated by seward 4.2.0  , Sun Dec 22 16:45:34 2024
 
 
      OrdInt status: non-squared
 
 
      Cartesian coordinates in Angstrom:
      -----------------------------------------------------
      No.  Label        X            Y            Z        
      -----------------------------------------------------
       1   O1         0.00000000   0.00000000   4.21142000
       2   FE2        0.00000000   0.00000000  -2.61142000
      -----------------------------------------------------
      Nuclear repulsion energy =   16.13241111
 
++    Wave function specifications:
      -----------------------------
 
      Number of closed shell electrons          22
      Number of electrons in active shells      10
      Max number of holes in RAS1 space          0
      Max nr of electrons in RAS3 space          0
      Number of inactive orbitals               11
      Number of active orbitals                 14
      Number of secondary orbitals              23
      Spin quantum number                      2.0
      State symmetry                             1
--
 
++    Orbital specifications:
      -----------------------
 
      Symmetry species                           1
                                                 a
      Frozen orbitals                            0
      Inactive orbitals                         11
      Active orbitals                           14
      RAS1 orbitals                              0
      RAS2 orbitals                             14
      RAS3 orbitals                              0
      Secondary orbitals                        23
      Deleted orbitals                           0
      Number of basis functions                 48
--
 
++    CI expansion specifications:
      ----------------------------
 
      Number of CSFs                        975975
      Number of determinants               1249248
      Number of root(s) required                 1
      Root chosen for geometry opt.              1
      CI root used                               1
         
      highest root included in the CI            1
      max. size of the explicit Hamiltonian    200
--
 
++    Optimization specifications:
      ----------------------------
 
      RASSCF algorithm: Conventional
      Maximum number of macro iterations       200
      Maximum number of SX iterations          100
      Threshold for RASSCF energy            0.100E-07
      Threshold for max MO rotation          0.100E+00
      Threshold for max BLB element          0.100E-03
      Level shift parameter                  0.500E+00
      Make Quasi-Newton update
--
 
 RdVec: File 
 /home/grierjones/DDCASPT2/iron_oxo_DDCASPT2/cluster/6.81/6.81.RasOrb 
  not found!
[ process      0]: xquit (rc =    128): _INTERNAL_ERROR_
abort: 
--- Stop Module: rasscf at Sun Dec 22 16:45:36 2024 /rc=_RC_FLOATING_EXCEPTION_ ---

.########################.
.# Non-zero return code #.
.########################.

    Timing: Wall=1.65 User=1.36 System=0.29
************************************
*** WorkDir at /tmp/6.82 cleaned ***
************************************
