[Molden Format]
[N_Atoms]
                     2
[Atoms] (AU)
C1          1      6           0.00000000      0.00000000      0.00000000
LI2         2      3           0.00000000      0.00000000      3.02356180
[Charge] (Mulliken)
 -0.247780916261123     
  0.247780916261103     
[GTO] (AU)
   1
   s  14
  5.055750100E+04  1.128874000E-04
  7.524785600E+03  5.295373000E-04
  1.694327600E+03  2.450038300E-03
  4.728227900E+02  1.005398470E-02
  1.517107500E+02  3.545398060E-02
  5.391874600E+01  1.044071086E-01
  2.065931100E+01  2.412894918E-01
  8.383976000E+00  3.834225483E-01
  3.577015000E+00  3.078514393E-01
  1.547118000E+00  6.872442990E-02
  6.130130000E-01  2.224445000E-04
  2.460680000E-01  1.976748900E-03
  9.908700000E-02  2.057859400E-03
  3.468000000E-02  4.182020000E-04
   s  14
  5.055750100E+04 -2.507420000E-05
  7.524785600E+03 -1.175945000E-04
  1.694327600E+03 -5.456275000E-04
  4.728227900E+02 -2.245077100E-03
  1.517107500E+02 -8.043471800E-03
  5.391874600E+01 -2.442588710E-02
  2.065931100E+01 -6.136791180E-02
  8.383976000E+00 -1.177767835E-01
  3.577015000E+00 -1.550487783E-01
  1.547118000E+00 -1.933316860E-02
  6.130130000E-01  3.996930678E-01
  2.460680000E-01  5.589420949E-01
  9.908700000E-02  1.711195023E-01
  3.468000000E-02  7.456244600E-03
   p   9
  8.333315500E+01  1.344656000E-03
  1.955761100E+01  1.023555500E-02
  6.080365000E+00  4.520067100E-02
  2.179317000E+00  1.410756198E-01
  8.651500000E-01  3.047388085E-01
  3.619440000E-01  3.995281011E-01
  1.547400000E-01  2.719163432E-01
  6.542900000E-02  5.857669330E-02
  2.290000000E-02 -1.263813000E-04
 
   2
   s  14
  9.497934400E+03  9.668999974E-05
  1.416811200E+03  6.087099984E-04
  3.214599400E+02  3.101519992E-03
  9.112416300E+01  1.266904997E-02
  2.999989100E+01  4.248012989E-02
  1.101763100E+01  1.150183297E-01
  4.372801000E+00  2.398650094E-01
  1.831256000E+00  3.584300090E-01
  8.022610000E-01  3.048527792E-01
  3.626480000E-01  8.824261976E-02
  1.139950000E-01 -8.445899977E-04
  5.123700000E-02 -7.943959979E-03
  2.246800000E-02 -3.764419990E-03
  7.860000000E-03 -8.868999976E-05
   s  14
  9.497934400E+03 -1.244999993E-05
  1.416811200E+03 -7.838999954E-05
  3.214599400E+02 -4.007099976E-04
  9.112416300E+01 -1.645249990E-03
  2.999989100E+01 -5.634599967E-03
  1.101763100E+01 -1.590780991E-02
  4.372801000E+00 -3.612581979E-02
  1.831256000E+00 -6.459927962E-02
  8.022610000E-01 -1.008321794E-01
  3.626480000E-01 -9.757613942E-02
  1.139950000E-01  2.301215886E-01
  5.123700000E-02  6.102389764E-01
  2.246800000E-02  2.849406083E-01
  7.860000000E-03  4.026899976E-03
   p   9
  1.311950400E+01  1.524940000E-03
  3.077424200E+00  8.314830000E-03
  1.098800500E+00  1.933203000E-02
  4.357784000E-01  4.934293000E-02
  1.802432000E-01  1.623554000E-01
  7.613330000E-02  3.847505400E-01
  3.254650000E-02  4.336100400E-01
  1.401820000E-02  1.287005900E-01
  4.906400000E-03 -1.018520000E-03
 
[MO]
Sym=     1a  
Ene=   -11.2260
Spin= Alpha
Occup=    1.00000
   1         1.00025394
   2         0.00156646
   3        -0.00000000
   4         0.00000000
   5         0.00030949
   6        -0.00066721
   7        -0.00208270
   8        -0.00000000
   9         0.00000000
  10         0.00175874
Sym=     1a  
Ene=   -11.1900
Spin= Beta
Occup=    1.00000
   1         1.00012704
   2        -0.00256395
   3        -0.00000000
   4         0.00000000
   5         0.00020719
   6        -0.00030917
   7        -0.00116421
   8        -0.00000000
   9         0.00000000
  10         0.00086774
Sym=     2a  
Ene=    -2.5203
Spin= Alpha
Occup=    1.00000
   1        -0.00176172
   2         0.01234310
   3         0.00000000
   4        -0.00000000
   5         0.00693425
   6         0.99749427
   7         0.01065374
   8        -0.00000000
   9        -0.00000000
  10         0.00105604
Sym=     2a  
Ene=    -2.5230
Spin= Beta
Occup=    1.00000
   1        -0.00173955
   2         0.01009148
   3        -0.00000000
   4        -0.00000000
   5         0.00671538
   6         0.99775862
   7         0.01146642
   8        -0.00000000
   9         0.00000000
  10         0.00091972
Sym=     3a  
Ene=    -0.7658
Spin= Alpha
Occup=    1.00000
   1        -0.00430456
   2         0.96943101
   3        -0.00000000
   4         0.00000000
   5         0.05640251
   6        -0.11486135
   7         0.02284526
   8         0.00000000
   9        -0.00000000
  10        -0.04481704
Sym=     3a  
Ene=    -0.6027
Spin= Beta
Occup=    1.00000
   1        -0.00995601
   2         0.89420214
   3         0.00000000
   4        -0.00000000
   5         0.12330396
   6        -0.11836480
   7         0.09725500
   8        -0.00000000
   9         0.00000000
  10        -0.10503236
Sym=     4a  
Ene=    -0.3841
Spin= Alpha
Occup=    1.00000
   1        -0.00000000
   2        -0.00000000
   3         0.87140550
   4         0.36824081
   5         0.00000000
   6        -0.00000000
   7         0.00000000
   8         0.13207400
   9         0.05581218
  10        -0.00000000
Sym=     4a  
Ene=    -0.2019
Spin= Beta
Occup=    1.00000
   1        -0.00000000
   2        -0.00000000
   3        -0.24988516
   4         0.59132855
   5         0.00000000
   6        -0.00000000
   7         0.00000000
   8        -0.23060878
   9         0.54571289
  10         0.00000000
Sym=     5a  
Ene=    -0.3445
Spin= Alpha
Occup=    1.00000
   1         0.00000000
   2         0.00000000
   3        -0.36333873
   4         0.85980522
   5        -0.00000000
   6         0.00000000
   7        -0.00000000
   8        -0.06658485
   9         0.15756647
  10         0.00000000
Sym=     5a  
Ene=     0.0068
Spin= Beta
Occup=    0.00000
   1        -0.00373469
   2        -0.13407907
   3         0.00000000
   4        -0.00000000
   5         0.05908485
   6        -0.00811896
   7         0.83667299
   8        -0.00000000
   9        -0.00000000
  10         0.53606567
Sym=     6a  
Ene=     0.0153
Spin= Alpha
Occup=    0.00000
   1        -0.00476042
   2        -0.10816251
   3        -0.00000000
   4         0.00000000
   5         0.13550557
   6        -0.02376547
   7         0.83134214
   8        -0.00000000
   9        -0.00000000
  10         0.51446197
Sym=     6a  
Ene=     0.0427
Spin= Beta
Occup=    0.00000
   1         0.00000000
   2         0.00000000
   3         0.22400961
   4         0.09466256
   5        -0.00000000
   6         0.00000000
   7         0.00000000
   8         0.82642827
   9         0.34923421
  10         0.00000000
Sym=     7a  
Ene=     0.1029
Spin= Alpha
Occup=    0.00000
   1         0.00000000
   2         0.00000000
   3        -0.42459529
   4        -0.17942659
   5        -0.00000000
   6         0.00000000
   7         0.00000000
   8         0.96030473
   9         0.40580807
  10         0.00000000
Sym=     7a  
Ene=     0.1633
Spin= Beta
Occup=    0.00000
   1         0.02955367
   2         0.33222241
   3         0.00000000
   4        -0.00000000
   5        -0.94716157
   6         0.13329704
   7        -0.02256269
   8        -0.00000000
   9         0.00000000
  10         0.35534917
Sym=     8a  
Ene=     0.1140
Spin= Alpha
Occup=    0.00000
   1         0.03064661
   2         0.25308296
   3         0.00000000
   4         0.00000000
   5        -0.94350645
   6         0.14046807
   7         0.02399974
   8         0.00000000
   9        -0.00000000
  10         0.41135048
Sym=     8a  
Ene=     0.1690
Spin= Beta
Occup=    0.00000
   1         0.00000000
   2         0.00000000
   3        -0.32458065
   4         0.76808805
   5        -0.00000000
   6         0.00000000
   7        -0.00000000
   8         0.33854805
   9        -0.80114053
  10         0.00000000
Sym=     9a  
Ene=     0.1194
Spin= Alpha
Occup=    0.00000
   1         0.00000000
   2         0.00000000
   3         0.18915644
   4        -0.44762003
   5        -0.00000000
   6         0.00000000
   7         0.00000000
   8        -0.40418022
   9         0.95645257
  10         0.00000000
Sym=     9a  
Ene=     0.2230
Spin= Beta
Occup=    0.00000
   1         0.12848073
   2         0.97599732
   3         0.00000000
   4        -0.00000000
   5         0.39796492
   6        -0.15490208
   7        -0.84229565
   8        -0.00000000
   9         0.00000000
  10         1.03778100
Sym=    10a  
Ene=     0.2104
Spin= Alpha
Occup=    0.00000
   1         0.12751252
   2         0.93001298
   3        -0.00000000
   4         0.00000000
   5         0.40303293
   6        -0.15125075
   7        -0.85278286
   8         0.00000000
   9        -0.00000000
  10         1.03236095
Sym=    10a  
Ene=     0.2868
Spin= Beta
Occup=    0.00000
   1        -0.00000000
   2         0.00000000
   3        -0.94310572
   4        -0.39854008
   5        -0.00000000
   6         0.00000000
   7         0.00000000
   8         0.50660145
   9         0.21408096
  10         0.00000000
