[Molden Format]
[N_Atoms]
                     2
[Atoms] (AU)
C1          1      6           0.00000000      0.00000000      0.00000000
LI2         2      3           0.00000000      0.00000000      3.02356180
[Charge] (Mulliken)
 -0.308609321967616     
  0.308609321967609     
[GTO] (AU)
   1
   s  14
  5.055750100E+04  1.128874000E-04
  7.524785600E+03  5.295373000E-04
  1.694327600E+03  2.450038300E-03
  4.728227900E+02  1.005398470E-02
  1.517107500E+02  3.545398060E-02
  5.391874600E+01  1.044071086E-01
  2.065931100E+01  2.412894918E-01
  8.383976000E+00  3.834225483E-01
  3.577015000E+00  3.078514393E-01
  1.547118000E+00  6.872442990E-02
  6.130130000E-01  2.224445000E-04
  2.460680000E-01  1.976748900E-03
  9.908700000E-02  2.057859400E-03
  3.468000000E-02  4.182020000E-04
   s  14
  5.055750100E+04 -2.507420000E-05
  7.524785600E+03 -1.175945000E-04
  1.694327600E+03 -5.456275000E-04
  4.728227900E+02 -2.245077100E-03
  1.517107500E+02 -8.043471800E-03
  5.391874600E+01 -2.442588710E-02
  2.065931100E+01 -6.136791180E-02
  8.383976000E+00 -1.177767835E-01
  3.577015000E+00 -1.550487783E-01
  1.547118000E+00 -1.933316860E-02
  6.130130000E-01  3.996930678E-01
  2.460680000E-01  5.589420949E-01
  9.908700000E-02  1.711195023E-01
  3.468000000E-02  7.456244600E-03
   p   9
  8.333315500E+01  1.344656000E-03
  1.955761100E+01  1.023555500E-02
  6.080365000E+00  4.520067100E-02
  2.179317000E+00  1.410756198E-01
  8.651500000E-01  3.047388085E-01
  3.619440000E-01  3.995281011E-01
  1.547400000E-01  2.719163432E-01
  6.542900000E-02  5.857669330E-02
  2.290000000E-02 -1.263813000E-04
 
   2
   s  14
  9.497934400E+03  9.668999974E-05
  1.416811200E+03  6.087099984E-04
  3.214599400E+02  3.101519992E-03
  9.112416300E+01  1.266904997E-02
  2.999989100E+01  4.248012989E-02
  1.101763100E+01  1.150183297E-01
  4.372801000E+00  2.398650094E-01
  1.831256000E+00  3.584300090E-01
  8.022610000E-01  3.048527792E-01
  3.626480000E-01  8.824261976E-02
  1.139950000E-01 -8.445899977E-04
  5.123700000E-02 -7.943959979E-03
  2.246800000E-02 -3.764419990E-03
  7.860000000E-03 -8.868999976E-05
   s  14
  9.497934400E+03 -1.244999993E-05
  1.416811200E+03 -7.838999954E-05
  3.214599400E+02 -4.007099976E-04
  9.112416300E+01 -1.645249990E-03
  2.999989100E+01 -5.634599967E-03
  1.101763100E+01 -1.590780991E-02
  4.372801000E+00 -3.612581979E-02
  1.831256000E+00 -6.459927962E-02
  8.022610000E-01 -1.008321794E-01
  3.626480000E-01 -9.757613942E-02
  1.139950000E-01  2.301215886E-01
  5.123700000E-02  6.102389764E-01
  2.246800000E-02  2.849406083E-01
  7.860000000E-03  4.026899976E-03
   p   9
  1.311950400E+01  1.524940000E-03
  3.077424200E+00  8.314830000E-03
  1.098800500E+00  1.933203000E-02
  4.357784000E-01  4.934293000E-02
  1.802432000E-01  1.623554000E-01
  7.613330000E-02  3.847505400E-01
  3.254650000E-02  4.336100400E-01
  1.401820000E-02  1.287005900E-01
  4.906400000E-03 -1.018520000E-03
 
[MO]
Sym=     1a  
Ene=   -11.1760
Spin= Alpha
Occup=    1.00000
   1         1.00019478
   2        -0.00039395
   3         0.00000000
   4         0.00000000
   5         0.00028319
   6        -0.00049925
   7        -0.00164294
   8        -0.00000000
   9        -0.00000000
  10         0.00133385
Sym=     1a  
Ene=   -11.1760
Spin= Beta
Occup=    1.00000
   1         1.00019478
   2        -0.00039395
   3         0.00000000
   4         0.00000000
   5         0.00028319
   6        -0.00049925
   7        -0.00164294
   8        -0.00000000
   9        -0.00000000
  10         0.00133385
Sym=     2a  
Ene=    -2.5188
Spin= Alpha
Occup=    1.00000
   1        -0.00174210
   2         0.01094416
   3         0.00000000
   4        -0.00000000
   5         0.00649738
   6         0.99771348
   7         0.01111525
   8        -0.00000000
   9         0.00000000
  10         0.00117587
Sym=     2a  
Ene=    -2.5188
Spin= Beta
Occup=    1.00000
   1        -0.00174210
   2         0.01094416
   3         0.00000000
   4        -0.00000000
   5         0.00649738
   6         0.99771348
   7         0.01111525
   8        -0.00000000
   9         0.00000000
  10         0.00117587
Sym=     3a  
Ene=    -0.6641
Spin= Alpha
Occup=    1.00000
   1         0.00783354
   2        -0.92843077
   3        -0.00000000
   4        -0.00000000
   5        -0.08709388
   6         0.11548191
   7        -0.06483913
   8        -0.00000000
   9         0.00000000
  10         0.07982932
Sym=     3a  
Ene=    -0.6641
Spin= Beta
Occup=    1.00000
   1         0.00783354
   2        -0.92843077
   3        -0.00000000
   4        -0.00000000
   5        -0.08709388
   6         0.11548191
   7        -0.06483913
   8        -0.00000000
   9         0.00000000
  10         0.07982932
Sym=     4a  
Ene=    -0.0811
Spin= Alpha
Occup=    1.00000
   1         0.00000000
   2        -0.00000000
   3        -0.67947671
   4         0.61914939
   5         0.00000000
   6         0.00000000
   7        -0.00000000
   8        -0.14816809
   9         0.13501299
  10         0.00000000
Sym=     4a  
Ene=    -0.0811
Spin= Beta
Occup=    0.00000
   1         0.00000000
   2        -0.00000000
   3        -0.67947671
   4         0.61914939
   5         0.00000000
   6         0.00000000
   7        -0.00000000
   8        -0.14816809
   9         0.13501299
  10         0.00000000
Sym=     5a  
Ene=     0.0000
Spin= Alpha
Occup=    1.00000
   1        -0.00000000
   2        -0.00000000
   3         0.55743655
   4         0.61175083
   5         0.00000000
   6         0.00000000
   7         0.00000000
   8         0.24237975
   9         0.26599622
  10         0.00000000
Sym=     5a  
Ene=     0.0000
Spin= Beta
Occup=    1.00000
   1        -0.00000000
   2        -0.00000000
   3         0.55743655
   4         0.61175083
   5         0.00000000
   6         0.00000000
   7         0.00000000
   8         0.24237975
   9         0.26599622
  10         0.00000000
Sym=     6a  
Ene=     0.0102
Spin= Alpha
Occup=    0.00000
   1        -0.00263872
   2        -0.10919058
   3         0.00000000
   4        -0.00000000
   5         0.07176646
   6        -0.01264953
   7         0.82965620
   8        -0.00000000
   9        -0.00000000
  10         0.54244426
Sym=     6a  
Ene=     0.0102
Spin= Beta
Occup=    0.00000
   1        -0.00263872
   2        -0.10919058
   3         0.00000000
   4        -0.00000000
   5         0.07176646
   6        -0.01264953
   7         0.82965620
   8        -0.00000000
   9        -0.00000000
  10         0.54244426
Sym=     7a  
Ene=     0.1327
Spin= Alpha
Occup=    0.00000
   1         0.00000000
   2         0.00000000
   3        -0.37862600
   4         0.34500970
   5        -0.00000000
   6         0.00000000
   7         0.00000000
   8         0.76360491
   9        -0.69580827
  10         0.00000000
Sym=     7a  
Ene=     0.1327
Spin= Beta
Occup=    0.00000
   1         0.00000000
   2         0.00000000
   3        -0.37862600
   4         0.34500970
   5        -0.00000000
   6         0.00000000
   7         0.00000000
   8         0.76360491
   9        -0.69580827
  10         0.00000000
Sym=     8a  
Ene=     0.1356
Spin= Alpha
Occup=    0.00000
   1         0.00000000
   2         0.00000000
   3        -0.43776952
   4        -0.48042394
   5        -0.00000000
   6         0.00000000
   7        -0.00000000
   8         0.66605534
   9         0.73095298
  10         0.00000000
Sym=     8a  
Ene=     0.1356
Spin= Beta
Occup=    0.00000
   1         0.00000000
   2         0.00000000
   3        -0.43776952
   4        -0.48042394
   5        -0.00000000
   6         0.00000000
   7        -0.00000000
   8         0.66605534
   9         0.73095298
  10         0.00000000
Sym=     9a  
Ene=     0.1566
Spin= Alpha
Occup=    0.00000
   1        -0.03905111
   2        -0.36133330
   3        -0.00000000
   4        -0.00000000
   5         0.91935213
   6        -0.12630613
   7         0.08372173
   8         0.00000000
   9         0.00000000
  10        -0.43916437
Sym=     9a  
Ene=     0.1566
Spin= Beta
Occup=    0.00000
   1        -0.03905111
   2        -0.36133330
   3        -0.00000000
   4        -0.00000000
   5         0.91935213
   6        -0.12630613
   7         0.08372173
   8         0.00000000
   9         0.00000000
  10        -0.43916437
Sym=    10a  
Ene=     0.2252
Spin= Alpha
Occup=    0.00000
   1         0.12555854
   2         0.93596880
   3        -0.00000000
   4         0.00000000
   5         0.46502124
   6        -0.16272527
   7        -0.84847805
   8         0.00000000
   9        -0.00000000
  10         1.00407929
Sym=    10a  
Ene=     0.2252
Spin= Beta
Occup=    0.00000
   1         0.12555854
   2         0.93596880
   3        -0.00000000
   4         0.00000000
   5         0.46502124
   6        -0.16272527
   7        -0.84847805
   8         0.00000000
   9        -0.00000000
  10         1.00407929
