*******************************************************************************************
*** WorkDir at /lustre/isaac/scratch/gjones39/ANO-RCC-VTZP/ozone_157.00/3189921 cleaned ***
*******************************************************************************************
   This run of MOLCAS is using the pymolcas driver

                             OPE
                             OPE          NMOL  CASOP  ENMOLC A   SO
                 OPE        NMOLC        AS  OP EN  MO LC     AS  OP
                OPENM       OL CA        SO  PE NM  OL CA     SOP EN
                OP EN      MO   LC       AS  OP ENMOL  CASO   PENMOL
                OP  EN     MO   LC       AS  OP EN     MO     LC ASO
               OP   E  NMOL  C  AS       OP  EN MO     LC     AS  OP
               OP  E   NMO   LC AS        OPEN  MO     LCASOP EN   M
               O  PEN   MO  LCA  SO
            OPE   NMO   L   CAS    OP
        OPENMOL  CASOP     ENMOL   CASOPE
     OPENMOLCA   SOPENMOLCASOPEN   MOLCASOPE
    OPENMOLCAS   OP           EN   MOL    CAS
    OPENMOLCAS       OP  ENM        O     LCA
    OPENMOLCAS    OPEN  MOLCASO     P  E  NMO
    OPENMOLCAS     OP               E  N  MOL
    OPENMOLCA   SO           PENM   O  L  CAS    OPEN    MO    LCAS
    OPENMOLCA   SOP           ENM   O  L  CAS   OP  EN  MOLC  AS   O
    OPENMOLCA   SOPE           NM      O  LCA   S      OP  EN MO
    OPENMOLC                AS         O  PEN   M      OL  CA  SOPE
    OPENMO        LCASOPE  NMOL        C  ASO   P      ENMOLC     AS
    OPE     NMO      LCA  SO     P     E   NM   OL  CA SO  PE N   MO
          OPENMOLCA            SOPE   NMO        LCAS  O    P  ENMO
     OPENMOLCASOPENMOLCASOPENMOLCASOPENMOLCA
        OPENMOLCASOPENMOLCASOPENMOLCASOPE
            OPENMOLCASOPENMOLCASOPENM
               OPENMOLCASOPENMOLCA        version: f37762c57-dirty
                   OPENMOLCASO
                       OPE                tag:

 OpenMolcas is free software; you can redistribute it and/or modify it
 under the terms of the GNU Lesser General Public License version 2.1.
 OpenMolcas is distributed in the hope that it will be useful, but it
 is provided "as is" and without any express or implied warranties.
 For more details see the full text of the license in the file
 LICENSE or in <http://www.gnu.org/licenses/>.

                 Copyright (C) The OpenMolcas Authors
           For the author list and the recommended citation,
                   consult the file CONTRIBUTORS.md

           *************************************************
           * pymolcas version py2.05                       *
           *   build c53fbf9a0f911de0c7c16766b0715e61      *
           *   (after the EMIL interpreter by V. Veryazov) *
           *************************************************

configuration info
------------------
C Compiler ID: GNU
C flags: -std=gnu99
Fortran Compiler ID: Intel
Fortran flags: -fpp -i8 -r8 -heap-arrays
Definitions: _MOLCAS_;_I8_;_LINUX_
Parallel: OFF (GA=OFF)


   ---------------------------------------------------------------------------------------
  |
  |              Project: ozone_157.00
  |       Submitted from: /lustre/isaac/scratch/gjones39/ANO-RCC-VTZP/ozone_157.00
  |         Scratch area: /lustre/isaac/scratch/gjones39/ANO-RCC-VTZP/ozone_157.00/3189921
  |      Save outputs to: /lustre/isaac/scratch/gjones39/ANO-RCC-VTZP/ozone_157.00
  |               Molcas: /lustre/isaac/proj/UTK0022/Grier2025/Test/build
  |
  | Scratch area is empty
  |
  |       MOLCAS_DRIVER = /nfs/home/gjones39/bin/pymolcas
  | MOLCAS_KEEP_WORKDIR = NO
  |      MOLCAS_MAXITER = 100
  |  MOLCAS_NEW_WORKDIR = YES
  |       MOLCAS_NPROCS = 1
  |       MOLCAS_SOURCE = /lustre/isaac/proj/UTK0022/Grier2025/Test
  |    MOLCAS_STRUCTURE = 0
  |
   ---------------------------------------------------------------------------------------

++ ---------   Input file   ---------

&GATEWAY
coord=ozone_157.00.xyz
Basis = ANO-RCC-VTZP
Group = nosymm
End of Input

&SEWARD
End of Input

&SCF
FileOrb
/lustre/isaac/scratch/gjones39/ANO-RCC-VTZP/ozone_156.75/ozone_156.75.ScfOrb

>>> COPY $WorkDir/ozone_157.00.scf.h5 $CurrDir/

&RASSCF
Title= RASSCF
ITERation
200 100
CIMX
200
SDAV
500
FileOrb
/lustre/isaac/scratch/gjones39/ANO-RCC-VTZP/ozone_156.75/ozone_156.75.RasOrb
CIROOT
3 3 1
NACTEL
12 0 0
Inactive
6
RAS2
9
Symmetry
1
Spin
1
orblisting
all

>>> COPY $WorkDir/ozone_157.00.rasscf.h5 $CurrDir/

>>> COPY $WorkDir/GMJ_Fock_MO.csv $CurrDir/ozone_157.00.GMJ_Fock_MO.csv

&MOTRA
Frozen=0
LUMORB

>>> COPY $WorkDir/GMJ_one_int_indx.csv $CurrDir/ozone_157.00.GMJ_one_int_indx.csv

>>> COPY $WorkDir/GMJ_one_int.csv $CurrDir/ozone_157.00.GMJ_one_int.csv

>>> COPY $WorkDir/GMJ_two_int_indx.csv $CurrDir/ozone_157.00.GMJ_two_int_indx.csv

>>> COPY $WorkDir/GMJ_two_int.csv $CurrDir/ozone_157.00.GMJ_two_int.csv

&CASPT2

Multistate
ALL

Frozen
0

MAXITER
50

>>> FOREACH k IN (1,2,3)

  >>> FOREACH i IN (B,E,F,G,H)

    >>> FOREACH j IN (P,M)

      >>> IF (-FILE GMJ_e2_${i}_${j}_${k}_.csv)

        >>> COPY $WorkDir/GMJ_RHS_${i}_${j}_${k}_.csv $CurrDir/GMJ_RHS_${i}_${j}_${k}_.csv

        >>> COPY $WorkDir/GMJ_IVECW_${i}_${j}_${k}_.csv $CurrDir/GMJ_IVECW_${i}_${j}_${k}_.csv

        >>> COPY $WorkDir/GMJ_IVECX_${i}_${j}_${k}_.csv $CurrDir/GMJ_IVECX_${i}_${j}_${k}_.csv

        >>> COPY $WorkDir/GMJ_IVECC2_${i}_${j}_${k}_.csv $CurrDir/GMJ_IVECC2_${i}_${j}_${k}_.csv

        >>> COPY $WorkDir/GMJ_e2_${i}_${j}_${k}_.csv $CurrDir/GMJ_e2_${i}_${j}_${k}_.csv

      >>> END IF

    >>> END FOREACH

  >>> END FOREACH

>>> END FOREACH

>>> FOREACH j IN (1,2,3)

  >>> FOREACH i IN (A,C,D)

    >>> IF (-FILE GMJ_e2_${i}_${j}_.csv)

      >>> COPY $WorkDir/GMJ_RHS_${i}_${j}_.csv $CurrDir/GMJ_RHS_${i}_${j}_.csv

      >>> COPY $WorkDir/GMJ_IVECW_${i}_${j}_.csv $CurrDir/GMJ_IVECW_${i}_${j}_.csv

      >>> COPY $WorkDir/GMJ_IVECX_${i}_${j}_.csv $CurrDir/GMJ_IVECX_${i}_${j}_.csv

      >>> COPY $WorkDir/GMJ_IVECC2_${i}_${j}_.csv $CurrDir/GMJ_IVECC2_${i}_${j}_.csv

      >>> COPY $WorkDir/GMJ_e2_${i}_${j}_.csv $CurrDir/GMJ_e2_${i}_${j}_.csv

    >>> END IF

  >>> END FOREACH

>>> END FOREACH

-- ----------------------------------

--- Start Module: gateway at Tue Apr 29 19:57:52 2025 ---
 
()()()()()()()()()()()()()()()()()()()()()()()()()()()()()()()()()()()()()()()()()()()()()()()()()()

                                              &GATEWAY

                                   only a single process is used
                       available to each process: 62 GB of memory, 1 thread?
()()()()()()()()()()()()()()()()()()()()()()()()()()()()()()()()()()()()()()()()()()()()()()()()()()
 
 
++    Symmetry information:
      ---------------------
 
                    Character Table for C1 
 
                             E  
                    a        1  x, y, xy, Rz, z, xz, Ry, yz, Rx, I
--
 
 
++    Basis set information:
      ----------------------
 
 
      Basis set label: O.ANO-RCC...4S3P2D1F.
 
      Electronic valence basis set:
      ------------------
      Associated Effective Charge   8.000000 au
      Associated Actual Charge      8.000000 au
      Nuclear Model: Point charge
 
      Shell  nPrim  nBasis  Cartesian Spherical Contaminant
         s      14       4        X                  
         p       9       3        X                  
         d       4       2                 X         
         f       3       1                 X         
--
 
 
++    Molecular structure info:
      -------------------------
 
                    ************************************************ 
                    **** Cartesian Coordinates / Bohr, Angstrom **** 
                    ************************************************ 
 
     Center  Label                x              y              z                     x              y              z
        1      O1               0.481487       2.366587       0.000000              0.254792       1.252344       0.000000
        2      O2               0.000000       0.000000       0.000000              0.000000       0.000000       0.000000
        3      O3               0.481487      -2.366587       0.000000              0.254792      -1.252344       0.000000
 
                    *************************************** 
                    *    InterNuclear Distances / Bohr    * 
                    *************************************** 
 
               1 O1            2 O2            3 O3    
    1 O1       0.000000
    2 O2       2.415070        0.000000
    3 O3       4.733174        2.415070        0.000000
 
                    ******************************************* 
                    *    InterNuclear Distances / Angstrom    * 
                    ******************************************* 
 
               1 O1            2 O2            3 O3    
    1 O1       0.000000
    2 O2       1.278000        0.000000
    3 O3       2.504688        1.278000        0.000000
 
                    ************************************** 
                    *    Valence Bond Angles / Degree    * 
                    ************************************** 
                          Atom centers                 Phi
                      1 O1       2 O2       3 O3       157.00
--
 
 
            Nuclear Potential Energy             66.52210790 au
 
--- Stop Module: gateway at Tue Apr 29 19:57:59 2025 /rc=_RC_ALL_IS_WELL_ ---
*** files: xmldump
    saved to directory /lustre/isaac/scratch/gjones39/ANO-RCC-VTZP/ozone_157.00
--- Module gateway spent 7 seconds ---

--- Start Module: seward at Tue Apr 29 19:57:59 2025 ---
 
()()()()()()()()()()()()()()()()()()()()()()()()()()()()()()()()()()()()()()()()()()()()()()()()()()

                                              &SEWARD

                                   only a single process is used
                       available to each process: 62 GB of memory, 1 thread?
()()()()()()()()()()()()()()()()()()()()()()()()()()()()()()()()()()()()()()()()()()()()()()()()()()
 
               SEWARD will generate:
                  Multipole Moment integrals up to order  2
                  Kinetic Energy integrals
                  Nuclear Attraction integrals (point charge)
                  One-Electron Hamiltonian integrals
                  Velocity integrals
                  Relativistic Douglas-Kroll-Hess integrals:
                    - Parametrization         : EXP
                    - DKH order of Hamiltonian: 2
                    - DKH order of Properties : 0
                         - multipole moment operators
                         - electric potential operators
                         - contact operators
                  Atomic mean-field integrals
                  Two-Electron Repulsion integrals
 
                   Integrals are discarded if absolute value <: 0.10E-13
                   Integral cutoff threshold is set to       <: 0.10E-15
 
            Nuclear Potential Energy             66.52210790 au
 
 
      Basis set specifications :
      Symmetry species         a  
      Basis functions           90
 
 
  Input file to MOLDEN was generated!
 
--- Stop Module: seward at Tue Apr 29 19:58:20 2025 /rc=_RC_ALL_IS_WELL_ ---
*** files: ozone_157.00.GssOrb ozone_157.00.guessorb.h5 ozone_157.00.guessorb.molden xmldump
    saved to directory /lustre/isaac/scratch/gjones39/ANO-RCC-VTZP/ozone_157.00
--- Module seward spent 20 seconds ---

*** symbolic link created: INPORB -> ozone_157.00.GssOrb
--- Start Module: scf at Tue Apr 29 19:58:20 2025 ---
 
()()()()()()()()()()()()()()()()()()()()()()()()()()()()()()()()()()()()()()()()()()()()()()()()()()

                                                &SCF

                                   only a single process is used
                       available to each process: 62 GB of memory, 1 thread?
()()()()()()()()()()()()()()()()()()()()()()()()()()()()()()()()()()()()()()()()()()()()()()()()()()
 
++    Input section:
      --------------
 
      Header of the integral files:
      
       Integrals generated by seward 4.2.0  , Tue Apr 29 19:58:02 2025
 
 
      Cartesian coordinates in Angstrom:
      -----------------------------------------------------
      No.  Label        X            Y            Z        
      -----------------------------------------------------
       1   O1         0.25479200   1.25234400   0.00000000
       2   O2         0.00000000   0.00000000   0.00000000
       3   O3         0.25479200  -1.25234400   0.00000000
      -----------------------------------------------------
      Nuclear repulsion energy =   66.52210790
--
 
++    Orbital specifications:
      -----------------------
 
      Symmetry species               1
                                     a
      Frozen orbitals                0
      Occupied orbitals             12
      Secondary orbitals            78
      Deleted orbitals               0
      Total number of orbitals      90
      Number of basis functions     90
--
 
      Molecular charge                           0.000
 
++    Optimization specifications:
      ----------------------------
 
      SCF Algorithm: Conventional
      Minimized density differences are used
      Number of density matrices in core                5
      Maximum number of NDDO SCF iterations           400
      Maximum number of HF SCF iterations             400
      Threshold for SCF energy change            0.10E-08
      Threshold for density matrix               0.10E-03
      Threshold for Fock matrix                  0.15E-03
      Threshold for linear dependence            0.10E-08
      Threshold at which DIIS is turned on       0.15E+00
      Threshold at which QNR/C2DIIS is turned on 0.75E-01
      Threshold for Norm(delta) (QNR/C2DIIS)     0.20E-04
      DIIS extrapolation of the SCF procedure
      All orbitals punched on: SCFORB
--
 
      Input vectors read from INPORB
      Orbital file label: * SCF orbitals
 
 
++ Convergence information
                                   SCF        iterations: Energy and convergence statistics
 
Iter     Tot. SCF        One-elec.       Two-elec.     Energy      Max Dij or  Max Fij      DNorm      TNorm      AccCon     Time
         Energy          Energy          Energy        Change      Delta Norm                                                in Sec.
   1  -224.439973126  -440.729127591   149.767046563   0.00E+00    0.14E-02*   0.68E-03*    0.75E+01   0.11E+03   None         0.
   2  -224.439979095  -440.728973719   149.766886721  -0.60E-05*   0.75E-03*   0.37E-03*    0.74E-02   0.11E+03   EDIIS        0.
   3  -224.439980084  -440.729610630   149.767522643  -0.99E-06*   0.21E-03*   0.31E-03*    0.81E-03   0.11E+03   c2DIIS       0.
   4  -224.439980382  -440.729464498   149.767376214  -0.30E-06*   0.68E-04*   0.33E-04     0.54E-03   0.11E+03   QNRc2DIIS    0.
   5  -224.439980391  -440.729862085   149.767773793  -0.91E-08*   0.54E-04*   0.46E-04     0.32E-03   0.11E+03   QNRc2DIIS    0.
   6  -224.439980398  -440.729744953   149.767656653  -0.74E-08*   0.39E-04*   0.14E-04     0.72E-04   0.11E+03   QNRc2DIIS    0.
   7  -224.439980399  -440.729643584   149.767555283  -0.13E-08*   0.47E-05    0.13E-05     0.34E-04   0.11E+03   QNRc2DIIS    0.
   8  -224.439980399  -440.729680679   149.767592377  -0.24E-10    0.16E-05    0.91E-06     0.12E-03   0.11E+03   QNRc2DIIS    0.
 
       Convergence after  8 Macro Iterations
--
 
 *****************************************************************************************************************************
 *                                                                                                                           *
 *                                             SCF/KS-DFT Program, Final results                                             *
 *                                                                                                                           *
 *                                                                                                                           *
 *                                                                                                                           *
 *                                                       Final Results                                                       *
 *                                                                                                                           *
 *****************************************************************************************************************************
 
::    Total SCF energy                               -224.4399803993
      One-electron energy                            -440.7296806787
      Two-electron energy                             149.7675923774
      Nuclear repulsion energy                         66.5221079020
      Kinetic energy (interpolated)                   225.1865673001
      Virial theorem                                    0.9966845851
      Total spin, S(S+1)                                0.0000000000
      Total spin, S                                     0.0000000000
      Max non-diagonal density matrix element           0.0000021821
      Max non-diagonal Fock matrix element              0.0000003859
 
 
      All orbitals with orbital energies smaller than  E(LUMO)+0.5 are printed
 
++    Molecular orbitals:
      -------------------
 
      Title: SCF orbitals

      Molecular orbitals for symmetry species 1: a  
 
          Orbital            1         2         3         4         5         6         7         8         9        10    
          Energy          -20.8838  -20.7400  -20.7400   -1.7124   -1.4636   -1.0656   -0.8337   -0.7939   -0.7583   -0.6068
          Occ. No.          2.0000    2.0000    2.0000    2.0000    2.0000    2.0000    2.0000    2.0000    2.0000    2.0000
 
        1 O1     1s         0.0024   -0.7504    0.6592   -0.0127    0.0124    0.0138   -0.0052   -0.0245   -0.0000    0.0069
        2 O1     2s         0.0015    0.0062   -0.0054    0.3447   -0.5588    0.6474   -0.1136   -0.4406   -0.0000    0.0794
        3 O1     3s         0.0008    0.0044   -0.0037   -0.0091    0.0212    0.0226   -0.0075   -0.0533    0.0000    0.0143
        4 O1     4s         0.0001    0.0009   -0.0007   -0.0002    0.0040    0.0039   -0.0016   -0.0112    0.0000    0.0032
        5 O1     2px       -0.0002   -0.0007    0.0005   -0.0191    0.0278    0.0564    0.3182   -0.1966   -0.0000   -0.6655
        6 O1     3px       -0.0003   -0.0006    0.0003    0.0081   -0.0043   -0.0099   -0.0224    0.0160    0.0000    0.0050
        7 O1     4px       -0.0002    0.0002   -0.0003    0.0018    0.0006    0.0003   -0.0008    0.0005    0.0000    0.0053
        8 O1     2py       -0.0010   -0.0027    0.0028   -0.1153    0.0873    0.1646   -0.1569   -0.3705    0.0000    0.2153
        9 O1     3py       -0.0005   -0.0026    0.0027    0.0121   -0.0194   -0.0268    0.0135    0.0469   -0.0000   -0.0051
       10 O1     4py        0.0002    0.0017   -0.0015    0.0010   -0.0034    0.0008    0.0025    0.0040   -0.0000   -0.0020
       11 O1     2pz       -0.0000   -0.0000   -0.0000    0.0000    0.0000   -0.0000    0.0000   -0.0000    0.4141   -0.0000
       12 O1     3pz        0.0000   -0.0000   -0.0000   -0.0000   -0.0000    0.0000   -0.0000    0.0000   -0.0151    0.0000
       13 O1     4pz        0.0000    0.0000    0.0000   -0.0000   -0.0000   -0.0000    0.0000    0.0000   -0.0067    0.0000
       14 O1     3d2-       0.0000    0.0004   -0.0004    0.0058   -0.0063   -0.0065   -0.0179    0.0125    0.0000    0.0110
       15 O1     4d2-      -0.0000    0.0003   -0.0002    0.0002   -0.0006   -0.0002   -0.0017    0.0006   -0.0000    0.0012
       16 O1     3d1-      -0.0000   -0.0000    0.0000   -0.0000    0.0000    0.0000   -0.0000   -0.0000   -0.0317    0.0000
       17 O1     4d1-      -0.0000    0.0000    0.0000   -0.0000    0.0000    0.0000    0.0000   -0.0000   -0.0056   -0.0000
       18 O1     3d0       -0.0001   -0.0006    0.0006   -0.0103    0.0086    0.0066   -0.0053   -0.0148    0.0000    0.0050
       19 O1     4d0       -0.0001   -0.0004    0.0004   -0.0009    0.0007    0.0003   -0.0008   -0.0009    0.0000    0.0009
       20 O1     3d1+       0.0000   -0.0000    0.0000   -0.0000   -0.0000    0.0000   -0.0000   -0.0000   -0.0055   -0.0000
       21 O1     4d1+      -0.0000    0.0000    0.0000   -0.0000   -0.0000   -0.0000   -0.0000    0.0000   -0.0010   -0.0000
       22 O1     3d2+      -0.0003   -0.0012    0.0012   -0.0193    0.0143    0.0143   -0.0156   -0.0258    0.0000    0.0126
       23 O1     4d2+      -0.0001   -0.0006    0.0006   -0.0027    0.0017    0.0015   -0.0017   -0.0019    0.0000    0.0017
       24 O1     4f3-       0.0001    0.0002   -0.0002    0.0050   -0.0046   -0.0024    0.0049    0.0055   -0.0000   -0.0041
       25 O1     4f2-      -0.0000   -0.0000   -0.0000    0.0000   -0.0000   -0.0000    0.0000    0.0000    0.0020   -0.0000
       26 O1     4f1-       0.0000    0.0002   -0.0002    0.0033   -0.0030   -0.0019    0.0014    0.0039   -0.0000   -0.0012
       27 O1     4f0        0.0000    0.0000    0.0000   -0.0000    0.0000    0.0000   -0.0000   -0.0000   -0.0037   -0.0000
       28 O1     4f1+      -0.0000    0.0000   -0.0000    0.0005   -0.0005   -0.0004   -0.0005    0.0005   -0.0000   -0.0007
       29 O1     4f2+       0.0000    0.0000    0.0000   -0.0000   -0.0000    0.0000   -0.0000    0.0000   -0.0068    0.0000
       30 O1     4f3+      -0.0000    0.0001   -0.0001    0.0027   -0.0027   -0.0021   -0.0058    0.0043    0.0000    0.0045
       31 O2     1s         0.9996    0.0001   -0.0012   -0.0282   -0.0000   -0.0154   -0.0040   -0.0000    0.0000   -0.0000
       32 O2     2s        -0.0029   -0.0008    0.0119    0.6241    0.0000   -0.6334   -0.0412   -0.0000    0.0000   -0.0000
       33 O2     3s        -0.0024   -0.0004    0.0068   -0.0683   -0.0000   -0.0214   -0.0061   -0.0000    0.0000   -0.0000
       34 O2     4s        -0.0004   -0.0001    0.0011   -0.0127   -0.0000   -0.0043   -0.0029   -0.0000    0.0000   -0.0000
       35 O2     2px        0.0003   -0.0001    0.0017    0.0497    0.0000    0.1113    0.7226   -0.0000   -0.0000    0.0000
       36 O2     3px       -0.0004   -0.0001    0.0011   -0.0223   -0.0000   -0.0136   -0.0761    0.0000    0.0000   -0.0000
       37 O2     4px        0.0011    0.0000   -0.0003   -0.0040   -0.0000    0.0016   -0.0105    0.0000    0.0000   -0.0000
       38 O2     2py        0.0000   -0.0071   -0.0005    0.0000   -0.3372   -0.0000    0.0000    0.5532    0.0000   -0.1266
       39 O2     3py       -0.0000   -0.0049   -0.0003   -0.0000    0.0647    0.0000   -0.0000   -0.0530    0.0000   -0.0045
       40 O2     4py        0.0000    0.0012    0.0001   -0.0000   -0.0009    0.0000   -0.0000   -0.0110   -0.0000    0.0011
       41 O2     2pz        0.0000    0.0000   -0.0000    0.0000   -0.0000    0.0000    0.0000   -0.0000    0.6403   -0.0000
       42 O2     3pz       -0.0000    0.0000   -0.0000   -0.0000    0.0000    0.0000   -0.0000   -0.0000   -0.0424    0.0000
       43 O2     4pz       -0.0000   -0.0000   -0.0000    0.0000    0.0000    0.0000   -0.0000    0.0000   -0.0185    0.0000
       44 O2     3d2-      -0.0000   -0.0008   -0.0001    0.0000   -0.0220   -0.0000    0.0000    0.0152   -0.0000   -0.0434
       45 O2     4d2-      -0.0000   -0.0004   -0.0000    0.0000   -0.0024   -0.0000    0.0000    0.0014    0.0000   -0.0071
       46 O2     3d1-       0.0000    0.0000    0.0000   -0.0000   -0.0000    0.0000   -0.0000    0.0000    0.0000   -0.0000
       47 O2     4d1-       0.0000    0.0000    0.0000   -0.0000    0.0000    0.0000   -0.0000   -0.0000    0.0000   -0.0000
       48 O2     3d0        0.0000    0.0001   -0.0011   -0.0147   -0.0000   -0.0014   -0.0105   -0.0000    0.0000   -0.0000
       49 O2     4d0        0.0003    0.0000   -0.0006    0.0006    0.0000    0.0006   -0.0011    0.0000   -0.0000   -0.0000
       50 O2     3d1+       0.0000    0.0000   -0.0000    0.0000   -0.0000   -0.0000    0.0000   -0.0000    0.0178   -0.0000
       51 O2     4d1+      -0.0000    0.0000    0.0000    0.0000   -0.0000   -0.0000    0.0000    0.0000    0.0028    0.0000
       52 O2     3d2+       0.0006    0.0001   -0.0018   -0.0235   -0.0000   -0.0043    0.0099   -0.0000   -0.0000   -0.0000
       53 O2     4d2+       0.0002    0.0001   -0.0009   -0.0012   -0.0000   -0.0002    0.0002   -0.0000   -0.0000   -0.0000
       54 O2     4f3-       0.0000    0.0002    0.0000   -0.0000    0.0088    0.0000   -0.0000   -0.0087   -0.0000   -0.0044
       55 O2     4f2-      -0.0000    0.0000   -0.0000   -0.0000    0.0000   -0.0000   -0.0000   -0.0000    0.0000   -0.0000
       56 O2     4f1-       0.0000    0.0001    0.0000   -0.0000    0.0054    0.0000   -0.0000   -0.0047   -0.0000    0.0009
       57 O2     4f0        0.0000   -0.0000    0.0000   -0.0000   -0.0000    0.0000    0.0000    0.0000   -0.0055    0.0000
       58 O2     4f1+       0.0000    0.0000   -0.0000   -0.0013   -0.0000    0.0002   -0.0002    0.0000   -0.0000    0.0000
       59 O2     4f2+      -0.0000   -0.0000   -0.0000   -0.0000   -0.0000   -0.0000   -0.0000    0.0000   -0.0106    0.0000
       60 O2     4f3+       0.0001    0.0000   -0.0002   -0.0066   -0.0000   -0.0009   -0.0109    0.0000    0.0000   -0.0000
       61 O3     1s         0.0024    0.6592    0.7504   -0.0127   -0.0124    0.0138   -0.0052    0.0245    0.0000   -0.0069
       62 O3     2s         0.0015   -0.0054   -0.0061    0.3446    0.5588    0.6474   -0.1136    0.4406    0.0000   -0.0794
       63 O3     3s         0.0008   -0.0039   -0.0042   -0.0091   -0.0212    0.0226   -0.0075    0.0533    0.0000   -0.0143
       64 O3     4s         0.0001   -0.0008   -0.0008   -0.0002   -0.0040    0.0039   -0.0016    0.0112    0.0000   -0.0032
       65 O3     2px       -0.0002    0.0006    0.0006   -0.0191   -0.0278    0.0564    0.3182    0.1966   -0.0000    0.6655
       66 O3     3px       -0.0003    0.0006    0.0004    0.0081    0.0043   -0.0099   -0.0224   -0.0160   -0.0000   -0.0050
       67 O3     4px       -0.0002   -0.0001   -0.0003    0.0018   -0.0006    0.0003   -0.0008   -0.0005   -0.0000   -0.0053
       68 O3     2py        0.0010   -0.0023   -0.0031    0.1153    0.0873   -0.1646    0.1569   -0.3705   -0.0000    0.2153
       69 O3     3py        0.0005   -0.0023   -0.0030   -0.0121   -0.0194    0.0268   -0.0135    0.0469    0.0000   -0.0051
       70 O3     4py       -0.0002    0.0015    0.0017   -0.0010   -0.0034   -0.0008   -0.0025    0.0040    0.0000   -0.0020
       71 O3     2pz        0.0000   -0.0000    0.0000    0.0000    0.0000   -0.0000    0.0000   -0.0000    0.4141    0.0000
       72 O3     3pz        0.0000    0.0000    0.0000    0.0000   -0.0000   -0.0000   -0.0000    0.0000   -0.0151   -0.0000
       73 O3     4pz        0.0000    0.0000    0.0000    0.0000    0.0000   -0.0000   -0.0000    0.0000   -0.0067   -0.0000
       74 O3     3d2-      -0.0000    0.0004    0.0005   -0.0058   -0.0063    0.0065    0.0179    0.0125   -0.0000    0.0110
       75 O3     4d2-       0.0000    0.0002    0.0003   -0.0002   -0.0006    0.0002    0.0017    0.0006   -0.0000    0.0012
       76 O3     3d1-       0.0000    0.0000    0.0000    0.0000    0.0000   -0.0000    0.0000   -0.0000    0.0317    0.0000
       77 O3     4d1-       0.0000   -0.0000    0.0000    0.0000   -0.0000   -0.0000    0.0000   -0.0000    0.0056    0.0000
       78 O3     3d0       -0.0001    0.0005    0.0007   -0.0103   -0.0086    0.0066   -0.0053    0.0148    0.0000   -0.0050
       79 O3     4d0       -0.0001    0.0004    0.0005   -0.0009   -0.0007    0.0003   -0.0008    0.0009   -0.0000   -0.0009
       80 O3     3d1+      -0.0000    0.0000    0.0000   -0.0000   -0.0000    0.0000   -0.0000    0.0000   -0.0055   -0.0000
       81 O3     4d1+      -0.0000   -0.0000    0.0000    0.0000    0.0000    0.0000   -0.0000    0.0000   -0.0010    0.0000
       82 O3     3d2+      -0.0003    0.0011    0.0013   -0.0193   -0.0143    0.0143   -0.0156    0.0258    0.0000   -0.0126
       83 O3     4d2+      -0.0001    0.0005    0.0007   -0.0027   -0.0017    0.0015   -0.0017    0.0019    0.0000   -0.0017
       84 O3     4f3-      -0.0001    0.0002    0.0002   -0.0050   -0.0046    0.0024   -0.0049    0.0055    0.0000   -0.0041
       85 O3     4f2-       0.0000   -0.0000   -0.0000   -0.0000   -0.0000    0.0000   -0.0000    0.0000   -0.0020   -0.0000
       86 O3     4f1-      -0.0000    0.0002    0.0002   -0.0033   -0.0030    0.0019   -0.0014    0.0039    0.0000   -0.0012
       87 O3     4f0       -0.0000   -0.0000   -0.0000   -0.0000   -0.0000    0.0000   -0.0000    0.0000   -0.0037    0.0000
       88 O3     4f1+      -0.0000   -0.0000   -0.0000    0.0005    0.0005   -0.0004   -0.0005   -0.0005   -0.0000    0.0007
       89 O3     4f2+      -0.0000   -0.0000   -0.0000    0.0000    0.0000   -0.0000   -0.0000    0.0000   -0.0068   -0.0000
       90 O3     4f3+      -0.0000   -0.0001   -0.0001    0.0027    0.0027   -0.0021   -0.0058   -0.0043    0.0000   -0.0045
 
          Orbital           11        12        13        14        15        16        17        18        19        20    
          Energy           -0.5104   -0.4889   -0.0306    0.1480    0.1688    0.2324    0.2347    0.2850    0.3628    0.3693
          Occ. No.          2.0000    2.0000    0.0000    0.0000    0.0000    0.0000    0.0000    0.0000    0.0000    0.0000
 
        1 O1     1s         0.0000    0.0011   -0.0000    0.0681   -0.2222   -0.0492    0.0000    0.0882   -0.0130   -0.0000
        2 O1     2s         0.0000   -0.0063   -0.0000    0.6142   -1.6157   -0.3230    0.0000    0.5842   -0.0471   -0.0000
        3 O1     3s        -0.0000    0.0103   -0.0000    0.1862   -0.9639   -0.2441    0.0000    0.5612   -0.0168   -0.0000
        4 O1     4s        -0.0000    0.0038   -0.0000    0.0223   -0.2185   -0.0574    0.0000    0.1479    0.0006   -0.0000
        5 O1     2px        0.0000    0.6664   -0.0000   -0.0025    0.1987   -0.0204    0.0000   -0.1124   -0.1755   -0.0000
        6 O1     3px       -0.0000    0.0340   -0.0000   -0.0184    0.2151    0.4018   -0.0000    0.0794   -0.8442   -0.0000
        7 O1     4px       -0.0000   -0.0008   -0.0000    0.0012    0.0303    0.1892   -0.0000    0.0708   -0.3351   -0.0000
        8 O1     2py       -0.0000    0.0694    0.0000   -0.9333    0.6386    0.1469   -0.0000   -0.3859   -0.1317    0.0000
        9 O1     3py        0.0000   -0.0101   -0.0000   -0.4584    0.7928    0.2602   -0.0000   -0.9799   -0.0904    0.0000
       10 O1     4py        0.0000   -0.0028   -0.0000   -0.0593    0.1035    0.0249   -0.0000   -0.2298   -0.0174    0.0000
       11 O1     2pz       -0.6953    0.0000    0.6660    0.0000   -0.0000   -0.0000   -0.1198   -0.0000    0.0000   -0.1511
       12 O1     3pz       -0.0260   -0.0000    0.1713    0.0000    0.0000    0.0000    0.3748   -0.0000    0.0000   -0.8787
       13 O1     4pz        0.0071   -0.0000    0.0277    0.0000    0.0000    0.0000    0.2042   -0.0000    0.0000   -0.3531
       14 O1     3d2-      -0.0000   -0.0006   -0.0000    0.0196   -0.0359   -0.0086    0.0000    0.0171    0.0115    0.0000
       15 O1     4d2-       0.0000   -0.0003   -0.0000    0.0094   -0.0247   -0.0097    0.0000    0.0120    0.0160    0.0000
       16 O1     3d1-       0.0253    0.0000    0.0137   -0.0000    0.0000    0.0000    0.0071    0.0000   -0.0000    0.0100
       17 O1     4d1-       0.0059    0.0000    0.0016    0.0000   -0.0000   -0.0000   -0.0009    0.0000   -0.0000    0.0141
       18 O1     3d0       -0.0000    0.0033    0.0000   -0.0148    0.0520    0.0255   -0.0000   -0.0545   -0.0058    0.0000
       19 O1     4d0       -0.0000    0.0002    0.0000   -0.0106    0.0327    0.0162   -0.0000   -0.0381   -0.0072    0.0000
       20 O1     3d1+       0.0039    0.0000    0.0033   -0.0000    0.0000    0.0000    0.0024    0.0000   -0.0000    0.0083
       21 O1     4d1+       0.0008    0.0000    0.0003   -0.0000    0.0000    0.0000    0.0005    0.0000   -0.0000    0.0067
       22 O1     3d2+      -0.0000    0.0074    0.0000   -0.0166    0.0822    0.0469   -0.0000   -0.0991    0.0041    0.0000
       23 O1     4d2+      -0.0000   -0.0000    0.0000   -0.0140    0.0501    0.0281   -0.0000   -0.0696   -0.0006    0.0000
       24 O1     4f3-       0.0000   -0.0015   -0.0000    0.0040   -0.0070   -0.0013    0.0000    0.0111   -0.0014   -0.0000
       25 O1     4f2-      -0.0015   -0.0000   -0.0003    0.0000   -0.0000    0.0000    0.0007   -0.0000    0.0000   -0.0040
       26 O1     4f1-       0.0000   -0.0010   -0.0000    0.0024   -0.0050   -0.0031    0.0000    0.0104    0.0036   -0.0000
       27 O1     4f0        0.0019    0.0000    0.0015   -0.0000    0.0000   -0.0000   -0.0019    0.0000   -0.0000    0.0062
       28 O1     4f1+       0.0000    0.0011   -0.0000    0.0009   -0.0005   -0.0016    0.0000    0.0013    0.0033    0.0000
       29 O1     4f2+       0.0055    0.0000   -0.0004   -0.0000    0.0000   -0.0000   -0.0018    0.0000   -0.0000    0.0062
       30 O1     4f3+      -0.0000   -0.0023    0.0000    0.0032   -0.0026   -0.0045    0.0000    0.0048    0.0091    0.0000
       31 O2     1s        -0.0000    0.0200    0.0000   -0.2064   -0.0000    0.1153   -0.0000   -0.2867    0.0000    0.0000
       32 O2     2s        -0.0000    0.2359   -0.0000   -1.6963   -0.0000    0.7368   -0.0000   -1.7817    0.0000    0.0000
       33 O2     3s        -0.0000    0.0526    0.0000   -0.7670   -0.0000    0.4808   -0.0000   -1.0727    0.0000    0.0000
       34 O2     4s        -0.0000    0.0127    0.0000   -0.1719   -0.0000    0.0974   -0.0000   -0.1978    0.0000    0.0000
       35 O2     2px        0.0000   -0.6583    0.0000   -0.4459   -0.0000   -0.0420    0.0000   -0.1330    0.0000    0.0000
       36 O2     3px       -0.0000   -0.0327    0.0000   -0.1662   -0.0000    0.3473   -0.0000   -0.2364    0.0000    0.0000
       37 O2     4px        0.0000   -0.0034    0.0000   -0.0100   -0.0000    0.1679   -0.0000    0.0067    0.0000    0.0000
       38 O2     2py       -0.0000   -0.0000    0.0000   -0.0000    1.5694   -0.0000   -0.0000    0.0000   -0.0426    0.0000
       39 O2     3py       -0.0000   -0.0000    0.0000   -0.0000    1.6183   -0.0000   -0.0000    0.0000    0.2316    0.0000
       40 O2     4py       -0.0000   -0.0000   -0.0000   -0.0000    0.1646   -0.0000    0.0000    0.0000    0.1154    0.0000
       41 O2     2pz        0.0000   -0.0000   -0.9047   -0.0000   -0.0000   -0.0000   -0.0419    0.0000   -0.0000    0.0000
       42 O2     3pz       -0.0000   -0.0000   -0.2055    0.0000    0.0000    0.0000    0.2894    0.0000   -0.0000    0.0000
       43 O2     4pz       -0.0000   -0.0000   -0.0210    0.0000    0.0000    0.0000    0.1794    0.0000   -0.0000    0.0000
       44 O2     3d2-       0.0000   -0.0000    0.0000   -0.0000    0.0779   -0.0000   -0.0000   -0.0000    0.1001    0.0000
       45 O2     4d2-       0.0000   -0.0000    0.0000   -0.0000    0.0479   -0.0000   -0.0000   -0.0000    0.0663    0.0000
       46 O2     3d1-      -0.0622   -0.0000   -0.0000    0.0000   -0.0000   -0.0000   -0.0000    0.0000   -0.0000    0.1166
       47 O2     4d1-      -0.0144   -0.0000   -0.0000    0.0000   -0.0000   -0.0000   -0.0000    0.0000   -0.0000    0.0706
       48 O2     3d0       -0.0000    0.0159   -0.0000   -0.0126   -0.0000   -0.0503    0.0000    0.1189    0.0000   -0.0000
       49 O2     4d0       -0.0000    0.0018   -0.0000    0.0059    0.0000   -0.0259    0.0000    0.0530   -0.0000   -0.0000
       50 O2     3d1+       0.0000   -0.0000   -0.0035   -0.0000   -0.0000   -0.0000   -0.0130   -0.0000   -0.0000   -0.0000
       51 O2     4d1+       0.0000   -0.0000   -0.0004   -0.0000   -0.0000   -0.0000   -0.0052   -0.0000   -0.0000   -0.0000
       52 O2     3d2+      -0.0000    0.0261   -0.0000   -0.0253   -0.0000   -0.0966    0.0000    0.1578   -0.0000   -0.0000
       53 O2     4d2+       0.0000    0.0046   -0.0000    0.0096    0.0000   -0.0453    0.0000    0.0615   -0.0000   -0.0000
       54 O2     4f3-       0.0000   -0.0000   -0.0000    0.0000   -0.0136   -0.0000    0.0000   -0.0000   -0.0017   -0.0000
       55 O2     4f2-      -0.0045   -0.0000   -0.0000   -0.0000   -0.0000   -0.0000   -0.0000    0.0000   -0.0000    0.0036
       56 O2     4f1-      -0.0000    0.0000   -0.0000    0.0000   -0.0111    0.0000    0.0000   -0.0000   -0.0057   -0.0000
       57 O2     4f0       -0.0000   -0.0000   -0.0021   -0.0000    0.0000   -0.0000   -0.0015   -0.0000    0.0000   -0.0000
       58 O2     4f1+      -0.0000   -0.0018    0.0000   -0.0012   -0.0000   -0.0020    0.0000    0.0029   -0.0000   -0.0000
       59 O2     4f2+      -0.0000    0.0000    0.0018   -0.0000    0.0000   -0.0000   -0.0020   -0.0000    0.0000   -0.0000
       60 O2     4f3+      -0.0000    0.0019    0.0000   -0.0003   -0.0000   -0.0061    0.0000    0.0068   -0.0000   -0.0000
       61 O3     1s        -0.0000    0.0011    0.0000    0.0681    0.2222   -0.0492    0.0000    0.0882    0.0130   -0.0000
       62 O3     2s        -0.0000   -0.0063    0.0000    0.6142    1.6157   -0.3230    0.0000    0.5842    0.0471   -0.0000
       63 O3     3s        -0.0000    0.0103    0.0000    0.1862    0.9639   -0.2441    0.0000    0.5612    0.0168   -0.0000
       64 O3     4s        -0.0000    0.0038    0.0000    0.0223    0.2185   -0.0574    0.0000    0.1479   -0.0006   -0.0000
       65 O3     2px       -0.0000    0.6664   -0.0000   -0.0025   -0.1987   -0.0204    0.0000   -0.1125    0.1754    0.0000
       66 O3     3px        0.0000    0.0340   -0.0000   -0.0184   -0.2151    0.4018   -0.0000    0.0794    0.8442    0.0000
       67 O3     4px        0.0000   -0.0008   -0.0000    0.0012   -0.0303    0.1892   -0.0000    0.0708    0.3351    0.0000
       68 O3     2py        0.0000   -0.0694   -0.0000    0.9333    0.6386   -0.1469    0.0000    0.3859   -0.1317   -0.0000
       69 O3     3py       -0.0000    0.0101    0.0000    0.4584    0.7928   -0.2602    0.0000    0.9799   -0.0904   -0.0000
       70 O3     4py       -0.0000    0.0028    0.0000    0.0593    0.1035   -0.0249    0.0000    0.2298   -0.0174   -0.0000
       71 O3     2pz        0.6953    0.0000    0.6660   -0.0000    0.0000   -0.0000   -0.1198   -0.0000   -0.0000    0.1511
       72 O3     3pz        0.0260    0.0000    0.1713   -0.0000    0.0000    0.0000    0.3747    0.0000   -0.0000    0.8787
       73 O3     4pz       -0.0071    0.0000    0.0277   -0.0000   -0.0000    0.0000    0.2042    0.0000   -0.0000    0.3531
       74 O3     3d2-      -0.0000    0.0006    0.0000   -0.0196   -0.0359    0.0086   -0.0000   -0.0171    0.0115    0.0000
       75 O3     4d2-      -0.0000    0.0003   -0.0000   -0.0094   -0.0247    0.0097   -0.0000   -0.0120    0.0160    0.0000
       76 O3     3d1-       0.0253    0.0000   -0.0137   -0.0000    0.0000   -0.0000   -0.0071   -0.0000   -0.0000    0.0100
       77 O3     4d1-       0.0059    0.0000   -0.0016   -0.0000   -0.0000    0.0000    0.0009    0.0000   -0.0000    0.0141
       78 O3     3d0        0.0000    0.0033    0.0000   -0.0148   -0.0520    0.0255   -0.0000   -0.0545    0.0058    0.0000
       79 O3     4d0        0.0000    0.0002   -0.0000   -0.0106   -0.0327    0.0162   -0.0000   -0.0381    0.0072    0.0000
       80 O3     3d1+      -0.0039   -0.0000    0.0033    0.0000    0.0000    0.0000    0.0024   -0.0000    0.0000   -0.0083
       81 O3     4d1+      -0.0008   -0.0000    0.0003    0.0000    0.0000    0.0000    0.0005   -0.0000    0.0000   -0.0067
       82 O3     3d2+       0.0000    0.0074   -0.0000   -0.0166   -0.0822    0.0469   -0.0000   -0.0991   -0.0041    0.0000
       83 O3     4d2+       0.0000   -0.0000   -0.0000   -0.0140   -0.0501    0.0281   -0.0000   -0.0696    0.0006    0.0000
       84 O3     4f3-       0.0000    0.0015   -0.0000   -0.0040   -0.0070    0.0013   -0.0000   -0.0111   -0.0014    0.0000
       85 O3     4f2-      -0.0015   -0.0000    0.0003   -0.0000   -0.0000   -0.0000   -0.0007    0.0000    0.0000   -0.0040
       86 O3     4f1-      -0.0000    0.0010   -0.0000   -0.0024   -0.0050    0.0031   -0.0000   -0.0104    0.0036    0.0000
       87 O3     4f0       -0.0019    0.0000    0.0015    0.0000    0.0000   -0.0000   -0.0019   -0.0000    0.0000   -0.0062
       88 O3     4f1+      -0.0000    0.0011   -0.0000    0.0009    0.0005   -0.0016    0.0000    0.0013   -0.0033   -0.0000
       89 O3     4f2+      -0.0055   -0.0000   -0.0004    0.0000   -0.0000   -0.0000   -0.0018   -0.0000    0.0000   -0.0062
       90 O3     4f3+       0.0000   -0.0023   -0.0000    0.0032    0.0026   -0.0045    0.0000    0.0048   -0.0091   -0.0000
 
          Orbital           21    
          Energy            0.4550
          Occ. No.          0.0000
 
        1 O1     1s        -0.0599
        2 O1     2s        -0.3517
        3 O1     3s         0.1739
        4 O1     4s         0.1345
        5 O1     2px        0.1125
        6 O1     3px        0.2341
        7 O1     4px        0.0495
        8 O1     2py        0.0137
        9 O1     3py        0.4463
       10 O1     4py        0.0875
       11 O1     2pz       -0.0000
       12 O1     3pz       -0.0000
       13 O1     4pz       -0.0000
       14 O1     3d2-      -0.0585
       15 O1     4d2-      -0.0362
       16 O1     3d1-       0.0000
       17 O1     4d1-       0.0000
       18 O1     3d0        0.0651
       19 O1     4d0        0.0379
       20 O1     3d1+      -0.0000
       21 O1     4d1+      -0.0000
       22 O1     3d2+       0.0925
       23 O1     4d2+       0.0517
       24 O1     4f3-      -0.0025
       25 O1     4f2-       0.0000
       26 O1     4f1-      -0.0037
       27 O1     4f0        0.0000
       28 O1     4f1+      -0.0013
       29 O1     4f2+       0.0000
       30 O1     4f3+      -0.0041
       31 O2     1s         0.0938
       32 O2     2s         0.5786
       33 O2     3s         0.9443
       34 O2     4s         0.2879
       35 O2     2px       -0.1295
       36 O2     3px       -0.2991
       37 O2     4px       -0.1181
       38 O2     2py       -0.0000
       39 O2     3py        0.0000
       40 O2     4py        0.0000
       41 O2     2pz       -0.0000
       42 O2     3pz        0.0000
       43 O2     4pz        0.0000
       44 O2     3d2-       0.0000
       45 O2     4d2-       0.0000
       46 O2     3d1-       0.0000
       47 O2     4d1-       0.0000
       48 O2     3d0       -0.0332
       49 O2     4d0       -0.0114
       50 O2     3d1+      -0.0000
       51 O2     4d1+      -0.0000
       52 O2     3d2+      -0.0772
       53 O2     4d2+      -0.0363
       54 O2     4f3-      -0.0000
       55 O2     4f2-      -0.0000
       56 O2     4f1-      -0.0000
       57 O2     4f0        0.0000
       58 O2     4f1+      -0.0011
       59 O2     4f2+       0.0000
       60 O2     4f3+      -0.0052
       61 O3     1s        -0.0599
       62 O3     2s        -0.3517
       63 O3     3s         0.1739
       64 O3     4s         0.1345
       65 O3     2px        0.1125
       66 O3     3px        0.2341
       67 O3     4px        0.0495
       68 O3     2py       -0.0137
       69 O3     3py       -0.4463
       70 O3     4py       -0.0876
       71 O3     2pz        0.0000
       72 O3     3pz        0.0000
       73 O3     4pz        0.0000
       74 O3     3d2-       0.0585
       75 O3     4d2-       0.0362
       76 O3     3d1-      -0.0000
       77 O3     4d1-      -0.0000
       78 O3     3d0        0.0651
       79 O3     4d0        0.0379
       80 O3     3d1+      -0.0000
       81 O3     4d1+      -0.0000
       82 O3     3d2+       0.0925
       83 O3     4d2+       0.0517
       84 O3     4f3-       0.0025
       85 O3     4f2-      -0.0000
       86 O3     4f1-       0.0037
       87 O3     4f0       -0.0000
       88 O3     4f1+      -0.0013
       89 O3     4f2+      -0.0000
       90 O3     4f3+      -0.0041
--
 
 
++    Molecular charges:
      ------------------
 
      Mulliken charges per centre and basis function type
      ---------------------------------------------------
 
                O1      O2      O3    
      1s       1.9977  1.9991  1.9977
      2s       1.9569  1.6392  1.9569
      2px      1.9785  1.8207  1.9785
      2pz      1.4222  1.0636  1.4222
      2py      0.7752  1.0428  0.7752
      3s      -0.0073 -0.0359 -0.0073
      3px     -0.0159 -0.0380 -0.0159
      3pz     -0.0071 -0.0148 -0.0071
      3py     -0.0010  0.0058 -0.0010
      4s       0.0034  0.0003  0.0034
      3d2+     0.0212  0.0255  0.0212
      3d1+     0.0005  0.0023  0.0005
      3d0      0.0059  0.0060  0.0059
      3d1-     0.0143  0.0543  0.0143
      3d2-     0.0103  0.0369  0.0103
      4px      0.0006  0.0010  0.0006
      4pz      0.0012  0.0019  0.0012
      4py      0.0024  0.0047  0.0024
      4d2+     0.0015  0.0024  0.0015
      4d1+     0.0001  0.0003  0.0001
      4d0      0.0002 -0.0004  0.0002
      4d1-     0.0022  0.0137  0.0022
      4d2-     0.0007  0.0059  0.0007
      4f3+     0.0023  0.0036  0.0023
      4f2+     0.0018  0.0036  0.0018
      4f1+     0.0002  0.0003  0.0002
      4f0      0.0008  0.0015  0.0008
      4f1-     0.0012  0.0014  0.0012
      4f2-     0.0002  0.0010  0.0002
      4f3-     0.0030  0.0048  0.0030
      Total    8.1733  7.6535  8.1733
 
      N-E     -0.1733  0.3465 -0.1733
 
      Total electronic charge=   24.000000
 
      Total            charge=   -0.000000
--
 
 
  Input file to MOLDEN was generated!
 
 
++    Static properties:
      ------------------
 
 
      LoProp Charges per center
 

                   O1       O2       O3    
      Nuclear      8.0000   8.0000   8.0000
      Electronic  -8.1812  -7.6376  -8.1812
 
      Total       -0.1812   0.3624  -0.1812
--
 
 
++    Natural Bond Order analysis
      ---------------------------
      Based on LoProp computed density
      -------------------------------------------------------------------------------------
      Atom A       Atom B       Bond Order | Atom A       Atom B       Bond Order
        O1           O2             1.995  |   O2           O3             1.995
      -------------------------------------------------------------------------------------
      NBO located     11.999 core electrons.
      NBO located      3.977 lone pair electrons.
      NBO located      7.981 electrons involved in    2 bonds.
      The remaining    0.043 electrons are to be considered as diffuse
--
 
 
++    Molecular properties:
      ---------------------
 
      Charge (e):
                      =   -0.0000
      Dipole Moment (Debye):
      Origin of the operator (Ang)=    0.0000    0.0000    0.0000
                   X= -1.0429E-01               Y= -6.0506E-06               Z= -1.2157E-13           Total=  1.0429E-01
      Quadrupole Moment (Debye*Ang):
      Origin of the operator (Ang)=    0.1699    0.0000    0.0000
                  XX= -1.6201E+01              XY= -3.6558E-07              XZ= -3.8221E-13              YY= -1.6884E+01
                  YZ= -3.6700E-13              ZZ= -1.4908E+01
      In traceless form (Debye*Ang)
                  XX= -3.0448E-01              XY= -5.4838E-07              XZ= -5.7331E-13              YY= -1.3296E+00
                  YZ= -5.5051E-13              ZZ=  1.6340E+00
--
 
 
  Input file to MOLDEN was generated!
 
 ###############################################################################
 ###############################################################################
 ###                                                                         ###
 ###                                                                         ###
 ###    RunFile label nBas                                                   ###
 ###    was used       78 times                                              ###
 ###                                                                         ###
 ###                                                                         ###
 ###############################################################################
 ###############################################################################
--- Stop Module: scf at Tue Apr 29 19:58:37 2025 /rc=_RC_ALL_IS_WELL_ ---
*** files: ozone_157.00.LprOrb ozone_157.00.LoProp.molden ozone_157.00.scf.molden ozone_157.00.ScfOrb ozone_157.00.scf.h5 xmldump
    saved to directory /lustre/isaac/scratch/gjones39/ANO-RCC-VTZP/ozone_157.00
--- Module scf spent 16 seconds ---

>>> COPY /lustre/isaac/scratch/gjones39/ANO-RCC-VTZP/ozone_157.00/3189921/ozone_157.00.scf.h5 /lustre/isaac/scratch/gjones39/ANO-RCC-VTZP/ozone_157.00/

*** symbolic link created: INPORB -> ozone_157.00.ScfOrb
--- Start Module: rasscf at Tue Apr 29 19:58:37 2025 ---
 
()()()()()()()()()()()()()()()()()()()()()()()()()()()()()()()()()()()()()()()()()()()()()()()()()()

                                              &RASSCF

                                   only a single process is used
                       available to each process: 62 GB of memory, 1 thread?
()()()()()()()()()()()()()()()()()()()()()()()()()()()()()()()()()()()()()()()()()()()()()()()()()()
 
 
      Header of the ONEINT file:
      --------------------------
      
      Integrals generated by seward 4.2.0  , Tue Apr 29 19:58:02 2025
 
 
      OrdInt status: non-squared
 
 
      Cartesian coordinates in Angstrom:
      -----------------------------------------------------
      No.  Label        X            Y            Z        
      -----------------------------------------------------
       1   O1         0.25479200   1.25234400   0.00000000
       2   O2         0.00000000   0.00000000   0.00000000
       3   O3         0.25479200  -1.25234400   0.00000000
      -----------------------------------------------------
      Nuclear repulsion energy =   66.52210790
 
++    Wave function specifications:
      -----------------------------
 
      Number of closed shell electrons          12
      Number of electrons in active shells      12
      Max number of holes in RAS1 space          0
      Max nr of electrons in RAS3 space          0
      Number of inactive orbitals                6
      Number of active orbitals                  9
      Number of secondary orbitals              75
      Spin quantum number                      0.0
      State symmetry                             1
--
 
++    Orbital specifications:
      -----------------------
 
      Symmetry species                           1
                                                 a
      Frozen orbitals                            0
      Inactive orbitals                          6
      Active orbitals                            9
      RAS1 orbitals                              0
      RAS2 orbitals                              9
      RAS3 orbitals                              0
      Secondary orbitals                        75
      Deleted orbitals                           0
      Number of basis functions                 90
--
 
++    CI expansion specifications:
      ----------------------------
 
      Number of CSFs                          2520
      Number of determinants                  3570
      Number of root(s) required                 3
      Root chosen for geometry opt.              3
      CI roots used                              1     2     3
      weights                                0.333 0.333 0.333
      highest root included in the CI            3
      max. size of the explicit Hamiltonian    500
--
 
++    Optimization specifications:
      ----------------------------
 
      RASSCF algorithm: Conventional
      Maximum number of macro iterations       200
      Maximum number of SX iterations          100
      Threshold for RASSCF energy            0.100E-07
      Threshold for max MO rotation          0.100E+00
      Threshold for max BLB element          0.100E-03
      Level shift parameter                  0.500E+00
      Make Quasi-Newton update
--
 
      The MO-coefficients are taken from the file:
      /lustre/isaac/scratch/gjones39/ANO-RCC-VTZP/ozone_156.75/ozone_156.75.RasOrb                                                    
      Title: RASSCF average (pseudo-natural) orbitals                                      
 
      Total molecular charge    0.00
 
      ************************************************************************************************************************
      *                                                                                                                      *
      *                                            Wave function control section                                             *
      *                                                                                                                      *
      ************************************************************************************************************************
 
 
                                         RASSCF iterations: Energy and convergence statistics
                                         ----------------------------------------------------
 
      Iter CI   SX   CI       RASSCF       Energy    max ROT     max BLB   max BLB  Level Ln srch  Step   QN   Walltime
          iter iter root      energy       change     param      element    value   shift minimum  type update hh:mm:ss
 Nr of preliminary CI iterations:   6
        1   1    6    0  -224.60053947    0.00E+00   0.48E-03    4  14 1  0.12E-02*  0.01   0.00    SX    NO    0:00:02
        2   1    6    0  -224.60054226   -0.28E-05* -0.20E-03    4  14 1  0.21E-03*  0.01   0.00    SX    NO    0:00:01
        3   1    5    0  -224.60054239   -0.13E-06* -0.15E-03    4  14 1  0.80E-04   0.01   0.00    SX    NO    0:00:01
        4   7    6    0  -224.60054573   -0.33E-05* -0.15E-03    4  14 1  0.30E-03*  0.01   0.00    SX    NO    0:00:01
        5   3    5    0  -224.60054591   -0.18E-06* -0.61E-04    4  14 1  0.12E-03*  0.01   1.40    LS   YES    0:00:01
        6   5    5    0  -224.60054593   -0.16E-07* -0.95E-04    6  22 1  0.64E-04   0.01   0.98    QN   YES    0:00:01
        7   3    4    0  -224.60054595   -0.17E-07* -0.11E-03    6  22 1  0.27E-04   0.01   1.28    QN   YES    0:00:01
        8   1    4    0  -224.60054595   -0.30E-08   0.10E-04    6  14 1  0.54E-05   0.01   0.93    QN   YES    0:00:01
      Convergence after  8 iterations
 
  Dmat in MO in SXCTL bf call to SXHAM                                                                                    
  mat. size =     9x    9
 
        1.9640659638370073
        0.0000000150087290      1.9422845036580849
       -0.0000000204210342      0.0000004332337083      1.9788542350190339
        0.0015277017084058     -0.0000000698448713      0.0000001092974602      1.1172799629138639
        0.0000000077933204     -0.0000483245902224      0.0000014344578005      0.0000001174619173      1.8694033618671277
        0.0000018336844177      0.0000000378779025     -0.0000000052516025     -0.0000440939840585      0.0000001014087830
        1.9017815340712441
       -0.0000000593770712     -0.0000052158079058      0.0002858224845743     -0.0000002167779105     -0.0000175830680653
       -0.0000000558314386      1.1112651868842593
        0.0022018015912185     -0.0000000941545229     -0.0000001418680269      0.0002855613668082      0.0000000847727643
       -0.0000056709787315      0.0000014399896226      0.0798633348797845
        0.0000000049491533      0.0005065335111714      0.0000032920360253     -0.0000000235317173     -0.0023030601931305
       -0.0000001166501467     -0.0000107461861107     -0.0000000011079777      0.0352019168695898
        9   1    4    0  -224.60054595   -0.21E-09   0.10E-04    7  38 1 -0.17E-05   0.01   0.93    QN   YES    0:00:00
 
      ************************************************************************************************************************
                                                      Wave function printout:
                       occupation of active orbitals, and spin coupling of open shells (u,d: Spin up or down)
      ************************************************************************************************************************
 
      Note: transformation to natural orbitals
      has been made, which may change the order of the CSFs.
 
      printout of CI-coefficients larger than  0.05 for root  1
      energy=    -224.645247
      conf/sym  111111111     Coeff  Weight
             1  222222000  -0.90718 0.82298
             4  222220200   0.26490 0.07017
            12  2222uudd0   0.05266 0.00277
            72  222u2du0d  -0.05262 0.00277
            74  222u2ud0d  -0.05356 0.00287
           205  2u222dud0   0.09104 0.00829
           207  2u222udd0   0.09303 0.00866
           351  222022200   0.07838 0.00614
           551  220222200   0.08422 0.00709
           611  2ud222u0d   0.06475 0.00419
           652  u2d222ud0  -0.06749 0.00456
           705  202222020   0.05566 0.00310
           731  202222002   0.05521 0.00305
           764  ud22220ud  -0.06507 0.00423
           805  022222020   0.06207 0.00385
           992  2uu222d0d   0.06687 0.00447
          1031  u2u222dd0  -0.05370 0.00288
 
      printout of CI-coefficients larger than  0.05 for root  2
      energy=    -224.605464
      conf/sym  111111111     Coeff  Weight
             5  2222ud200  -0.27393 0.07504
            51  222u22d00   0.91839 0.84343
           206  2u22d2ud0  -0.05950 0.00354
           208  2u22u2dd0  -0.07279 0.00530
           897  2u2u2d2d0  -0.08074 0.00652
          1321  u2du222d0   0.05153 0.00265
          1362  202u22d20  -0.05789 0.00335
          1381  202u22d02  -0.05677 0.00322
          1406  ud2u22dud   0.07056 0.00498
          1442  022u22d20  -0.07126 0.00508
          1485  2uud2220d  -0.06005 0.00361
          1521  u2ud222d0   0.05274 0.00278
 
      printout of CI-coefficients larger than  0.05 for root  3
      energy=    -224.550927
      conf/sym  111111111     Coeff  Weight
             1  222222000   0.06468 0.00418
             4  222220200  -0.05417 0.00293
             6  222202200  -0.33866 0.11469
           351  222022200   0.90168 0.81303
           355  222022020  -0.05690 0.00324
           454  2u2du22d0  -0.05523 0.00305
           898  2u2ud22d0  -0.10100 0.01020
          1441  022u222d0  -0.05079 0.00258
          1966  202022220  -0.05914 0.00350
          1971  202022202  -0.05691 0.00324
          1982  ud20222ud   0.07617 0.00580
          1996  022022220  -0.07861 0.00618
 
      Natural orbitals and occupation numbers for root  1
      sym 1:   1.983769   1.934452   1.956814   1.949958   1.990996   1.809654   0.245132   0.085990   0.043233
 
      Natural orbitals and occupation numbers for root  2
      sym 1:   1.964107   1.940798   1.982922   1.094137   1.890175   1.904234   1.109039   0.078324   0.036263
 
      Natural orbitals and occupation numbers for root  3
      sym 1:   1.962851   1.949030   1.998320   0.295590   1.730103   1.991456   1.978131   0.068901   0.025619
 
      ************************************************************************************************************************
      *                                                                                                                      *
      *                                                    Final results                                                     *
      *                                                                                                                      *
      ************************************************************************************************************************
 
 
++    Wave function specifications:
      -----------------------------
 
      Number of closed shell electrons          12
      Number of electrons in active shells      12
      Max number of holes in RAS1 space          0
      Max nr of electrons in RAS3 space          0
      Number of inactive orbitals                6
      Number of active orbitals                  9
      Number of secondary orbitals              75
      Spin quantum number                      0.0
      State symmetry                             1
--
 
++    Orbital specifications:
      -----------------------
 
      Symmetry species                           1
                                                 a
      Frozen orbitals                            0
      Inactive orbitals                          6
      Active orbitals                            9
      RAS1 orbitals                              0
      RAS2 orbitals                              9
      RAS3 orbitals                              0
      Secondary orbitals                        75
      Deleted orbitals                           0
      Number of basis functions                 90
--
 
++    CI expansion specifications:
      ----------------------------
 
      Number of CSFs                          2520
      Number of determinants                  3570
      Number of root(s) required                 3
      CI roots used                              1     2     3
      weights                                0.333 0.333 0.333
      highest root included in the CI            3
      Root passed to geometry opt.               3
--
 
++    Final optimization conditions:
      ------------------------------
 
      Average CI energy                            -224.60054595
      RASSCF energy for state  3                   -224.55092714
      Super-CI energy                                -0.00000000
      RASSCF energy change                            0.00000000
      Max change in MO coefficients              -0.874E-05
      Max non-diagonal density matrix element     0.103E-04
      Maximum BLB matrix element                 -0.169E-05
      (orbital pair   7,  38 in symmetry   1)
      Norm of electronic gradient            0.144E+00
--
 
 
      Final state energy(ies):
      ------------------------
 
::    RASSCF root number  1 Total energy:   -224.64524682
::    RASSCF root number  2 Total energy:   -224.60546389
::    RASSCF root number  3 Total energy:   -224.55092714
 
++    Molecular orbitals:
      -------------------
 
      Pseudonatural active orbitals and approximate occupation numbers
 
 
 
 
      Molecular orbitals for symmetry species 1: a  
 
 
      Orbital                1         2         3         4         5         6         7         8         9        10
      Energy          -20.7798  -20.7134  -20.7134   -1.5366   -1.3388   -1.0047    0.0000    0.0000    0.0000    0.0000
      Occ. No.          2.0000    2.0000    2.0000    2.0000    2.0000    2.0000    1.9641    1.9423    1.9789    1.1173
 
    1 O1     1s         0.0046   -0.7064    0.7063   -0.0073    0.0009    0.0134   -0.0127   -0.0260    0.0000   -0.0025
    2 O1     2s         0.0020    0.0052   -0.0052    0.4884   -0.6946    0.5471   -0.1244   -0.1562    0.0000   -0.0572
    3 O1     3s         0.0010    0.0038   -0.0037   -0.0020   -0.0039    0.0222   -0.0172   -0.0556    0.0000    0.0055
    4 O1     4s         0.0001    0.0007   -0.0006    0.0007   -0.0006    0.0029   -0.0026   -0.0110    0.0000    0.0030
    5 O1     2px       -0.0003   -0.0005    0.0007   -0.0929   -0.0005    0.1420    0.2387   -0.0037    0.0000    0.6753
    6 O1     3px       -0.0004   -0.0006    0.0003    0.0131    0.0015   -0.0180   -0.0136    0.0129    0.0000    0.0191
    7 O1     4px       -0.0002    0.0002   -0.0003    0.0026    0.0005   -0.0019   -0.0024   -0.0012   -0.0000   -0.0024
    8 O1     2py       -0.0011   -0.0019    0.0024   -0.0039   -0.0821    0.0920   -0.2696   -0.4499    0.0000    0.1682
    9 O1     3py       -0.0006   -0.0022    0.0026    0.0023    0.0007   -0.0221    0.0270    0.0544   -0.0000   -0.0093
   10 O1     4py        0.0003    0.0015   -0.0015   -0.0007   -0.0013    0.0024    0.0023    0.0043    0.0000   -0.0039
   11 O1     2pz       -0.0000    0.0000   -0.0000    0.0000    0.0000   -0.0000   -0.0000   -0.0000    0.3533   -0.0000
   12 O1     3pz       -0.0000   -0.0000    0.0000   -0.0000   -0.0000    0.0000    0.0000    0.0000   -0.0258   -0.0000
   13 O1     4pz       -0.0000   -0.0000    0.0000   -0.0000   -0.0000    0.0000    0.0000    0.0000   -0.0037   -0.0000
   14 O1     3d2-       0.0001    0.0004   -0.0004    0.0108   -0.0012   -0.0146   -0.0145    0.0086   -0.0000   -0.0007
   15 O1     4d2-       0.0000    0.0002   -0.0002    0.0010   -0.0003   -0.0016   -0.0024    0.0001   -0.0000    0.0003
   16 O1     3d1-      -0.0000   -0.0000    0.0000   -0.0000   -0.0000    0.0000   -0.0000    0.0000   -0.0251   -0.0000
   17 O1     4d1-      -0.0000   -0.0000   -0.0000   -0.0000   -0.0000    0.0000   -0.0000    0.0000   -0.0031   -0.0000
   18 O1     3d0       -0.0002   -0.0006    0.0007   -0.0067    0.0017    0.0067   -0.0108   -0.0172    0.0000    0.0024
   19 O1     4d0       -0.0001   -0.0003    0.0004   -0.0008    0.0005    0.0005   -0.0011   -0.0011    0.0000   -0.0004
   20 O1     3d1+       0.0000    0.0000   -0.0000   -0.0000    0.0000   -0.0000    0.0000    0.0000   -0.0039   -0.0000
   21 O1     4d1+      -0.0000   -0.0000    0.0000   -0.0000    0.0000   -0.0000    0.0000    0.0000   -0.0003   -0.0000
   22 O1     3d2+      -0.0003   -0.0009    0.0010   -0.0083    0.0027    0.0071   -0.0243   -0.0284   -0.0000    0.0064
   23 O1     4d2+      -0.0002   -0.0005    0.0006   -0.0013    0.0007    0.0005   -0.0026   -0.0021   -0.0000   -0.0004
   24 O1     4f3-       0.0001    0.0002   -0.0001    0.0019   -0.0017   -0.0004    0.0062    0.0063    0.0000   -0.0015
   25 O1     4f2-      -0.0000    0.0000   -0.0000    0.0000   -0.0000   -0.0000   -0.0000   -0.0000    0.0017    0.0000
   26 O1     4f1-       0.0000    0.0001   -0.0001    0.0026   -0.0014   -0.0015    0.0036    0.0055   -0.0000   -0.0012
   27 O1     4f0       -0.0000   -0.0000   -0.0000   -0.0000   -0.0000    0.0000   -0.0000    0.0000   -0.0045   -0.0000
   28 O1     4f1+      -0.0000    0.0000   -0.0000    0.0011   -0.0002   -0.0012   -0.0010    0.0008    0.0000   -0.0007
   29 O1     4f2+      -0.0000   -0.0000   -0.0000   -0.0000   -0.0000    0.0000    0.0000    0.0000   -0.0053   -0.0000
   30 O1     4f3+       0.0000    0.0001   -0.0001    0.0035   -0.0009   -0.0039   -0.0030    0.0033   -0.0000   -0.0014
   31 O2     1s         0.9994    0.0000   -0.0045   -0.0256   -0.0000   -0.0163   -0.0138    0.0000    0.0000    0.0314
   32 O2     2s        -0.0036   -0.0000    0.0111    0.4652   -0.0000   -0.6932    0.3491   -0.0000   -0.0000    0.3302
   33 O2     3s        -0.0030   -0.0000    0.0061   -0.0523   -0.0000   -0.0342   -0.0375    0.0000    0.0000    0.0856
   34 O2     4s        -0.0003   -0.0000    0.0009   -0.0099   -0.0000   -0.0065   -0.0078    0.0000    0.0000    0.0183
   35 O2     2px       -0.0003   -0.0000    0.0021   -0.2051    0.0000    0.3561    0.6063   -0.0000    0.0000   -0.5679
   36 O2     3px       -0.0004   -0.0000    0.0009   -0.0044   -0.0000   -0.0205   -0.0511    0.0000   -0.0000   -0.0457
   37 O2     4px        0.0011    0.0000   -0.0003    0.0018   -0.0000   -0.0041   -0.0122    0.0000   -0.0000   -0.0034
   38 O2     2py        0.0000   -0.0068   -0.0000    0.0000   -0.0734   -0.0000    0.0000    0.6022    0.0000   -0.0000
   39 O2     3py        0.0000   -0.0043   -0.0000   -0.0000    0.0388    0.0000   -0.0000   -0.0728   -0.0000    0.0000
   40 O2     4py       -0.0000    0.0011    0.0000   -0.0000   -0.0047    0.0000   -0.0000   -0.0051    0.0000    0.0000
   41 O2     2pz       -0.0000    0.0000   -0.0000    0.0000    0.0000   -0.0000   -0.0000   -0.0000    0.7271    0.0000
   42 O2     3pz       -0.0000   -0.0000    0.0000   -0.0000   -0.0000    0.0000    0.0000    0.0000   -0.0529    0.0000
   43 O2     4pz        0.0000   -0.0000   -0.0000   -0.0000   -0.0000    0.0000    0.0000    0.0000   -0.0135    0.0000
   44 O2     3d2-      -0.0000   -0.0007   -0.0000   -0.0000   -0.0094    0.0000    0.0000    0.0314    0.0000    0.0000
   45 O2     4d2-       0.0000   -0.0004   -0.0000   -0.0000   -0.0007    0.0000    0.0000    0.0030    0.0000    0.0000
   46 O2     3d1-      -0.0000   -0.0000   -0.0000   -0.0000   -0.0000    0.0000   -0.0000   -0.0000    0.0000    0.0000
   47 O2     4d1-       0.0000   -0.0000   -0.0000   -0.0000   -0.0000    0.0000    0.0000   -0.0000    0.0000    0.0000
   48 O2     3d0        0.0005    0.0000   -0.0011   -0.0095   -0.0000   -0.0071   -0.0150    0.0000    0.0000    0.0196
   49 O2     4d0        0.0003    0.0000   -0.0005    0.0004   -0.0000   -0.0005   -0.0009    0.0000    0.0000    0.0024
   50 O2     3d1+      -0.0000   -0.0000   -0.0000    0.0000   -0.0000   -0.0000   -0.0000    0.0000    0.0156    0.0000
   51 O2     4d1+       0.0000   -0.0000    0.0000    0.0000   -0.0000   -0.0000    0.0000    0.0000    0.0015    0.0000
   52 O2     3d2+       0.0007    0.0000   -0.0016   -0.0238    0.0000    0.0030    0.0021    0.0000    0.0000    0.0298
   53 O2     4d2+       0.0004    0.0000   -0.0008   -0.0009    0.0000    0.0012    0.0007    0.0000    0.0000    0.0043
   54 O2     4f3-      -0.0000    0.0001    0.0000   -0.0000    0.0042    0.0000   -0.0000   -0.0087   -0.0000    0.0000
   55 O2     4f2-       0.0000   -0.0000    0.0000    0.0000   -0.0000   -0.0000    0.0000   -0.0000    0.0000    0.0000
   56 O2     4f1-      -0.0000    0.0001    0.0000   -0.0000    0.0042    0.0000   -0.0000   -0.0091   -0.0000    0.0000
   57 O2     4f0        0.0000   -0.0000    0.0000   -0.0000   -0.0000    0.0000    0.0000    0.0000   -0.0081   -0.0000
   58 O2     4f1+       0.0000    0.0000   -0.0000   -0.0002   -0.0000   -0.0016   -0.0039    0.0000   -0.0000    0.0008
   59 O2     4f2+       0.0000   -0.0000    0.0000   -0.0000   -0.0000    0.0000    0.0000    0.0000   -0.0086   -0.0000
   60 O2     4f3+       0.0001    0.0000   -0.0002   -0.0017   -0.0000   -0.0042   -0.0110    0.0000   -0.0000    0.0019
   61 O3     1s         0.0046    0.7063    0.7063   -0.0073   -0.0009    0.0134   -0.0127    0.0260    0.0000   -0.0025
   62 O3     2s         0.0020   -0.0052   -0.0052    0.4884    0.6946    0.5471   -0.1244    0.1562    0.0000   -0.0572
   63 O3     3s         0.0010   -0.0038   -0.0037   -0.0020    0.0039    0.0222   -0.0172    0.0556    0.0000    0.0055
   64 O3     4s         0.0001   -0.0007   -0.0006    0.0007    0.0006    0.0029   -0.0026    0.0110    0.0000    0.0030
   65 O3     2px       -0.0003    0.0005    0.0007   -0.0929    0.0005    0.1420    0.2387    0.0037    0.0000    0.6753
   66 O3     3px       -0.0004    0.0006    0.0003    0.0131   -0.0015   -0.0180   -0.0136   -0.0129   -0.0000    0.0191
   67 O3     4px       -0.0002   -0.0002   -0.0003    0.0026   -0.0005   -0.0019   -0.0024    0.0012   -0.0000   -0.0024
   68 O3     2py        0.0011   -0.0019   -0.0024    0.0039   -0.0821   -0.0920    0.2696   -0.4499   -0.0000   -0.1682
   69 O3     3py        0.0006   -0.0022   -0.0026   -0.0023    0.0007    0.0221   -0.0270    0.0544    0.0000    0.0093
   70 O3     4py       -0.0003    0.0015    0.0015    0.0007   -0.0013   -0.0024   -0.0023    0.0043    0.0000    0.0039
   71 O3     2pz        0.0000    0.0000   -0.0000    0.0000    0.0000   -0.0000    0.0000    0.0000    0.3533   -0.0000
   72 O3     3pz       -0.0000   -0.0000   -0.0000   -0.0000   -0.0000    0.0000   -0.0000   -0.0000   -0.0258   -0.0000
   73 O3     4pz       -0.0000    0.0000    0.0000   -0.0000   -0.0000    0.0000   -0.0000   -0.0000   -0.0037    0.0000
   74 O3     3d2-      -0.0001    0.0004    0.0004   -0.0108   -0.0012    0.0146    0.0145    0.0086    0.0000    0.0007
   75 O3     4d2-      -0.0000    0.0002    0.0002   -0.0010   -0.0003    0.0016    0.0024    0.0001   -0.0000   -0.0003
   76 O3     3d1-       0.0000   -0.0000   -0.0000    0.0000    0.0000   -0.0000   -0.0000    0.0000    0.0251    0.0000
   77 O3     4d1-       0.0000   -0.0000   -0.0000    0.0000    0.0000   -0.0000   -0.0000    0.0000    0.0031    0.0000
   78 O3     3d0       -0.0002    0.0006    0.0007   -0.0067   -0.0017    0.0067   -0.0108    0.0172    0.0000    0.0024
   79 O3     4d0       -0.0001    0.0003    0.0004   -0.0008   -0.0005    0.0005   -0.0011    0.0011    0.0000   -0.0004
   80 O3     3d1+      -0.0000    0.0000    0.0000   -0.0000    0.0000    0.0000    0.0000    0.0000   -0.0039   -0.0000
   81 O3     4d1+       0.0000   -0.0000   -0.0000    0.0000    0.0000    0.0000    0.0000    0.0000   -0.0003   -0.0000
   82 O3     3d2+      -0.0003    0.0009    0.0010   -0.0083   -0.0027    0.0071   -0.0243    0.0284    0.0000    0.0064
   83 O3     4d2+      -0.0002    0.0005    0.0006   -0.0013   -0.0007    0.0005   -0.0026    0.0021    0.0000   -0.0004
   84 O3     4f3-      -0.0001    0.0002    0.0001   -0.0019   -0.0017    0.0004   -0.0062    0.0063    0.0000    0.0015
   85 O3     4f2-      -0.0000    0.0000    0.0000   -0.0000    0.0000    0.0000   -0.0000    0.0000   -0.0017   -0.0000
   86 O3     4f1-      -0.0000    0.0001    0.0001   -0.0026   -0.0014    0.0015   -0.0036    0.0055    0.0000    0.0012
   87 O3     4f0       -0.0000    0.0000    0.0000   -0.0000   -0.0000    0.0000    0.0000   -0.0000   -0.0045    0.0000
   88 O3     4f1+      -0.0000   -0.0000   -0.0000    0.0011    0.0002   -0.0012   -0.0010   -0.0008   -0.0000   -0.0007
   89 O3     4f2+      -0.0000    0.0000    0.0000   -0.0000   -0.0000    0.0000   -0.0000   -0.0000   -0.0053   -0.0000
   90 O3     4f3+       0.0000   -0.0001   -0.0001    0.0035    0.0009   -0.0039   -0.0030   -0.0033   -0.0000   -0.0014
 
 
      Orbital               11        12        13        14        15        16        17        18        19        20
      Energy            0.0000    0.0000    0.0000    0.0000    0.0000    0.1737    0.2324    0.2375    0.2691    0.3652
      Occ. No.          1.8694    1.9018    1.1113    0.0799    0.0352    0.0000    0.0000    0.0000    0.0000    0.0000
 
    1 O1     1s        -0.0024    0.0000   -0.0000   -0.0168   -0.0482   -0.2228   -0.0731   -0.0000    0.1042   -0.0068
    2 O1     2s        -0.0398   -0.0000   -0.0000   -0.2598   -0.4748   -1.6039   -0.5153   -0.0000    0.7461   -0.0178
    3 O1     3s        -0.0065    0.0000    0.0000   -0.0399   -0.1130   -0.9803   -0.3258   -0.0000    0.5301    0.0104
    4 O1     4s        -0.0010    0.0000    0.0000   -0.0040   -0.0167   -0.2225   -0.0700   -0.0000    0.1229    0.0060
    5 O1     2px       -0.6892   -0.0000    0.0000   -0.0494    0.1768    0.1852    0.0098   -0.0000   -0.0915   -0.1687
    6 O1     3px        0.0012    0.0000    0.0000    0.0513   -0.0473    0.2298    0.4016    0.0000    0.1446   -0.8632
    7 O1     4px        0.0073    0.0000   -0.0000   -0.0002    0.0097    0.0356    0.1828    0.0000    0.1034   -0.3451
    8 O1     2py        0.1117    0.0000    0.0000    0.6895    0.6614    0.5704    0.3786   -0.0000   -0.6682   -0.0839
    9 O1     3py        0.0100   -0.0000   -0.0000   -0.0703   -0.0332    0.7890    0.4609    0.0000   -1.0614   -0.0652
   10 O1     4py       -0.0014   -0.0000   -0.0000   -0.0064   -0.0166    0.1041    0.0612   -0.0000   -0.2332   -0.0074
   11 O1     2pz        0.0000   -0.7019    0.6611   -0.0000    0.0000   -0.0000    0.0000   -0.0418    0.0000   -0.0000
   12 O1     3pz        0.0000    0.0023    0.0283    0.0000    0.0000   -0.0000   -0.0000    0.4171   -0.0000   -0.0000
   13 O1     4pz       -0.0000    0.0076   -0.0006   -0.0000   -0.0000   -0.0000   -0.0000    0.2131   -0.0000   -0.0000
   14 O1     3d2-       0.0173    0.0000   -0.0000   -0.0007    0.0185   -0.0421   -0.0159   -0.0000    0.0256    0.0146
   15 O1     4d2-       0.0025    0.0000    0.0000    0.0014    0.0027   -0.0273   -0.0140   -0.0000    0.0148    0.0171
   16 O1     3d1-      -0.0000    0.0163    0.0070    0.0000    0.0000   -0.0000   -0.0000    0.0043    0.0000    0.0000
   17 O1     4d1-      -0.0000    0.0021    0.0012    0.0000    0.0000   -0.0000    0.0000   -0.0027    0.0000    0.0000
   18 O1     3d0       -0.0000    0.0000    0.0000    0.0099    0.0020    0.0565    0.0357    0.0000   -0.0581   -0.0105
   19 O1     4d0        0.0006    0.0000   -0.0000    0.0029    0.0062    0.0339    0.0231    0.0000   -0.0402   -0.0089
   20 O1     3d1+      -0.0000    0.0018    0.0026    0.0000    0.0000   -0.0000   -0.0000    0.0024    0.0000    0.0000
   21 O1     4d1+       0.0000   -0.0002    0.0005   -0.0000    0.0000    0.0000   -0.0000    0.0006    0.0000    0.0000
   22 O1     3d2+       0.0041    0.0000    0.0000    0.0199    0.0123    0.0906    0.0614    0.0000   -0.0942   -0.0020
   23 O1     4d2+       0.0009    0.0000   -0.0000    0.0062    0.0111    0.0537    0.0384    0.0000   -0.0668   -0.0027
   24 O1     4f3-      -0.0021   -0.0000   -0.0000   -0.0038   -0.0043   -0.0073   -0.0033   -0.0000    0.0118   -0.0020
   25 O1     4f2-       0.0000   -0.0013   -0.0006    0.0000    0.0000   -0.0000   -0.0000    0.0008   -0.0000   -0.0000
   26 O1     4f1-      -0.0001   -0.0000   -0.0000   -0.0026   -0.0008   -0.0052   -0.0047   -0.0000    0.0103    0.0036
   27 O1     4f0       -0.0000    0.0034    0.0000    0.0000   -0.0000   -0.0000    0.0000   -0.0020    0.0000    0.0000
   28 O1     4f1+       0.0015   -0.0000   -0.0000    0.0006    0.0014   -0.0006   -0.0017   -0.0000    0.0014    0.0030
   29 O1     4f2+      -0.0000    0.0036    0.0004    0.0000    0.0000   -0.0000    0.0000   -0.0026    0.0000    0.0000
   30 O1     4f3+       0.0042    0.0000   -0.0000   -0.0001    0.0047   -0.0029   -0.0060   -0.0000    0.0047    0.0094
   31 O2     1s        -0.0000    0.0000    0.0000    0.0759   -0.0000   -0.0000    0.1875    0.0000   -0.3260    0.0000
   32 O2     2s        -0.0000    0.0000    0.0000    0.8141   -0.0000   -0.0000    1.2786    0.0000   -2.1757    0.0000
   33 O2     3s        -0.0000    0.0000    0.0000    0.0609    0.0000   -0.0000    0.7739    0.0000   -1.2769    0.0000
   34 O2     4s        -0.0000    0.0000    0.0000    0.0231   -0.0000   -0.0000    0.1619    0.0000   -0.2560   -0.0000
   35 O2     2px        0.0000   -0.0000   -0.0000    0.4432    0.0000   -0.0000    0.0330   -0.0000   -0.3199   -0.0000
   36 O2     3px        0.0000   -0.0000   -0.0000   -0.1507    0.0000   -0.0000    0.3711    0.0000   -0.2521   -0.0000
   37 O2     4px        0.0000   -0.0000   -0.0000    0.0138   -0.0000    0.0000    0.1597    0.0000    0.0273   -0.0000
   38 O2     2py        0.0802   -0.0000   -0.0000   -0.0000    1.1079    1.4949    0.0000   -0.0000   -0.0000   -0.0419
   39 O2     3py       -0.0203   -0.0000    0.0000    0.0000   -0.0910    1.6794   -0.0000    0.0000   -0.0000    0.1265
   40 O2     4py       -0.0030   -0.0000   -0.0000   -0.0000    0.0149    0.1797   -0.0000    0.0000   -0.0000    0.0892
   41 O2     2pz       -0.0000    0.0000   -0.7551    0.0000    0.0000    0.0000    0.0000   -0.1337   -0.0000    0.0000
   42 O2     3pz       -0.0000   -0.0000   -0.0507    0.0000   -0.0000   -0.0000   -0.0000    0.2186   -0.0000    0.0000
   43 O2     4pz       -0.0000   -0.0000   -0.0004   -0.0000   -0.0000   -0.0000   -0.0000    0.1614   -0.0000   -0.0000
   44 O2     3d2-      -0.0398   -0.0000    0.0000   -0.0000    0.0331    0.0849   -0.0000    0.0000    0.0000    0.0982
   45 O2     4d2-      -0.0074   -0.0000    0.0000   -0.0000   -0.0104    0.0514   -0.0000    0.0000    0.0000    0.0647
   46 O2     3d1-       0.0000   -0.0423    0.0000   -0.0000   -0.0000    0.0000   -0.0000    0.0000   -0.0000    0.0000
   47 O2     4d1-       0.0000   -0.0070    0.0000   -0.0000   -0.0000    0.0000   -0.0000    0.0000   -0.0000    0.0000
   48 O2     3d0       -0.0000    0.0000    0.0000    0.0155   -0.0000   -0.0000   -0.0572   -0.0000    0.0926   -0.0000
   49 O2     4d0       -0.0000    0.0000    0.0000    0.0022   -0.0000   -0.0000   -0.0308   -0.0000    0.0436   -0.0000
[...]

>>> COPY /lustre/isaac/scratch/gjones39/ANO-RCC-VTZP/ozone_157.00/3189921/GMJ_IVECW_H_P_2_.csv /lustre/isaac/scratch/gjones39/ANO-RCC-VTZP/ozone_157.00/GMJ_IVECW_H_P_2_.csv

>>> COPY /lustre/isaac/scratch/gjones39/ANO-RCC-VTZP/ozone_157.00/3189921/GMJ_IVECX_H_P_2_.csv /lustre/isaac/scratch/gjones39/ANO-RCC-VTZP/ozone_157.00/GMJ_IVECX_H_P_2_.csv

>>> COPY /lustre/isaac/scratch/gjones39/ANO-RCC-VTZP/ozone_157.00/3189921/GMJ_IVECC2_H_P_2_.csv /lustre/isaac/scratch/gjones39/ANO-RCC-VTZP/ozone_157.00/GMJ_IVECC2_H_P_2_.csv

>>> COPY /lustre/isaac/scratch/gjones39/ANO-RCC-VTZP/ozone_157.00/3189921/GMJ_e2_H_P_2_.csv /lustre/isaac/scratch/gjones39/ANO-RCC-VTZP/ozone_157.00/GMJ_e2_H_P_2_.csv

>>> END FOREACH

>>> EXPORT j = M

>>> IF (-FILE GMJ_e2_${i}_${j}_${k}_.csv)

>>> COPY /lustre/isaac/scratch/gjones39/ANO-RCC-VTZP/ozone_157.00/3189921/GMJ_RHS_H_M_2_.csv /lustre/isaac/scratch/gjones39/ANO-RCC-VTZP/ozone_157.00/GMJ_RHS_H_M_2_.csv

>>> COPY /lustre/isaac/scratch/gjones39/ANO-RCC-VTZP/ozone_157.00/3189921/GMJ_IVECW_H_M_2_.csv /lustre/isaac/scratch/gjones39/ANO-RCC-VTZP/ozone_157.00/GMJ_IVECW_H_M_2_.csv

>>> COPY /lustre/isaac/scratch/gjones39/ANO-RCC-VTZP/ozone_157.00/3189921/GMJ_IVECX_H_M_2_.csv /lustre/isaac/scratch/gjones39/ANO-RCC-VTZP/ozone_157.00/GMJ_IVECX_H_M_2_.csv

>>> COPY /lustre/isaac/scratch/gjones39/ANO-RCC-VTZP/ozone_157.00/3189921/GMJ_IVECC2_H_M_2_.csv /lustre/isaac/scratch/gjones39/ANO-RCC-VTZP/ozone_157.00/GMJ_IVECC2_H_M_2_.csv

>>> COPY /lustre/isaac/scratch/gjones39/ANO-RCC-VTZP/ozone_157.00/3189921/GMJ_e2_H_M_2_.csv /lustre/isaac/scratch/gjones39/ANO-RCC-VTZP/ozone_157.00/GMJ_e2_H_M_2_.csv

>>> END FOREACH

>>> END FOREACH

>>> END FOREACH

>>> EXPORT k = 3

>>> EXPORT i = B

>>> EXPORT j = P

>>> IF (-FILE GMJ_e2_${i}_${j}_${k}_.csv)

>>> COPY /lustre/isaac/scratch/gjones39/ANO-RCC-VTZP/ozone_157.00/3189921/GMJ_RHS_B_P_3_.csv /lustre/isaac/scratch/gjones39/ANO-RCC-VTZP/ozone_157.00/GMJ_RHS_B_P_3_.csv

>>> COPY /lustre/isaac/scratch/gjones39/ANO-RCC-VTZP/ozone_157.00/3189921/GMJ_IVECW_B_P_3_.csv /lustre/isaac/scratch/gjones39/ANO-RCC-VTZP/ozone_157.00/GMJ_IVECW_B_P_3_.csv

>>> COPY /lustre/isaac/scratch/gjones39/ANO-RCC-VTZP/ozone_157.00/3189921/GMJ_IVECX_B_P_3_.csv /lustre/isaac/scratch/gjones39/ANO-RCC-VTZP/ozone_157.00/GMJ_IVECX_B_P_3_.csv

>>> COPY /lustre/isaac/scratch/gjones39/ANO-RCC-VTZP/ozone_157.00/3189921/GMJ_IVECC2_B_P_3_.csv /lustre/isaac/scratch/gjones39/ANO-RCC-VTZP/ozone_157.00/GMJ_IVECC2_B_P_3_.csv

>>> COPY /lustre/isaac/scratch/gjones39/ANO-RCC-VTZP/ozone_157.00/3189921/GMJ_e2_B_P_3_.csv /lustre/isaac/scratch/gjones39/ANO-RCC-VTZP/ozone_157.00/GMJ_e2_B_P_3_.csv

>>> END FOREACH

>>> EXPORT j = M

>>> IF (-FILE GMJ_e2_${i}_${j}_${k}_.csv)

>>> COPY /lustre/isaac/scratch/gjones39/ANO-RCC-VTZP/ozone_157.00/3189921/GMJ_RHS_B_M_3_.csv /lustre/isaac/scratch/gjones39/ANO-RCC-VTZP/ozone_157.00/GMJ_RHS_B_M_3_.csv

>>> COPY /lustre/isaac/scratch/gjones39/ANO-RCC-VTZP/ozone_157.00/3189921/GMJ_IVECW_B_M_3_.csv /lustre/isaac/scratch/gjones39/ANO-RCC-VTZP/ozone_157.00/GMJ_IVECW_B_M_3_.csv

>>> COPY /lustre/isaac/scratch/gjones39/ANO-RCC-VTZP/ozone_157.00/3189921/GMJ_IVECX_B_M_3_.csv /lustre/isaac/scratch/gjones39/ANO-RCC-VTZP/ozone_157.00/GMJ_IVECX_B_M_3_.csv

>>> COPY /lustre/isaac/scratch/gjones39/ANO-RCC-VTZP/ozone_157.00/3189921/GMJ_IVECC2_B_M_3_.csv /lustre/isaac/scratch/gjones39/ANO-RCC-VTZP/ozone_157.00/GMJ_IVECC2_B_M_3_.csv

>>> COPY /lustre/isaac/scratch/gjones39/ANO-RCC-VTZP/ozone_157.00/3189921/GMJ_e2_B_M_3_.csv /lustre/isaac/scratch/gjones39/ANO-RCC-VTZP/ozone_157.00/GMJ_e2_B_M_3_.csv

>>> END FOREACH

>>> END FOREACH

>>> EXPORT i = E

>>> EXPORT j = P

>>> IF (-FILE GMJ_e2_${i}_${j}_${k}_.csv)

>>> COPY /lustre/isaac/scratch/gjones39/ANO-RCC-VTZP/ozone_157.00/3189921/GMJ_RHS_E_P_3_.csv /lustre/isaac/scratch/gjones39/ANO-RCC-VTZP/ozone_157.00/GMJ_RHS_E_P_3_.csv

>>> COPY /lustre/isaac/scratch/gjones39/ANO-RCC-VTZP/ozone_157.00/3189921/GMJ_IVECW_E_P_3_.csv /lustre/isaac/scratch/gjones39/ANO-RCC-VTZP/ozone_157.00/GMJ_IVECW_E_P_3_.csv

>>> COPY /lustre/isaac/scratch/gjones39/ANO-RCC-VTZP/ozone_157.00/3189921/GMJ_IVECX_E_P_3_.csv /lustre/isaac/scratch/gjones39/ANO-RCC-VTZP/ozone_157.00/GMJ_IVECX_E_P_3_.csv

>>> COPY /lustre/isaac/scratch/gjones39/ANO-RCC-VTZP/ozone_157.00/3189921/GMJ_IVECC2_E_P_3_.csv /lustre/isaac/scratch/gjones39/ANO-RCC-VTZP/ozone_157.00/GMJ_IVECC2_E_P_3_.csv

>>> COPY /lustre/isaac/scratch/gjones39/ANO-RCC-VTZP/ozone_157.00/3189921/GMJ_e2_E_P_3_.csv /lustre/isaac/scratch/gjones39/ANO-RCC-VTZP/ozone_157.00/GMJ_e2_E_P_3_.csv

>>> END FOREACH

>>> EXPORT j = M

>>> IF (-FILE GMJ_e2_${i}_${j}_${k}_.csv)

>>> COPY /lustre/isaac/scratch/gjones39/ANO-RCC-VTZP/ozone_157.00/3189921/GMJ_RHS_E_M_3_.csv /lustre/isaac/scratch/gjones39/ANO-RCC-VTZP/ozone_157.00/GMJ_RHS_E_M_3_.csv

>>> COPY /lustre/isaac/scratch/gjones39/ANO-RCC-VTZP/ozone_157.00/3189921/GMJ_IVECW_E_M_3_.csv /lustre/isaac/scratch/gjones39/ANO-RCC-VTZP/ozone_157.00/GMJ_IVECW_E_M_3_.csv

>>> COPY /lustre/isaac/scratch/gjones39/ANO-RCC-VTZP/ozone_157.00/3189921/GMJ_IVECX_E_M_3_.csv /lustre/isaac/scratch/gjones39/ANO-RCC-VTZP/ozone_157.00/GMJ_IVECX_E_M_3_.csv

>>> COPY /lustre/isaac/scratch/gjones39/ANO-RCC-VTZP/ozone_157.00/3189921/GMJ_IVECC2_E_M_3_.csv /lustre/isaac/scratch/gjones39/ANO-RCC-VTZP/ozone_157.00/GMJ_IVECC2_E_M_3_.csv

>>> COPY /lustre/isaac/scratch/gjones39/ANO-RCC-VTZP/ozone_157.00/3189921/GMJ_e2_E_M_3_.csv /lustre/isaac/scratch/gjones39/ANO-RCC-VTZP/ozone_157.00/GMJ_e2_E_M_3_.csv

>>> END FOREACH

>>> END FOREACH

>>> EXPORT i = F

>>> EXPORT j = P

>>> IF (-FILE GMJ_e2_${i}_${j}_${k}_.csv)

>>> COPY /lustre/isaac/scratch/gjones39/ANO-RCC-VTZP/ozone_157.00/3189921/GMJ_RHS_F_P_3_.csv /lustre/isaac/scratch/gjones39/ANO-RCC-VTZP/ozone_157.00/GMJ_RHS_F_P_3_.csv

>>> COPY /lustre/isaac/scratch/gjones39/ANO-RCC-VTZP/ozone_157.00/3189921/GMJ_IVECW_F_P_3_.csv /lustre/isaac/scratch/gjones39/ANO-RCC-VTZP/ozone_157.00/GMJ_IVECW_F_P_3_.csv

>>> COPY /lustre/isaac/scratch/gjones39/ANO-RCC-VTZP/ozone_157.00/3189921/GMJ_IVECX_F_P_3_.csv /lustre/isaac/scratch/gjones39/ANO-RCC-VTZP/ozone_157.00/GMJ_IVECX_F_P_3_.csv

>>> COPY /lustre/isaac/scratch/gjones39/ANO-RCC-VTZP/ozone_157.00/3189921/GMJ_IVECC2_F_P_3_.csv /lustre/isaac/scratch/gjones39/ANO-RCC-VTZP/ozone_157.00/GMJ_IVECC2_F_P_3_.csv

>>> COPY /lustre/isaac/scratch/gjones39/ANO-RCC-VTZP/ozone_157.00/3189921/GMJ_e2_F_P_3_.csv /lustre/isaac/scratch/gjones39/ANO-RCC-VTZP/ozone_157.00/GMJ_e2_F_P_3_.csv

>>> END FOREACH

>>> EXPORT j = M

>>> IF (-FILE GMJ_e2_${i}_${j}_${k}_.csv)

>>> COPY /lustre/isaac/scratch/gjones39/ANO-RCC-VTZP/ozone_157.00/3189921/GMJ_RHS_F_M_3_.csv /lustre/isaac/scratch/gjones39/ANO-RCC-VTZP/ozone_157.00/GMJ_RHS_F_M_3_.csv

>>> COPY /lustre/isaac/scratch/gjones39/ANO-RCC-VTZP/ozone_157.00/3189921/GMJ_IVECW_F_M_3_.csv /lustre/isaac/scratch/gjones39/ANO-RCC-VTZP/ozone_157.00/GMJ_IVECW_F_M_3_.csv

>>> COPY /lustre/isaac/scratch/gjones39/ANO-RCC-VTZP/ozone_157.00/3189921/GMJ_IVECX_F_M_3_.csv /lustre/isaac/scratch/gjones39/ANO-RCC-VTZP/ozone_157.00/GMJ_IVECX_F_M_3_.csv

>>> COPY /lustre/isaac/scratch/gjones39/ANO-RCC-VTZP/ozone_157.00/3189921/GMJ_IVECC2_F_M_3_.csv /lustre/isaac/scratch/gjones39/ANO-RCC-VTZP/ozone_157.00/GMJ_IVECC2_F_M_3_.csv

>>> COPY /lustre/isaac/scratch/gjones39/ANO-RCC-VTZP/ozone_157.00/3189921/GMJ_e2_F_M_3_.csv /lustre/isaac/scratch/gjones39/ANO-RCC-VTZP/ozone_157.00/GMJ_e2_F_M_3_.csv

>>> END FOREACH

>>> END FOREACH

>>> EXPORT i = G

>>> EXPORT j = P

>>> IF (-FILE GMJ_e2_${i}_${j}_${k}_.csv)

>>> COPY /lustre/isaac/scratch/gjones39/ANO-RCC-VTZP/ozone_157.00/3189921/GMJ_RHS_G_P_3_.csv /lustre/isaac/scratch/gjones39/ANO-RCC-VTZP/ozone_157.00/GMJ_RHS_G_P_3_.csv

>>> COPY /lustre/isaac/scratch/gjones39/ANO-RCC-VTZP/ozone_157.00/3189921/GMJ_IVECW_G_P_3_.csv /lustre/isaac/scratch/gjones39/ANO-RCC-VTZP/ozone_157.00/GMJ_IVECW_G_P_3_.csv

>>> COPY /lustre/isaac/scratch/gjones39/ANO-RCC-VTZP/ozone_157.00/3189921/GMJ_IVECX_G_P_3_.csv /lustre/isaac/scratch/gjones39/ANO-RCC-VTZP/ozone_157.00/GMJ_IVECX_G_P_3_.csv

>>> COPY /lustre/isaac/scratch/gjones39/ANO-RCC-VTZP/ozone_157.00/3189921/GMJ_IVECC2_G_P_3_.csv /lustre/isaac/scratch/gjones39/ANO-RCC-VTZP/ozone_157.00/GMJ_IVECC2_G_P_3_.csv

>>> COPY /lustre/isaac/scratch/gjones39/ANO-RCC-VTZP/ozone_157.00/3189921/GMJ_e2_G_P_3_.csv /lustre/isaac/scratch/gjones39/ANO-RCC-VTZP/ozone_157.00/GMJ_e2_G_P_3_.csv

>>> END FOREACH

>>> EXPORT j = M

>>> IF (-FILE GMJ_e2_${i}_${j}_${k}_.csv)

>>> COPY /lustre/isaac/scratch/gjones39/ANO-RCC-VTZP/ozone_157.00/3189921/GMJ_RHS_G_M_3_.csv /lustre/isaac/scratch/gjones39/ANO-RCC-VTZP/ozone_157.00/GMJ_RHS_G_M_3_.csv

>>> COPY /lustre/isaac/scratch/gjones39/ANO-RCC-VTZP/ozone_157.00/3189921/GMJ_IVECW_G_M_3_.csv /lustre/isaac/scratch/gjones39/ANO-RCC-VTZP/ozone_157.00/GMJ_IVECW_G_M_3_.csv

>>> COPY /lustre/isaac/scratch/gjones39/ANO-RCC-VTZP/ozone_157.00/3189921/GMJ_IVECX_G_M_3_.csv /lustre/isaac/scratch/gjones39/ANO-RCC-VTZP/ozone_157.00/GMJ_IVECX_G_M_3_.csv

>>> COPY /lustre/isaac/scratch/gjones39/ANO-RCC-VTZP/ozone_157.00/3189921/GMJ_IVECC2_G_M_3_.csv /lustre/isaac/scratch/gjones39/ANO-RCC-VTZP/ozone_157.00/GMJ_IVECC2_G_M_3_.csv

>>> COPY /lustre/isaac/scratch/gjones39/ANO-RCC-VTZP/ozone_157.00/3189921/GMJ_e2_G_M_3_.csv /lustre/isaac/scratch/gjones39/ANO-RCC-VTZP/ozone_157.00/GMJ_e2_G_M_3_.csv

>>> END FOREACH

>>> END FOREACH

>>> EXPORT i = H

>>> EXPORT j = P

>>> IF (-FILE GMJ_e2_${i}_${j}_${k}_.csv)

>>> COPY /lustre/isaac/scratch/gjones39/ANO-RCC-VTZP/ozone_157.00/3189921/GMJ_RHS_H_P_3_.csv /lustre/isaac/scratch/gjones39/ANO-RCC-VTZP/ozone_157.00/GMJ_RHS_H_P_3_.csv

>>> COPY /lustre/isaac/scratch/gjones39/ANO-RCC-VTZP/ozone_157.00/3189921/GMJ_IVECW_H_P_3_.csv /lustre/isaac/scratch/gjones39/ANO-RCC-VTZP/ozone_157.00/GMJ_IVECW_H_P_3_.csv

>>> COPY /lustre/isaac/scratch/gjones39/ANO-RCC-VTZP/ozone_157.00/3189921/GMJ_IVECX_H_P_3_.csv /lustre/isaac/scratch/gjones39/ANO-RCC-VTZP/ozone_157.00/GMJ_IVECX_H_P_3_.csv

>>> COPY /lustre/isaac/scratch/gjones39/ANO-RCC-VTZP/ozone_157.00/3189921/GMJ_IVECC2_H_P_3_.csv /lustre/isaac/scratch/gjones39/ANO-RCC-VTZP/ozone_157.00/GMJ_IVECC2_H_P_3_.csv

>>> COPY /lustre/isaac/scratch/gjones39/ANO-RCC-VTZP/ozone_157.00/3189921/GMJ_e2_H_P_3_.csv /lustre/isaac/scratch/gjones39/ANO-RCC-VTZP/ozone_157.00/GMJ_e2_H_P_3_.csv

>>> END FOREACH

>>> EXPORT j = M

>>> IF (-FILE GMJ_e2_${i}_${j}_${k}_.csv)

>>> COPY /lustre/isaac/scratch/gjones39/ANO-RCC-VTZP/ozone_157.00/3189921/GMJ_RHS_H_M_3_.csv /lustre/isaac/scratch/gjones39/ANO-RCC-VTZP/ozone_157.00/GMJ_RHS_H_M_3_.csv

>>> COPY /lustre/isaac/scratch/gjones39/ANO-RCC-VTZP/ozone_157.00/3189921/GMJ_IVECW_H_M_3_.csv /lustre/isaac/scratch/gjones39/ANO-RCC-VTZP/ozone_157.00/GMJ_IVECW_H_M_3_.csv

>>> COPY /lustre/isaac/scratch/gjones39/ANO-RCC-VTZP/ozone_157.00/3189921/GMJ_IVECX_H_M_3_.csv /lustre/isaac/scratch/gjones39/ANO-RCC-VTZP/ozone_157.00/GMJ_IVECX_H_M_3_.csv

>>> COPY /lustre/isaac/scratch/gjones39/ANO-RCC-VTZP/ozone_157.00/3189921/GMJ_IVECC2_H_M_3_.csv /lustre/isaac/scratch/gjones39/ANO-RCC-VTZP/ozone_157.00/GMJ_IVECC2_H_M_3_.csv

>>> COPY /lustre/isaac/scratch/gjones39/ANO-RCC-VTZP/ozone_157.00/3189921/GMJ_e2_H_M_3_.csv /lustre/isaac/scratch/gjones39/ANO-RCC-VTZP/ozone_157.00/GMJ_e2_H_M_3_.csv

>>> END FOREACH

>>> END FOREACH

>>> END FOREACH

>>> EXPORT j = 1

>>> EXPORT i = A

>>> IF (-FILE GMJ_e2_${i}_${j}_.csv)

>>> COPY /lustre/isaac/scratch/gjones39/ANO-RCC-VTZP/ozone_157.00/3189921/GMJ_RHS_A_1_.csv /lustre/isaac/scratch/gjones39/ANO-RCC-VTZP/ozone_157.00/GMJ_RHS_A_1_.csv

>>> COPY /lustre/isaac/scratch/gjones39/ANO-RCC-VTZP/ozone_157.00/3189921/GMJ_IVECW_A_1_.csv /lustre/isaac/scratch/gjones39/ANO-RCC-VTZP/ozone_157.00/GMJ_IVECW_A_1_.csv

>>> COPY /lustre/isaac/scratch/gjones39/ANO-RCC-VTZP/ozone_157.00/3189921/GMJ_IVECX_A_1_.csv /lustre/isaac/scratch/gjones39/ANO-RCC-VTZP/ozone_157.00/GMJ_IVECX_A_1_.csv

>>> COPY /lustre/isaac/scratch/gjones39/ANO-RCC-VTZP/ozone_157.00/3189921/GMJ_IVECC2_A_1_.csv /lustre/isaac/scratch/gjones39/ANO-RCC-VTZP/ozone_157.00/GMJ_IVECC2_A_1_.csv

>>> COPY /lustre/isaac/scratch/gjones39/ANO-RCC-VTZP/ozone_157.00/3189921/GMJ_e2_A_1_.csv /lustre/isaac/scratch/gjones39/ANO-RCC-VTZP/ozone_157.00/GMJ_e2_A_1_.csv

>>> END FOREACH

>>> EXPORT i = C

>>> IF (-FILE GMJ_e2_${i}_${j}_.csv)

>>> COPY /lustre/isaac/scratch/gjones39/ANO-RCC-VTZP/ozone_157.00/3189921/GMJ_RHS_C_1_.csv /lustre/isaac/scratch/gjones39/ANO-RCC-VTZP/ozone_157.00/GMJ_RHS_C_1_.csv

>>> COPY /lustre/isaac/scratch/gjones39/ANO-RCC-VTZP/ozone_157.00/3189921/GMJ_IVECW_C_1_.csv /lustre/isaac/scratch/gjones39/ANO-RCC-VTZP/ozone_157.00/GMJ_IVECW_C_1_.csv

>>> COPY /lustre/isaac/scratch/gjones39/ANO-RCC-VTZP/ozone_157.00/3189921/GMJ_IVECX_C_1_.csv /lustre/isaac/scratch/gjones39/ANO-RCC-VTZP/ozone_157.00/GMJ_IVECX_C_1_.csv

>>> COPY /lustre/isaac/scratch/gjones39/ANO-RCC-VTZP/ozone_157.00/3189921/GMJ_IVECC2_C_1_.csv /lustre/isaac/scratch/gjones39/ANO-RCC-VTZP/ozone_157.00/GMJ_IVECC2_C_1_.csv

>>> COPY /lustre/isaac/scratch/gjones39/ANO-RCC-VTZP/ozone_157.00/3189921/GMJ_e2_C_1_.csv /lustre/isaac/scratch/gjones39/ANO-RCC-VTZP/ozone_157.00/GMJ_e2_C_1_.csv

>>> END FOREACH

>>> EXPORT i = D

>>> IF (-FILE GMJ_e2_${i}_${j}_.csv)

>>> COPY /lustre/isaac/scratch/gjones39/ANO-RCC-VTZP/ozone_157.00/3189921/GMJ_RHS_D_1_.csv /lustre/isaac/scratch/gjones39/ANO-RCC-VTZP/ozone_157.00/GMJ_RHS_D_1_.csv

>>> COPY /lustre/isaac/scratch/gjones39/ANO-RCC-VTZP/ozone_157.00/3189921/GMJ_IVECW_D_1_.csv /lustre/isaac/scratch/gjones39/ANO-RCC-VTZP/ozone_157.00/GMJ_IVECW_D_1_.csv

>>> COPY /lustre/isaac/scratch/gjones39/ANO-RCC-VTZP/ozone_157.00/3189921/GMJ_IVECX_D_1_.csv /lustre/isaac/scratch/gjones39/ANO-RCC-VTZP/ozone_157.00/GMJ_IVECX_D_1_.csv

>>> COPY /lustre/isaac/scratch/gjones39/ANO-RCC-VTZP/ozone_157.00/3189921/GMJ_IVECC2_D_1_.csv /lustre/isaac/scratch/gjones39/ANO-RCC-VTZP/ozone_157.00/GMJ_IVECC2_D_1_.csv

>>> COPY /lustre/isaac/scratch/gjones39/ANO-RCC-VTZP/ozone_157.00/3189921/GMJ_e2_D_1_.csv /lustre/isaac/scratch/gjones39/ANO-RCC-VTZP/ozone_157.00/GMJ_e2_D_1_.csv

>>> END FOREACH

>>> END FOREACH

>>> EXPORT j = 2

>>> EXPORT i = A

>>> IF (-FILE GMJ_e2_${i}_${j}_.csv)

>>> COPY /lustre/isaac/scratch/gjones39/ANO-RCC-VTZP/ozone_157.00/3189921/GMJ_RHS_A_2_.csv /lustre/isaac/scratch/gjones39/ANO-RCC-VTZP/ozone_157.00/GMJ_RHS_A_2_.csv

>>> COPY /lustre/isaac/scratch/gjones39/ANO-RCC-VTZP/ozone_157.00/3189921/GMJ_IVECW_A_2_.csv /lustre/isaac/scratch/gjones39/ANO-RCC-VTZP/ozone_157.00/GMJ_IVECW_A_2_.csv

>>> COPY /lustre/isaac/scratch/gjones39/ANO-RCC-VTZP/ozone_157.00/3189921/GMJ_IVECX_A_2_.csv /lustre/isaac/scratch/gjones39/ANO-RCC-VTZP/ozone_157.00/GMJ_IVECX_A_2_.csv

>>> COPY /lustre/isaac/scratch/gjones39/ANO-RCC-VTZP/ozone_157.00/3189921/GMJ_IVECC2_A_2_.csv /lustre/isaac/scratch/gjones39/ANO-RCC-VTZP/ozone_157.00/GMJ_IVECC2_A_2_.csv

>>> COPY /lustre/isaac/scratch/gjones39/ANO-RCC-VTZP/ozone_157.00/3189921/GMJ_e2_A_2_.csv /lustre/isaac/scratch/gjones39/ANO-RCC-VTZP/ozone_157.00/GMJ_e2_A_2_.csv

>>> END FOREACH

>>> EXPORT i = C

>>> IF (-FILE GMJ_e2_${i}_${j}_.csv)

>>> COPY /lustre/isaac/scratch/gjones39/ANO-RCC-VTZP/ozone_157.00/3189921/GMJ_RHS_C_2_.csv /lustre/isaac/scratch/gjones39/ANO-RCC-VTZP/ozone_157.00/GMJ_RHS_C_2_.csv

>>> COPY /lustre/isaac/scratch/gjones39/ANO-RCC-VTZP/ozone_157.00/3189921/GMJ_IVECW_C_2_.csv /lustre/isaac/scratch/gjones39/ANO-RCC-VTZP/ozone_157.00/GMJ_IVECW_C_2_.csv

>>> COPY /lustre/isaac/scratch/gjones39/ANO-RCC-VTZP/ozone_157.00/3189921/GMJ_IVECX_C_2_.csv /lustre/isaac/scratch/gjones39/ANO-RCC-VTZP/ozone_157.00/GMJ_IVECX_C_2_.csv

>>> COPY /lustre/isaac/scratch/gjones39/ANO-RCC-VTZP/ozone_157.00/3189921/GMJ_IVECC2_C_2_.csv /lustre/isaac/scratch/gjones39/ANO-RCC-VTZP/ozone_157.00/GMJ_IVECC2_C_2_.csv

>>> COPY /lustre/isaac/scratch/gjones39/ANO-RCC-VTZP/ozone_157.00/3189921/GMJ_e2_C_2_.csv /lustre/isaac/scratch/gjones39/ANO-RCC-VTZP/ozone_157.00/GMJ_e2_C_2_.csv

>>> END FOREACH

>>> EXPORT i = D

>>> IF (-FILE GMJ_e2_${i}_${j}_.csv)

>>> COPY /lustre/isaac/scratch/gjones39/ANO-RCC-VTZP/ozone_157.00/3189921/GMJ_RHS_D_2_.csv /lustre/isaac/scratch/gjones39/ANO-RCC-VTZP/ozone_157.00/GMJ_RHS_D_2_.csv

>>> COPY /lustre/isaac/scratch/gjones39/ANO-RCC-VTZP/ozone_157.00/3189921/GMJ_IVECW_D_2_.csv /lustre/isaac/scratch/gjones39/ANO-RCC-VTZP/ozone_157.00/GMJ_IVECW_D_2_.csv

>>> COPY /lustre/isaac/scratch/gjones39/ANO-RCC-VTZP/ozone_157.00/3189921/GMJ_IVECX_D_2_.csv /lustre/isaac/scratch/gjones39/ANO-RCC-VTZP/ozone_157.00/GMJ_IVECX_D_2_.csv

>>> COPY /lustre/isaac/scratch/gjones39/ANO-RCC-VTZP/ozone_157.00/3189921/GMJ_IVECC2_D_2_.csv /lustre/isaac/scratch/gjones39/ANO-RCC-VTZP/ozone_157.00/GMJ_IVECC2_D_2_.csv

>>> COPY /lustre/isaac/scratch/gjones39/ANO-RCC-VTZP/ozone_157.00/3189921/GMJ_e2_D_2_.csv /lustre/isaac/scratch/gjones39/ANO-RCC-VTZP/ozone_157.00/GMJ_e2_D_2_.csv

>>> END FOREACH

>>> END FOREACH

>>> EXPORT j = 3

>>> EXPORT i = A

>>> IF (-FILE GMJ_e2_${i}_${j}_.csv)

>>> COPY /lustre/isaac/scratch/gjones39/ANO-RCC-VTZP/ozone_157.00/3189921/GMJ_RHS_A_3_.csv /lustre/isaac/scratch/gjones39/ANO-RCC-VTZP/ozone_157.00/GMJ_RHS_A_3_.csv

>>> COPY /lustre/isaac/scratch/gjones39/ANO-RCC-VTZP/ozone_157.00/3189921/GMJ_IVECW_A_3_.csv /lustre/isaac/scratch/gjones39/ANO-RCC-VTZP/ozone_157.00/GMJ_IVECW_A_3_.csv

>>> COPY /lustre/isaac/scratch/gjones39/ANO-RCC-VTZP/ozone_157.00/3189921/GMJ_IVECX_A_3_.csv /lustre/isaac/scratch/gjones39/ANO-RCC-VTZP/ozone_157.00/GMJ_IVECX_A_3_.csv

>>> COPY /lustre/isaac/scratch/gjones39/ANO-RCC-VTZP/ozone_157.00/3189921/GMJ_IVECC2_A_3_.csv /lustre/isaac/scratch/gjones39/ANO-RCC-VTZP/ozone_157.00/GMJ_IVECC2_A_3_.csv

>>> COPY /lustre/isaac/scratch/gjones39/ANO-RCC-VTZP/ozone_157.00/3189921/GMJ_e2_A_3_.csv /lustre/isaac/scratch/gjones39/ANO-RCC-VTZP/ozone_157.00/GMJ_e2_A_3_.csv

>>> END FOREACH

>>> EXPORT i = C

>>> IF (-FILE GMJ_e2_${i}_${j}_.csv)

>>> COPY /lustre/isaac/scratch/gjones39/ANO-RCC-VTZP/ozone_157.00/3189921/GMJ_RHS_C_3_.csv /lustre/isaac/scratch/gjones39/ANO-RCC-VTZP/ozone_157.00/GMJ_RHS_C_3_.csv

>>> COPY /lustre/isaac/scratch/gjones39/ANO-RCC-VTZP/ozone_157.00/3189921/GMJ_IVECW_C_3_.csv /lustre/isaac/scratch/gjones39/ANO-RCC-VTZP/ozone_157.00/GMJ_IVECW_C_3_.csv

>>> COPY /lustre/isaac/scratch/gjones39/ANO-RCC-VTZP/ozone_157.00/3189921/GMJ_IVECX_C_3_.csv /lustre/isaac/scratch/gjones39/ANO-RCC-VTZP/ozone_157.00/GMJ_IVECX_C_3_.csv

>>> COPY /lustre/isaac/scratch/gjones39/ANO-RCC-VTZP/ozone_157.00/3189921/GMJ_IVECC2_C_3_.csv /lustre/isaac/scratch/gjones39/ANO-RCC-VTZP/ozone_157.00/GMJ_IVECC2_C_3_.csv

>>> COPY /lustre/isaac/scratch/gjones39/ANO-RCC-VTZP/ozone_157.00/3189921/GMJ_e2_C_3_.csv /lustre/isaac/scratch/gjones39/ANO-RCC-VTZP/ozone_157.00/GMJ_e2_C_3_.csv

>>> END FOREACH

>>> EXPORT i = D

>>> IF (-FILE GMJ_e2_${i}_${j}_.csv)

>>> COPY /lustre/isaac/scratch/gjones39/ANO-RCC-VTZP/ozone_157.00/3189921/GMJ_RHS_D_3_.csv /lustre/isaac/scratch/gjones39/ANO-RCC-VTZP/ozone_157.00/GMJ_RHS_D_3_.csv

>>> COPY /lustre/isaac/scratch/gjones39/ANO-RCC-VTZP/ozone_157.00/3189921/GMJ_IVECW_D_3_.csv /lustre/isaac/scratch/gjones39/ANO-RCC-VTZP/ozone_157.00/GMJ_IVECW_D_3_.csv

>>> COPY /lustre/isaac/scratch/gjones39/ANO-RCC-VTZP/ozone_157.00/3189921/GMJ_IVECX_D_3_.csv /lustre/isaac/scratch/gjones39/ANO-RCC-VTZP/ozone_157.00/GMJ_IVECX_D_3_.csv

>>> COPY /lustre/isaac/scratch/gjones39/ANO-RCC-VTZP/ozone_157.00/3189921/GMJ_IVECC2_D_3_.csv /lustre/isaac/scratch/gjones39/ANO-RCC-VTZP/ozone_157.00/GMJ_IVECC2_D_3_.csv

>>> COPY /lustre/isaac/scratch/gjones39/ANO-RCC-VTZP/ozone_157.00/3189921/GMJ_e2_D_3_.csv /lustre/isaac/scratch/gjones39/ANO-RCC-VTZP/ozone_157.00/GMJ_e2_D_3_.csv

>>> END FOREACH

>>> END FOREACH

    Timing: Wall=129.54 User=44.88 System=21.42
*******************************************************************************************
*** WorkDir at /lustre/isaac/scratch/gjones39/ANO-RCC-VTZP/ozone_157.00/3189921 cleaned ***
*******************************************************************************************
