[Molden Format]
[N_Atoms]
                     2
[Atoms] (AU)
F1          1      9           0.00000000      0.00000000      0.00000000
F2          2      9           0.00000000      0.00000000      1.51178090
[Charge] (Mulliken)
  0.000000000000000E+000
  0.000000000000000E+000
[GTO] (AU)
   1
   s  14
  1.031094600E+05  1.713099991E-04
  1.528100700E+04  7.123999962E-04
  3.441539200E+03  2.990479984E-03
  9.670948300E+02  1.164036994E-02
  3.140353400E+02  3.968642979E-02
  1.134423000E+02  1.128546094E-01
  4.464472700E+01  2.473650687E-01
  1.894287400E+01  3.672702681E-01
  8.532743000E+00  2.896286985E-01
  3.919401000E+00  7.786681959E-02
  1.568157000E+00  4.562139976E-03
  6.232900000E-01  2.468879987E-03
  2.408610000E-01  1.106309994E-03
  8.430100000E-02  1.739699991E-04
   s  14
  1.031094600E+05 -4.044999995E-05
  1.528100700E+04 -1.682299998E-04
  3.441539200E+03 -7.084299991E-04
  9.670948300E+02 -2.767999996E-03
  3.140353400E+02 -9.611379987E-03
  1.134423000E+02 -2.833957996E-02
  4.464472700E+01 -6.839343991E-02
  1.894287400E+01 -1.237379298E-01
  8.532743000E+00 -1.512859698E-01
  3.919401000E+00 -9.099909988E-03
  1.568157000E+00  3.716257695E-01
  6.232900000E-01  5.500214393E-01
  2.408610000E-01  2.092318697E-01
  8.430100000E-02  8.074639989E-03
   p   9
  2.453302900E+02  1.024860004E-03
  5.691900500E+01  8.344290032E-03
  1.760456800E+01  4.078927016E-02
  6.274995000E+00  1.351370605E-01
  2.447030000E+00  2.798830811E-01
  9.950600000E-01  3.597966414E-01
  4.039730000E-01  3.055347412E-01
  1.548100000E-01  1.354703905E-01
  5.418400000E-02  2.804449011E-02
 
   2
   s  14
  1.031094600E+05  1.713099991E-04
  1.528100700E+04  7.123999962E-04
  3.441539200E+03  2.990479984E-03
  9.670948300E+02  1.164036994E-02
  3.140353400E+02  3.968642979E-02
  1.134423000E+02  1.128546094E-01
  4.464472700E+01  2.473650687E-01
  1.894287400E+01  3.672702681E-01
  8.532743000E+00  2.896286985E-01
  3.919401000E+00  7.786681959E-02
  1.568157000E+00  4.562139976E-03
  6.232900000E-01  2.468879987E-03
  2.408610000E-01  1.106309994E-03
  8.430100000E-02  1.739699991E-04
   s  14
  1.031094600E+05 -4.044999995E-05
  1.528100700E+04 -1.682299998E-04
  3.441539200E+03 -7.084299991E-04
  9.670948300E+02 -2.767999996E-03
  3.140353400E+02 -9.611379987E-03
  1.134423000E+02 -2.833957996E-02
  4.464472700E+01 -6.839343991E-02
  1.894287400E+01 -1.237379298E-01
  8.532743000E+00 -1.512859698E-01
  3.919401000E+00 -9.099909988E-03
  1.568157000E+00  3.716257695E-01
  6.232900000E-01  5.500214393E-01
  2.408610000E-01  2.092318697E-01
  8.430100000E-02  8.074639989E-03
   p   9
  2.453302900E+02  1.024860004E-03
  5.691900500E+01  8.344290032E-03
  1.760456800E+01  4.078927016E-02
  6.274995000E+00  1.351370605E-01
  2.447030000E+00  2.798830811E-01
  9.950600000E-01  3.597966414E-01
  4.039730000E-01  3.055347412E-01
  1.548100000E-01  1.354703905E-01
  5.418400000E-02  2.804449011E-02
 
[MO]
Sym=     1a  
Ene=   -26.4500
Spin= Alpha
Occup=    2.00000
   1         0.70629922
   2         0.00310351
   3         0.00000000
   4         0.00000000
   5         0.00229028
   6         0.70629922
   7         0.00310351
   8         0.00000000
   9        -0.00000000
  10        -0.00229028
Sym=     2a  
Ene=   -26.3990
Spin= Alpha
Occup=    2.00000
   1        -0.70700721
   2         0.00279542
   3         0.00000000
   4        -0.00000000
   5         0.00219564
   6         0.70700721
   7        -0.00279542
   8         0.00000000
   9         0.00000000
  10         0.00219564
Sym=     3a  
Ene=    -2.4829
Spin= Alpha
Occup=    2.00000
   1        -0.05290760
   2         0.53801027
   3         0.00000000
   4         0.00000000
   5         0.11360811
   6        -0.05290760
   7         0.53801027
   8        -0.00000000
   9        -0.00000000
  10        -0.11360811
Sym=     4a  
Ene=    -1.2475
Spin= Alpha
Occup=    2.00000
   1        -0.00207866
   2        -0.61382212
   3         0.00000000
   4        -0.00000000
   5         0.34395974
   6         0.00207866
   7         0.61382212
   8         0.00000000
   9        -0.00000000
  10         0.34395974
Sym=     5a  
Ene=    -1.0130
Spin= Alpha
Occup=    2.00000
   1        -0.00000000
   2        -0.00000000
   3        -0.40302623
   4         0.44551929
   5        -0.00000000
   6         0.00000000
   7         0.00000000
   8        -0.40302623
   9         0.44551929
  10        -0.00000000
Sym=     6a  
Ene=    -1.0130
Spin= Alpha
Occup=    2.00000
   1        -0.00000000
   2         0.00000000
   3         0.44551929
   4         0.40302623
   5        -0.00000000
   6         0.00000000
   7         0.00000000
   8         0.44551929
   9         0.40302623
  10        -0.00000000
Sym=     7a  
Ene=    -0.6785
Spin= Alpha
Occup=    2.00000
   1         0.05858026
   2         0.31948030
   3        -0.00000000
   4         0.00000000
   5        -0.70101508
   6         0.05858026
   7         0.31948030
   8         0.00000000
   9         0.00000000
  10         0.70101508
Sym=     8a  
Ene=    -0.4494
Spin= Alpha
Occup=    2.00000
   1         0.00000000
   2         0.00000000
   3         0.58668952
   4        -0.68503786
   5        -0.00000000
   6         0.00000000
   7         0.00000000
   8        -0.58668952
   9         0.68503786
  10         0.00000000
Sym=     9a  
Ene=    -0.4494
Spin= Alpha
Occup=    2.00000
   1        -0.00000000
   2        -0.00000000
   3        -0.68503786
   4        -0.58668952
   5        -0.00000000
   6         0.00000000
   7         0.00000000
   8         0.68503786
   9         0.58668952
  10        -0.00000000
Sym=    10a  
Ene=    -0.1732
Spin= Alpha
Occup=    0.00000
   1         0.21555616
   2         1.35501293
   3        -0.00000000
   4        -0.00000000
   5         1.12166220
   6        -0.21555616
   7        -1.35501293
   8         0.00000000
   9         0.00000000
  10         1.12166220
