[Molden Format]
[N_Atoms]
                     2
[Atoms] (AU)
F1          1      9           0.00000000      0.00000000      0.00000000
F2          2      9           0.00000000      0.00000000      1.51178090
[Charge] (Mulliken)
  6.217248937900877E-014
 -7.105427357601002E-014
[GTO] (AU)
   1
   s  14
  1.031094600E+05  1.713099991E-04
  1.528100700E+04  7.123999962E-04
  3.441539200E+03  2.990479984E-03
  9.670948300E+02  1.164036994E-02
  3.140353400E+02  3.968642979E-02
  1.134423000E+02  1.128546094E-01
  4.464472700E+01  2.473650687E-01
  1.894287400E+01  3.672702681E-01
  8.532743000E+00  2.896286985E-01
  3.919401000E+00  7.786681959E-02
  1.568157000E+00  4.562139976E-03
  6.232900000E-01  2.468879987E-03
  2.408610000E-01  1.106309994E-03
  8.430100000E-02  1.739699991E-04
   s  14
  1.031094600E+05 -4.044999995E-05
  1.528100700E+04 -1.682299998E-04
  3.441539200E+03 -7.084299991E-04
  9.670948300E+02 -2.767999996E-03
  3.140353400E+02 -9.611379987E-03
  1.134423000E+02 -2.833957996E-02
  4.464472700E+01 -6.839343991E-02
  1.894287400E+01 -1.237379298E-01
  8.532743000E+00 -1.512859698E-01
  3.919401000E+00 -9.099909988E-03
  1.568157000E+00  3.716257695E-01
  6.232900000E-01  5.500214393E-01
  2.408610000E-01  2.092318697E-01
  8.430100000E-02  8.074639989E-03
   p   9
  2.453302900E+02  1.024860004E-03
  5.691900500E+01  8.344290032E-03
  1.760456800E+01  4.078927016E-02
  6.274995000E+00  1.351370605E-01
  2.447030000E+00  2.798830811E-01
  9.950600000E-01  3.597966414E-01
  4.039730000E-01  3.055347412E-01
  1.548100000E-01  1.354703905E-01
  5.418400000E-02  2.804449011E-02
 
   2
   s  14
  1.031094600E+05  1.713099991E-04
  1.528100700E+04  7.123999962E-04
  3.441539200E+03  2.990479984E-03
  9.670948300E+02  1.164036994E-02
  3.140353400E+02  3.968642979E-02
  1.134423000E+02  1.128546094E-01
  4.464472700E+01  2.473650687E-01
  1.894287400E+01  3.672702681E-01
  8.532743000E+00  2.896286985E-01
  3.919401000E+00  7.786681959E-02
  1.568157000E+00  4.562139976E-03
  6.232900000E-01  2.468879987E-03
  2.408610000E-01  1.106309994E-03
  8.430100000E-02  1.739699991E-04
   s  14
  1.031094600E+05 -4.044999995E-05
  1.528100700E+04 -1.682299998E-04
  3.441539200E+03 -7.084299991E-04
  9.670948300E+02 -2.767999996E-03
  3.140353400E+02 -9.611379987E-03
  1.134423000E+02 -2.833957996E-02
  4.464472700E+01 -6.839343991E-02
  1.894287400E+01 -1.237379298E-01
  8.532743000E+00 -1.512859698E-01
  3.919401000E+00 -9.099909988E-03
  1.568157000E+00  3.716257695E-01
  6.232900000E-01  5.500214393E-01
  2.408610000E-01  2.092318697E-01
  8.430100000E-02  8.074639989E-03
   p   9
  2.453302900E+02  1.024860004E-03
  5.691900500E+01  8.344290032E-03
  1.760456800E+01  4.078927016E-02
  6.274995000E+00  1.351370605E-01
  2.447030000E+00  2.798830811E-01
  9.950600000E-01  3.597966414E-01
  4.039730000E-01  3.055347412E-01
  1.548100000E-01  1.354703905E-01
  5.418400000E-02  2.804449011E-02
 
[MO]
Sym=     1a  
Ene=   -26.6530
Spin= Alpha
Occup=    1.00000
   1         0.70659520
   2        -0.00235807
   3        -0.00000000
   4        -0.00000000
   5         0.00294785
   6         0.70659521
   7        -0.00235807
   8        -0.00000000
   9         0.00000000
  10        -0.00294785
Sym=     1a  
Ene=   -26.6530
Spin= Beta
Occup=    1.00000
   1         0.70659520
   2        -0.00235807
   3        -0.00000000
   4        -0.00000000
   5         0.00294785
   6         0.70659521
   7        -0.00235807
   8        -0.00000000
   9         0.00000000
  10        -0.00294785
Sym=     2a  
Ene=   -26.6480
Spin= Alpha
Occup=    1.00000
   1        -0.70817988
   2        -0.00315803
   3        -0.00000000
   4        -0.00000000
   5        -0.00485978
   6         0.70817988
   7         0.00315803
   8        -0.00000000
   9         0.00000000
  10        -0.00485978
Sym=     2a  
Ene=   -26.6480
Spin= Beta
Occup=    1.00000
   1        -0.70817988
   2        -0.00315803
   3        -0.00000000
   4        -0.00000000
   5        -0.00485978
   6         0.70817988
   7         0.00315803
   8        -0.00000000
   9         0.00000000
  10        -0.00485978
Sym=     3a  
Ene=    -2.6877
Spin= Alpha
Occup=    1.00000
   1        -0.06169213
   2         0.42736747
   3        -0.00000000
   4         0.00000000
   5         0.30490654
   6        -0.06169213
   7         0.42736747
   8        -0.00000000
   9        -0.00000000
  10        -0.30490654
Sym=     3a  
Ene=    -2.6877
Spin= Beta
Occup=    1.00000
   1        -0.06169213
   2         0.42736747
   3        -0.00000000
   4         0.00000000
   5         0.30490654
   6        -0.06169213
   7         0.42736747
   8        -0.00000000
   9        -0.00000000
  10        -0.30490654
Sym=     4a  
Ene=    -1.3285
Spin= Alpha
Occup=    1.00000
   1        -0.02174991
   2        -0.72633711
   3        -0.00000000
   4         0.00000000
   5         0.24775970
   6         0.02174991
   7         0.72633711
   8        -0.00000000
   9         0.00000000
  10         0.24775970
Sym=     4a  
Ene=    -1.3285
Spin= Beta
Occup=    1.00000
   1        -0.02174991
   2        -0.72633711
   3        -0.00000000
   4         0.00000000
   5         0.24775970
   6         0.02174991
   7         0.72633711
   8        -0.00000000
   9         0.00000000
  10         0.24775970
Sym=     5a  
Ene=    -1.2525
Spin= Alpha
Occup=    1.00000
   1         0.00000000
   2         0.00000000
   3         0.18124069
   4         0.57277342
   5        -0.00000000
   6         0.00000000
   7         0.00000000
   8         0.18124069
   9         0.57277342
  10         0.00000000
Sym=     5a  
Ene=    -1.2525
Spin= Beta
Occup=    1.00000
   1         0.00000000
   2         0.00000000
   3         0.18124069
   4         0.57277342
   5        -0.00000000
   6         0.00000000
   7         0.00000000
   8         0.18124069
   9         0.57277342
  10         0.00000000
Sym=     6a  
Ene=    -1.2525
Spin= Alpha
Occup=    1.00000
   1        -0.00000000
   2        -0.00000000
   3         0.57277342
   4        -0.18124069
   5         0.00000000
   6         0.00000000
   7         0.00000000
   8         0.57277342
   9        -0.18124069
  10         0.00000000
Sym=     6a  
Ene=    -1.2525
Spin= Beta
Occup=    1.00000
   1        -0.00000000
   2        -0.00000000
   3         0.57277342
   4        -0.18124069
   5         0.00000000
   6         0.00000000
   7         0.00000000
   8         0.57277342
   9        -0.18124069
  10         0.00000000
Sym=     7a  
Ene=    -1.0360
Spin= Alpha
Occup=    1.00000
   1         0.04479675
   2         0.45703811
   3        -0.00000000
   4        -0.00000000
   5        -0.64137157
   6         0.04479675
   7         0.45703811
   8        -0.00000000
   9        -0.00000000
  10         0.64137157
Sym=     7a  
Ene=    -1.0360
Spin= Beta
Occup=    1.00000
   1         0.04479675
   2         0.45703811
   3        -0.00000000
   4        -0.00000000
   5        -0.64137157
   6         0.04479675
   7         0.45703811
   8        -0.00000000
   9        -0.00000000
  10         0.64137157
Sym=     8a  
Ene=    -0.5148
Spin= Alpha
Occup=    1.00000
   1        -0.00000000
   2        -0.00000000
   3         0.59467538
   4        -0.67811698
   5         0.00000000
   6        -0.00000000
   7         0.00000000
   8        -0.59467538
   9         0.67811698
  10        -0.00000000
Sym=     8a  
Ene=    -0.5148
Spin= Beta
Occup=    1.00000
   1        -0.00000000
   2        -0.00000000
   3         0.59467538
   4        -0.67811698
   5         0.00000000
   6        -0.00000000
   7         0.00000000
   8        -0.59467538
   9         0.67811698
  10        -0.00000000
Sym=     9a  
Ene=    -0.5148
Spin= Alpha
Occup=    1.00000
   1         0.00000000
   2         0.00000000
   3        -0.67811698
   4        -0.59467538
   5        -0.00000000
   6        -0.00000000
   7         0.00000000
   8         0.67811698
   9         0.59467538
  10         0.00000000
Sym=     9a  
Ene=    -0.5148
Spin= Beta
Occup=    1.00000
   1         0.00000000
   2         0.00000000
   3        -0.67811698
   4        -0.59467538
   5        -0.00000000
   6        -0.00000000
   7         0.00000000
   8         0.67811698
   9         0.59467538
  10         0.00000000
Sym=    10a  
Ene=     1.4938
Spin= Alpha
Occup=    0.00000
   1         0.21056157
   2         1.29817944
   3         0.00000000
   4         0.00000000
   5         1.14674789
   6        -0.21056157
   7        -1.29817944
   8        -0.00000000
   9        -0.00000000
  10         1.14674789
Sym=    10a  
Ene=     1.4938
Spin= Beta
Occup=    0.00000
   1         0.21056157
   2         1.29817944
   3         0.00000000
   4         0.00000000
   5         1.14674789
   6        -0.21056157
   7        -1.29817944
   8        -0.00000000
   9        -0.00000000
  10         1.14674789
