[Molden Format]
[N_Atoms]
                     2
[Atoms] (AU)
C1          1      6           0.00000000      0.00000000      0.00000000
F2          2      9           0.00000000      0.00000000      1.32280829
[Charge] (Mulliken)
  0.400177000651185     
 -0.400177000651215     
[GTO] (AU)
   1
   s  14
  5.055750100E+04  1.128874000E-04
  7.524785600E+03  5.295373000E-04
  1.694327600E+03  2.450038300E-03
  4.728227900E+02  1.005398470E-02
  1.517107500E+02  3.545398060E-02
  5.391874600E+01  1.044071086E-01
  2.065931100E+01  2.412894918E-01
  8.383976000E+00  3.834225483E-01
  3.577015000E+00  3.078514393E-01
  1.547118000E+00  6.872442990E-02
  6.130130000E-01  2.224445000E-04
  2.460680000E-01  1.976748900E-03
  9.908700000E-02  2.057859400E-03
  3.468000000E-02  4.182020000E-04
   s  14
  5.055750100E+04 -2.507420000E-05
  7.524785600E+03 -1.175945000E-04
  1.694327600E+03 -5.456275000E-04
  4.728227900E+02 -2.245077100E-03
  1.517107500E+02 -8.043471800E-03
  5.391874600E+01 -2.442588710E-02
  2.065931100E+01 -6.136791180E-02
  8.383976000E+00 -1.177767835E-01
  3.577015000E+00 -1.550487783E-01
  1.547118000E+00 -1.933316860E-02
  6.130130000E-01  3.996930678E-01
  2.460680000E-01  5.589420949E-01
  9.908700000E-02  1.711195023E-01
  3.468000000E-02  7.456244600E-03
   p   9
  8.333315500E+01  1.344656000E-03
  1.955761100E+01  1.023555500E-02
  6.080365000E+00  4.520067100E-02
  2.179317000E+00  1.410756198E-01
  8.651500000E-01  3.047388085E-01
  3.619440000E-01  3.995281011E-01
  1.547400000E-01  2.719163432E-01
  6.542900000E-02  5.857669330E-02
  2.290000000E-02 -1.263813000E-04
 
   2
   s  14
  1.031094600E+05  1.713099991E-04
  1.528100700E+04  7.123999962E-04
  3.441539200E+03  2.990479984E-03
  9.670948300E+02  1.164036994E-02
  3.140353400E+02  3.968642979E-02
  1.134423000E+02  1.128546094E-01
  4.464472700E+01  2.473650687E-01
  1.894287400E+01  3.672702681E-01
  8.532743000E+00  2.896286985E-01
  3.919401000E+00  7.786681959E-02
  1.568157000E+00  4.562139976E-03
  6.232900000E-01  2.468879987E-03
  2.408610000E-01  1.106309994E-03
  8.430100000E-02  1.739699991E-04
   s  14
  1.031094600E+05 -4.044999995E-05
  1.528100700E+04 -1.682299998E-04
  3.441539200E+03 -7.084299991E-04
  9.670948300E+02 -2.767999996E-03
  3.140353400E+02 -9.611379987E-03
  1.134423000E+02 -2.833957996E-02
  4.464472700E+01 -6.839343991E-02
  1.894287400E+01 -1.237379298E-01
  8.532743000E+00 -1.512859698E-01
  3.919401000E+00 -9.099909988E-03
  1.568157000E+00  3.716257695E-01
  6.232900000E-01  5.500214393E-01
  2.408610000E-01  2.092318697E-01
  8.430100000E-02  8.074639989E-03
   p   9
  2.453302900E+02  1.024860004E-03
  5.691900500E+01  8.344290032E-03
  1.760456800E+01  4.078927016E-02
  6.274995000E+00  1.351370605E-01
  2.447030000E+00  2.798830811E-01
  9.950600000E-01  3.597966414E-01
  4.039730000E-01  3.055347412E-01
  1.548100000E-01  1.354703905E-01
  5.418400000E-02  2.804449011E-02
 
[MO]
Sym=     1a  
Ene=   -26.8810
Spin= Alpha
Occup=    1.00000
   1        -0.00174907
   2        -0.00500414
   3        -0.00000000
   4        -0.00000000
   5        -0.00177210
   6         1.00077613
   7         0.00289153
   8        -0.00000000
   9        -0.00000000
  10        -0.00543884
Sym=     1a  
Ene=   -26.8580
Spin= Beta
Occup=    1.00000
   1        -0.00141374
   2        -0.00413756
   3        -0.00000000
   4        -0.00000000
   5        -0.00121585
   6         1.00060092
   7         0.00140937
   8        -0.00000000
   9        -0.00000000
  10        -0.00526539
Sym=     2a  
Ene=   -11.7530
Spin= Alpha
Occup=    1.00000
   1         0.99357668
   2        -0.00949961
   3        -0.00000000
   4        -0.00000000
   5         0.00789615
   6        -0.00743524
   7         0.01128829
   8        -0.00000000
   9         0.00000000
  10        -0.01778015
Sym=     2a  
Ene=   -11.7290
Spin= Beta
Occup=    1.00000
   1         0.99335150
   2        -0.01221426
   3        -0.00000000
   4        -0.00000000
   5         0.00763674
   6        -0.00716579
   7         0.01267071
   8        -0.00000000
   9         0.00000000
  10        -0.01776215
Sym=     3a  
Ene=    -2.3775
Spin= Alpha
Occup=    1.00000
   1        -0.27509458
   2        -0.09443415
   3        -0.00000000
   4        -0.00000000
   5         0.13662366
   6        -0.00966027
   7         0.91636987
   8        -0.00000000
   9        -0.00000000
  10        -0.44404591
Sym=     3a  
Ene=    -2.3449
Spin= Beta
Occup=    1.00000
   1        -0.27571885
   2        -0.09635466
   3        -0.00000000
   4        -0.00000000
   5         0.14597850
   6        -0.01045090
   7         0.90691417
   8        -0.00000000
   9        -0.00000000
  10        -0.45461666
Sym=     4a  
Ene=    -1.2939
Spin= Alpha
Occup=    1.00000
   1        -0.00000000
   2         0.00000000
   3         0.17261419
   4        -0.09213403
   5         0.00000000
   6        -0.00000000
   7        -0.00000000
   8         0.77675148
   9        -0.41459655
  10        -0.00000000
Sym=     4a  
Ene=    -1.2022
Spin= Beta
Occup=    1.00000
   1         0.00000000
   2         0.00000000
   3         0.10628986
   4         0.19913530
   5        -0.00000000
   6        -0.00000000
   7         0.00000000
   8         0.40479204
   9         0.75838261
  10         0.00000000
Sym=     5a  
Ene=    -1.2152
Spin= Alpha
Occup=    1.00000
   1         0.00000000
   2         0.00000000
   3         0.10825986
   4         0.20282611
   5        -0.00000000
   6         0.00000000
   7         0.00000000
   8         0.40340249
   9         0.75577929
  10         0.00000000
Sym=     5a  
Ene=    -1.1640
Spin= Beta
Occup=    1.00000
   1        -0.00000000
   2        -0.00000000
   3         0.19341448
   4        -0.10323633
   5         0.00000000
   6        -0.00000000
   7        -0.00000000
   8         0.76239502
   9        -0.40693369
  10        -0.00000000
Sym=     6a  
Ene=    -1.1859
Spin= Alpha
Occup=    1.00000
   1         0.17563203
   2         0.07168845
   3         0.00000000
   4        -0.00000000
   5        -0.17269234
   6         0.02186281
   7         0.43713803
   8         0.00000000
   9        -0.00000000
  10         0.95679207
Sym=     6a  
Ene=    -1.1541
Spin= Beta
Occup=    1.00000
   1         0.18022989
   2         0.11900142
   3         0.00000000
   4        -0.00000000
   5        -0.16824717
   6         0.01681390
   7         0.41754913
   8         0.00000000
   9        -0.00000000
  10         0.96389771
Sym=     7a  
Ene=    -0.6322
Spin= Alpha
Occup=    1.00000
   1        -0.10181232
   2        -1.00462737
   3         0.00000000
   4        -0.00000000
   5         0.46915272
   6         0.02862399
   7         0.28572973
   8         0.00000000
   9         0.00000000
  10        -0.19027385
Sym=     7a  
Ene=    -0.5462
Spin= Beta
Occup=    1.00000
   1        -0.08627755
   2        -0.96633738
   3         0.00000000
   4        -0.00000000
   5         0.49569463
   6         0.02093162
   7         0.25148131
   8         0.00000000
   9         0.00000000
  10        -0.14466970
Sym=     8a  
Ene=    -0.2075
Spin= Alpha
Occup=    1.00000
   1        -0.00000000
   2        -0.00000000
   3        -1.03484504
   4         0.55235579
   5        -0.00000000
   6         0.00000000
   7         0.00000000
   8         0.70523545
   9        -0.37642437
  10        -0.00000000
Sym=     8a  
Ene=     0.3722
Spin= Beta
Occup=    0.00000
   1        -0.00000000
   2        -0.00000000
   3        -0.54980730
   4        -1.03007041
   5        -0.00000000
   6         0.00000000
   7         0.00000000
   8         0.38694833
   9         0.72495222
  10         0.00000000
Sym=     9a  
Ene=     0.3442
Spin= Alpha
Occup=    0.00000
   1        -0.00000000
   2        -0.00000000
   3        -0.54942279
   4        -1.02935003
   5        -0.00000000
   6         0.00000000
   7         0.00000000
   8         0.38839675
   9         0.72766584
  10         0.00000000
Sym=     9a  
Ene=     0.4249
Spin= Beta
Occup=    0.00000
   1        -0.00000000
   2        -0.00000000
   3        -1.03115991
   4         0.55038883
   5        -0.00000000
   6         0.00000000
   7         0.00000000
   8         0.72073139
   9        -0.38469543
  10        -0.00000000
Sym=    10a  
Ene=     1.2295
Spin= Alpha
Occup=    0.00000
   1         0.51346848
   2         1.71778491
   3        -0.00000000
   4        -0.00000000
   5         1.61700912
   6        -0.42173054
   7        -2.07439431
   8         0.00000000
   9         0.00000000
  10         0.69253294
Sym=    10a  
Ene=     1.2672
Spin= Beta
Occup=    0.00000
   1         0.51482059
   2         1.73689772
   3        -0.00000000
   4        -0.00000000
   5         1.60872221
   6        -0.42281417
   7        -2.08697542
   8         0.00000000
   9         0.00000000
  10         0.68682743
