[Molden Format]
[N_Atoms]
                     2
[Atoms] (AU)
C1          1      6           0.00000000      0.00000000      0.00000000
LI2         2      3           0.00000000      0.00000000      2.64561657
[Charge] (Mulliken)
 -0.346951238659496     
  0.346951238659482     
[GTO] (AU)
   1
   s  14
  5.055750100E+04  1.128874000E-04
  7.524785600E+03  5.295373000E-04
  1.694327600E+03  2.450038300E-03
  4.728227900E+02  1.005398470E-02
  1.517107500E+02  3.545398060E-02
  5.391874600E+01  1.044071086E-01
  2.065931100E+01  2.412894918E-01
  8.383976000E+00  3.834225483E-01
  3.577015000E+00  3.078514393E-01
  1.547118000E+00  6.872442990E-02
  6.130130000E-01  2.224445000E-04
  2.460680000E-01  1.976748900E-03
  9.908700000E-02  2.057859400E-03
  3.468000000E-02  4.182020000E-04
   s  14
  5.055750100E+04 -2.507420000E-05
  7.524785600E+03 -1.175945000E-04
  1.694327600E+03 -5.456275000E-04
  4.728227900E+02 -2.245077100E-03
  1.517107500E+02 -8.043471800E-03
  5.391874600E+01 -2.442588710E-02
  2.065931100E+01 -6.136791180E-02
  8.383976000E+00 -1.177767835E-01
  3.577015000E+00 -1.550487783E-01
  1.547118000E+00 -1.933316860E-02
  6.130130000E-01  3.996930678E-01
  2.460680000E-01  5.589420949E-01
  9.908700000E-02  1.711195023E-01
  3.468000000E-02  7.456244600E-03
   p   9
  8.333315500E+01  1.344656000E-03
  1.955761100E+01  1.023555500E-02
  6.080365000E+00  4.520067100E-02
  2.179317000E+00  1.410756198E-01
  8.651500000E-01  3.047388085E-01
  3.619440000E-01  3.995281011E-01
  1.547400000E-01  2.719163432E-01
  6.542900000E-02  5.857669330E-02
  2.290000000E-02 -1.263813000E-04
 
   2
   s  14
  9.497934400E+03  9.668999974E-05
  1.416811200E+03  6.087099984E-04
  3.214599400E+02  3.101519992E-03
  9.112416300E+01  1.266904997E-02
  2.999989100E+01  4.248012989E-02
  1.101763100E+01  1.150183297E-01
  4.372801000E+00  2.398650094E-01
  1.831256000E+00  3.584300090E-01
  8.022610000E-01  3.048527792E-01
  3.626480000E-01  8.824261976E-02
  1.139950000E-01 -8.445899977E-04
  5.123700000E-02 -7.943959979E-03
  2.246800000E-02 -3.764419990E-03
  7.860000000E-03 -8.868999976E-05
   s  14
  9.497934400E+03 -1.244999993E-05
  1.416811200E+03 -7.838999954E-05
  3.214599400E+02 -4.007099976E-04
  9.112416300E+01 -1.645249990E-03
  2.999989100E+01 -5.634599967E-03
  1.101763100E+01 -1.590780991E-02
  4.372801000E+00 -3.612581979E-02
  1.831256000E+00 -6.459927962E-02
  8.022610000E-01 -1.008321794E-01
  3.626480000E-01 -9.757613942E-02
  1.139950000E-01  2.301215886E-01
  5.123700000E-02  6.102389764E-01
  2.246800000E-02  2.849406083E-01
  7.860000000E-03  4.026899976E-03
   p   9
  1.311950400E+01  1.524940000E-03
  3.077424200E+00  8.314830000E-03
  1.098800500E+00  1.933203000E-02
  4.357784000E-01  4.934293000E-02
  1.802432000E-01  1.623554000E-01
  7.613330000E-02  3.847505400E-01
  3.254650000E-02  4.336100400E-01
  1.401820000E-02  1.287005900E-01
  4.906400000E-03 -1.018520000E-03
 
[MO]
Sym=     1a  
Ene=   -11.1920
Spin= Alpha
Occup=    1.00000
   1         1.00022060
   2        -0.00017918
   3         0.00000000
   4         0.00000000
   5         0.00054722
   6        -0.00065701
   7        -0.00183510
   8        -0.00000000
   9         0.00000000
  10         0.00127784
Sym=     1a  
Ene=   -11.1920
Spin= Beta
Occup=    1.00000
   1         1.00022060
   2        -0.00017918
   3         0.00000000
   4         0.00000000
   5         0.00054722
   6        -0.00065701
   7        -0.00183510
   8        -0.00000000
   9         0.00000000
  10         0.00127784
Sym=     2a  
Ene=    -2.5320
Spin= Alpha
Occup=    1.00000
   1        -0.00426659
   2         0.01999440
   3         0.00000000
   4        -0.00000000
   5         0.01328183
   6         0.99382920
   7         0.00818156
   8        -0.00000000
   9         0.00000000
  10         0.00100850
Sym=     2a  
Ene=    -2.5320
Spin= Beta
Occup=    1.00000
   1        -0.00426659
   2         0.01999440
   3         0.00000000
   4        -0.00000000
   5         0.01328183
   6         0.99382920
   7         0.00818156
   8        -0.00000000
   9         0.00000000
  10         0.00100850
Sym=     3a  
Ene=    -0.6755
Spin= Alpha
Occup=    1.00000
   1         0.00694668
   2        -0.94319383
   3        -0.00000000
   4        -0.00000000
   5        -0.09321917
   6         0.17459228
   7        -0.04826707
   8        -0.00000000
   9         0.00000000
  10         0.07683938
Sym=     3a  
Ene=    -0.6755
Spin= Beta
Occup=    1.00000
   1         0.00694668
   2        -0.94319383
   3        -0.00000000
   4        -0.00000000
   5        -0.09321917
   6         0.17459228
   7        -0.04826707
   8        -0.00000000
   9         0.00000000
  10         0.07683938
Sym=     4a  
Ene=    -0.1013
Spin= Alpha
Occup=    1.00000
   1         0.00000000
   2        -0.00000000
   3        -0.67365882
   4         0.61384804
   5         0.00000000
   6        -0.00000000
   7        -0.00000000
   8        -0.14857902
   9         0.13538744
  10         0.00000000
Sym=     4a  
Ene=    -0.1013
Spin= Beta
Occup=    0.00000
   1         0.00000000
   2        -0.00000000
   3        -0.67365882
   4         0.61384804
   5         0.00000000
   6        -0.00000000
   7        -0.00000000
   8        -0.14857902
   9         0.13538744
  10         0.00000000
Sym=     5a  
Ene=     0.0000
Spin= Alpha
Occup=    1.00000
   1        -0.00000000
   2        -0.00000000
   3         0.56002285
   4         0.61458913
   5         0.00000000
   6         0.00000000
   7         0.00000000
   8         0.22581562
   9         0.24781815
  10         0.00000000
Sym=     5a  
Ene=     0.0000
Spin= Beta
Occup=    1.00000
   1        -0.00000000
   2        -0.00000000
   3         0.56002285
   4         0.61458913
   5         0.00000000
   6         0.00000000
   7         0.00000000
   8         0.22581562
   9         0.24781815
  10         0.00000000
Sym=     6a  
Ene=     0.0146
Spin= Alpha
Occup=    0.00000
   1        -0.00203370
   2        -0.10748110
   3         0.00000000
   4        -0.00000000
   5         0.04035066
   6        -0.00389209
   7         0.82375471
   8        -0.00000000
   9        -0.00000000
  10         0.56358086
Sym=     6a  
Ene=     0.0146
Spin= Beta
Occup=    0.00000
   1        -0.00203370
   2        -0.10748110
   3         0.00000000
   4        -0.00000000
   5         0.04035066
   6        -0.00389209
   7         0.82375471
   8        -0.00000000
   9        -0.00000000
  10         0.56358086
Sym=     7a  
Ene=     0.1472
Spin= Alpha
Occup=    0.00000
   1        -0.00000000
   2        -0.00000000
   3        -0.41207250
   4         0.37548665
   5         0.00000000
   6        -0.00000000
   7         0.00000000
   8         0.77559283
   9        -0.70673184
  10        -0.00000000
Sym=     7a  
Ene=     0.1472
Spin= Beta
Occup=    0.00000
   1        -0.00000000
   2        -0.00000000
   3        -0.41207250
   4         0.37548665
   5         0.00000000
   6        -0.00000000
   7         0.00000000
   8         0.77559283
   9        -0.70673184
  10        -0.00000000
Sym=     8a  
Ene=     0.1485
Spin= Alpha
Occup=    0.00000
   1         0.00000000
   2         0.00000000
   3        -0.45185623
   4        -0.49588321
   5        -0.00000000
   6         0.00000000
   7         0.00000000
   8         0.68323272
   9         0.74980406
  10         0.00000000
Sym=     8a  
Ene=     0.1485
Spin= Beta
Occup=    0.00000
   1         0.00000000
   2         0.00000000
   3        -0.45185623
   4        -0.49588321
   5        -0.00000000
   6         0.00000000
   7         0.00000000
   8         0.68323272
   9         0.74980406
  10         0.00000000
Sym=     9a  
Ene=     0.1691
Spin= Alpha
Occup=    0.00000
   1         0.00220293
   2        -0.03462495
   3        -0.00000000
   4        -0.00000000
   5         1.03575781
   6        -0.24411608
   7        -0.16886462
   8         0.00000000
   9         0.00000000
  10        -0.10161030
Sym=     9a  
Ene=     0.1691
Spin= Beta
Occup=    0.00000
   1         0.00220293
   2        -0.03462495
   3        -0.00000000
   4        -0.00000000
   5         1.03575781
   6        -0.24411608
   7        -0.16886462
   8         0.00000000
   9         0.00000000
  10        -0.10161030
Sym=    10a  
Ene=     0.2148
Spin= Alpha
Occup=    0.00000
   1         0.14540148
   2         1.04335146
   3         0.00000000
   4         0.00000000
   5         0.08563557
   6        -0.16201004
   7        -0.87721125
   8         0.00000000
   9        -0.00000000
  10         1.08938164
Sym=    10a  
Ene=     0.2148
Spin= Beta
Occup=    0.00000
   1         0.14540148
   2         1.04335146
   3         0.00000000
   4         0.00000000
   5         0.08563557
   6        -0.16201004
   7        -0.87721125
   8         0.00000000
   9        -0.00000000
  10         1.08938164
