[Molden Format]
[N_Atoms]
                     2
[Atoms] (AU)
C1          1      6           0.00000000      0.00000000      0.00000000
LI2         2      3           0.00000000      0.00000000      2.64561657
[Charge] (Mulliken)
 -0.330208163651964     
  0.330208163651952     
[GTO] (AU)
   1
   s  14
  5.055750100E+04  1.128874000E-04
  7.524785600E+03  5.295373000E-04
  1.694327600E+03  2.450038300E-03
  4.728227900E+02  1.005398470E-02
  1.517107500E+02  3.545398060E-02
  5.391874600E+01  1.044071086E-01
  2.065931100E+01  2.412894918E-01
  8.383976000E+00  3.834225483E-01
  3.577015000E+00  3.078514393E-01
  1.547118000E+00  6.872442990E-02
  6.130130000E-01  2.224445000E-04
  2.460680000E-01  1.976748900E-03
  9.908700000E-02  2.057859400E-03
  3.468000000E-02  4.182020000E-04
   s  14
  5.055750100E+04 -2.507420000E-05
  7.524785600E+03 -1.175945000E-04
  1.694327600E+03 -5.456275000E-04
  4.728227900E+02 -2.245077100E-03
  1.517107500E+02 -8.043471800E-03
  5.391874600E+01 -2.442588710E-02
  2.065931100E+01 -6.136791180E-02
  8.383976000E+00 -1.177767835E-01
  3.577015000E+00 -1.550487783E-01
  1.547118000E+00 -1.933316860E-02
  6.130130000E-01  3.996930678E-01
  2.460680000E-01  5.589420949E-01
  9.908700000E-02  1.711195023E-01
  3.468000000E-02  7.456244600E-03
   p   9
  8.333315500E+01  1.344656000E-03
  1.955761100E+01  1.023555500E-02
  6.080365000E+00  4.520067100E-02
  2.179317000E+00  1.410756198E-01
  8.651500000E-01  3.047388085E-01
  3.619440000E-01  3.995281011E-01
  1.547400000E-01  2.719163432E-01
  6.542900000E-02  5.857669330E-02
  2.290000000E-02 -1.263813000E-04
 
   2
   s  14
  9.497934400E+03  9.668999974E-05
  1.416811200E+03  6.087099984E-04
  3.214599400E+02  3.101519992E-03
  9.112416300E+01  1.266904997E-02
  2.999989100E+01  4.248012989E-02
  1.101763100E+01  1.150183297E-01
  4.372801000E+00  2.398650094E-01
  1.831256000E+00  3.584300090E-01
  8.022610000E-01  3.048527792E-01
  3.626480000E-01  8.824261976E-02
  1.139950000E-01 -8.445899977E-04
  5.123700000E-02 -7.943959979E-03
  2.246800000E-02 -3.764419990E-03
  7.860000000E-03 -8.868999976E-05
   s  14
  9.497934400E+03 -1.244999993E-05
  1.416811200E+03 -7.838999954E-05
  3.214599400E+02 -4.007099976E-04
  9.112416300E+01 -1.645249990E-03
  2.999989100E+01 -5.634599967E-03
  1.101763100E+01 -1.590780991E-02
  4.372801000E+00 -3.612581979E-02
  1.831256000E+00 -6.459927962E-02
  8.022610000E-01 -1.008321794E-01
  3.626480000E-01 -9.757613942E-02
  1.139950000E-01  2.301215886E-01
  5.123700000E-02  6.102389764E-01
  2.246800000E-02  2.849406083E-01
  7.860000000E-03  4.026899976E-03
   p   9
  1.311950400E+01  1.524940000E-03
  3.077424200E+00  8.314830000E-03
  1.098800500E+00  1.933203000E-02
  4.357784000E-01  4.934293000E-02
  1.802432000E-01  1.623554000E-01
  7.613330000E-02  3.847505400E-01
  3.254650000E-02  4.336100400E-01
  1.401820000E-02  1.287005900E-01
  4.906400000E-03 -1.018520000E-03
 
[MO]
Sym=     1a  
Ene=   -11.2140
Spin= Alpha
Occup=    1.00000
   1         1.00027513
   2         0.00153802
   3        -0.00000000
   4         0.00000000
   5         0.00059988
   6        -0.00086544
   7        -0.00222500
   8        -0.00000000
   9        -0.00000000
  10         0.00161971
Sym=     1a  
Ene=   -11.1860
Spin= Beta
Occup=    1.00000
   1         1.00016316
   2        -0.00192946
   3        -0.00000000
   4         0.00000000
   5         0.00047529
   6        -0.00044170
   7        -0.00143830
   8         0.00000000
   9        -0.00000000
  10         0.00093059
Sym=     2a  
Ene=    -2.5328
Spin= Alpha
Occup=    1.00000
   1        -0.00431896
   2         0.02218138
   3        -0.00000000
   4        -0.00000000
   5         0.01396806
   6         0.99331555
   7         0.00794870
   8         0.00000000
   9        -0.00000000
  10         0.00099602
Sym=     2a  
Ene=    -2.5338
Spin= Beta
Occup=    1.00000
   1        -0.00421466
   2         0.01817403
   3        -0.00000000
   4        -0.00000000
   5         0.01283816
   6         0.99422303
   7         0.00830621
   8         0.00000000
   9        -0.00000000
  10         0.00095291
Sym=     3a  
Ene=    -0.7490
Spin= Alpha
Occup=    1.00000
   1        -0.00505220
   2         0.96740408
   3         0.00000000
   4        -0.00000000
   5         0.07836276
   6        -0.17629636
   7         0.02394137
   8        -0.00000000
   9         0.00000000
  10        -0.05621681
Sym=     3a  
Ene=    -0.6117
Spin= Beta
Occup=    1.00000
   1        -0.00883954
   2         0.91789281
   3         0.00000000
   4        -0.00000000
   5         0.11033524
   6        -0.17362646
   7         0.07297945
   8        -0.00000000
   9         0.00000000
  10        -0.09720339
Sym=     4a  
Ene=    -0.3789
Spin= Alpha
Occup=    1.00000
   1        -0.00000000
   2        -0.00000000
   3         0.92285290
   4         0.02646619
   5         0.00000000
   6        -0.00000000
   7         0.00000000
   8         0.17819385
   9         0.00511036
  10        -0.00000000
Sym=     4a  
Ene=    -0.2438
Spin= Beta
Occup=    1.00000
   1        -0.00000000
   2        -0.00000000
   3        -0.02142536
   4         0.74708365
   5        -0.00000000
   6         0.00000000
   7         0.00000000
   8        -0.01294305
   9         0.45131292
  10         0.00000000
Sym=     5a  
Ene=    -0.3263
Spin= Alpha
Occup=    1.00000
   1        -0.00000000
   2        -0.00000000
   3        -0.02558655
   4         0.89218057
   5         0.00000000
   6        -0.00000000
   7         0.00000000
   8        -0.00674910
   9         0.23533527
  10         0.00000000
Sym=     5a  
Ene=     0.0135
Spin= Beta
Occup=    0.00000
   1        -0.00146693
   2        -0.11176388
   3         0.00000000
   4        -0.00000000
   5         0.02847493
   6        -0.00023335
   7         0.82124856
   8        -0.00000000
   9        -0.00000000
  10         0.57007913
Sym=     6a  
Ene=     0.0157
Spin= Alpha
Occup=    0.00000
   1        -0.00328061
   2        -0.10850264
   3        -0.00000000
   4        -0.00000000
   5         0.06201385
   6        -0.00913993
   7         0.82839446
   8        -0.00000000
   9        -0.00000000
  10         0.55069668
Sym=     6a  
Ene=     0.0424
Spin= Beta
Occup=    0.00000
   1        -0.00000000
   2        -0.00000000
   3         0.27052123
   4         0.00775819
   5        -0.00000000
   6         0.00000000
   7         0.00000000
   8         0.87176567
   9         0.02500108
  10         0.00000000
Sym=     7a  
Ene=     0.1178
Spin= Alpha
Occup=    0.00000
   1         0.00000000
   2         0.00000000
   3        -0.53742358
   4        -0.01541259
   5        -0.00000000
   6         0.00000000
   7         0.00000000
   8         1.05296180
   9         0.03019754
  10         0.00000000
Sym=     7a  
Ene=     0.1653
Spin= Beta
Occup=    0.00000
   1         0.00000000
   2         0.00000000
   3         0.02188518
   4        -0.76311704
   5         0.00000000
   6        -0.00000000
   7        -0.00000000
   8        -0.02775760
   9         0.96788338
  10         0.00000000
Sym=     8a  
Ene=     0.1367
Spin= Alpha
Occup=    0.00000
   1         0.00000000
   2         0.00000000
   3         0.01683258
   4        -0.58693733
   5        -0.00000000
   6         0.00000000
   7         0.00000000
   8        -0.02987402
   9         1.04168081
  10         0.00000000
Sym=     8a  
Ene=     0.1830
Spin= Beta
Occup=    0.00000
   1         0.01472441
   2         0.03895587
   3        -0.00000000
   4         0.00000000
   5         1.03801294
   6        -0.25408652
   7        -0.23590673
   8         0.00000000
   9        -0.00000000
  10        -0.00040944
Sym=     9a  
Ene=     0.1447
Spin= Alpha
Occup=    0.00000
   1         0.00415514
   2         0.06251634
   3         0.00000000
   4         0.00000000
   5        -1.03129465
   6         0.23996352
   7         0.14691909
   8        -0.00000000
   9        -0.00000000
  10         0.16259419
Sym=     9a  
Ene=     0.2217
Spin= Beta
Occup=    0.00000
   1         0.14497271
   2         1.06511867
   3        -0.00000000
   4         0.00000000
   5        -0.00133821
   6        -0.14439059
   7        -0.86225775
   8         0.00000000
   9        -0.00000000
  10         1.08911279
Sym=    10a  
Ene=     0.2054
Spin= Alpha
Occup=    0.00000
   1         0.14503709
   2         1.01946143
   3         0.00000000
   4         0.00000000
   5         0.12989156
   6        -0.16914922
   7        -0.87779426
   8         0.00000000
   9        -0.00000000
  10         1.08983470
Sym=    10a  
Ene=     0.2946
Spin= Beta
Occup=    0.00000
   1        -0.00000000
   2        -0.00000000
   3        -1.03310206
   4        -0.02962799
   5        -0.00000000
   6         0.00000000
   7         0.00000000
   8         0.61685185
   9         0.01769049
  10        -0.00000000
