[Molden Format]
[N_Atoms]
                     2
[Atoms] (AU)
F1          1      9           0.00000000      0.00000000      0.00000000
O2          2      8           0.00000000      0.00000000      2.45664396
[Charge] (Mulliken)
 -0.100738232332507     
  0.100738232332485     
[GTO] (AU)
   1
   s  14
  1.031094600E+05  1.713099991E-04
  1.528100700E+04  7.123999962E-04
  3.441539200E+03  2.990479984E-03
  9.670948300E+02  1.164036994E-02
  3.140353400E+02  3.968642979E-02
  1.134423000E+02  1.128546094E-01
  4.464472700E+01  2.473650687E-01
  1.894287400E+01  3.672702681E-01
  8.532743000E+00  2.896286985E-01
  3.919401000E+00  7.786681959E-02
  1.568157000E+00  4.562139976E-03
  6.232900000E-01  2.468879987E-03
  2.408610000E-01  1.106309994E-03
  8.430100000E-02  1.739699991E-04
   s  14
  1.031094600E+05 -4.044999995E-05
  1.528100700E+04 -1.682299998E-04
  3.441539200E+03 -7.084299991E-04
  9.670948300E+02 -2.767999996E-03
  3.140353400E+02 -9.611379987E-03
  1.134423000E+02 -2.833957996E-02
  4.464472700E+01 -6.839343991E-02
  1.894287400E+01 -1.237379298E-01
  8.532743000E+00 -1.512859698E-01
  3.919401000E+00 -9.099909988E-03
  1.568157000E+00  3.716257695E-01
  6.232900000E-01  5.500214393E-01
  2.408610000E-01  2.092318697E-01
  8.430100000E-02  8.074639989E-03
   p   9
  2.453302900E+02  1.024860004E-03
  5.691900500E+01  8.344290032E-03
  1.760456800E+01  4.078927016E-02
  6.274995000E+00  1.351370605E-01
  2.447030000E+00  2.798830811E-01
  9.950600000E-01  3.597966414E-01
  4.039730000E-01  3.055347412E-01
  1.548100000E-01  1.354703905E-01
  5.418400000E-02  2.804449011E-02
 
   2
   s  14
  1.053749500E+05  1.238600013E-04
  1.567924000E+04  5.120100053E-04
  3.534544700E+03  2.152910022E-03
  9.873651600E+02  8.528440089E-03
  3.159787500E+02  3.018049031E-02
  1.116542800E+02  9.099702095E-02
  4.269945100E+01  2.177936423E-01
  1.739559600E+01  3.686245738E-01
  7.438309000E+00  3.366707335E-01
  3.222862000E+00  9.657630101E-02
  1.253877000E+00  2.144520022E-03
  4.951550000E-01  1.194350012E-03
  1.916650000E-01  5.390200056E-04
  6.708300000E-02  2.103400022E-04
   s  14
  1.053749500E+05 -2.815000008E-05
  1.567924000E+04 -1.163000003E-04
  3.534544700E+03 -4.909200013E-04
  9.873651600E+02 -1.946160005E-03
  3.159787500E+02 -7.005300019E-03
  1.116542800E+02 -2.167814006E-02
  4.269945100E+01 -5.641213015E-02
  1.739559600E+01 -1.127053003E-01
  7.438309000E+00 -1.589119704E-01
  3.222862000E+00 -3.355083009E-02
  1.253877000E+00  3.531902810E-01
  4.951550000E-01  5.534199315E-01
  1.916650000E-01  2.301839106E-01
  6.708300000E-02  1.127267003E-02
   p   9
  2.000000000E+02  9.173000030E-04
  4.653336700E+01  7.377140024E-03
  1.462180900E+01  3.483515011E-02
  5.313064000E+00  1.144397004E-01
  2.102525000E+00  2.554966408E-01
  8.502230000E-01  3.722557412E-01
  3.375970000E-01  3.323314911E-01
  1.288920000E-01  1.400847905E-01
  4.511200000E-02  2.395784008E-02
 
[MO]
Sym=     1a  
Ene=   -26.4570
Spin= Alpha
Occup=    1.00000
   1         1.00001576
   2        -0.00290432
   3         0.00000000
   4        -0.00000000
   5         0.00119002
   6        -0.00005839
   7        -0.00054598
   8         0.00000000
   9        -0.00000000
  10         0.00029457
Sym=     1a  
Ene=   -26.4550
Spin= Beta
Occup=    1.00000
   1         1.00001404
   2        -0.00294071
   3        -0.00000000
   4         0.00000000
   5         0.00119329
   6        -0.00004412
   7        -0.00050656
   8         0.00000000
   9        -0.00000000
  10         0.00027002
Sym=     2a  
Ene=   -20.8750
Spin= Alpha
Occup=    1.00000
   1        -0.00014696
   2        -0.00081864
   3        -0.00000000
   4        -0.00000000
   5        -0.00038734
   6         1.00002566
   7         0.00093191
   8         0.00000000
   9        -0.00000000
  10        -0.00154963
Sym=     2a  
Ene=   -20.8370
Spin= Beta
Occup=    1.00000
   1        -0.00011545
   2        -0.00040686
   3        -0.00000000
   4        -0.00000000
   5        -0.00005828
   6         1.00000661
   7        -0.00119565
   8         0.00000000
   9        -0.00000000
  10        -0.00133111
Sym=     3a  
Ene=    -1.8135
Spin= Alpha
Occup=    1.00000
   1        -0.00999859
   2         0.74798237
   3        -0.00000000
   4         0.00000000
   5         0.12570354
   6        -0.01618180
   7         0.40733213
   8        -0.00000000
   9        -0.00000000
  10        -0.13918269
Sym=     3a  
Ene=    -1.7819
Spin= Beta
Occup=    1.00000
   1        -0.00765834
   2         0.81729499
   3        -0.00000000
   4         0.00000000
   5         0.13164399
   6        -0.01661158
   7         0.29938497
   8         0.00000000
   9        -0.00000000
  10        -0.13135375
Sym=     4a  
Ene=    -1.3547
Spin= Alpha
Occup=    1.00000
   1        -0.01503868
   2        -0.62201535
   3        -0.00000000
   4         0.00000000
   5         0.16035107
   6         0.00241615
   7         0.85119067
   8        -0.00000000
   9         0.00000000
  10         0.03867725
Sym=     4a  
Ene=    -1.2367
Spin= Beta
Occup=    1.00000
   1        -0.01571130
   2        -0.53689012
   3        -0.00000000
   4         0.00000000
   5         0.25536442
   6        -0.00084959
   7         0.84421907
   8         0.00000000
   9        -0.00000000
  10         0.01450183
Sym=     5a  
Ene=    -0.8702
Spin= Alpha
Occup=    1.00000
   1        -0.00000000
   2        -0.00000000
   3         0.63348028
   4        -0.19461902
   5        -0.00000000
   6         0.00000000
   7         0.00000000
   8         0.61235299
   9        -0.18812825
  10        -0.00000000
Sym=     5a  
Ene=    -0.8218
Spin= Beta
Occup=    1.00000
   1         0.00000000
   2         0.00000000
   3         0.24142637
   4         0.78583711
   5        -0.00000000
   6         0.00000000
   7         0.00000000
   8         0.12981164
   9         0.42253381
  10         0.00000000
Sym=     6a  
Ene=    -0.8341
Spin= Alpha
Occup=    1.00000
   1         0.00000000
   2         0.00000000
   3         0.22651435
   4         0.73729882
   5        -0.00000000
   6         0.00000000
   7         0.00000000
   8         0.15103418
   9         0.49161269
  10         0.00000000
Sym=     6a  
Ene=    -0.7562
Spin= Beta
Occup=    1.00000
   1         0.00000000
   2         0.00000000
   3         0.90926430
   4        -0.27934590
   5        -0.00000000
   6         0.00000000
   7         0.00000000
   8         0.17496103
   9        -0.05375186
  10         0.00000000
Sym=     7a  
Ene=    -0.7729
Spin= Alpha
Occup=    1.00000
   1         0.01923876
   2         0.25797727
   3         0.00000000
   4        -0.00000000
   5        -0.66587160
   6         0.02239152
   7         0.34542986
   8        -0.00000000
   9        -0.00000000
  10         0.61972911
Sym=     7a  
Ene=    -0.7556
Spin= Beta
Occup=    1.00000
   1        -0.01500648
   2        -0.19623148
   3         0.00000000
   4        -0.00000000
   5         0.70460792
   6        -0.02526775
   7        -0.44382980
   8         0.00000000
   9        -0.00000000
  10        -0.55629080
Sym=     8a  
Ene=    -0.6705
Spin= Alpha
Occup=    1.00000
   1         0.00000000
   2         0.00000000
   3        -0.73626203
   4         0.22619582
   5        -0.00000000
   6        -0.00000000
   7        -0.00000000
   8         0.75392497
   9        -0.23162226
  10         0.00000000
Sym=     8a  
Ene=    -0.5869
Spin= Beta
Occup=    1.00000
   1        -0.00000000
   2        -0.00000000
   3        -0.17536938
   4        -0.57082316
   5        -0.00000000
   6         0.00000000
   7         0.00000000
   8         0.26868206
   9         0.87455373
  10        -0.00000000
Sym=     9a  
Ene=    -0.6184
Spin= Alpha
Occup=    1.00000
   1        -0.00000000
   2        -0.00000000
   3        -0.19424820
   4        -0.63227328
   5        -0.00000000
   6         0.00000000
   7         0.00000000
   8         0.25735148
   9         0.83767298
  10        -0.00000000
Sym=     9a  
Ene=     0.0537
Spin= Beta
Occup=    0.00000
   1         0.00000000
   2         0.00000000
   3        -0.34149303
   4         0.10491414
   5        -0.00000000
   6         0.00000000
   7        -0.00000000
   8         0.95538876
   9        -0.29351635
  10         0.00000000
Sym=    10a  
Ene=     0.2229
Spin= Alpha
Occup=    0.00000
   1         0.04231925
   2         0.44464864
   3         0.00000000
   4        -0.00000000
   5         0.84787283
   6        -0.03778784
   7        -0.43223069
   8        -0.00000000
   9         0.00000000
  10         0.90176933
Sym=    10a  
Ene=     0.2582
Spin= Beta
Occup=    0.00000
   1         0.04427131
   2         0.46466849
   3         0.00000000
   4        -0.00000000
   5         0.79042638
   6        -0.03633140
   7        -0.44414813
   8         0.00000000
   9         0.00000000
  10         0.94403227
