[Molden Format]
[N_Atoms]
                     2
[Atoms] (AU)
LI1         1      3           0.00000000      0.00000000      0.00000000
LI2         2      3           0.00000000      0.00000000      1.32280829
[Charge] (Mulliken)
  4.969358258222201E-013
 -5.004885395010206E-013
[GTO] (AU)
   1
   s  14
  9.497934400E+03  9.668999974E-05
  1.416811200E+03  6.087099984E-04
  3.214599400E+02  3.101519992E-03
  9.112416300E+01  1.266904997E-02
  2.999989100E+01  4.248012989E-02
  1.101763100E+01  1.150183297E-01
  4.372801000E+00  2.398650094E-01
  1.831256000E+00  3.584300090E-01
  8.022610000E-01  3.048527792E-01
  3.626480000E-01  8.824261976E-02
  1.139950000E-01 -8.445899977E-04
  5.123700000E-02 -7.943959979E-03
  2.246800000E-02 -3.764419990E-03
  7.860000000E-03 -8.868999976E-05
   s  14
  9.497934400E+03 -1.244999993E-05
  1.416811200E+03 -7.838999954E-05
  3.214599400E+02 -4.007099976E-04
  9.112416300E+01 -1.645249990E-03
  2.999989100E+01 -5.634599967E-03
  1.101763100E+01 -1.590780991E-02
  4.372801000E+00 -3.612581979E-02
  1.831256000E+00 -6.459927962E-02
  8.022610000E-01 -1.008321794E-01
  3.626480000E-01 -9.757613942E-02
  1.139950000E-01  2.301215886E-01
  5.123700000E-02  6.102389764E-01
  2.246800000E-02  2.849406083E-01
  7.860000000E-03  4.026899976E-03
   p   9
  1.311950400E+01  1.524940000E-03
  3.077424200E+00  8.314830000E-03
  1.098800500E+00  1.933203000E-02
  4.357784000E-01  4.934293000E-02
  1.802432000E-01  1.623554000E-01
  7.613330000E-02  3.847505400E-01
  3.254650000E-02  4.336100400E-01
  1.401820000E-02  1.287005900E-01
  4.906400000E-03 -1.018520000E-03
 
   2
   s  14
  9.497934400E+03  9.668999974E-05
  1.416811200E+03  6.087099984E-04
  3.214599400E+02  3.101519992E-03
  9.112416300E+01  1.266904997E-02
  2.999989100E+01  4.248012989E-02
  1.101763100E+01  1.150183297E-01
  4.372801000E+00  2.398650094E-01
  1.831256000E+00  3.584300090E-01
  8.022610000E-01  3.048527792E-01
  3.626480000E-01  8.824261976E-02
  1.139950000E-01 -8.445899977E-04
  5.123700000E-02 -7.943959979E-03
  2.246800000E-02 -3.764419990E-03
  7.860000000E-03 -8.868999976E-05
   s  14
  9.497934400E+03 -1.244999993E-05
  1.416811200E+03 -7.838999954E-05
  3.214599400E+02 -4.007099976E-04
  9.112416300E+01 -1.645249990E-03
  2.999989100E+01 -5.634599967E-03
  1.101763100E+01 -1.590780991E-02
  4.372801000E+00 -3.612581979E-02
  1.831256000E+00 -6.459927962E-02
  8.022610000E-01 -1.008321794E-01
  3.626480000E-01 -9.757613942E-02
  1.139950000E-01  2.301215886E-01
  5.123700000E-02  6.102389764E-01
  2.246800000E-02  2.849406083E-01
  7.860000000E-03  4.026899976E-03
   p   9
  1.311950400E+01  1.524940000E-03
  3.077424200E+00  8.314830000E-03
  1.098800500E+00  1.933203000E-02
  4.357784000E-01  4.934293000E-02
  1.802432000E-01  1.623554000E-01
  7.613330000E-02  3.847505400E-01
  3.254650000E-02  4.336100400E-01
  1.401820000E-02  1.287005900E-01
  4.906400000E-03 -1.018520000E-03
 
[MO]
Sym=     1a  
Ene=    -3.3236
Spin= Alpha
Occup=    2.00000
   1         0.63289111
   2        -0.00510947
   3        -0.00000000
   4         0.00000000
   5        -0.02844472
   6         0.63289111
   7        -0.00510947
   8         0.00000000
   9        -0.00000000
  10         0.02844472
Sym=     2a  
Ene=    -2.4410
Spin= Alpha
Occup=    2.00000
   1        -0.74768014
   2         0.33187285
   3        -0.00000000
   4         0.00000000
   5         0.05437026
   6         0.74768014
   7        -0.33187285
   8         0.00000000
   9        -0.00000000
  10         0.05437026
Sym=     3a  
Ene=    -0.2334
Spin= Alpha
Occup=    1.83685
   1        -0.06319661
   2         0.49812795
   3        -0.00000000
   4        -0.00000000
   5         0.11498676
   6        -0.06319661
   7         0.49812795
   8         0.00000000
   9        -0.00000000
  10        -0.11498676
Sym=     4a  
Ene=    -0.0000
Spin= Alpha
Occup=    0.16315
   1         0.00000000
   2        -0.00000000
   3         0.46784310
   4        -0.19429045
   5        -0.00000000
   6         0.00000000
   7         0.00000000
   8         0.46784310
   9        -0.19429045
  10         0.00000000
Sym=     5a  
Ene=    -0.0163
Spin= Alpha
Occup=    0.00000
   1        -0.00000000
   2         0.00000000
   3         0.19429045
   4         0.46784310
   5        -0.00000000
   6         0.00000000
   7        -0.00000000
   8         0.19429045
   9         0.46784310
  10        -0.00000000
Sym=     6a  
Ene=     0.0206
Spin= Alpha
Occup=    0.00000
   1         0.00713379
   2        -0.64331926
   3        -0.00000000
   4         0.00000000
   5         0.43376612
   6        -0.00713379
   7         0.64331926
   8         0.00000000
   9         0.00000000
  10         0.43376612
Sym=     7a  
Ene=     0.2085
Spin= Alpha
Occup=    0.00000
   1        -0.00000000
   2         0.00000000
   3        -1.19343185
   4        -2.87373295
   5         0.00000000
   6        -0.00000000
   7        -0.00000000
   8         1.19343185
   9         2.87373295
  10        -0.00000000
Sym=     8a  
Ene=     0.2087
Spin= Alpha
Occup=    0.00000
   1        -0.00000000
   2        -0.00000000
   3        -2.87373295
   4         1.19343185
   5         0.00000000
   6        -0.00000000
   7        -0.00000000
   8         2.87373295
   9        -1.19343185
  10        -0.00000000
Sym=     9a  
Ene=     0.2584
Spin= Alpha
Occup=    0.00000
   1         0.33260170
   2         0.26236408
   3        -0.00000000
   4         0.00000000
   5        -2.27853251
   6         0.33260170
   7         0.26236408
   8         0.00000000
   9        -0.00000000
  10         2.27853251
Sym=    10a  
Ene=     1.7800
Spin= Alpha
Occup=    0.00000
   1        -2.78813921
   2       -11.89108896
   3        -0.00000000
   4        -0.00000000
   5        -1.75831191
   6         2.78813921
   7        11.89108896
   8         0.00000000
   9        -0.00000000
  10        -1.75831191
