[Molden Format]
[N_Atoms]
                     2
[Atoms] (AU)
LI1         1      3           0.00000000      0.00000000      0.00000000
LI2         2      3           0.00000000      0.00000000      1.32280829
[Charge] (Mulliken)
   1.00001220862588     
  0.999987791374113     
[GTO] (AU)
   1
   s  14
  9.497934400E+03  9.668999974E-05
  1.416811200E+03  6.087099984E-04
  3.214599400E+02  3.101519992E-03
  9.112416300E+01  1.266904997E-02
  2.999989100E+01  4.248012989E-02
  1.101763100E+01  1.150183297E-01
  4.372801000E+00  2.398650094E-01
  1.831256000E+00  3.584300090E-01
  8.022610000E-01  3.048527792E-01
  3.626480000E-01  8.824261976E-02
  1.139950000E-01 -8.445899977E-04
  5.123700000E-02 -7.943959979E-03
  2.246800000E-02 -3.764419990E-03
  7.860000000E-03 -8.868999976E-05
   s  14
  9.497934400E+03 -1.244999993E-05
  1.416811200E+03 -7.838999954E-05
  3.214599400E+02 -4.007099976E-04
  9.112416300E+01 -1.645249990E-03
  2.999989100E+01 -5.634599967E-03
  1.101763100E+01 -1.590780991E-02
  4.372801000E+00 -3.612581979E-02
  1.831256000E+00 -6.459927962E-02
  8.022610000E-01 -1.008321794E-01
  3.626480000E-01 -9.757613942E-02
  1.139950000E-01  2.301215886E-01
  5.123700000E-02  6.102389764E-01
  2.246800000E-02  2.849406083E-01
  7.860000000E-03  4.026899976E-03
   p   9
  1.311950400E+01  1.524940000E-03
  3.077424200E+00  8.314830000E-03
  1.098800500E+00  1.933203000E-02
  4.357784000E-01  4.934293000E-02
  1.802432000E-01  1.623554000E-01
  7.613330000E-02  3.847505400E-01
  3.254650000E-02  4.336100400E-01
  1.401820000E-02  1.287005900E-01
  4.906400000E-03 -1.018520000E-03
 
   2
   s  14
  9.497934400E+03  9.668999974E-05
  1.416811200E+03  6.087099984E-04
  3.214599400E+02  3.101519992E-03
  9.112416300E+01  1.266904997E-02
  2.999989100E+01  4.248012989E-02
  1.101763100E+01  1.150183297E-01
  4.372801000E+00  2.398650094E-01
  1.831256000E+00  3.584300090E-01
  8.022610000E-01  3.048527792E-01
  3.626480000E-01  8.824261976E-02
  1.139950000E-01 -8.445899977E-04
  5.123700000E-02 -7.943959979E-03
  2.246800000E-02 -3.764419990E-03
  7.860000000E-03 -8.868999976E-05
   s  14
  9.497934400E+03 -1.244999993E-05
  1.416811200E+03 -7.838999954E-05
  3.214599400E+02 -4.007099976E-04
  9.112416300E+01 -1.645249990E-03
  2.999989100E+01 -5.634599967E-03
  1.101763100E+01 -1.590780991E-02
  4.372801000E+00 -3.612581979E-02
  1.831256000E+00 -6.459927962E-02
  8.022610000E-01 -1.008321794E-01
  3.626480000E-01 -9.757613942E-02
  1.139950000E-01  2.301215886E-01
  5.123700000E-02  6.102389764E-01
  2.246800000E-02  2.849406083E-01
  7.860000000E-03  4.026899976E-03
   p   9
  1.311950400E+01  1.524940000E-03
  3.077424200E+00  8.314830000E-03
  1.098800500E+00  1.933203000E-02
  4.357784000E-01  4.934293000E-02
  1.802432000E-01  1.623554000E-01
  7.613330000E-02  3.847505400E-01
  3.254650000E-02  4.336100400E-01
  1.401820000E-02  1.287005900E-01
  4.906400000E-03 -1.018520000E-03
 
[MO]
Sym=     1a  
Ene=    -3.9319
Spin= Alpha
Occup=    2.00000
   1         0.62916702
   2        -0.00205883
   3        -0.00000000
   4         0.00000000
   5        -0.02675058
   6         0.63581832
   7        -0.00471430
   8        -0.00000000
   9        -0.00000000
  10         0.02717748
Sym=     2a  
Ene=    -3.0494
Spin= Alpha
Occup=    1.99995
   1        -0.75781271
   2         0.30226434
   3        -0.00000000
   4         0.00000000
   5         0.04870131
   6         0.75224575
   7        -0.30223469
   8         0.00000000
   9        -0.00000000
  10         0.04848642
Sym=     3a  
Ene=     0.0000
Spin= Alpha
Occup=    0.00005
   1        -0.34592521
   2        -0.08482223
   3        -0.00000000
   4         0.00000000
   5         2.03284913
   6        -0.29983582
   7         0.10930730
   8         0.00000000
   9        -0.00000000
  10        -2.06358520
Sym=     4a  
Ene=    -0.3955
Spin= Alpha
Occup=    0.00000
   1         0.00000000
   2         0.00000000
   3         0.50511731
   4         0.03850592
   5        -0.00000000
   6         0.00000000
   7         0.00000000
   8         0.50511679
   9         0.03850588
  10         0.00000000
Sym=     5a  
Ene=    -0.3955
Spin= Alpha
Occup=    0.00000
   1        -0.00000000
   2        -0.00000000
   3        -0.03850592
   4         0.50511731
   5         0.00000000
   6        -0.00000000
   7        -0.00000000
   8        -0.03850588
   9         0.50511679
  10        -0.00000000
Sym=     6a  
Ene=    -0.3874
Spin= Alpha
Occup=    0.00000
   1         0.10649077
   2         0.56790653
   3        -0.00000000
   4         0.00000000
   5        -1.00008648
   6         0.10186307
   7         0.55781889
   8        -0.00000000
   9         0.00000000
  10         1.00927102
Sym=     7a  
Ene=    -0.3470
Spin= Alpha
Occup=    0.00000
   1         0.03506148
   2        -0.51281861
   3         0.00000000
   4        -0.00000000
   5         0.46506655
   6        -0.03787800
   7         0.50467100
   8         0.00000000
   9         0.00000000
  10         0.44219174
Sym=     8a  
Ene=    -0.2006
Spin= Alpha
Occup=    0.00000
   1        -0.00000000
   2        -0.00000000
   3        -0.45581373
   4        -3.07812511
   5         0.00000000
   6        -0.00000000
   7        -0.00000000
   8         0.45581374
   9         3.07812520
  10        -0.00000000
Sym=     9a  
Ene=    -0.2006
Spin= Alpha
Occup=    0.00000
   1         0.00000000
   2         0.00000000
   3        -3.07812511
   4         0.45581373
   5        -0.00000000
   6         0.00000000
   7        -0.00000000
   8         3.07812520
   9        -0.45581374
  10         0.00000000
Sym=    10a  
Ene=     1.2515
Spin= Alpha
Occup=    0.00000
   1        -2.78309189
   2       -11.89768570
   3        -0.00000000
   4        -0.00000000
   5        -1.77101343
   6         2.78856856
   7        11.89831155
   8         0.00000000
   9        -0.00000000
  10        -1.73576394
