[Molden Format]
[N_Atoms]
                     2
[Atoms] (AU)
LI1         1      3           0.00000000      0.00000000      0.00000000
LI2         2      3           0.00000000      0.00000000      1.32280829
[Charge] (Mulliken)
 -1.070699084948501E-012
  1.068034549689401E-012
[GTO] (AU)
   1
   s  14
  9.497934400E+03  9.668999974E-05
  1.416811200E+03  6.087099984E-04
  3.214599400E+02  3.101519992E-03
  9.112416300E+01  1.266904997E-02
  2.999989100E+01  4.248012989E-02
  1.101763100E+01  1.150183297E-01
  4.372801000E+00  2.398650094E-01
  1.831256000E+00  3.584300090E-01
  8.022610000E-01  3.048527792E-01
  3.626480000E-01  8.824261976E-02
  1.139950000E-01 -8.445899977E-04
  5.123700000E-02 -7.943959979E-03
  2.246800000E-02 -3.764419990E-03
  7.860000000E-03 -8.868999976E-05
   s  14
  9.497934400E+03 -1.244999993E-05
  1.416811200E+03 -7.838999954E-05
  3.214599400E+02 -4.007099976E-04
  9.112416300E+01 -1.645249990E-03
  2.999989100E+01 -5.634599967E-03
  1.101763100E+01 -1.590780991E-02
  4.372801000E+00 -3.612581979E-02
  1.831256000E+00 -6.459927962E-02
  8.022610000E-01 -1.008321794E-01
  3.626480000E-01 -9.757613942E-02
  1.139950000E-01  2.301215886E-01
  5.123700000E-02  6.102389764E-01
  2.246800000E-02  2.849406083E-01
  7.860000000E-03  4.026899976E-03
   p   9
  1.311950400E+01  1.524940000E-03
  3.077424200E+00  8.314830000E-03
  1.098800500E+00  1.933203000E-02
  4.357784000E-01  4.934293000E-02
  1.802432000E-01  1.623554000E-01
  7.613330000E-02  3.847505400E-01
  3.254650000E-02  4.336100400E-01
  1.401820000E-02  1.287005900E-01
  4.906400000E-03 -1.018520000E-03
 
   2
   s  14
  9.497934400E+03  9.668999974E-05
  1.416811200E+03  6.087099984E-04
  3.214599400E+02  3.101519992E-03
  9.112416300E+01  1.266904997E-02
  2.999989100E+01  4.248012989E-02
  1.101763100E+01  1.150183297E-01
  4.372801000E+00  2.398650094E-01
  1.831256000E+00  3.584300090E-01
  8.022610000E-01  3.048527792E-01
  3.626480000E-01  8.824261976E-02
  1.139950000E-01 -8.445899977E-04
  5.123700000E-02 -7.943959979E-03
  2.246800000E-02 -3.764419990E-03
  7.860000000E-03 -8.868999976E-05
   s  14
  9.497934400E+03 -1.244999993E-05
  1.416811200E+03 -7.838999954E-05
  3.214599400E+02 -4.007099976E-04
  9.112416300E+01 -1.645249990E-03
  2.999989100E+01 -5.634599967E-03
  1.101763100E+01 -1.590780991E-02
  4.372801000E+00 -3.612581979E-02
  1.831256000E+00 -6.459927962E-02
  8.022610000E-01 -1.008321794E-01
  3.626480000E-01 -9.757613942E-02
  1.139950000E-01  2.301215886E-01
  5.123700000E-02  6.102389764E-01
  2.246800000E-02  2.849406083E-01
  7.860000000E-03  4.026899976E-03
   p   9
  1.311950400E+01  1.524940000E-03
  3.077424200E+00  8.314830000E-03
  1.098800500E+00  1.933203000E-02
  4.357784000E-01  4.934293000E-02
  1.802432000E-01  1.623554000E-01
  7.613330000E-02  3.847505400E-01
  3.254650000E-02  4.336100400E-01
  1.401820000E-02  1.287005900E-01
  4.906400000E-03 -1.018520000E-03
 
[MO]
Sym=     1a  
Ene=    -3.3203
Spin= Alpha
Occup=    1.00000
   1         0.63265722
   2        -0.00326177
   3         0.00000000
   4        -0.00000000
   5        -0.02804902
   6         0.63265722
   7        -0.00326177
   8        -0.00000000
   9         0.00000000
  10         0.02804902
Sym=     1a  
Ene=    -3.3203
Spin= Beta
Occup=    1.00000
   1         0.63265722
   2        -0.00326177
   3         0.00000000
   4        -0.00000000
   5        -0.02804902
   6         0.63265722
   7        -0.00326177
   8        -0.00000000
   9         0.00000000
  10         0.02804902
Sym=     2a  
Ene=    -2.4374
Spin= Alpha
Occup=    1.00000
   1        -0.74786015
   2         0.33108088
   3         0.00000000
   4         0.00000000
   5         0.05427218
   6         0.74786015
   7        -0.33108088
   8        -0.00000000
   9        -0.00000000
  10         0.05427218
Sym=     2a  
Ene=    -2.4374
Spin= Beta
Occup=    1.00000
   1        -0.74786015
   2         0.33108088
   3         0.00000000
   4         0.00000000
   5         0.05427218
   6         0.74786015
   7        -0.33108088
   8        -0.00000000
   9        -0.00000000
  10         0.05427218
Sym=     3a  
Ene=    -0.2460
Spin= Alpha
Occup=    1.00000
   1        -0.06130194
   2         0.50144155
   3         0.00000000
   4         0.00000000
   5         0.08608904
   6        -0.06130194
   7         0.50144155
   8         0.00000000
   9         0.00000000
  10        -0.08608904
Sym=     3a  
Ene=    -0.2460
Spin= Beta
Occup=    1.00000
   1        -0.06130194
   2         0.50144155
   3         0.00000000
   4         0.00000000
   5         0.08608904
   6        -0.06130194
   7         0.50144155
   8         0.00000000
   9         0.00000000
  10        -0.08608904
Sym=     4a  
Ene=    -0.0160
Spin= Alpha
Occup=    0.00000
   1         0.00000000
   2         0.00000000
   3         0.50612699
   4         0.02148045
   5        -0.00000000
   6         0.00000000
   7        -0.00000000
   8         0.50612699
   9         0.02148045
  10         0.00000000
Sym=     4a  
Ene=    -0.0160
Spin= Beta
Occup=    0.00000
   1         0.00000000
   2         0.00000000
   3         0.50612699
   4         0.02148045
   5        -0.00000000
   6         0.00000000
   7        -0.00000000
   8         0.50612699
   9         0.02148045
  10         0.00000000
Sym=     5a  
Ene=    -0.0160
Spin= Alpha
Occup=    0.00000
   1        -0.00000000
   2         0.00000000
   3        -0.02148045
   4         0.50612699
   5        -0.00000000
   6         0.00000000
   7        -0.00000000
   8        -0.02148045
   9         0.50612699
  10        -0.00000000
Sym=     5a  
Ene=    -0.0160
Spin= Beta
Occup=    0.00000
   1        -0.00000000
   2         0.00000000
   3        -0.02148045
   4         0.50612699
   5        -0.00000000
   6         0.00000000
   7        -0.00000000
   8        -0.02148045
   9         0.50612699
  10        -0.00000000
Sym=     6a  
Ene=     0.0207
Spin= Alpha
Occup=    0.00000
   1         0.00714841
   2        -0.64338356
   3         0.00000000
   4         0.00000000
   5         0.43375642
   6        -0.00714841
   7         0.64338356
   8         0.00000000
   9         0.00000000
  10         0.43375642
Sym=     6a  
Ene=     0.0207
Spin= Beta
Occup=    0.00000
   1         0.00714841
   2        -0.64338356
   3         0.00000000
   4         0.00000000
   5         0.43375642
   6        -0.00714841
   7         0.64338356
   8         0.00000000
   9         0.00000000
  10         0.43375642
Sym=     7a  
Ene=     0.2109
Spin= Alpha
Occup=    0.00000
   1        -0.00000000
   2         0.00000000
   3        -0.58763324
   4        -3.05570087
   5         0.00000000
   6        -0.00000000
   7        -0.00000000
   8         0.58763324
   9         3.05570087
  10        -0.00000000
Sym=     7a  
Ene=     0.2109
Spin= Beta
Occup=    0.00000
   1        -0.00000000
   2         0.00000000
   3        -0.58763324
   4        -3.05570087
   5         0.00000000
   6        -0.00000000
   7        -0.00000000
   8         0.58763324
   9         3.05570087
  10        -0.00000000
Sym=     8a  
Ene=     0.2109
Spin= Alpha
Occup=    0.00000
   1        -0.00000000
   2        -0.00000000
   3        -3.05570087
   4         0.58763324
   5         0.00000000
   6        -0.00000000
   7        -0.00000000
   8         3.05570087
   9        -0.58763324
  10        -0.00000000
Sym=     8a  
Ene=     0.2109
Spin= Beta
Occup=    0.00000
   1        -0.00000000
   2        -0.00000000
   3        -3.05570087
   4         0.58763324
   5         0.00000000
   6        -0.00000000
   7        -0.00000000
   8         3.05570087
   9        -0.58763324
  10        -0.00000000
Sym=     9a  
Ene=     0.2609
Spin= Alpha
Occup=    0.00000
   1         0.33340033
   2         0.25600432
   3        -0.00000000
   4         0.00000000
   5        -2.27981214
   6         0.33340033
   7         0.25600432
   8         0.00000000
   9        -0.00000000
  10         2.27981214
Sym=     9a  
Ene=     0.2609
Spin= Beta
Occup=    0.00000
   1         0.33340033
   2         0.25600432
   3        -0.00000000
   4         0.00000000
   5        -2.27981214
   6         0.33340033
   7         0.25600432
   8         0.00000000
   9        -0.00000000
  10         2.27981214
Sym=    10a  
Ene=     1.7832
Spin= Alpha
Occup=    0.00000
   1        -2.78809089
   2       -11.89110756
   3        -0.00000000
   4        -0.00000000
   5        -1.75831734
   6         2.78809089
   7        11.89110756
   8         0.00000000
   9         0.00000000
  10        -1.75831734
Sym=    10a  
Ene=     1.7832
Spin= Beta
Occup=    0.00000
   1        -2.78809089
   2       -11.89110756
   3        -0.00000000
   4        -0.00000000
   5        -1.75831734
   6         2.78809089
   7        11.89110756
   8         0.00000000
   9         0.00000000
  10        -1.75831734
