[Molden Format]
[N_Atoms]
                     2
[Atoms] (AU)
C1          1      6           0.00000000      0.00000000      0.00000000
N2          2      7           0.00000000      0.00000000      1.32280829
[Charge] (Mulliken)
  0.619820479512754     
 -0.619820479512784     
[GTO] (AU)
   1
   s  14
  5.055750100E+04  1.128874000E-04
  7.524785600E+03  5.295373000E-04
  1.694327600E+03  2.450038300E-03
  4.728227900E+02  1.005398470E-02
  1.517107500E+02  3.545398060E-02
  5.391874600E+01  1.044071086E-01
  2.065931100E+01  2.412894918E-01
  8.383976000E+00  3.834225483E-01
  3.577015000E+00  3.078514393E-01
  1.547118000E+00  6.872442990E-02
  6.130130000E-01  2.224445000E-04
  2.460680000E-01  1.976748900E-03
  9.908700000E-02  2.057859400E-03
  3.468000000E-02  4.182020000E-04
   s  14
  5.055750100E+04 -2.507420000E-05
  7.524785600E+03 -1.175945000E-04
  1.694327600E+03 -5.456275000E-04
  4.728227900E+02 -2.245077100E-03
  1.517107500E+02 -8.043471800E-03
  5.391874600E+01 -2.442588710E-02
  2.065931100E+01 -6.136791180E-02
  8.383976000E+00 -1.177767835E-01
  3.577015000E+00 -1.550487783E-01
  1.547118000E+00 -1.933316860E-02
  6.130130000E-01  3.996930678E-01
  2.460680000E-01  5.589420949E-01
  9.908700000E-02  1.711195023E-01
  3.468000000E-02  7.456244600E-03
   p   9
  8.333315500E+01  1.344656000E-03
  1.955761100E+01  1.023555500E-02
  6.080365000E+00  4.520067100E-02
  2.179317000E+00  1.410756198E-01
  8.651500000E-01  3.047388085E-01
  3.619440000E-01  3.995281011E-01
  1.547400000E-01  2.719163432E-01
  6.542900000E-02  5.857669330E-02
  2.290000000E-02 -1.263813000E-04
 
   2
   s  14
  7.476171500E+04  1.182599996E-04
  1.112365400E+04  5.172899983E-04
  2.512685700E+03  2.266659992E-03
  7.037772900E+02  9.145289970E-03
  2.254787900E+02  3.239342989E-02
  7.961581000E+01  9.770792967E-02
  3.023728300E+01  2.317036792E-01
  1.226362200E+01  3.768898887E-01
  5.265086000E+00  3.177420689E-01
  2.333471000E+00  8.211308973E-02
  9.018560000E-01  3.312089989E-03
  3.583360000E-01  3.720819988E-03
  1.410930000E-01  3.165419989E-03
  4.938300000E-02  4.595799985E-04
   s  14
  7.476171500E+04 -2.707000010E-05
  1.112365400E+04 -1.183700004E-04
  2.512685700E+03 -5.203800020E-04
  7.037772900E+02 -2.102930008E-03
  2.254787900E+02 -7.568200028E-03
  7.961581000E+01 -2.346767009E-02
  3.023728300E+01 -6.042901023E-02
  1.226362200E+01 -1.170549104E-01
  5.265086000E+00 -1.555321506E-01
  2.333471000E+00 -2.468935009E-02
  9.018560000E-01  3.625054514E-01
  3.583360000E-01  5.550845021E-01
  1.410930000E-01  2.148376908E-01
  4.938300000E-02  8.983850034E-03
   p   9
  1.266665700E+02  1.233630000E-03
  2.983738900E+01  9.493409996E-03
  9.394038000E+00  4.293961998E-02
  3.405104000E+00  1.362925399E-01
  1.350000000E+00  2.921362499E-01
  5.576960000E-01  3.887887598E-01
  2.324490000E-01  2.946801399E-01
  9.426400000E-02  8.012875997E-02
  3.299200000E-02  5.405199998E-04
 
[MO]
Sym=     1a  
Ene=   -15.9870
Spin= Alpha
Occup=    1.00000
   1         0.00304677
   2        -0.02057903
   3         0.00000000
   4        -0.00000000
   5        -0.00518392
   6         1.00396903
   7         0.01511446
   8        -0.00000000
   9         0.00000000
  10        -0.01701976
Sym=     1a  
Ene=   -15.9860
Spin= Beta
Occup=    1.00000
   1         0.00247512
   2        -0.02133967
   3         0.00000000
   4        -0.00000000
   5        -0.00575458
   6         1.00421479
   7         0.01636728
   8        -0.00000000
   9        -0.00000000
  10        -0.01732115
Sym=     2a  
Ene=   -11.8850
Spin= Alpha
Occup=    1.00000
   1         0.99533796
   2        -0.00820387
   3         0.00000000
   4         0.00000000
   5         0.00686443
   6        -0.02446882
   7         0.00668664
   8         0.00000000
   9        -0.00000000
  10        -0.01284401
Sym=     2a  
Ene=   -11.8520
Spin= Beta
Occup=    1.00000
   1         0.99613615
   2        -0.00743839
   3        -0.00000000
   4         0.00000000
   5         0.00899035
   6        -0.02478877
   7         0.00413247
   8        -0.00000000
   9        -0.00000000
  10        -0.01160218
Sym=     3a  
Ene=    -1.5728
Spin= Alpha
Occup=    1.00000
   1        -0.24923722
   2         0.14641942
   3         0.00000000
   4         0.00000000
   5         0.29127849
   6        -0.08229434
   7         0.62035445
   8        -0.00000000
   9         0.00000000
  10        -0.48843471
Sym=     3a  
Ene=    -1.5561
Spin= Beta
Occup=    1.00000
   1        -0.24932040
   2         0.12298519
   3         0.00000000
   4         0.00000000
   5         0.30721739
   6        -0.08259092
   7         0.63486134
   8         0.00000000
   9         0.00000000
  10        -0.48196677
Sym=     4a  
Ene=    -0.8832
Spin= Alpha
Occup=    1.00000
   1        -0.00000000
   2        -0.00000000
   3         0.56963723
   4         0.01372699
   5         0.00000000
   6        -0.00000000
   7        -0.00000000
   8         0.54105528
   9         0.01303823
  10        -0.00000000
Sym=     4a  
Ene=    -0.8602
Spin= Beta
Occup=    1.00000
   1        -0.00000000
   2        -0.00000000
   3         0.49952073
   4         0.01278465
   5         0.00000000
   6        -0.00000000
   7        -0.00000000
   8         0.60992900
   9         0.01561042
  10        -0.00000000
Sym=     5a  
Ene=    -0.8832
Spin= Alpha
Occup=    1.00000
   1         0.00000000
   2        -0.00000000
   3        -0.01372699
   4         0.56963723
   5         0.00000000
   6         0.00000000
   7         0.00000000
   8        -0.01303823
   9         0.54105528
  10         0.00000000
Sym=     5a  
Ene=    -0.8602
Spin= Beta
Occup=    1.00000
   1         0.00000000
   2        -0.00000000
   3        -0.01278465
   4         0.49952073
   5        -0.00000000
   6         0.00000000
   7         0.00000000
   8        -0.01561042
   9         0.60992900
  10         0.00000000
Sym=     6a  
Ene=    -0.8027
Spin= Alpha
Occup=    1.00000
   1         0.09310668
   2         0.76556144
   3         0.00000000
   4         0.00000000
   5        -0.76665128
   6         0.05711576
   7        -0.07546974
   8         0.00000000
   9         0.00000000
  10         0.27265713
Sym=     6a  
Ene=    -0.6366
Spin= Beta
Occup=    1.00000
   1         0.13138318
   2        -0.01239166
   3         0.00000000
   4        -0.00000000
   5        -0.22058087
   6         0.05635145
   7         0.61109867
   8         0.00000000
   9        -0.00000000
  10         0.88633046
Sym=     7a  
Ene=    -0.6305
Spin= Alpha
Occup=    1.00000
   1         0.12082764
   2        -0.07074855
   3         0.00000000
   4        -0.00000000
   5        -0.15826081
   6         0.05141628
   7         0.62911277
   8         0.00000000
   9        -0.00000000
  10         0.86033912
Sym=     7a  
Ene=    -0.0831
Spin= Beta
Occup=    0.00000
   1        -0.11455670
   2        -0.88884434
   3         0.00000000
   4         0.00000000
   5         0.67491745
   6        -0.01829360
   7         0.23219522
   8        -0.00000000
   9        -0.00000000
  10        -0.24173676
Sym=     8a  
Ene=     0.4677
Spin= Alpha
Occup=    0.00000
   1        -0.00000000
   2        -0.00000000
   3         0.04127997
   4        -1.13936239
   5        -0.00000000
   6         0.00000000
   7         0.00000000
   8        -0.04178130
   9         1.15319956
  10        -0.00000000
Sym=     8a  
Ene=     0.5210
Spin= Beta
Occup=    0.00000
   1        -0.00000000
   2        -0.00000000
   3         0.06806580
   4        -1.17055899
   5        -0.00000000
   6         0.00000000
   7         0.00000000
   8        -0.06496081
   9         1.11716101
  10        -0.00000000
Sym=     9a  
Ene=     0.4677
Spin= Alpha
Occup=    0.00000
   1         0.00000000
   2         0.00000000
   3         1.13936239
   4         0.04127997
   5        -0.00000000
   6        -0.00000000
   7        -0.00000000
   8        -1.15319956
   9        -0.04178130
  10         0.00000000
Sym=     9a  
Ene=     0.5210
Spin= Beta
Occup=    0.00000
   1         0.00000000
   2         0.00000000
   3         1.17055899
   4         0.06806580
   5        -0.00000000
   6        -0.00000000
   7        -0.00000000
   8        -1.11716101
   9        -0.06496081
  10         0.00000000
Sym=    10a  
Ene=     2.2801
Spin= Alpha
Occup=    0.00000
   1         1.26331965
   2         4.06349934
   3        -0.00000000
   4        -0.00000000
   5         2.39309397
   6        -1.12305615
   7        -4.37322556
   8        -0.00000000
   9         0.00000000
  10         1.72453063
Sym=    10a  
Ene=     2.3309
Spin= Beta
Occup=    0.00000
   1         1.25985398
   2         4.03970446
   3        -0.00000000
   4        -0.00000000
   5         2.41370060
   6        -1.12387393
   7        -4.36818075
   8         0.00000000
   9         0.00000000
  10         1.71779200
