[Molden Format]
[N_Atoms]
                     2
[Atoms] (AU)
F1          1      9           0.00000000      0.00000000      0.00000000
F2          2      9           0.00000000      0.00000000      1.13383567
[Charge] (Mulliken)
 -1.579181230226823E-012
  1.559641304993420E-012
[GTO] (AU)
   1
   s  14
  1.031094600E+05  1.713099991E-04
  1.528100700E+04  7.123999962E-04
  3.441539200E+03  2.990479984E-03
  9.670948300E+02  1.164036994E-02
  3.140353400E+02  3.968642979E-02
  1.134423000E+02  1.128546094E-01
  4.464472700E+01  2.473650687E-01
  1.894287400E+01  3.672702681E-01
  8.532743000E+00  2.896286985E-01
  3.919401000E+00  7.786681959E-02
  1.568157000E+00  4.562139976E-03
  6.232900000E-01  2.468879987E-03
  2.408610000E-01  1.106309994E-03
  8.430100000E-02  1.739699991E-04
   s  14
  1.031094600E+05 -4.044999995E-05
  1.528100700E+04 -1.682299998E-04
  3.441539200E+03 -7.084299991E-04
  9.670948300E+02 -2.767999996E-03
  3.140353400E+02 -9.611379987E-03
  1.134423000E+02 -2.833957996E-02
  4.464472700E+01 -6.839343991E-02
  1.894287400E+01 -1.237379298E-01
  8.532743000E+00 -1.512859698E-01
  3.919401000E+00 -9.099909988E-03
  1.568157000E+00  3.716257695E-01
  6.232900000E-01  5.500214393E-01
  2.408610000E-01  2.092318697E-01
  8.430100000E-02  8.074639989E-03
   p   9
  2.453302900E+02  1.024860004E-03
  5.691900500E+01  8.344290032E-03
  1.760456800E+01  4.078927016E-02
  6.274995000E+00  1.351370605E-01
  2.447030000E+00  2.798830811E-01
  9.950600000E-01  3.597966414E-01
  4.039730000E-01  3.055347412E-01
  1.548100000E-01  1.354703905E-01
  5.418400000E-02  2.804449011E-02
 
   2
   s  14
  1.031094600E+05  1.713099991E-04
  1.528100700E+04  7.123999962E-04
  3.441539200E+03  2.990479984E-03
  9.670948300E+02  1.164036994E-02
  3.140353400E+02  3.968642979E-02
  1.134423000E+02  1.128546094E-01
  4.464472700E+01  2.473650687E-01
  1.894287400E+01  3.672702681E-01
  8.532743000E+00  2.896286985E-01
  3.919401000E+00  7.786681959E-02
  1.568157000E+00  4.562139976E-03
  6.232900000E-01  2.468879987E-03
  2.408610000E-01  1.106309994E-03
  8.430100000E-02  1.739699991E-04
   s  14
  1.031094600E+05 -4.044999995E-05
  1.528100700E+04 -1.682299998E-04
  3.441539200E+03 -7.084299991E-04
  9.670948300E+02 -2.767999996E-03
  3.140353400E+02 -9.611379987E-03
  1.134423000E+02 -2.833957996E-02
  4.464472700E+01 -6.839343991E-02
  1.894287400E+01 -1.237379298E-01
  8.532743000E+00 -1.512859698E-01
  3.919401000E+00 -9.099909988E-03
  1.568157000E+00  3.716257695E-01
  6.232900000E-01  5.500214393E-01
  2.408610000E-01  2.092318697E-01
  8.430100000E-02  8.074639989E-03
   p   9
  2.453302900E+02  1.024860004E-03
  5.691900500E+01  8.344290032E-03
  1.760456800E+01  4.078927016E-02
  6.274995000E+00  1.351370605E-01
  2.447030000E+00  2.798830811E-01
  9.950600000E-01  3.597966414E-01
  4.039730000E-01  3.055347412E-01
  1.548100000E-01  1.354703905E-01
  5.418400000E-02  2.804449011E-02
 
[MO]
Sym=     1a  
Ene=   -27.0270
Spin= Alpha
Occup=    1.00000
   1         0.70426690
   2        -0.00251285
   3        -0.00000000
   4        -0.00000000
   5         0.00814556
   6         0.70426690
   7        -0.00251285
   8         0.00000000
   9         0.00000000
  10        -0.00814556
Sym=     1a  
Ene=   -27.0270
Spin= Beta
Occup=    1.00000
   1         0.70426690
   2        -0.00251285
   3        -0.00000000
   4        -0.00000000
   5         0.00814556
   6         0.70426690
   7        -0.00251285
   8         0.00000000
   9         0.00000000
  10        -0.00814556
Sym=     2a  
Ene=   -26.9620
Spin= Alpha
Occup=    1.00000
   1        -0.71239658
   2        -0.01398752
   3        -0.00000000
   4        -0.00000000
   5        -0.01061091
   6         0.71239658
   7         0.01398752
   8         0.00000000
   9         0.00000000
  10        -0.01061091
Sym=     2a  
Ene=   -26.9620
Spin= Beta
Occup=    1.00000
   1        -0.71239658
   2        -0.01398752
   3        -0.00000000
   4        -0.00000000
   5        -0.01061091
   6         0.71239658
   7         0.01398752
   8         0.00000000
   9         0.00000000
  10        -0.01061091
Sym=     3a  
Ene=    -3.1638
Spin= Alpha
Occup=    1.00000
   1        -0.12152180
   2         0.35267720
   3        -0.00000000
   4         0.00000000
   5         0.40962928
   6        -0.12152180
   7         0.35267720
   8        -0.00000000
   9         0.00000000
  10        -0.40962928
Sym=     3a  
Ene=    -3.1638
Spin= Beta
Occup=    1.00000
   1        -0.12152180
   2         0.35267720
   3        -0.00000000
   4         0.00000000
   5         0.40962928
   6        -0.12152180
   7         0.35267720
   8        -0.00000000
   9         0.00000000
  10        -0.40962928
Sym=     4a  
Ene=    -1.5892
Spin= Alpha
Occup=    1.00000
   1        -0.00000000
   2        -0.00000000
   3        -0.01014845
   4         0.56945596
   5         0.00000000
   6        -0.00000000
   7        -0.00000000
   8        -0.01014845
   9         0.56945596
  10        -0.00000000
Sym=     4a  
Ene=    -1.5892
Spin= Beta
Occup=    1.00000
   1        -0.00000000
   2        -0.00000000
   3        -0.01014845
   4         0.56945596
   5         0.00000000
   6        -0.00000000
   7        -0.00000000
   8        -0.01014845
   9         0.56945596
  10        -0.00000000
Sym=     5a  
Ene=    -1.5892
Spin= Alpha
Occup=    1.00000
   1        -0.00000000
   2        -0.00000000
   3         0.56945596
   4         0.01014845
   5         0.00000000
   6        -0.00000000
   7        -0.00000000
   8         0.56945596
   9         0.01014845
  10        -0.00000000
Sym=     5a  
Ene=    -1.5892
Spin= Beta
Occup=    1.00000
   1        -0.00000000
   2        -0.00000000
   3         0.56945596
   4         0.01014845
   5         0.00000000
   6        -0.00000000
   7        -0.00000000
   8         0.56945596
   9         0.01014845
  10        -0.00000000
Sym=     6a  
Ene=    -1.2725
Spin= Alpha
Occup=    1.00000
   1        -0.03132739
   2        -0.70541509
   3        -0.00000000
   4         0.00000000
   5         0.31086120
   6         0.03132739
   7         0.70541509
   8         0.00000000
   9         0.00000000
  10         0.31086120
Sym=     6a  
Ene=    -1.2725
Spin= Beta
Occup=    1.00000
   1        -0.03132739
   2        -0.70541509
   3        -0.00000000
   4         0.00000000
   5         0.31086120
   6         0.03132739
   7         0.70541509
   8         0.00000000
   9         0.00000000
  10         0.31086120
Sym=     7a  
Ene=    -1.1926
Spin= Alpha
Occup=    1.00000
   1         0.06940138
   2         0.48878858
   3         0.00000000
   4         0.00000000
   5        -0.67070133
   6         0.06940138
   7         0.48878858
   8         0.00000000
   9         0.00000000
  10         0.67070133
Sym=     7a  
Ene=    -1.1926
Spin= Beta
Occup=    1.00000
   1         0.06940138
   2         0.48878858
   3         0.00000000
   4         0.00000000
   5        -0.67070133
   6         0.06940138
   7         0.48878858
   8         0.00000000
   9         0.00000000
  10         0.67070133
Sym=     8a  
Ene=    -0.3021
Spin= Alpha
Occup=    1.00000
   1        -0.00000000
   2        -0.00000000
   3         0.06339622
   4        -1.04222153
   5         0.00000000
   6         0.00000000
   7        -0.00000000
   8        -0.06339622
   9         1.04222153
  10        -0.00000000
Sym=     8a  
Ene=    -0.3021
Spin= Beta
Occup=    1.00000
   1        -0.00000000
   2        -0.00000000
   3         0.06339622
   4        -1.04222153
   5         0.00000000
   6         0.00000000
   7        -0.00000000
   8        -0.06339622
   9         1.04222153
  10        -0.00000000
Sym=     9a  
Ene=    -0.3021
Spin= Alpha
Occup=    1.00000
   1         0.00000000
   2         0.00000000
   3        -1.04222153
   4        -0.06339622
   5        -0.00000000
   6        -0.00000000
   7        -0.00000000
   8         1.04222153
   9         0.06339622
  10         0.00000000
Sym=     9a  
Ene=    -0.3021
Spin= Beta
Occup=    1.00000
   1         0.00000000
   2         0.00000000
   3        -1.04222153
   4        -0.06339622
   5        -0.00000000
   6        -0.00000000
   7        -0.00000000
   8         1.04222153
   9         0.06339622
  10         0.00000000
Sym=    10a  
Ene=     3.0565
Spin= Alpha
Occup=    0.00000
   1         0.60400297
   2         2.58728237
   3        -0.00000000
   4        -0.00000000
   5         1.57468283
   6        -0.60400297
   7        -2.58728237
   8        -0.00000000
   9         0.00000000
  10         1.57468283
Sym=    10a  
Ene=     3.0565
Spin= Beta
Occup=    0.00000
   1         0.60400297
   2         2.58728237
   3        -0.00000000
   4        -0.00000000
   5         1.57468283
   6        -0.60400297
   7        -2.58728237
   8        -0.00000000
   9         0.00000000
  10         1.57468283
