[Molden Format]
[N_Atoms]
                     2
[Atoms] (AU)
F1          1      9           0.00000000      0.00000000      0.00000000
F2          2      9           0.00000000      0.00000000      1.13383567
[Charge] (Mulliken)
  0.000000000000000E+000
  0.000000000000000E+000
[GTO] (AU)
   1
   s  14
  1.031094600E+05  1.713099991E-04
  1.528100700E+04  7.123999962E-04
  3.441539200E+03  2.990479984E-03
  9.670948300E+02  1.164036994E-02
  3.140353400E+02  3.968642979E-02
  1.134423000E+02  1.128546094E-01
  4.464472700E+01  2.473650687E-01
  1.894287400E+01  3.672702681E-01
  8.532743000E+00  2.896286985E-01
  3.919401000E+00  7.786681959E-02
  1.568157000E+00  4.562139976E-03
  6.232900000E-01  2.468879987E-03
  2.408610000E-01  1.106309994E-03
  8.430100000E-02  1.739699991E-04
   s  14
  1.031094600E+05 -4.044999995E-05
  1.528100700E+04 -1.682299998E-04
  3.441539200E+03 -7.084299991E-04
  9.670948300E+02 -2.767999996E-03
  3.140353400E+02 -9.611379987E-03
  1.134423000E+02 -2.833957996E-02
  4.464472700E+01 -6.839343991E-02
  1.894287400E+01 -1.237379298E-01
  8.532743000E+00 -1.512859698E-01
  3.919401000E+00 -9.099909988E-03
  1.568157000E+00  3.716257695E-01
  6.232900000E-01  5.500214393E-01
  2.408610000E-01  2.092318697E-01
  8.430100000E-02  8.074639989E-03
   p   9
  2.453302900E+02  1.024860004E-03
  5.691900500E+01  8.344290032E-03
  1.760456800E+01  4.078927016E-02
  6.274995000E+00  1.351370605E-01
  2.447030000E+00  2.798830811E-01
  9.950600000E-01  3.597966414E-01
  4.039730000E-01  3.055347412E-01
  1.548100000E-01  1.354703905E-01
  5.418400000E-02  2.804449011E-02
 
   2
   s  14
  1.031094600E+05  1.713099991E-04
  1.528100700E+04  7.123999962E-04
  3.441539200E+03  2.990479984E-03
  9.670948300E+02  1.164036994E-02
  3.140353400E+02  3.968642979E-02
  1.134423000E+02  1.128546094E-01
  4.464472700E+01  2.473650687E-01
  1.894287400E+01  3.672702681E-01
  8.532743000E+00  2.896286985E-01
  3.919401000E+00  7.786681959E-02
  1.568157000E+00  4.562139976E-03
  6.232900000E-01  2.468879987E-03
  2.408610000E-01  1.106309994E-03
  8.430100000E-02  1.739699991E-04
   s  14
  1.031094600E+05 -4.044999995E-05
  1.528100700E+04 -1.682299998E-04
  3.441539200E+03 -7.084299991E-04
  9.670948300E+02 -2.767999996E-03
  3.140353400E+02 -9.611379987E-03
  1.134423000E+02 -2.833957996E-02
  4.464472700E+01 -6.839343991E-02
  1.894287400E+01 -1.237379298E-01
  8.532743000E+00 -1.512859698E-01
  3.919401000E+00 -9.099909988E-03
  1.568157000E+00  3.716257695E-01
  6.232900000E-01  5.500214393E-01
  2.408610000E-01  2.092318697E-01
  8.430100000E-02  8.074639989E-03
   p   9
  2.453302900E+02  1.024860004E-03
  5.691900500E+01  8.344290032E-03
  1.760456800E+01  4.078927016E-02
  6.274995000E+00  1.351370605E-01
  2.447030000E+00  2.798830811E-01
  9.950600000E-01  3.597966414E-01
  4.039730000E-01  3.055347412E-01
  1.548100000E-01  1.354703905E-01
  5.418400000E-02  2.804449011E-02
 
[MO]
Sym=     1a  
Ene=   -26.5820
Spin= Alpha
Occup=    2.00000
   1         0.70403916
   2         0.00577742
   3        -0.00000000
   4        -0.00000000
   5         0.00373769
   6         0.70403916
   7         0.00577742
   8         0.00000000
   9         0.00000000
  10        -0.00373769
Sym=     2a  
Ene=   -26.3350
Spin= Alpha
Occup=    2.00000
   1        -0.70742729
   2         0.00518286
   3         0.00000000
   4         0.00000000
   5         0.00363700
   6         0.70742729
   7        -0.00518286
   8        -0.00000000
   9        -0.00000000
  10         0.00363700
Sym=     3a  
Ene=    -2.6818
Spin= Alpha
Occup=    2.00000
   1        -0.08978199
   2         0.52448958
   3         0.00000000
   4         0.00000000
   5         0.09221150
   6        -0.08978199
   7         0.52448958
   8        -0.00000000
   9         0.00000000
  10        -0.09221150
Sym=     4a  
Ene=    -1.2053
Spin= Alpha
Occup=    2.00000
   1         0.01232603
   2        -0.52939634
   3         0.00000000
   4         0.00000000
   5         0.41631031
   6        -0.01232603
   7         0.52939634
   8         0.00000000
   9         0.00000000
  10         0.41631031
Sym=     5a  
Ene=    -1.1271
Spin= Alpha
Occup=    2.00000
   1        -0.00000000
   2        -0.00000000
   3         0.55657381
   4        -0.12086637
   5        -0.00000000
   6         0.00000000
   7         0.00000000
   8         0.55657381
   9        -0.12086637
  10        -0.00000000
Sym=     6a  
Ene=    -1.1271
Spin= Alpha
Occup=    2.00000
   1         0.00000000
   2         0.00000000
   3         0.12086637
   4         0.55657381
   5        -0.00000000
   6        -0.00000000
   7        -0.00000000
   8         0.12086637
   9         0.55657381
  10        -0.00000000
Sym=     7a  
Ene=    -0.5621
Spin= Alpha
Occup=    2.00000
   1         0.10883024
   2         0.29694966
   3         0.00000000
   4        -0.00000000
   5        -0.78050358
   6         0.10883024
   7         0.29694966
   8        -0.00000000
   9         0.00000000
  10         0.78050358
Sym=     8a  
Ene=    -0.3353
Spin= Alpha
Occup=    2.00000
   1         0.00000000
   2         0.00000000
   3        -0.12598754
   4        -1.03651914
   5         0.00000000
   6        -0.00000000
   7        -0.00000000
   8         0.12598754
   9         1.03651914
  10         0.00000000
Sym=     9a  
Ene=    -0.3353
Spin= Alpha
Occup=    2.00000
   1        -0.00000000
   2        -0.00000000
   3        -1.03651914
   4         0.12598754
   5        -0.00000000
   6         0.00000000
   7         0.00000000
   8         1.03651914
   9        -0.12598754
  10        -0.00000000
Sym=    10a  
Ene=    -0.0651
Spin= Alpha
Occup=    0.00000
   1         0.61049535
   2         2.62898247
   3        -0.00000000
   4         0.00000000
   5         1.55017605
   6        -0.61049535
   7        -2.62898247
   8         0.00000000
   9        -0.00000000
  10         1.55017605
