[Molden Format]
[N_Atoms]
                     2
[Atoms] (AU)
F1          1      9           0.00000000      0.00000000      0.00000000
F2          2      9           0.00000000      0.00000000      1.13383567
[Charge] (Mulliken)
  0.999999999998614     
   1.00000000000139     
[GTO] (AU)
   1
   s  14
  1.031094600E+05  1.713099991E-04
  1.528100700E+04  7.123999962E-04
  3.441539200E+03  2.990479984E-03
  9.670948300E+02  1.164036994E-02
  3.140353400E+02  3.968642979E-02
  1.134423000E+02  1.128546094E-01
  4.464472700E+01  2.473650687E-01
  1.894287400E+01  3.672702681E-01
  8.532743000E+00  2.896286985E-01
  3.919401000E+00  7.786681959E-02
  1.568157000E+00  4.562139976E-03
  6.232900000E-01  2.468879987E-03
  2.408610000E-01  1.106309994E-03
  8.430100000E-02  1.739699991E-04
   s  14
  1.031094600E+05 -4.044999995E-05
  1.528100700E+04 -1.682299998E-04
  3.441539200E+03 -7.084299991E-04
  9.670948300E+02 -2.767999996E-03
  3.140353400E+02 -9.611379987E-03
  1.134423000E+02 -2.833957996E-02
  4.464472700E+01 -6.839343991E-02
  1.894287400E+01 -1.237379298E-01
  8.532743000E+00 -1.512859698E-01
  3.919401000E+00 -9.099909988E-03
  1.568157000E+00  3.716257695E-01
  6.232900000E-01  5.500214393E-01
  2.408610000E-01  2.092318697E-01
  8.430100000E-02  8.074639989E-03
   p   9
  2.453302900E+02  1.024860004E-03
  5.691900500E+01  8.344290032E-03
  1.760456800E+01  4.078927016E-02
  6.274995000E+00  1.351370605E-01
  2.447030000E+00  2.798830811E-01
  9.950600000E-01  3.597966414E-01
  4.039730000E-01  3.055347412E-01
  1.548100000E-01  1.354703905E-01
  5.418400000E-02  2.804449011E-02
 
   2
   s  14
  1.031094600E+05  1.713099991E-04
  1.528100700E+04  7.123999962E-04
  3.441539200E+03  2.990479984E-03
  9.670948300E+02  1.164036994E-02
  3.140353400E+02  3.968642979E-02
  1.134423000E+02  1.128546094E-01
  4.464472700E+01  2.473650687E-01
  1.894287400E+01  3.672702681E-01
  8.532743000E+00  2.896286985E-01
  3.919401000E+00  7.786681959E-02
  1.568157000E+00  4.562139976E-03
  6.232900000E-01  2.468879987E-03
  2.408610000E-01  1.106309994E-03
  8.430100000E-02  1.739699991E-04
   s  14
  1.031094600E+05 -4.044999995E-05
  1.528100700E+04 -1.682299998E-04
  3.441539200E+03 -7.084299991E-04
  9.670948300E+02 -2.767999996E-03
  3.140353400E+02 -9.611379987E-03
  1.134423000E+02 -2.833957996E-02
  4.464472700E+01 -6.839343991E-02
  1.894287400E+01 -1.237379298E-01
  8.532743000E+00 -1.512859698E-01
  3.919401000E+00 -9.099909988E-03
  1.568157000E+00  3.716257695E-01
  6.232900000E-01  5.500214393E-01
  2.408610000E-01  2.092318697E-01
  8.430100000E-02  8.074639989E-03
   p   9
  2.453302900E+02  1.024860004E-03
  5.691900500E+01  8.344290032E-03
  1.760456800E+01  4.078927016E-02
  6.274995000E+00  1.351370605E-01
  2.447030000E+00  2.798830811E-01
  9.950600000E-01  3.597966414E-01
  4.039730000E-01  3.055347412E-01
  1.548100000E-01  1.354703905E-01
  5.418400000E-02  2.804449011E-02
 
[MO]
Sym=     1a  
Ene=   -29.1950
Spin= Alpha
Occup=    2.00000
   1         0.70441616
   2        -0.00386436
   3        -0.00000000
   4        -0.00000000
   5         0.00821299
   6         0.70441616
   7        -0.00386436
   8         0.00000000
   9         0.00000000
  10        -0.00821299
Sym=     2a  
Ene=   -29.1280
Spin= Alpha
Occup=    2.00000
   1        -0.71142147
   2        -0.00853621
   3        -0.00000000
   4        -0.00000000
   5        -0.00895883
   6         0.71142147
   7         0.00853621
   8         0.00000000
   9         0.00000000
  10        -0.00895883
Sym=     3a  
Ene=    -4.8729
Spin= Alpha
Occup=    2.00000
   1        -0.12343604
   2         0.32813293
   3        -0.00000000
   4         0.00000000
   5         0.44222796
   6        -0.12343604
   7         0.32813293
   8        -0.00000000
   9         0.00000000
  10        -0.44222796
Sym=     4a  
Ene=    -2.9877
Spin= Alpha
Occup=    2.00000
   1        -0.00000000
   2        -0.00000000
   3        -0.00726574
   4         0.56950004
   5         0.00000000
   6        -0.00000000
   7        -0.00000000
   8        -0.00726574
   9         0.56950004
  10        -0.00000000
Sym=     5a  
Ene=    -2.9877
Spin= Alpha
Occup=    2.00000
   1        -0.00000000
   2        -0.00000000
   3         0.56950004
   4         0.00726574
   5         0.00000000
   6        -0.00000000
   7        -0.00000000
   8         0.56950004
   9         0.00726574
  10        -0.00000000
Sym=     6a  
Ene=    -2.6631
Spin= Alpha
Occup=    2.00000
   1        -0.05228468
   2        -0.78791501
   3        -0.00000000
   4         0.00000000
   5         0.26026355
   6         0.05228468
   7         0.78791501
   8         0.00000000
   9         0.00000000
  10         0.26026355
Sym=     7a  
Ene=    -2.6528
Spin= Alpha
Occup=    2.00000
   1         0.06432251
   2         0.50558446
   3         0.00000000
   4         0.00000000
   5        -0.64966895
   6         0.06432251
   7         0.50558446
   8         0.00000000
   9         0.00000000
  10         0.64966895
Sym=     8a  
Ene=    -1.5190
Spin= Alpha
Occup=    1.00000
   1         0.00000000
   2         0.00000000
   3        -0.69213401
   4        -0.78178981
   5        -0.00000000
   6        -0.00000000
   7        -0.00000000
   8         0.69213401
   9         0.78178981
  10        -0.00000000
Sym=     9a  
Ene=    -0.0000
Spin= Alpha
Occup=    1.00000
   1         0.00000000
   2         0.00000000
   3        -0.78178981
   4         0.69213401
   5        -0.00000000
   6        -0.00000000
   7        -0.00000000
   8         0.78178981
   9        -0.69213401
  10         0.00000000
Sym=    10a  
Ene=     1.4824
Spin= Alpha
Occup=    0.00000
   1         0.60370164
   2         2.56338706
   3        -0.00000000
   4        -0.00000000
   5         1.58384213
   6        -0.60370164
   7        -2.56338706
   8        -0.00000000
   9         0.00000000
  10         1.58384213
