[Molden Format]
[N_Atoms]
                     2
[Atoms] (AU)
C1          1      6           0.00000000      0.00000000      0.00000000
LI2         2      3           0.00000000      0.00000000      3.40150702
[Charge] (Mulliken)
  2.796408278270945E-002
 -2.796408278275608E-002
[GTO] (AU)
   1
   s  14
  5.055750100E+04  1.128874000E-04
  7.524785600E+03  5.295373000E-04
  1.694327600E+03  2.450038300E-03
  4.728227900E+02  1.005398470E-02
  1.517107500E+02  3.545398060E-02
  5.391874600E+01  1.044071086E-01
  2.065931100E+01  2.412894918E-01
  8.383976000E+00  3.834225483E-01
  3.577015000E+00  3.078514393E-01
  1.547118000E+00  6.872442990E-02
  6.130130000E-01  2.224445000E-04
  2.460680000E-01  1.976748900E-03
  9.908700000E-02  2.057859400E-03
  3.468000000E-02  4.182020000E-04
   s  14
  5.055750100E+04 -2.507420000E-05
  7.524785600E+03 -1.175945000E-04
  1.694327600E+03 -5.456275000E-04
  4.728227900E+02 -2.245077100E-03
  1.517107500E+02 -8.043471800E-03
  5.391874600E+01 -2.442588710E-02
  2.065931100E+01 -6.136791180E-02
  8.383976000E+00 -1.177767835E-01
  3.577015000E+00 -1.550487783E-01
  1.547118000E+00 -1.933316860E-02
  6.130130000E-01  3.996930678E-01
  2.460680000E-01  5.589420949E-01
  9.908700000E-02  1.711195023E-01
  3.468000000E-02  7.456244600E-03
   p   9
  8.333315500E+01  1.344656000E-03
  1.955761100E+01  1.023555500E-02
  6.080365000E+00  4.520067100E-02
  2.179317000E+00  1.410756198E-01
  8.651500000E-01  3.047388085E-01
  3.619440000E-01  3.995281011E-01
  1.547400000E-01  2.719163432E-01
  6.542900000E-02  5.857669330E-02
  2.290000000E-02 -1.263813000E-04
 
   2
   s  14
  9.497934400E+03  9.668999974E-05
  1.416811200E+03  6.087099984E-04
  3.214599400E+02  3.101519992E-03
  9.112416300E+01  1.266904997E-02
  2.999989100E+01  4.248012989E-02
  1.101763100E+01  1.150183297E-01
  4.372801000E+00  2.398650094E-01
  1.831256000E+00  3.584300090E-01
  8.022610000E-01  3.048527792E-01
  3.626480000E-01  8.824261976E-02
  1.139950000E-01 -8.445899977E-04
  5.123700000E-02 -7.943959979E-03
  2.246800000E-02 -3.764419990E-03
  7.860000000E-03 -8.868999976E-05
   s  14
  9.497934400E+03 -1.244999993E-05
  1.416811200E+03 -7.838999954E-05
  3.214599400E+02 -4.007099976E-04
  9.112416300E+01 -1.645249990E-03
  2.999989100E+01 -5.634599967E-03
  1.101763100E+01 -1.590780991E-02
  4.372801000E+00 -3.612581979E-02
  1.831256000E+00 -6.459927962E-02
  8.022610000E-01 -1.008321794E-01
  3.626480000E-01 -9.757613942E-02
  1.139950000E-01  2.301215886E-01
  5.123700000E-02  6.102389764E-01
  2.246800000E-02  2.849406083E-01
  7.860000000E-03  4.026899976E-03
   p   9
  1.311950400E+01  1.524940000E-03
  3.077424200E+00  8.314830000E-03
  1.098800500E+00  1.933203000E-02
  4.357784000E-01  4.934293000E-02
  1.802432000E-01  1.623554000E-01
  7.613330000E-02  3.847505400E-01
  3.254650000E-02  4.336100400E-01
  1.401820000E-02  1.287005900E-01
  4.906400000E-03 -1.018520000E-03
 
[MO]
Sym=     1a  
Ene=   -11.3730
Spin= Alpha
Occup=    1.00000
   1         1.00023764
   2         0.00184554
   3        -0.00000000
   4        -0.00000000
   5         0.00058815
   6        -0.00054446
   7        -0.00207749
   8        -0.00000000
   9        -0.00000000
  10         0.00188852
Sym=     1a  
Ene=   -11.3240
Spin= Beta
Occup=    1.00000
   1         1.00007550
   2        -0.00413261
   3         0.00000000
   4         0.00000000
   5         0.00039060
   6        -0.00021794
   7        -0.00084664
   8        -0.00000000
   9        -0.00000000
  10         0.00062656
Sym=     2a  
Ene=    -2.4612
Spin= Alpha
Occup=    1.00000
   1        -0.00086508
   2         0.00867187
   3        -0.00000000
   4         0.00000000
   5         0.00901025
   6         0.99819665
   7         0.01154818
   8        -0.00000000
   9        -0.00000000
  10        -0.00106864
Sym=     2a  
Ene=    -2.4673
Spin= Beta
Occup=    1.00000
   1        -0.00074498
   2         0.00588457
   3        -0.00000000
   4         0.00000000
   5         0.00399808
   6         0.99903739
   7         0.01187725
   8         0.00000000
   9         0.00000000
  10        -0.00052095
Sym=     3a  
Ene=    -0.8995
Spin= Alpha
Occup=    1.00000
   1        -0.00024362
   2         0.99969796
   3        -0.00000000
   4         0.00000000
   5         0.05529407
   6        -0.08038409
   7        -0.01050182
   8         0.00000000
   9        -0.00000000
  10        -0.01011528
Sym=     3a  
Ene=    -0.6655
Spin= Beta
Occup=    1.00000
   1        -0.00266839
   2         0.93736390
   3         0.00000000
   4        -0.00000000
   5         0.11008623
   6        -0.08097147
   7         0.05988037
   8        -0.00000000
   9         0.00000000
  10        -0.06221931
Sym=     4a  
Ene=    -0.5212
Spin= Alpha
Occup=    1.00000
   1        -0.00349644
   2        -0.07156716
   3         0.00000000
   4        -0.00000000
   5         1.00148436
   6        -0.12604109
   7         0.00410580
   8         0.00000000
   9        -0.00000000
  10        -0.04573322
Sym=     4a  
Ene=    -0.1726
Spin= Beta
Occup=    1.00000
   1        -0.01549176
   2        -0.21817236
   3        -0.00000000
   4        -0.00000000
   5         0.13805962
   6        -0.01402228
   7         0.90080589
   8        -0.00000000
   9        -0.00000000
  10         0.39442155
Sym=     5a  
Ene=    -0.5026
Spin= Alpha
Occup=    1.00000
   1        -0.00000000
   2         0.00000000
   3         0.28553655
   4        -0.94638977
   5        -0.00000000
   6         0.00000000
   7         0.00000000
   8         0.01136433
   9        -0.03766625
  10         0.00000000
Sym=     5a  
Ene=    -0.0034
Spin= Beta
Occup=    0.00000
   1         0.00000000
   2         0.00000000
   3         0.49375018
   4         0.14897004
   5        -0.00000000
   6         0.00000000
   7         0.00000000
   8         0.69626506
   9         0.21007108
  10         0.00000000
Sym=     6a  
Ene=    -0.0216
Spin= Alpha
Occup=    0.00000
   1         0.00000000
   2         0.00000000
   3         0.74423807
   4         0.22454508
   5        -0.00000000
   6         0.00000000
   7        -0.00000000
   8         0.43218726
   9         0.13039581
  10         0.00000000
Sym=     6a  
Ene=     0.0185
Spin= Beta
Occup=    0.00000
   1        -0.00000000
   2        -0.00000000
   3        -0.10635093
   4         0.35249229
   5         0.00000000
   6        -0.00000000
   7        -0.00000000
   8        -0.24105095
   9         0.79894556
  10        -0.00000000
Sym=     7a  
Ene=     0.0801
Spin= Alpha
Occup=    0.00000
   1         0.03364263
   2         0.29522511
   3         0.00000000
   4        -0.00000000
   5         0.16346701
   6        -0.02710189
   7        -1.03714707
   8        -0.00000000
   9         0.00000000
  10        -0.22344069
Sym=     7a  
Ene=     0.1031
Spin= Beta
Occup=    0.00000
   1         0.04680403
   2         0.44533761
   3         0.00000000
   4         0.00000000
   5        -0.81452844
   6         0.07415136
   7        -0.05638712
   8        -0.00000000
   9        -0.00000000
  10         0.59744509
Sym=     8a  
Ene=     0.1071
Spin= Alpha
Occup=    0.00000
   1        -0.00000000
   2        -0.00000000
   3         0.09297768
   4        -0.30816765
   5        -0.00000000
   6         0.00000000
   7         0.00000000
   8        -0.30007802
   9         0.99458642
  10         0.00000000
Sym=     8a  
Ene=     0.1510
Spin= Beta
Occup=    0.00000
   1         0.00000000
   2         0.00000000
   3        -0.86419422
   4        -0.26073722
   5        -0.00000000
   6         0.00000000
   7        -0.00000000
   8         0.71122139
   9         0.21458357
  10         0.00000000
Sym=     9a  
Ene=     0.1422
Spin= Alpha
Occup=    0.00000
   1        -0.00000000
   2        -0.00000000
   3        -0.66085595
   4        -0.19938775
   5         0.00000000
   6        -0.00000000
   7        -0.00000000
   8         0.89656850
   9         0.27050490
  10        -0.00000000
Sym=     9a  
Ene=     0.1921
Spin= Beta
Occup=    0.00000
   1        -0.10612624
   2        -0.79208782
   3         0.00000000
   4        -0.00000000
   5        -0.61675146
   6         0.11900496
   7         0.73121633
   8        -0.00000000
   9         0.00000000
  10        -0.97314514
Sym=    10a  
Ene=     0.1739
Spin= Alpha
Occup=    0.00000
   1        -0.11059782
   2        -0.81257390
   3         0.00000000
   4         0.00000000
   5        -0.20543410
   6         0.07078162
   7         0.52639973
   8        -0.00000000
   9        -0.00000000
  10        -1.18796804
Sym=    10a  
Ene=     0.1972
Spin= Beta
Occup=    0.00000
   1        -0.00000000
   2        -0.00000000
   3        -0.28082993
   4         0.93079003
   5        -0.00000000
   6         0.00000000
   7         0.00000000
   8         0.17908212
   9        -0.59355445
  10        -0.00000000
