   This run of MOLCAS is using the pymolcas driver

                             OPE
                             OPE          NMOL  CASOP  ENMOLC A   SO
                 OPE        NMOLC        AS  OP EN  MO LC     AS  OP
                OPENM       OL CA        SO  PE NM  OL CA     SOP EN
                OP EN      MO   LC       AS  OP ENMOL  CASO   PENMOL
                OP  EN     MO   LC       AS  OP EN     MO     LC ASO
               OP   E  NMOL  C  AS       OP  EN MO     LC     AS  OP
               OP  E   NMO   LC AS        OPEN  MO     LCASOP EN   M
               O  PEN   MO  LCA  SO
            OPE   NMO   L   CAS    OP
        OPENMOL  CASOP     ENMOL   CASOPE
     OPENMOLCA   SOPENMOLCASOPEN   MOLCASOPE
    OPENMOLCAS   OP           EN   MOL    CAS
    OPENMOLCAS       OP  ENM        O     LCA
    OPENMOLCAS    OPEN  MOLCASO     P  E  NMO
    OPENMOLCAS     OP               E  N  MOL
    OPENMOLCA   SO           PENM   O  L  CAS    OPEN    MO    LCAS
    OPENMOLCA   SOP           ENM   O  L  CAS   OP  EN  MOLC  AS   O
    OPENMOLCA   SOPE           NM      O  LCA   S      OP  EN MO
    OPENMOLC                AS         O  PEN   M      OL  CA  SOPE
    OPENMO        LCASOPE  NMOL        C  ASO   P      ENMOLC     AS
    OPE     NMO      LCA  SO     P     E   NM   OL  CA SO  PE N   MO
          OPENMOLCA            SOPE   NMO        LCAS  O    P  ENMO
     OPENMOLCASOPENMOLCASOPENMOLCASOPENMOLCA
        OPENMOLCASOPENMOLCASOPENMOLCASOPE
            OPENMOLCASOPENMOLCASOPENM
               OPENMOLCASOPENMOLCA        version: 1507f2d28
                   OPENMOLCASO
                       OPE                tag:

 OpenMolcas is free software; you can redistribute it and/or modify it
 under the terms of the GNU Lesser General Public License version 2.1.
 OpenMolcas is distributed in the hope that it will be useful, but it
 is provided "as is" and without any express or implied warranties.
 For more details see the full text of the license in the file
 LICENSE or in <http://www.gnu.org/licenses/>.

                 Copyright (C) The OpenMolcas Authors
           For the author list and the recommended citation,
                   consult the file CONTRIBUTORS.md

           *************************************************
           * pymolcas version py2.28                       *
           *   build c4a6d18ded8cb6cad61d2372a9abd97c      *
           *   (after the EMIL interpreter by V. Veryazov) *
           *************************************************

configuration info
------------------
C Compiler ID: IntelLLVM
C flags: -std=gnu99 -qopenmp
Fortran Compiler ID: IntelLLVM
Fortran flags: -standard-semantics -fltconsistency -fpp -i8 -heap-arrays -qopenmp
Definitions: _MOLCAS_;_I8_;_LINUX_
Parallel: OFF (GA=OFF)


   ----------------------------------------------------------------------------------
  |
  |              Project: H16_0.75
  |       Submitted from: /home/grierjones/DDCASPT2/hydrogen_comps/H16_chain/H16_0.75
  |         Scratch area: /tmp/H16_0.75
  |      Save outputs to: /home/grierjones/DDCASPT2/hydrogen_comps/H16_chain/H16_0.75
  |               Molcas: /home/grierjones/Test/build
  |
  | Scratch area is empty
  |
  |       MOLCAS_DRIVER = /usr/local/pymolcas
  | MOLCAS_KEEP_WORKDIR = NO
  |  MOLCAS_NEW_WORKDIR = YES
  |       MOLCAS_NPROCS = 1
  |        MOLCAS_PRINT = NORMAL
  |       MOLCAS_SOURCE = /home/grierjones/Test
  |    MOLCAS_STRUCTURE = 0
  |
   ----------------------------------------------------------------------------------

++ ---------   Input file   ---------

&GATEWAY
coord=H16_0.75.xyz
Basis = ANO-RCC-VDZP
Group = nosymm
Expert
End of Input

&SEWARD
End of Input

&SCF

>>> COPY $WorkDir/H16_0.75.scf.h5 $CurrDir/

&RASSCF
Title= RASSCF
NACTEL
16 0 0
Inactive
0
RAS2
16
Symmetry
1
Spin
1
orblisting
all
ITERation
300 200

>>> COPY $WorkDir/H16_0.75.rasscf.h5 $CurrDir/

>>> COPY $WorkDir/GMJ_Fock_MO.csv $CurrDir/H16_0.75.GMJ_Fock_MO.csv

>>> COPY $WorkDir/GMJ_PT2_Fock_MO.csv $CurrDir/H16_0.75.GMJ_PT2_Fock_MO.csv

&MOTRA
Frozen=0
LUMORB

>>> COPY $WorkDir/GMJ_one_int_indx.csv $CurrDir/H16_0.75.GMJ_one_int_indx.csv

>>> COPY $WorkDir/GMJ_one_int.csv $CurrDir/H16_0.75.GMJ_one_int.csv

>>> COPY $WorkDir/GMJ_two_int_indx.csv $CurrDir/H16_0.75.GMJ_two_int_indx.csv

>>> COPY $WorkDir/GMJ_two_int.csv $CurrDir/H16_0.75.GMJ_two_int.csv

&CASPT2
Frozen
0
MAXITER
50

>>> FOREACH i IN (B,E,F,G,H)

  >>> FOREACH j IN (P,M)

    >>> IF (-FILE GMJ_e2_${i}_${j}.csv)

      >>> COPY $WorkDir/GMJ_RHS_${i}_${j}.csv $CurrDir/GMJ_RHS_${i}_${j}.csv

      >>> COPY $WorkDir/GMJ_IVECW_${i}_${j}.csv $CurrDir/GMJ_IVECW_${i}_${j}.csv

      >>> COPY $WorkDir/GMJ_IVECX_${i}_${j}.csv $CurrDir/GMJ_IVECX_${i}_${j}.csv

      >>> COPY $WorkDir/GMJ_IVECC2_${i}_${j}.csv $CurrDir/GMJ_IVECC2_${i}_${j}.csv

      >>> COPY $WorkDir/GMJ_e2_${i}_${j}.csv $CurrDir/GMJ_e2_${i}_${j}.csv

    >>> END IF

  >>> END FOREACH

>>> END FOREACH

>>> FOREACH i IN (A,C,D)

  >>> IF (-FILE GMJ_e2_$i.csv)

    >>> COPY $WorkDir/GMJ_RHS_$i.csv $CurrDir/GMJ_RHS_$i.csv

    >>> COPY $WorkDir/GMJ_IVECW_$i.csv $CurrDir/GMJ_IVECW_$i.csv

    >>> COPY $WorkDir/GMJ_IVECX_$i.csv $CurrDir/GMJ_IVECX_$i.csv

    >>> COPY $WorkDir/GMJ_IVECC2_$i.csv $CurrDir/GMJ_IVECC2_$i.csv

    >>> COPY $WorkDir/GMJ_e2_$i.csv $CurrDir/GMJ_e2_$i.csv

  >>> END IF

>>> END FOREACH

-- ----------------------------------

--- Start Module: gateway at Tue Feb 25 12:56:47 2025 ---
 
()()()()()()()()()()()()()()()()()()()()()()()()()()()()()()()()()()()()()()()()()()()()()()()()()()

                                              &GATEWAY

                                   only a single process is used
                       available to each process: 2.0 GB of memory, 1 thread
()()()()()()()()()()()()()()()()()()()()()()()()()()()()()()()()()()()()()()()()()()()()()()()()()()
 
 ###############################################################################
 ###############################################################################
 ###                                                                         ###
 ###                                                                         ###
 ###                                                                         ###
 ###    WARNING: EXPERT option is ON!                                        ###
 ###                                                                         ###
 ###                                                                         ###
 ###############################################################################
 ###############################################################################
 
++    Symmetry information:
      ---------------------
 
                    Character Table for C1 
 
                             E  
                    a        1  x, y, xy, Rz, z, xz, Ry, yz, Rx, I
--
 
 
++    Basis set information:
      ----------------------
 
 
      Basis set label: H.ANO-RCC...2S1P.
 
      Electronic valence basis set:
      ------------------
      Associated Effective Charge   1.000000 au
      Associated Actual Charge      1.000000 au
      Nuclear Model: Point charge
 
      Shell  nPrim  nBasis  Cartesian Spherical Contaminant
         s       8       2        X                  
         p       4       1        X                  
--
 
 
++    Molecular structure info:
      -------------------------
 
                    ************************************************ 
                    **** Cartesian Coordinates / Bohr, Angstrom **** 
                    ************************************************ 
 
     Center  Label                x              y              z                     x              y              z
        1      H1               0.000000       0.000000       0.000000              0.000000       0.000000       0.000000
        2      H2               0.000000       0.000000       1.408706              0.000000       0.000000       0.745455
        3      H3               0.000000       0.000000       2.817410              0.000000       0.000000       1.490909
        4      H4               0.000000       0.000000       4.226115              0.000000       0.000000       2.236364
        5      H5               0.000000       0.000000       5.634819              0.000000       0.000000       2.981818
        6      H6               0.000000       0.000000       7.043525              0.000000       0.000000       3.727273
        7      H7               0.000000       0.000000       8.452229              0.000000       0.000000       4.472727
        8      H8               0.000000       0.000000       9.860935              0.000000       0.000000       5.218182
        9      H9               0.000000       0.000000      11.269639              0.000000       0.000000       5.963636
       10      H10              0.000000       0.000000      12.678345              0.000000       0.000000       6.709091
       11      H11              0.000000       0.000000      14.087048              0.000000       0.000000       7.454545
       12      H12              0.000000       0.000000      15.495754              0.000000       0.000000       8.200000
       13      H13              0.000000       0.000000      16.904460              0.000000       0.000000       8.945455
       14      H14              0.000000       0.000000      18.313164              0.000000       0.000000       9.690909
       15      H15              0.000000       0.000000      19.721870              0.000000       0.000000      10.436364
       16      H16              0.000000       0.000000      21.130574              0.000000       0.000000      11.181818
 
                    ************************************************* 
                    **** InterNuclear Distances / Bohr, Angstrom **** 
                    ************************************************* 
 
     Atom centers         Bohr        Angstrom
    2 H2        1 H1      1.408704        0.745454
    3 H3        2 H2    
    4 H4        3 H3    
    5 H5        4 H4    
    6 H6        5 H5    
    7 H7        6 H6    
    8 H8        7 H7    
    9 H9        8 H8    
   10 H10       9 H9    
   11 H11      10 H10   
   12 H12      11 H11   
   13 H13      12 H12   
   14 H14      13 H13   
   15 H15      14 H14   
   16 H16      15 H15   
    3 H3        1 H1      2.817410        1.490909
    4 H4        2 H2    
    5 H5        3 H3    
    6 H6        4 H4    
    7 H7        5 H5    
    8 H8        6 H6    
    9 H9        7 H7    
   10 H10       8 H8    
   11 H11       9 H9    
   12 H12      10 H10   
   13 H13      11 H11   
   14 H14      12 H12   
   15 H15      13 H13   
   16 H16      14 H14   
    4 H4        1 H1      4.226114        2.236363
    5 H5        2 H2    
    6 H6        3 H3    
    7 H7        4 H4    
    8 H8        5 H5    
    9 H9        6 H6    
   10 H10       7 H7    
   11 H11       8 H8    
   12 H12       9 H9    
   13 H13      10 H10   
   14 H14      11 H11   
   15 H15      12 H12   
   16 H16      13 H13   
    5 H5        1 H1      5.634819        2.981818
    6 H6        2 H2    
    7 H7        3 H3    
    8 H8        4 H4    
    9 H9        5 H5    
   10 H10       6 H6    
   11 H11       7 H7    
   12 H12       8 H8    
   13 H13       9 H9    
   14 H14      10 H10   
   15 H15      11 H11   
   16 H16      12 H12   
--
 
 
            Nuclear Potential Energy             27.04020093 au
 
 ###############################################################################
 ###############################################################################
 ###                                                                         ###
 ###                                                                         ###
 ###    There were warnings during the execution                             ###
 ###    Please, check the output with care!                                  ###
 ###                                                                         ###
 ###                                                                         ###
 ###############################################################################
 ###############################################################################
--- Stop Module: gateway at Tue Feb 25 12:56:47 2025 /rc=_RC_ALL_IS_WELL_ ---
*** files: xmldump
    saved to directory /home/grierjones/DDCASPT2/hydrogen_comps/H16_chain/H16_0.75

--- Start Module: seward at Tue Feb 25 12:56:47 2025 ---
 
()()()()()()()()()()()()()()()()()()()()()()()()()()()()()()()()()()()()()()()()()()()()()()()()()()

                                              &SEWARD

                                   only a single process is used
                       available to each process: 2.0 GB of memory, 1 thread
()()()()()()()()()()()()()()()()()()()()()()()()()()()()()()()()()()()()()()()()()()()()()()()()()()
 
 ###############################################################################
 ###############################################################################
 ###                                                                         ###
 ###                                                                         ###
 ###                                                                         ###
 ###    WARNING: EXPERT option is ON!                                        ###
 ###                                                                         ###
 ###                                                                         ###
 ###############################################################################
 ###############################################################################
               SEWARD will generate:
                  Multipole Moment integrals up to order  2
                  Kinetic Energy integrals
                  Nuclear Attraction integrals (point charge)
                  One-Electron Hamiltonian integrals
                  Velocity integrals
                  Relativistic Douglas-Kroll-Hess integrals:
                    - Parametrization         : EXP
                    - DKH order of Hamiltonian: 2
                    - DKH order of Properties : 0
                         - multipole moment operators
                         - electric potential operators
                         - contact operators
                  Atomic mean-field integrals
                  Two-Electron Repulsion integrals
 
                   Integrals are discarded if absolute value <: 0.10E-13
                   Integral cutoff threshold is set to       <: 0.10E-15
 
            Nuclear Potential Energy             27.04020093 au
 
 
      Basis set specifications :
      Symmetry species         a  
      Basis functions           80
 
 
  Input file to MOLDEN was generated!
 
 ###############################################################################
 ###############################################################################
 ###                                                                         ###
 ###                                                                         ###
 ###    There were warnings during the execution                             ###
 ###    Please, check the output with care!                                  ###
 ###                                                                         ###
 ###                                                                         ###
 ###############################################################################
 ###############################################################################
forrtl: warning (525): IEEE_DIVIDE_BY_ZERO is signaling
forrtl: warning (526): IEEE_INVALID is signaling
forrtl: warning (528): IEEE_UNDERFLOW is signaling
--- Stop Module: seward at Tue Feb 25 12:56:50 2025 /rc=_RC_ALL_IS_WELL_ ---
*** files: H16_0.75.GssOrb H16_0.75.guessorb.h5 H16_0.75.guessorb.molden xmldump
    saved to directory /home/grierjones/DDCASPT2/hydrogen_comps/H16_chain/H16_0.75
--- Module seward spent 3 seconds ---

*** symbolic link created: INPORB -> H16_0.75.GssOrb
--- Start Module: scf at Tue Feb 25 12:56:50 2025 ---
 
()()()()()()()()()()()()()()()()()()()()()()()()()()()()()()()()()()()()()()()()()()()()()()()()()()

                                                &SCF

                                   only a single process is used
                       available to each process: 2.0 GB of memory, 1 thread
()()()()()()()()()()()()()()()()()()()()()()()()()()()()()()()()()()()()()()()()()()()()()()()()()()
 
++    Input section:
      --------------
 
      Header of the integral files:
      
       Integrals generated by seward 4.2.0  , Tue Feb 25 12:56:47 2025
 
 
      Cartesian coordinates in Angstrom:
      -----------------------------------------------------
      No.  Label        X            Y            Z        
      -----------------------------------------------------
       1   H1         0.00000000   0.00000000   0.00000000
       2   H2         0.00000000   0.00000000   0.74545500
       3   H3         0.00000000   0.00000000   1.49090900
       4   H4         0.00000000   0.00000000   2.23636400
       5   H5         0.00000000   0.00000000   2.98181800
       6   H6         0.00000000   0.00000000   3.72727300
       7   H7         0.00000000   0.00000000   4.47272700
       8   H8         0.00000000   0.00000000   5.21818200
       9   H9         0.00000000   0.00000000   5.96363600
      10   H10        0.00000000   0.00000000   6.70909100
      11   H11        0.00000000   0.00000000   7.45454500
      12   H12        0.00000000   0.00000000   8.20000000
      13   H13        0.00000000   0.00000000   8.94545500
      14   H14        0.00000000   0.00000000   9.69090900
      15   H15        0.00000000   0.00000000  10.43636400
      16   H16        0.00000000   0.00000000  11.18181800
      -----------------------------------------------------
      Nuclear repulsion energy =   27.04020093
--
 
++    Orbital specifications:
      -----------------------
 
      Symmetry species               1
                                     a
      Frozen orbitals                0
      Occupied orbitals              8
      Secondary orbitals            72
      Deleted orbitals               0
      Total number of orbitals      80
      Number of basis functions     80
--
 
      Molecular charge                           0.000
 
++    Optimization specifications:
      ----------------------------
 
      SCF Algorithm: Conventional
      Minimized density differences are used
      Number of density matrices in core                5
      Maximum number of NDDO SCF iterations           400
      Maximum number of HF SCF iterations             400
      Threshold for SCF energy change            0.10E-08
      Threshold for density matrix               0.10E-03
      Threshold for Fock matrix                  0.15E-03
      Threshold for linear dependence            0.10E-08
      Threshold at which DIIS is turned on       0.15E+00
      Threshold at which QNR/C2DIIS is turned on 0.75E-01
      Threshold for Norm(delta) (QNR/C2DIIS)     0.20E-04
      DIIS extrapolation of the SCF procedure
      All orbitals punched on: SCFORB
--
 
      Input vectors read from INPORB
      Orbital file label: *Guess orbitals
 
 
++ Convergence information
                                   SCF        iterations: Energy and convergence statistics
 
Iter     Tot. SCF        One-elec.       Two-elec.     Energy      Max Dij or  Max Fij      DNorm      TNorm      AccCon     Time
         Energy          Energy          Energy        Change      Delta Norm                                                in Sec.
   1    -7.884216615   -58.954482642    24.030065093   0.00E+00    0.33E+00*   0.24E+00*    0.67E+01   0.37E+02   None         0.
   2    -8.238182204   -60.216533745    24.938150607  -0.35E+00*   0.76E-01*   0.32E-01*    0.38E+01   0.38E+02   EDIIS        0.
   3    -8.252593714   -60.171804214    24.879009565  -0.14E-01*   0.23E-01*   0.79E-02*    0.14E+01   0.38E+02   EDIIS        0.
   4    -8.253565280   -60.189713791    24.895947577  -0.97E-03*   0.82E-02*   0.26E-02*    0.30E+00   0.38E+02   c2DIIS       0.
   5    -8.253695844   -60.188776296    24.894879518  -0.13E-03*   0.24E-02*   0.72E-03*    0.80E-01   0.38E+02   QNRc2DIIS    0.
   6    -8.253706662   -60.190271939    24.896364342  -0.11E-04*   0.21E-02*   0.28E-03*    0.16E-01   0.38E+02   QNRc2DIIS    0.
   7    -8.253709835   -60.190361346    24.896450577  -0.32E-05*   0.84E-04*   0.24E-04     0.44E-02   0.38E+02   QNRc2DIIS    0.
   8    -8.253709844   -60.190305920    24.896395141  -0.96E-08*   0.32E-04*   0.61E-05     0.64E-03   0.38E+02   QNRc2DIIS    0.
   9    -8.253709845   -60.190312552    24.896401772  -0.89E-09    0.40E-05    0.10E-05     0.13E-03   0.38E+02   QNRc2DIIS    0.
 
       Convergence after  9 Macro Iterations
--
 
 *****************************************************************************************************************************
 *                                                                                                                           *
 *                                             SCF/KS-DFT Program, Final results                                             *
 *                                                                                                                           *
 *                                                                                                                           *
 *                                                                                                                           *
 *                                                       Final Results                                                       *
 *                                                                                                                           *
 *****************************************************************************************************************************
 
::    Total SCF energy                                 -8.2537098452
      One-electron energy                             -60.1903125517
      Two-electron energy                              24.8964017719
      Nuclear repulsion energy                         27.0402009346
      Kinetic energy (interpolated)                    10.6038353925
      Virial theorem                                    0.7783702349
      Total spin, S(S+1)                                0.0000000000
      Total spin, S                                     0.0000000000
      Max non-diagonal density matrix element           0.0000040467
      Max non-diagonal Fock matrix element              0.0000003720
 
 
      All orbitals with orbital energies smaller than  E(LUMO)+0.5 are printed
 
++    Molecular orbitals:
      -------------------
 
      Title: SCF orbitals

      Molecular orbitals for symmetry species 1: a  
 
          Orbital            1         2         3         4         5         6         7         8         9        10    
          Energy           -0.9234   -0.8896   -0.8348   -0.7568   -0.6551   -0.5305   -0.3841   -0.2246    0.1140    0.1491
          Occ. No.          2.0000    2.0000    2.0000    2.0000    2.0000    2.0000    2.0000    2.0000    0.0000    0.0000
 
        1 H1     1s         0.0365   -0.1031    0.1861   -0.2490    0.2777   -0.3001    0.3525   -0.4084    0.9660   -0.4593
        2 H1     2s         0.0132   -0.0322    0.0505   -0.0503    0.0281   -0.0108    0.0360   -0.1156    0.6942   -0.2511
        3 H1     2px        0.0000   -0.0000    0.0000    0.0000   -0.0000    0.0000   -0.0000    0.0000    0.0000    0.0000
        4 H1     2py        0.0000   -0.0000    0.0000   -0.0000    0.0000   -0.0000    0.0000   -0.0000    0.0000   -0.0000
        5 H1     2pz        0.0020   -0.0111    0.0222   -0.0273    0.0244   -0.0172    0.0095   -0.0056    0.0417   -0.0261
        6 H2     1s         0.0265   -0.0650    0.0908   -0.1082    0.1535   -0.2173    0.2305   -0.0923   -1.0005    0.3135
        7 H2     2s        -0.0221    0.0548   -0.1006    0.1337   -0.1111    0.0337    0.0458   -0.0357   -0.5516    0.2614
        8 H2     2px       -0.0000    0.0000   -0.0000    0.0000   -0.0000    0.0000   -0.0000    0.0000   -0.0000   -0.0000
        9 H2     2py       -0.0000    0.0000   -0.0000   -0.0000    0.0000   -0.0000    0.0000   -0.0000    0.0000    0.0000
       10 H2     2pz       -0.0054   -0.0059    0.0181   -0.0153   -0.0007    0.0203   -0.0348    0.0322    0.0246   -0.0346
       11 H3     1s         0.1084   -0.2075    0.2538   -0.2200    0.1035    0.0895   -0.3310    0.4518    0.0405   -0.0154
       12 H3     2s        -0.0011    0.0133   -0.0279    0.0285   -0.0148    0.0134   -0.0582    0.1085    0.2311    0.0121
       13 H3     2px        0.0000   -0.0000    0.0000   -0.0000    0.0000    0.0000   -0.0000    0.0000    0.0000    0.0000
       14 H3     2py       -0.0000    0.0000   -0.0000    0.0000   -0.0000   -0.0000    0.0000   -0.0000    0.0000   -0.0000
       15 H3     2pz       -0.0088   -0.0058    0.0144   -0.0010   -0.0198    0.0314   -0.0272    0.0092    0.0420   -0.0530
       16 H4     1s         0.1051   -0.1978    0.1902   -0.0786   -0.0780    0.2449   -0.3475    0.2702   -0.0616    0.0019
       17 H4     2s        -0.0349    0.0523   -0.0508    0.0151    0.0366   -0.0310   -0.0490    0.1077   -0.1114    0.1602
       18 H4     2px       -0.0000    0.0000    0.0000   -0.0000    0.0000    0.0000   -0.0000    0.0000   -0.0000    0.0000
       19 H4     2py        0.0000   -0.0000    0.0000   -0.0000    0.0000   -0.0000    0.0000   -0.0000   -0.0000   -0.0000
       20 H4     2pz       -0.0118   -0.0056    0.0078    0.0115   -0.0211    0.0070    0.0206   -0.0370    0.0454   -0.0600
       21 H5     1s         0.1797   -0.2111    0.0659    0.1238   -0.2210    0.1345    0.1773   -0.5094    0.6652   -0.3586
       22 H5     2s        -0.0140    0.0483   -0.0486   -0.0142    0.0642   -0.0489    0.0550   -0.1524    0.3932   -0.0542
       23 H5     2px       -0.0000   -0.0000    0.0000   -0.0000    0.0000    0.0000   -0.0000    0.0000    0.0000    0.0000
       24 H5     2py       -0.0000   -0.0000    0.0000    0.0000   -0.0000    0.0000   -0.0000   -0.0000    0.0000    0.0000
       25 H5     2pz       -0.0096   -0.0115    0.0051    0.0130   -0.0039   -0.0222    0.0337   -0.0179   -0.0112   -0.0331
       26 H6     1s         0.1729   -0.2111    0.0237    0.1937   -0.2158   -0.0158    0.3340   -0.3242   -0.5492    0.1900
       27 H6     2s        -0.0424    0.0218    0.0346   -0.0657    0.0096    0.0518    0.0245   -0.0999   -0.2333    0.2533
       28 H6     2px       -0.0000    0.0000    0.0000   -0.0000   -0.0000    0.0000   -0.0000   -0.0000    0.0000    0.0000
       29 H6     2py        0.0000   -0.0000   -0.0000    0.0000    0.0000   -0.0000   -0.0000    0.0000    0.0000    0.0000
       30 H6     2pz       -0.0097   -0.0137    0.0018    0.0026    0.0226   -0.0307   -0.0020    0.0352   -0.0148   -0.0222
       31 H7     1s         0.2192   -0.0872   -0.1765    0.1667    0.0975   -0.2910    0.0401    0.4593   -0.3808    0.1420
       32 H7     2s        -0.0281    0.0523    0.0115   -0.0796    0.0285    0.0136   -0.0255    0.1312   -0.1004    0.2201
       33 H7     2px        0.0000   -0.0000   -0.0000   -0.0000    0.0000    0.0000    0.0000    0.0000    0.0000    0.0000
       34 H7     2py        0.0000   -0.0000    0.0000    0.0000    0.0000   -0.0000   -0.0000   -0.0000    0.0000   -0.0000
       35 H7     2pz       -0.0045   -0.0188   -0.0002   -0.0084    0.0287   -0.0055   -0.0316    0.0257    0.0243   -0.0289
       36 H8     1s         0.2157   -0.0919   -0.1928    0.1364    0.1743   -0.1969   -0.2267    0.4208    0.3771   -0.2144
       37 H8     2s        -0.0392   -0.0228    0.0647    0.0105   -0.0689   -0.0125   -0.0022    0.1314    0.1802    0.0862
       38 H8     2px       -0.0000    0.0000    0.0000    0.0000   -0.0000   -0.0000   -0.0000   -0.0000   -0.0000    0.0000
       39 H8     2py        0.0000    0.0000    0.0000    0.0000   -0.0000    0.0000    0.0000   -0.0000   -0.0000   -0.0000
       40 H8     2pz       -0.0031   -0.0200    0.0009   -0.0193    0.0120    0.0292   -0.0180   -0.0310    0.0250   -0.0174
       41 H9     1s         0.2157    0.0919   -0.1928   -0.1364    0.1743    0.1969   -0.2267   -0.4208    0.3771   -0.2145
       42 H9     2s        -0.0392    0.0228    0.0647   -0.0105   -0.0689    0.0125   -0.0022   -0.1314    0.1802    0.0862
       43 H9     2px        0.0000    0.0000   -0.0000    0.0000   -0.0000   -0.0000   -0.0000   -0.0000    0.0000   -0.0000
       44 H9     2py       -0.0000   -0.0000   -0.0000   -0.0000    0.0000    0.0000   -0.0000    0.0000   -0.0000    0.0000
       45 H9     2pz        0.0031   -0.0200   -0.0009   -0.0193   -0.0120    0.0292    0.0180   -0.0310   -0.0250    0.0174
       46 H10    1s         0.2192    0.0872   -0.1765   -0.1667    0.0975    0.2910    0.0401   -0.4593   -0.3808    0.1420
       47 H10    2s        -0.0281   -0.0523    0.0115    0.0796    0.0285   -0.0136   -0.0255   -0.1312   -0.1004    0.2201
       48 H10    2px       -0.0000   -0.0000   -0.0000   -0.0000    0.0000   -0.0000    0.0000    0.0000    0.0000    0.0000
       49 H10    2py        0.0000    0.0000    0.0000    0.0000   -0.0000   -0.0000    0.0000   -0.0000   -0.0000    0.0000
       50 H10    2pz        0.0045   -0.0188    0.0002   -0.0084   -0.0287   -0.0055    0.0316    0.0257   -0.0243    0.0289
       51 H11    1s         0.1729    0.2111    0.0237   -0.1937   -0.2159    0.0158    0.3340    0.3242   -0.5492    0.1900
       52 H11    2s        -0.0424   -0.0218    0.0346    0.0657    0.0096   -0.0518    0.0245    0.0999   -0.2333    0.2533
       53 H11    2px        0.0000    0.0000    0.0000    0.0000   -0.0000   -0.0000    0.0000   -0.0000   -0.0000    0.0000
       54 H11    2py        0.0000   -0.0000   -0.0000    0.0000    0.0000   -0.0000   -0.0000   -0.0000   -0.0000    0.0000
       55 H11    2pz        0.0097   -0.0137   -0.0018    0.0026   -0.0226   -0.0307    0.0020    0.0352    0.0148    0.0222
       56 H12    1s         0.1797    0.2110    0.0659   -0.1238   -0.2209   -0.1344    0.1773    0.5094    0.6652   -0.3586
       57 H12    2s        -0.0140   -0.0483   -0.0486    0.0142    0.0642    0.0489    0.0550    0.1524    0.3931   -0.0542
       58 H12    2px        0.0000   -0.0000    0.0000    0.0000    0.0000   -0.0000   -0.0000   -0.0000    0.0000    0.0000
       59 H12    2py        0.0000    0.0000    0.0000   -0.0000    0.0000    0.0000   -0.0000   -0.0000   -0.0000    0.0000
       60 H12    2pz        0.0096   -0.0115   -0.0051    0.0130    0.0039   -0.0222   -0.0337   -0.0179    0.0112    0.0331
       61 H13    1s         0.1051    0.1978    0.1902    0.0786   -0.0780   -0.2449   -0.3475   -0.2702   -0.0615    0.0018
       62 H13    2s        -0.0349   -0.0523   -0.0508   -0.0151    0.0366    0.0310   -0.0490   -0.1076   -0.1114    0.1602
       63 H13    2px        0.0000    0.0000   -0.0000    0.0000   -0.0000    0.0000   -0.0000   -0.0000   -0.0000    0.0000
       64 H13    2py        0.0000    0.0000    0.0000    0.0000   -0.0000    0.0000   -0.0000    0.0000   -0.0000   -0.0000
       65 H13    2pz        0.0118   -0.0056   -0.0078    0.0115    0.0211    0.0070   -0.0206   -0.0370   -0.0454    0.0600
       66 H14    1s         0.1084    0.2075    0.2538    0.2200    0.1035   -0.0895   -0.3310   -0.4519    0.0405   -0.0153
       67 H14    2s        -0.0011   -0.0134   -0.0279   -0.0285   -0.0148   -0.0133   -0.0582   -0.1085    0.2310    0.0122
       68 H14    2px        0.0000   -0.0000    0.0000   -0.0000    0.0000   -0.0000   -0.0000   -0.0000   -0.0000   -0.0000
       69 H14    2py       -0.0000   -0.0000   -0.0000   -0.0000    0.0000   -0.0000    0.0000   -0.0000   -0.0000    0.0000
       70 H14    2pz        0.0088   -0.0058   -0.0144   -0.0010    0.0198    0.0314    0.0272    0.0092   -0.0420    0.0530
       71 H15    1s         0.0265    0.0650    0.0908    0.1082    0.1535    0.2173    0.2305    0.0923   -1.0005    0.3134
       72 H15    2s        -0.0221   -0.0548   -0.1006   -0.1337   -0.1111   -0.0337    0.0458    0.0358   -0.5516    0.2614
       73 H15    2px       -0.0000   -0.0000   -0.0000    0.0000    0.0000    0.0000   -0.0000   -0.0000    0.0000    0.0000
       74 H15    2py        0.0000    0.0000    0.0000    0.0000    0.0000    0.0000   -0.0000   -0.0000    0.0000   -0.0000
       75 H15    2pz        0.0054   -0.0059   -0.0181   -0.0153    0.0007    0.0203    0.0348    0.0322   -0.0246    0.0346
       76 H16    1s         0.0365    0.1031    0.1861    0.2490    0.2777    0.3001    0.3525    0.4084    0.9660   -0.4593
       77 H16    2s         0.0132    0.0322    0.0505    0.0503    0.0281    0.0108    0.0360    0.1156    0.6942   -0.2511
       78 H16    2px        0.0000   -0.0000   -0.0000   -0.0000   -0.0000   -0.0000   -0.0000    0.0000   -0.0000   -0.0000
       79 H16    2py       -0.0000   -0.0000   -0.0000   -0.0000   -0.0000   -0.0000    0.0000    0.0000   -0.0000    0.0000
       80 H16    2pz       -0.0020   -0.0111   -0.0222   -0.0273   -0.0244   -0.0172   -0.0095   -0.0056   -0.0417    0.0261
 
          Orbital           11        12        13        14        15        16        17        18        19        20    
          Energy            0.1690    0.2427    0.2511    0.3798    0.4091    0.4663    0.4663    0.5137    0.5137    0.5654
          Occ. No.          0.0000    0.0000    0.0000    0.0000    0.0000    0.0000    0.0000    0.0000    0.0000    0.0000
 
        1 H1     1s        -0.7097   -1.4979   -0.3518    1.9450   -0.2672   -0.0000    0.0000   -0.0000    0.0000   -2.2237
        2 H1     2s        -0.6882   -1.1101   -0.5596    1.5040    0.1732   -0.0000    0.0000   -0.0000    0.0000   -1.7269
        3 H1     2px       -0.0000    0.0000   -0.0000   -0.0000    0.0000    0.0008    0.0425   -0.0912   -0.0182    0.0000
        4 H1     2py       -0.0000   -0.0000    0.0000   -0.0000    0.0000    0.0425   -0.0008    0.0182   -0.0912    0.0000
        5 H1     2pz       -0.0511   -0.1035   -0.0751    0.1473    0.0959   -0.0000   -0.0000    0.0000    0.0000   -0.1637
        6 H2     1s         1.1326    1.8388    0.9294   -2.8931    0.0303    0.0000   -0.0000    0.0000   -0.0000    3.9093
        7 H2     2s         0.5784    1.2677    0.4746   -2.1315    0.1120    0.0000   -0.0000    0.0000   -0.0000    3.0216
        8 H2     2px        0.0000    0.0000   -0.0000   -0.0000    0.0000    0.0013    0.0680   -0.1353   -0.0270    0.0000
        9 H2     2py       -0.0000   -0.0000   -0.0000   -0.0000    0.0000    0.0680   -0.0013    0.0270   -0.1353    0.0000
       10 H2     2pz       -0.0536   -0.1242   -0.1159    0.1640    0.1622   -0.0000   -0.0000    0.0000    0.0000   -0.1440
       11 H3     1s        -0.5819   -0.9459   -1.1793    2.0241    1.2520   -0.0000    0.0000   -0.0000    0.0000   -3.1755
       12 H3     2s        -0.5719   -0.6206   -0.8716    1.2168    0.8662   -0.0000    0.0000   -0.0000    0.0000   -1.9581
       13 H3     2px        0.0000    0.0000    0.0000    0.0000   -0.0000    0.0019    0.1009   -0.1809   -0.0361   -0.0000
       14 H3     2py        0.0000   -0.0000   -0.0000   -0.0000    0.0000    0.1009   -0.0019    0.0361   -0.1809    0.0000
       15 H3     2pz       -0.0490   -0.1058   -0.0961    0.0549    0.1290    0.0000   -0.0000    0.0000   -0.0000    0.0652
       16 H4     1s         0.1477    0.3535    0.4552   -1.1203   -1.2242    0.0000   -0.0000    0.0000   -0.0000    2.3765
       17 H4     2s         0.0604    0.5295    0.2345   -1.0616   -0.7394    0.0000   -0.0000    0.0000   -0.0000    1.7803
       18 H4     2px        0.0000   -0.0000    0.0000    0.0000   -0.0000    0.0025    0.1308   -0.2012   -0.0401   -0.0000
       19 H4     2py       -0.0000    0.0000   -0.0000   -0.0000    0.0000    0.1308   -0.0025    0.0401   -0.2012    0.0000
       20 H4     2pz       -0.0427   -0.0602   -0.0925   -0.0490    0.1303   -0.0000    0.0000    0.0000   -0.0000    0.1637
       21 H5     1s        -0.1764   -0.3844    0.3125   -0.0194   -0.2740   -0.0000    0.0000   -0.0000    0.0000   -0.4628
       22 H5     2s        -0.2653   -0.1277    0.0725   -0.0011   -0.2487   -0.0000    0.0000   -0.0000    0.0000   -0.5243
       23 H5     2px       -0.0000    0.0000    0.0000    0.0000   -0.0000    0.0030    0.1575   -0.1958   -0.0390   -0.0000
       24 H5     2py       -0.0000    0.0000   -0.0000   -0.0000    0.0000    0.1575   -0.0030    0.0390   -0.1958   -0.0000
       25 H5     2pz       -0.0323    0.0236   -0.1171   -0.1310    0.1252   -0.0000    0.0000   -0.0000   -0.0000    0.1588
       26 H6     1s         0.4668    0.8307   -0.0375   -0.3698    0.7689    0.0000   -0.0000    0.0000   -0.0000   -0.7634
       27 H6     2s         0.1817    0.6513    0.0847   -0.2905    0.2220    0.0000   -0.0000    0.0000   -0.0000   -0.6204
       28 H6     2px       -0.0000    0.0000    0.0000    0.0000   -0.0000    0.0034    0.1791   -0.1638   -0.0326    0.0000
       29 H6     2py       -0.0000    0.0000   -0.0000   -0.0000    0.0000    0.1791   -0.0034    0.0326   -0.1638   -0.0000
       30 H6     2pz       -0.0631    0.0429   -0.1232   -0.1230    0.0197   -0.0000    0.0000   -0.0000    0.0000    0.0623
       31 H7     1s        -0.2873   -0.3932   -0.5707    0.9942   -0.4097   -0.0000    0.0000   -0.0000    0.0000   -0.7293
       32 H7     2s        -0.2251   -0.1366   -0.1850    0.7180   -0.3723   -0.0000    0.0000   -0.0000    0.0000   -0.7749
       33 H7     2px       -0.0000    0.0000    0.0000    0.0000   -0.0000    0.0037    0.1941   -0.1083   -0.0216    0.0000
       34 H7     2py       -0.0000    0.0000   -0.0000   -0.0000    0.0000    0.1941   -0.0037    0.0216   -0.1083   -0.0000
       35 H7     2pz       -0.0737    0.0770   -0.0520   -0.1340   -0.0899   -0.0000   -0.0000    0.0000    0.0000   -0.0346
       36 H8     1s        -0.1081   -0.1699    0.5023   -0.3084   -0.9352    0.0000   -0.0000    0.0000   -0.0000    1.2271
       37 H8     2s        -0.0411   -0.0060    0.3992    0.0420   -0.5861    0.0000   -0.0000    0.0000   -0.0000    0.6700
       38 H8     2px       -0.0000    0.0000    0.0000    0.0000   -0.0000    0.0038    0.2019   -0.0381   -0.0076    0.0000
       39 H8     2py       -0.0000    0.0000   -0.0000   -0.0000    0.0000    0.2019   -0.0038    0.0076   -0.0381   -0.0000
       40 H8     2pz       -0.0603    0.1236   -0.0054   -0.0616   -0.0916   -0.0000   -0.0000    0.0000    0.0000   -0.1783
       41 H9     1s         0.1081    0.1699    0.5023   -0.3084    0.9352   -0.0000    0.0000   -0.0000    0.0000   -1.2271
       42 H9     2s         0.0411    0.0060    0.3992    0.0420    0.5861   -0.0000    0.0000   -0.0000    0.0000   -0.6700
       43 H9     2px        0.0000    0.0000   -0.0000   -0.0000   -0.0000    0.0038    0.2019    0.0381    0.0076    0.0000
       44 H9     2py       -0.0000    0.0000   -0.0000   -0.0000    0.0000    0.2019   -0.0038   -0.0076    0.0381   -0.0000
       45 H9     2pz       -0.0603    0.1236    0.0054    0.0616   -0.0916   -0.0000    0.0000   -0.0000    0.0000   -0.1783
       46 H10    1s         0.2874    0.3932   -0.5707    0.9942    0.4097    0.0000   -0.0000    0.0000   -0.0000    0.7293
       47 H10    2s         0.2251    0.1366   -0.1850    0.7180    0.3723    0.0000   -0.0000    0.0000   -0.0000    0.7750
       48 H10    2px        0.0000    0.0000    0.0000   -0.0000    0.0000    0.0037    0.1941    0.1083    0.0216    0.0000
       49 H10    2py       -0.0000    0.0000   -0.0000   -0.0000    0.0000    0.1941   -0.0037   -0.0216    0.1083   -0.0000
       50 H10    2pz       -0.0737    0.0770    0.0520    0.1340   -0.0899    0.0000   -0.0000    0.0000   -0.0000   -0.0346
       51 H11    1s        -0.4668   -0.8307   -0.0376   -0.3698   -0.7689    0.0000    0.0000   -0.0000   -0.0000    0.7634
       52 H11    2s        -0.1817   -0.6513    0.0847   -0.2905   -0.2220    0.0000    0.0000   -0.0000   -0.0000    0.6204
       53 H11    2px       -0.0000   -0.0000   -0.0000   -0.0000   -0.0000    0.0034    0.1791    0.1638    0.0326   -0.0000
       54 H11    2py       -0.0000    0.0000   -0.0000   -0.0000    0.0000    0.1791   -0.0034   -0.0326    0.1638    0.0000
       55 H11    2pz       -0.0631    0.0429    0.1232    0.1230    0.0197    0.0000   -0.0000    0.0000   -0.0000    0.0623
       56 H12    1s         0.1764    0.3844    0.3125   -0.0194    0.2740   -0.0000   -0.0000    0.0000    0.0000    0.4628
       57 H12    2s         0.2653    0.1277    0.0725   -0.0012    0.2487   -0.0000   -0.0000    0.0000   -0.0000    0.5243
       58 H12    2px       -0.0000   -0.0000   -0.0000   -0.0000   -0.0000    0.0030    0.1575    0.1958    0.0390   -0.0000
       59 H12    2py       -0.0000    0.0000   -0.0000    0.0000    0.0000    0.1575   -0.0030   -0.0390    0.1958    0.0000
       60 H12    2pz       -0.0323    0.0236    0.1171    0.1310    0.1252    0.0000    0.0000    0.0000   -0.0000    0.1588
       61 H13    1s        -0.1477   -0.3535    0.4552   -1.1203    1.2242   -0.0000    0.0000   -0.0000    0.0000   -2.3765
       62 H13    2s        -0.0604   -0.5295    0.2345   -1.0616    0.7394   -0.0000    0.0000   -0.0000    0.0000   -1.7802
       63 H13    2px       -0.0000   -0.0000    0.0000   -0.0000   -0.0000    0.0025    0.1308    0.2012    0.0401   -0.0000
       64 H13    2py       -0.0000    0.0000   -0.0000    0.0000    0.0000    0.1308   -0.0025   -0.0401    0.2012    0.0000
       65 H13    2pz       -0.0427   -0.0602    0.0925    0.0490    0.1303    0.0000    0.0000   -0.0000   -0.0000    0.1637
       66 H14    1s         0.5819    0.9459   -1.1793    2.0241   -1.2520    0.0000   -0.0000    0.0000   -0.0000    3.1754
       67 H14    2s         0.5719    0.6206   -0.8716    1.2168   -0.8662    0.0000   -0.0000    0.0000   -0.0000    1.9580
       68 H14    2px        0.0000   -0.0000   -0.0000   -0.0000   -0.0000    0.0019    0.1009    0.1809    0.0361   -0.0000
       69 H14    2py        0.0000    0.0000    0.0000   -0.0000    0.0000    0.1009   -0.0019   -0.0361    0.1809    0.0000
       70 H14    2pz       -0.0490   -0.1058    0.0961   -0.0549    0.1290   -0.0000    0.0000   -0.0000   -0.0000    0.0652
       71 H15    1s        -1.1326   -1.8389    0.9293   -2.8931   -0.0303   -0.0000    0.0000   -0.0000    0.0000   -3.9093
       72 H15    2s        -0.5784   -1.2677    0.4745   -2.1315   -0.1120   -0.0000    0.0000   -0.0000    0.0000   -3.0215
       73 H15    2px       -0.0000    0.0000    0.0000    0.0000   -0.0000    0.0013    0.0680    0.1353    0.0270   -0.0000
       74 H15    2py       -0.0000    0.0000    0.0000    0.0000    0.0000    0.0680   -0.0013   -0.0270    0.1353    0.0000
       75 H15    2pz       -0.0536   -0.1242    0.1159   -0.1640    0.1622   -0.0000    0.0000   -0.0000    0.0000   -0.1440
       76 H16    1s         0.7097    1.4979   -0.3517    1.9450    0.2673    0.0000   -0.0000    0.0000   -0.0000    2.2237
       77 H16    2s         0.6882    1.1101   -0.5596    1.5040   -0.1732    0.0000   -0.0000    0.0000   -0.0000    1.7269
       78 H16    2px        0.0000   -0.0000    0.0000   -0.0000   -0.0000    0.0008    0.0425    0.0912    0.0182   -0.0000
       79 H16    2py        0.0000    0.0000   -0.0000    0.0000    0.0000    0.0425   -0.0008   -0.0182    0.0912    0.0000
       80 H16    2pz       -0.0511   -0.1035    0.0751   -0.1473    0.0959   -0.0000    0.0000   -0.0000    0.0000   -0.1637
 
          Orbital           21        22        23    
          Energy            0.5864    0.5864    0.6081
          Occ. No.          0.0000    0.0000    0.0000
 
        1 H1     1s         0.0000    0.0000    0.5327
        2 H1     2s         0.0000    0.0000    0.0007
        3 H1     2px        0.0024    0.1517   -0.0000
        4 H1     2py        0.1517   -0.0024    0.0000
        5 H1     2pz        0.0000   -0.0000   -0.1437
        6 H2     1s        -0.0000   -0.0000   -1.0218
        7 H2     2s        -0.0000   -0.0000   -0.7450
        8 H2     2px        0.0031    0.1988   -0.0000
        9 H2     2py        0.1988   -0.0031    0.0000
       10 H2     2pz        0.0000   -0.0000   -0.2169
       11 H3     1s         0.0000    0.0000   -0.5910
       12 H3     2s         0.0000    0.0000   -0.4033
       13 H3     2px        0.0034    0.2190   -0.0000
       14 H3     2py        0.2190   -0.0034    0.0000
       15 H3     2pz       -0.0000   -0.0000   -0.1607
       16 H4     1s        -0.0000    0.0000    2.0826
       17 H4     2s        -0.0000    0.0000    1.4592
       18 H4     2px        0.0027    0.1721   -0.0000
       19 H4     2py        0.1721   -0.0027    0.0000
       20 H4     2pz       -0.0000   -0.0000   -0.1284
       21 H5     1s        -0.0000    0.0000   -0.8313
       22 H5     2s        -0.0000    0.0000   -0.2933
       23 H5     2px        0.0012    0.0765   -0.0000
       24 H5     2py        0.0765   -0.0012    0.0000
       25 H5     2pz       -0.0000    0.0000   -0.0119
       26 H6     1s         0.0000   -0.0000   -0.3440
       27 H6     2s         0.0000   -0.0000   -0.0855
       28 H6     2px       -0.0006   -0.0415   -0.0000
       29 H6     2py       -0.0415    0.0006    0.0000
       30 H6     2pz       -0.0000    0.0000    0.1458
       31 H7     1s         0.0000    0.0000    1.5151
       32 H7     2s         0.0000    0.0000    0.8372
       33 H7     2px       -0.0023   -0.1481    0.0000
       34 H7     2py       -0.1481    0.0023   -0.0000
       35 H7     2pz       -0.0000    0.0000    0.1303
       36 H8     1s        -0.0000   -0.0000   -1.1974
       37 H8     2s        -0.0000   -0.0000   -0.9460
       38 H8     2px       -0.0033   -0.2104    0.0000
       39 H8     2py       -0.2104    0.0033   -0.0000
       40 H8     2pz        0.0000   -0.0000    0.0287
       41 H9     1s         0.0000    0.0000   -1.1974
       42 H9     2s         0.0000    0.0000   -0.9460
       43 H9     2px       -0.0033   -0.2104    0.0000
       44 H9     2py       -0.2104    0.0033   -0.0000
       45 H9     2pz        0.0000   -0.0000   -0.0287
       46 H10    1s        -0.0000    0.0000    1.5151
       47 H10    2s        -0.0000    0.0000    0.8372
       48 H10    2px       -0.0023   -0.1481    0.0000
       49 H10    2py       -0.1481    0.0023   -0.0000
       50 H10    2pz        0.0000   -0.0000   -0.1303
       51 H11    1s        -0.0000    0.0000   -0.3441
       52 H11    2s        -0.0000    0.0000   -0.0856
       53 H11    2px       -0.0006   -0.0415    0.0000
       54 H11    2py       -0.0415    0.0006   -0.0000
       55 H11    2pz       -0.0000   -0.0000   -0.1458
       56 H12    1s        -0.0000   -0.0000   -0.8312
       57 H12    2s        -0.0000   -0.0000   -0.2933
       58 H12    2px        0.0012    0.0764   -0.0000
       59 H12    2py        0.0764   -0.0012    0.0000
       60 H12    2pz       -0.0000    0.0000    0.0119
       61 H13    1s         0.0000    0.0000    2.0826
       62 H13    2s         0.0000    0.0000    1.4592
       63 H13    2px        0.0027    0.1721   -0.0000
       64 H13    2py        0.1721   -0.0027    0.0000
       65 H13    2pz       -0.0000    0.0000    0.1284
       66 H14    1s        -0.0000    0.0000   -0.5910
       67 H14    2s        -0.0000    0.0000   -0.4033
       68 H14    2px        0.0034    0.2190   -0.0000
       69 H14    2py        0.2190   -0.0034    0.0000
       70 H14    2pz       -0.0000    0.0000    0.1607
       71 H15    1s         0.0000   -0.0000   -1.0218
       72 H15    2s         0.0000   -0.0000   -0.7450
       73 H15    2px        0.0031    0.1988   -0.0000
       74 H15    2py        0.1988   -0.0031    0.0000
       75 H15    2pz        0.0000    0.0000    0.2169
       76 H16    1s        -0.0000    0.0000    0.5327
       77 H16    2s        -0.0000    0.0000    0.0007
       78 H16    2px        0.0024    0.1517   -0.0000
       79 H16    2py        0.1517   -0.0024    0.0000
       80 H16    2pz        0.0000    0.0000    0.1437
--
 
 
++    Molecular charges:
      ------------------
 
      Mulliken charges per centre and basis function type
      ---------------------------------------------------
 
                H1      H2      H3      H4      H5      H6      H7      H8      H9      H10     H11     H12   
      1s       1.3292  0.5964  1.0847  0.8836  0.9694  0.9389  0.9590  0.9492  0.9493  0.9590  0.9389  0.9694
      2s       0.0077  0.0233 -0.0852 -0.0405 -0.0140 -0.0144 -0.0287 -0.0241 -0.0241 -0.0287 -0.0144 -0.0140
      2px      0.0000  0.0000  0.0000  0.0000  0.0000  0.0000 -0.0000  0.0000  0.0000 -0.0000  0.0000  0.0000
      2pz      0.0341  0.0803  0.0645  0.0604  0.0518  0.0587  0.0568  0.0586  0.0586  0.0568  0.0587  0.0518
      2py      0.0000  0.0000  0.0000  0.0000  0.0000 -0.0000  0.0000  0.0000 -0.0000  0.0000  0.0000  0.0000
      Total    1.3709  0.7001  1.0641  0.9036  1.0072  0.9832  0.9872  0.9838  0.9838  0.9871  0.9832  1.0072
 
      N-E     -0.3709  0.2999 -0.0641  0.0964 -0.0072  0.0168  0.0128  0.0162  0.0162  0.0129  0.0168 -0.0072
 
                H13     H14     H15     H16   
      1s       0.8836  1.0847  0.5964  1.3292
      2s      -0.0405 -0.0852  0.0233  0.0077
      2px      0.0000  0.0000  0.0000  0.0000
      2pz      0.0604  0.0645  0.0803  0.0341
      2py      0.0000  0.0000  0.0000  0.0000
      Total    0.9036  1.0641  0.7001  1.3709
 
      N-E      0.0964 -0.0641  0.2999 -0.3709
 
      Total electronic charge=   16.000000
 
      Total            charge=   -0.000000
--
 
 
  Input file to MOLDEN was generated!
 
 
++    Static properties:
      ------------------
 
 
      LoProp Charges per center
 

                   H1       H2       H3       H4       H5       H6       H7       H8       H9       H10   
      Nuclear      1.0000   1.0000   1.0000   1.0000   1.0000   1.0000   1.0000   1.0000   1.0000   1.0000
      Electronic  -1.1319  -0.9559  -1.0001  -0.9592  -1.0019  -0.9741  -0.9927  -0.9843  -0.9843  -0.9927
 
      Total       -0.1319   0.0441  -0.0001   0.0408  -0.0019   0.0259   0.0073   0.0157   0.0157   0.0073
 

                   H11      H12      H13      H14      H15      H16   
      Nuclear      1.0000   1.0000   1.0000   1.0000   1.0000   1.0000
      Electronic  -0.9741  -1.0019  -0.9592  -1.0001  -0.9559  -1.1319
 
      Total        0.0259  -0.0019   0.0408  -0.0001   0.0441  -0.1319
--
 
 
++    Natural Bond Order analysis
      ---------------------------
      Based on LoProp computed density
      -------------------------------------------------------------------------------------
      Atom A       Atom B       Bond Order | Atom A       Atom B       Bond Order
        H1           H2             0.965  |   H5           H6             0.920
        H15          H16            0.965  |   H7           H8             0.921
        H3           H4             0.929  |   H9           H10            0.921
        H13          H14            0.929  |   H11          H12            0.920
      -------------------------------------------------------------------------------------
      NBO located     14.941 electrons involved in    8 bonds.
      The remaining    1.059 electrons are to be considered as diffuse
--
 
 
++    Molecular properties:
      ---------------------
 
      Charge (e):
                      =   -0.0000
      Dipole Moment (Debye):
      Origin of the operator (Ang)=    0.0000    0.0000    0.0000
                   X=  1.0019E-13               Y= -1.2285E-13               Z=  3.7353E-05           Total=  3.7353E-05
      Quadrupole Moment (Debye*Ang):
      Origin of the operator (Ang)=    0.0000    0.0000    5.5909
                  XX= -1.4919E+01              XY=  2.0337E-27              XZ= -5.8813E-13              YY= -1.4919E+01
                  YZ=  7.3363E-13              ZZ= -4.6221E+01
      In traceless form (Debye*Ang)
                  XX=  1.5651E+01              XY=  3.0505E-27              XZ= -8.8220E-13              YY=  1.5651E+01
                  YZ=  1.1004E-12              ZZ= -3.1302E+01
--
 
 
  Input file to MOLDEN was generated!
 
 ###############################################################################
 ###############################################################################
 ###                                                                         ###
 ###                                                                         ###
 ###    RunFile label nBas                                                   ###
 ###    was used       78 times                                              ###
 ###                                                                         ###
 ###                                                                         ###
 ###############################################################################
 ###############################################################################
forrtl: warning (528): IEEE_UNDERFLOW is signaling
--- Stop Module: scf at Tue Feb 25 12:56:51 2025 /rc=_RC_ALL_IS_WELL_ ---
*** files: H16_0.75.LprOrb H16_0.75.LoProp.molden H16_0.75.scf.molden H16_0.75.ScfOrb H16_0.75.scf.h5 xmldump
    saved to directory /home/grierjones/DDCASPT2/hydrogen_comps/H16_chain/H16_0.75

>>> COPY /tmp/H16_0.75/H16_0.75.scf.h5 /home/grierjones/DDCASPT2/hydrogen_comps/H16_chain/H16_0.75/

*** symbolic link created: INPORB -> H16_0.75.ScfOrb
--- Start Module: rasscf at Tue Feb 25 12:56:51 2025 ---
 
()()()()()()()()()()()()()()()()()()()()()()()()()()()()()()()()()()()()()()()()()()()()()()()()()()

                                              &RASSCF

                                   only a single process is used
                       available to each process: 2.0 GB of memory, 1 thread
()()()()()()()()()()()()()()()()()()()()()()()()()()()()()()()()()()()()()()()()()()()()()()()()()()
 
 
 *************** WARNING ****************
 ###############################################################################
 ###############################################################################
 ###                                                                         ###
 ###                                                                         ###
 ###    Too many macro-iterations.                                           ###
 ###                                                                         ###
 ###                                                                         ###
 ###############################################################################
 ###############################################################################
 Too many macro-iterations requested.
 Reset to maximum, new MAXIT=     200
 ****************************************
 
 *************** WARNING ****************
 ###############################################################################
 ###############################################################################
 ###                                                                         ###
 ###                                                                         ###
 ###    Too many SX-iterations.                                              ###
 ###                                                                         ###
 ###                                                                         ###
 ###############################################################################
 ###############################################################################
 Too many SX-iterations requested.
 Reset to maximum, new ITMAX=     100
 ****************************************
---------------------------------------------------------------------------------------------
  Nr.	 Label		Type		Offset		Length	   Atime	  Address
---------------------------------------------------------------------------------------------
  1	IP_DUM      	REAL	       8125880	           8           2	[0x4c40220]
  2	IP_SDUM     	SNGL	      16251704	           4           3	[0x4c40140]
  3	IP_IDUM     	INTE	       8125824	           8           4	[0x4c40060]
  4	DRT0        	INTE	       8144192	       11400           7	[0x4c63e60]
  5	DOWN        	INTE	       8145618	        9120           8	[0x4c66af0]
  6	DAW1        	INTE	       8146760	       11400          10	[0x4c68ea0]
  7	LUP1        	INTE	       8148186	        9120          11	[0x4c6bb30]
  8	RAW1        	INTE	       8149328	       11400          12	[0x4c6dee0]
  9	NOW1        	INTE	       8140874	         720          14	[0x4c5d6b0]
 10	IOW1        	INTE	       8150754	         720          15	[0x4c70b70]
 11	NCSF        	INTE	       8139636	         360          16	[0x4c5b000]
 12	ICSF        	INTE	       8150846	         360          17	[0x4c70e50]
 13	CASE        	INTE	17563090401142	      388960          19	[0x7fc9cf01d010]
 14	IUSG        	INTE	17563089490806	      846720          20	[0x7fc9ce92b010]
 15	ILSG        	INTE	17563089384822	      846720          21	[0x7fc9ce85c010]
 16	INT1        	REAL	       8152348	        2048          22	[0x4c73d40]
 17	INT1O       	REAL	       8152606	        2048          23	[0x4c74550]
 18	FI          	REAL	       8152864	        2048          24	[0x4c74d60]
 19	FIO         	REAL	       8153122	        2048          25	[0x4c75570]
 20	FIZ         	REAL	       8153380	        2048          26	[0x4c75d80]
 21	PINT1       	INTE	       8126084	           8          27	[0x4c40880]
 22	PINT2       	INTE	       8126024	           8          28	[0x4c406a0]
 23	PGINT1      	INTE	       8125996	           8          29	[0x4c405c0]
 24	PGIN1A      	INTE	       8126196	           8          30	[0x4c40c00]
 25	LSM1        	INTE	       8126396	           8          31	[0x4c41240]
 26	LSM2        	INTE	       8126368	           8          32	[0x4c41160]
 27	RHO1        	REAL	       8153638	        2048          33	[0x4c76590]
 28	SRHO1       	REAL	       8153896	        2048          34	[0x4c76da0]
 29	KINH1       	INTE	       8154154	        2048          35	[0x4c775b0]
 30	KINH1       	INTE	       8154412	        2048          36	[0x4c77dc0]
 31	OCSTR       	INTE	-577777000306848033	           0          37	[(nil)]
 32	STREO       	INTE	       8126340	           8          38	[0x4c41080]
 33	OCSTR       	INTE	-577777000306848031	           0          39	[(nil)]
 34	STREO       	INTE	       8126312	           8          40	[0x4c40fa0]
 35	OCSTR       	INTE	       8140664	         128          41	[0x4c5d020]
 36	STREO       	INTE	       8140682	         128          42	[0x4c5d0b0]
 37	OCSTR       	INTE	       8154670	        1920          43	[0x4c785d0]
 38	STREO       	INTE	       8154912	         960          44	[0x4c78d60]
 39	OCSTR       	INTE	       8155034	       13440          45	[0x4c79130]
 40	STREO       	INTE	       8156716	        4480          46	[0x4c7c5c0]
 41	OCSTR       	INTE	       8157278	       58240          47	[0x4c7d750]
 42	STREO       	INTE	       8164560	       14560          48	[0x4c8bae0]
 43	OCSTR       	INTE	17563089362806	      174720          49	[0x7fc9ce831010]
 44	STREO       	INTE	       8166382	       34944          50	[0x4c8f3d0]
 45	OCSTR       	INTE	17563089314678	      384384          51	[0x7fc9ce7d3010]
 46	STREO       	INTE	       8170752	       64064          52	[0x4c97c60]
 47	OCSTR       	INTE	17563089234294	      640640          53	[0x7fc9ce736010]
 48	STREO       	INTE	       8178762	       91520          54	[0x4ca76b0]
 49	OCSTR       	INTE	17563089130870	      823680          55	[0x7fc9ce66c010]
 50	STREO       	INTE	       8190204	      102960          56	[0x4cbdc40]
 51	OCSTR       	INTE	-577777000306848013	           0          57	[(nil)]
 52	STREO       	INTE	       8126284	           8          58	[0x4c40ec0]
 53	NSTSGP      	INTE	       8139004	          88          59	[0x4c59c40]
 54	ISTSGP      	INTE	       8139480	          88          60	[0x4c5ab20]
 55	NSTSO       	INTE	       8126256	           8          61	[0x4c40de0]
 56	ISTSO       	INTE	       8126228	           8          62	[0x4c40d00]
 57	NSTSO       	INTE	       8126424	           8          63	[0x4c41320]
 58	ISTSO       	INTE	       8126620	           8          64	[0x4c41940]
 59	NSTSO       	INTE	       8126592	           8          65	[0x4c41860]
 60	ISTSO       	INTE	       8126564	           8          66	[0x4c41780]
 61	NSTSO       	INTE	       8126536	           8          67	[0x4c416a0]
 62	ISTSO       	INTE	       8126508	           8          68	[0x4c415c0]
 63	NSTSO       	INTE	       8126480	           8          69	[0x4c414e0]
 64	ISTSO       	INTE	       8126452	           8          70	[0x4c41400]
 65	NSTSO       	INTE	       8126648	           8          71	[0x4c41a20]
 66	ISTSO       	INTE	       8126848	           8          72	[0x4c42060]
 67	ZMAT        	INTE	-577777000306847997	           0          73	[(nil)]
 68	ZMAT        	INTE	-577777000306847996	           0          74	[(nil)]
 69	ZMAT        	INTE	       8140966	         128          75	[0x4c5d990]
 70	ZMAT        	INTE	       8139374	         256          76	[0x4c5a7d0]
 71	ZMAT        	INTE	       8203076	         384          77	[0x4cd6e80]
 72	ZMAT        	INTE	       8140808	         512          78	[0x4c5d4a0]
 73	ZMAT        	INTE	       8203126	         640          79	[0x4cd7010]
 74	ZMAT        	INTE	       8203208	         768          80	[0x4cd72a0]
 75	ZMAT        	INTE	       8203306	         896          81	[0x4cd75b0]
 76	ZMAT        	INTE	       8139054	        1024          82	[0x4c59dd0]
 77	ZMAT        	INTE	-577777000306847987	           0          83	[(nil)]
 78	ORBMAP      	INTE	       8203420	         128          84	[0x4cd7940]
 79	STRMAP      	INTE	       8203438	         128          85	[0x4cd79d0]
 80	ORBMAP      	INTE	       8203456	        2048          86	[0x4cd7a60]
 81	STRMAP      	INTE	       8203714	        2048          87	[0x4cd8270]
 82	ORBMAP      	INTE	       8203972	       15360          88	[0x4cd8a80]
 83	STRMAP      	INTE	       8205894	       15360          89	[0x4cdc690]
 84	ORBMAP      	INTE	       8207816	       71680          90	[0x4ce02a0]
 85	STRMAP      	INTE	       8216778	       71680          91	[0x4cf1ab0]
 86	ORBMAP      	INTE	17563089101686	      232960          92	[0x7fc9ce633010]
 87	STRMAP      	INTE	17563089072502	      232960          93	[0x7fc9ce5fa010]
 88	ORBMAP      	INTE	17563089002358	      559104          94	[0x7fc9ce571010]
 89	STRMAP      	INTE	17563088932214	      559104          95	[0x7fc9ce4e8010]
 90	ORBMAP      	INTE	17563088803702	     1025024          96	[0x7fc9ce3ed010]
 91	STRMAP      	INTE	17563088675190	     1025024          97	[0x7fc9ce2f2010]
 92	ORBMAP      	INTE	17563088491894	     1464320          98	[0x7fc9ce18c010]
 93	STRMAP      	INTE	17563088308598	     1464320          99	[0x7fc9ce026010]
 94	ORBMAP      	INTE	17563088205174	      823680         100	[0x7fc9cdf5c010]
 95	STRMAP      	INTE	17563088101750	      823680         101	[0x7fc9cde92010]
 96	COBSM       	INTE	       8225740	         128         102	[0x4d032c0]
 97	NIFSJ       	INTE	       8225758	         128         103	[0x4d03350]
 98	IFSJ        	INTE	       8225776	        2048         104	[0x4d033e0]
 99	IFSJO       	INTE	       8226034	         128         105	[0x4d03bf0]
100	STSTX       	INTE	       8126816	           8         106	[0x4c41f60]
101	IOCLS       	INTE	       8126788	          24         107	[0x4c41e80]
102	SPGPAN      	INTE	       8139470	          72         108	[0x4c5aad0]
103	SPGPCR      	INTE	       8139682	          72         109	[0x4c5b170]
104	ISMDFGP     	INTE	       8140984	          88         111	[0x4c5da20]
105	NACTSYM     	INTE	       8226052	          88         112	[0x4d03c80]
106	ISMSCR      	INTE	       8226064	          88         113	[0x4d03ce0]
107	VEC1       MMA failed to allocate a memory block.
 	REAL	17562922451830	  1325198160         116	[0x7fc97eec3010]
---------------------------------------------------------------------------------------------
Maximal available memory for Molcas = 709839188
MEMORY ERROR: Memory is exhausted!
MEMORY ERROR: Available memory = 709839188 ( 709 Mb ) !
MEMORY ERROR: Requested memory = 1325198160 ( 1325 Mb ) !
MEMORY ERROR: The suggested MOLCAS_MEM=2664 !
C_GetMem Calling parameters: ('VEC2   ','ALLO   ','REAL   ',0,165649770)
--- Stop Module: rasscf at Tue Feb 25 12:56:51 2025 /rc=_RC_FLOATING_EXCEPTION_ ---
*** files: xmldump
    saved to directory /home/grierjones/DDCASPT2/hydrogen_comps/H16_chain/H16_0.75

.########################.
.# Non-zero return code #.
     1024          82	[0x4c59dd0]
 77	ZMAT        	INTE	-577777000.########################.

    Timing: Wall=4.49 User=4.10 System=0.38
****************************************
*** WorkDir at /tmp/H16_0.75 cleaned ***
****************************************
