   This run of MOLCAS is using the pymolcas driver

                             OPE
                             OPE          NMOL  CASOP  ENMOLC A   SO
                 OPE        NMOLC        AS  OP EN  MO LC     AS  OP
                OPENM       OL CA        SO  PE NM  OL CA     SOP EN
                OP EN      MO   LC       AS  OP ENMOL  CASO   PENMOL
                OP  EN     MO   LC       AS  OP EN     MO     LC ASO
               OP   E  NMOL  C  AS       OP  EN MO     LC     AS  OP
               OP  E   NMO   LC AS        OPEN  MO     LCASOP EN   M
               O  PEN   MO  LCA  SO
            OPE   NMO   L   CAS    OP
        OPENMOL  CASOP     ENMOL   CASOPE
     OPENMOLCA   SOPENMOLCASOPEN   MOLCASOPE
    OPENMOLCAS   OP           EN   MOL    CAS
    OPENMOLCAS       OP  ENM        O     LCA
    OPENMOLCAS    OPEN  MOLCASO     P  E  NMO
    OPENMOLCAS     OP               E  N  MOL
    OPENMOLCA   SO           PENM   O  L  CAS    OPEN    MO    LCAS
    OPENMOLCA   SOP           ENM   O  L  CAS   OP  EN  MOLC  AS   O
    OPENMOLCA   SOPE           NM      O  LCA   S      OP  EN MO
    OPENMOLC                AS         O  PEN   M      OL  CA  SOPE
    OPENMO        LCASOPE  NMOL        C  ASO   P      ENMOLC     AS
    OPE     NMO      LCA  SO     P     E   NM   OL  CA SO  PE N   MO
          OPENMOLCA            SOPE   NMO        LCAS  O    P  ENMO
     OPENMOLCASOPENMOLCASOPENMOLCASOPENMOLCA
        OPENMOLCASOPENMOLCASOPENMOLCASOPE
            OPENMOLCASOPENMOLCASOPENM
               OPENMOLCASOPENMOLCA        version: ea724fe96-dirty
                   OPENMOLCASO
                       OPE                tag:

 OpenMolcas is free software; you can redistribute it and/or modify it
 under the terms of the GNU Lesser General Public License version 2.1.
 OpenMolcas is distributed in the hope that it will be useful, but it
 is provided "as is" and without any express or implied warranties.
 For more details see the full text of the license in the file
 LICENSE or in <http://www.gnu.org/licenses/>.

                 Copyright (C) The OpenMolcas Authors
           For the author list and the recommended citation,
                   consult the file CONTRIBUTORS.md

           *************************************************
           * pymolcas version py2.28                       *
           *   build c4a6d18ded8cb6cad61d2372a9abd97c      *
           *   (after the EMIL interpreter by V. Veryazov) *
           *************************************************

configuration info
------------------
C Compiler ID: Intel
C flags: -std=gnu99
Fortran Compiler ID: Intel
Fortran flags: -fpp -i8 -r8 -heap-arrays
Definitions: _MOLCAS_;_I8_;_LINUX_
Parallel: OFF (GA=OFF)


   --------------------------------------------------------------------------------
  |
  |              Project: ozone_136.50
  |       Submitted from: /home/grierjones/DDCASPT2/ozone/ANO-RCC-VDZP/ozone_136.50
  |         Scratch area: /tmp/ozone_136.50
  |      Save outputs to: /home/grierjones/DDCASPT2/ozone/ANO-RCC-VDZP/ozone_136.50
  |               Molcas: /home/grierjones/Test/build
  |
  | Scratch area is empty
  |
  |       MOLCAS_DRIVER = /usr/local/pymolcas
  | MOLCAS_KEEP_WORKDIR = NO
  |  MOLCAS_NEW_WORKDIR = YES
  |       MOLCAS_NPROCS = 1
  |        MOLCAS_PRINT = NORMAL
  |       MOLCAS_SOURCE = /home/grierjones/Test/build
  |    MOLCAS_STRUCTURE = 0
  |
   --------------------------------------------------------------------------------

++ ---------   Input file   ---------

&GATEWAY
coord=ozone_136.50.xyz
Basis = ANO-RCC-VDZP
Group = nosymm
Expert
End of Input

&SEWARD
End of Input

&SCF

>>> COPY $WorkDir/ozone_136.50.scf.h5 $CurrDir/

&RASSCF
Title= RASSCF
FileOrb
/home/grierjones/DDCASPT2/ozone/ANO-RCC-VDZP/ozone_136.00/ozone_136.00.RasOrb
NACTEL
4 0 0
Inactive
10
RAS2
3
Symmetry
1
Spin
1
orblisting
all
ITERation
200 100
CIMX
200
SDAV
500

>>> COPY $WorkDir/ozone_136.50.rasscf.h5 $CurrDir/

>>> COPY $WorkDir/GMJ_Fock_MO.csv $CurrDir/ozone_136.50.GMJ_Fock_MO.csv

>>> COPY $WorkDir/GMJ_PT2_Fock_MO.csv $CurrDir/ozone_136.50.GMJ_PT2_Fock_MO.csv

&MOTRA
Frozen=0
LUMORB

>>> COPY $WorkDir/GMJ_one_int_indx.csv $CurrDir/ozone_136.50.GMJ_one_int_indx.csv

>>> COPY $WorkDir/GMJ_one_int.csv $CurrDir/ozone_136.50.GMJ_one_int.csv

>>> COPY $WorkDir/GMJ_two_int_indx.csv $CurrDir/ozone_136.50.GMJ_two_int_indx.csv

>>> COPY $WorkDir/GMJ_two_int.csv $CurrDir/ozone_136.50.GMJ_two_int.csv

&CASPT2
Frozen
0

>>> FOREACH i IN (B,E,F,G,H)

  >>> FOREACH j IN (P,M)

    >>> IF (-FILE GMJ_e2_${i}_${j}.csv)

      >>> COPY $WorkDir/GMJ_RHS_${i}_${j}.csv $CurrDir/GMJ_RHS_${i}_${j}.csv

      >>> COPY $WorkDir/GMJ_IVECW_${i}_${j}.csv $CurrDir/GMJ_IVECW_${i}_${j}.csv

      >>> COPY $WorkDir/GMJ_IVECX_${i}_${j}.csv $CurrDir/GMJ_IVECX_${i}_${j}.csv

      >>> COPY $WorkDir/GMJ_IVECC2_${i}_${j}.csv $CurrDir/GMJ_IVECC2_${i}_${j}.csv

      >>> COPY $WorkDir/GMJ_e2_${i}_${j}.csv $CurrDir/GMJ_e2_${i}_${j}.csv

    >>> END IF

  >>> END FOREACH

>>> END FOREACH

>>> FOREACH i IN (A,C,D)

  >>> IF (-FILE GMJ_e2_$i.csv)

    >>> COPY $WorkDir/GMJ_RHS_$i.csv $CurrDir/GMJ_RHS_$i.csv

    >>> COPY $WorkDir/GMJ_IVECW_$i.csv $CurrDir/GMJ_IVECW_$i.csv

    >>> COPY $WorkDir/GMJ_IVECX_$i.csv $CurrDir/GMJ_IVECX_$i.csv

    >>> COPY $WorkDir/GMJ_IVECC2_$i.csv $CurrDir/GMJ_IVECC2_$i.csv

    >>> COPY $WorkDir/GMJ_e2_$i.csv $CurrDir/GMJ_e2_$i.csv

  >>> END IF

>>> END FOREACH

-- ----------------------------------

--- Start Module: gateway at Wed Nov 13 12:43:05 2024 ---
 
()()()()()()()()()()()()()()()()()()()()()()()()()()()()()()()()()()()()()()()()()()()()()()()()()()

                                              &GATEWAY

                                   only a single process is used
                       available to each process: 2.0 GB of memory, 1 thread?
()()()()()()()()()()()()()()()()()()()()()()()()()()()()()()()()()()()()()()()()()()()()()()()()()()
 
 ###############################################################################
 ###############################################################################
 ###                                                                         ###
 ###                                                                         ###
 ###                                                                         ###
 ###    WARNING: EXPERT option is ON!                                        ###
 ###                                                                         ###
 ###                                                                         ###
 ###############################################################################
 ###############################################################################
 
++    Symmetry information:
      ---------------------
 
                    Character Table for C1 
 
                             E  
                    a        1  x, y, xy, Rz, z, xz, Ry, yz, Rx, I
--
 
 
++    Basis set information:
      ----------------------
 
 
      Basis set label: O.ANO-RCC...3S2P1D.
 
      Electronic valence basis set:
      ------------------
      Associated Effective Charge   8.000000 au
      Associated Actual Charge      8.000000 au
      Nuclear Model: Point charge
 
      Shell  nPrim  nBasis  Cartesian Spherical Contaminant
         s      14       3        X                  
         p       9       2        X                  
         d       4       1                 X         
--
 
 
++    Molecular structure info:
      -------------------------
 
                    ************************************************ 
                    **** Cartesian Coordinates / Bohr, Angstrom **** 
                    ************************************************ 
 
     Center  Label                x              y              z                     x              y              z
        1      O1               0.894921       2.243141       0.000000              0.473572       1.187019       0.000000
        2      O2               0.000000       0.000000       0.000000              0.000000       0.000000       0.000000
        3      O3               0.894921      -2.243141       0.000000              0.473572      -1.187019       0.000000
 
                    *************************************** 
                    *    InterNuclear Distances / Bohr    * 
                    *************************************** 
 
               1 O1            2 O2            3 O3    
    1 O1       0.000000
    2 O2       2.415070        0.000000
    3 O3       4.486282        2.415070        0.000000
 
                    ******************************************* 
                    *    InterNuclear Distances / Angstrom    * 
                    ******************************************* 
 
               1 O1            2 O2            3 O3    
    1 O1       0.000000
    2 O2       1.278000        0.000000
    3 O3       2.374038        1.278000        0.000000
 
                    ************************************** 
                    *    Valence Bond Angles / Degree    * 
                    ************************************** 
                          Atom centers                 Phi
                      1 O1       2 O2       3 O3       136.50
--
 
 
            Nuclear Potential Energy             67.26623717 au
 
 ###############################################################################
 ###############################################################################
 ###                                                                         ###
 ###                                                                         ###
 ###    There were warnings during the execution                             ###
 ###    Please, check the output with care!                                  ###
 ###                                                                         ###
 ###                                                                         ###
 ###############################################################################
 ###############################################################################
--- Stop Module: gateway at Wed Nov 13 12:43:05 2024 /rc=_RC_ALL_IS_WELL_ ---
*** files: xmldump
    saved to directory /home/grierjones/DDCASPT2/ozone/ANO-RCC-VDZP/ozone_136.50

--- Start Module: seward at Wed Nov 13 12:43:05 2024 ---
 
()()()()()()()()()()()()()()()()()()()()()()()()()()()()()()()()()()()()()()()()()()()()()()()()()()

                                              &SEWARD

                                   only a single process is used
                       available to each process: 2.0 GB of memory, 1 thread?
()()()()()()()()()()()()()()()()()()()()()()()()()()()()()()()()()()()()()()()()()()()()()()()()()()
 
 ###############################################################################
 ###############################################################################
 ###                                                                         ###
 ###                                                                         ###
 ###                                                                         ###
 ###    WARNING: EXPERT option is ON!                                        ###
 ###                                                                         ###
 ###                                                                         ###
 ###############################################################################
 ###############################################################################
               SEWARD will generate:
                  Multipole Moment integrals up to order  2
                  Kinetic Energy integrals
                  Nuclear Attraction integrals (point charge)
                  One-Electron Hamiltonian integrals
                  Velocity integrals
                  Relativistic Douglas-Kroll-Hess integrals:
                    - Parametrization         : EXP
                    - DKH order of Hamiltonian: 2
                    - DKH order of Properties : 0
                         - multipole moment operators
                         - electric potential operators
                         - contact operators
                  Atomic mean-field integrals
                  Two-Electron Repulsion integrals
 
                   Integrals are discarded if absolute value <: 0.10E-13
                   Integral cutoff threshold is set to       <: 0.10E-15
 
            Nuclear Potential Energy             67.26623717 au
 
 
      Basis set specifications :
      Symmetry species         a  
      Basis functions           42
 
 
  Input file to MOLDEN was generated!
 
 ###############################################################################
 ###############################################################################
 ###                                                                         ###
 ###                                                                         ###
 ###    There were warnings during the execution                             ###
 ###    Please, check the output with care!                                  ###
 ###                                                                         ###
 ###                                                                         ###
 ###############################################################################
 ###############################################################################
--- Stop Module: seward at Wed Nov 13 12:43:06 2024 /rc=_RC_ALL_IS_WELL_ ---
*** files: ozone_136.50.GssOrb ozone_136.50.guessorb.h5 ozone_136.50.guessorb.molden xmldump
    saved to directory /home/grierjones/DDCASPT2/ozone/ANO-RCC-VDZP/ozone_136.50

*** symbolic link created: INPORB -> ozone_136.50.GssOrb
--- Start Module: scf at Wed Nov 13 12:43:06 2024 ---
 
()()()()()()()()()()()()()()()()()()()()()()()()()()()()()()()()()()()()()()()()()()()()()()()()()()

                                                &SCF

                                   only a single process is used
                       available to each process: 2.0 GB of memory, 1 thread?
()()()()()()()()()()()()()()()()()()()()()()()()()()()()()()()()()()()()()()()()()()()()()()()()()()
 
++    Input section:
      --------------
 
      Header of the integral files:
      
       Integrals generated by seward 4.2.0  , Wed Nov 13 12:43:05 2024
 
 
      Cartesian coordinates in Angstrom:
      -----------------------------------------------------
      No.  Label        X            Y            Z        
      -----------------------------------------------------
       1   O1         0.47357200   1.18701900   0.00000000
       2   O2         0.00000000   0.00000000   0.00000000
       3   O3         0.47357200  -1.18701900   0.00000000
      -----------------------------------------------------
      Nuclear repulsion energy =   67.26623717
--
 
++    Orbital specifications:
      -----------------------
 
      Symmetry species               1
                                     a
      Frozen orbitals                0
      Occupied orbitals             12
      Secondary orbitals            30
      Deleted orbitals               0
      Total number of orbitals      42
      Number of basis functions     42
--
 
      Molecular charge                           0.000
 
++    Optimization specifications:
      ----------------------------
 
      SCF Algorithm: Conventional
      Minimized density differences are used
      Number of density matrices in core                5
      Maximum number of NDDO SCF iterations           400
      Maximum number of HF SCF iterations             400
      Threshold for SCF energy change            0.10E-08
      Threshold for density matrix               0.10E-03
      Threshold for Fock matrix                  0.15E-03
      Threshold for linear dependence            0.10E-08
      Threshold at which DIIS is turned on       0.15E+00
      Threshold at which QNR/C2DIIS is turned on 0.75E-01
      Threshold for Norm(delta) (QNR/C2DIIS)     0.20E-04
      DIIS extrapolation of the SCF procedure
      All orbitals punched on: SCFORB
--
 
      Input vectors read from INPORB
      Orbital file label: *Guess orbitals
 
 
++ Convergence information
                                   SCF        iterations: Energy and convergence statistics
 
Iter     Tot. SCF        One-elec.       Two-elec.     Energy      Max Dij or  Max Fij      DNorm      TNorm      AccCon     Time
         Energy          Energy          Energy        Change      Delta Norm                                                in Sec.
   1  -223.912608499  -438.208143423   147.029297754   0.00E+00    0.61E+00*   0.26E+00*    0.73E+01   0.75E+02   None         0.
   2  -224.129208195  -444.271277928   152.875832562  -0.22E+00*   0.25E+00*   0.18E+00*    0.24E+01   0.77E+02   EDIIS        0.
   3  -224.428291750  -441.758653392   150.064124471  -0.30E+00*   0.23E+00*   0.95E-01*    0.76E+00   0.76E+02   EDIIS        0.
   4  -224.429581684  -442.494123303   150.798304449  -0.13E-02*   0.16E-01*   0.47E-01*    0.23E+00   0.76E+02   EDIIS        0.
   5  -224.468665267  -442.081334109   150.346431672  -0.39E-01*   0.88E-02*   0.35E-02*    0.40E-01   0.76E+02   c2DIIS       0.
   6  -224.468850952  -442.106186796   150.371098674  -0.19E-03*   0.42E-02*   0.23E-02*    0.94E-02   0.76E+02   QNRc2DIIS    0.
   7  -224.468903989  -442.106641619   150.371500459  -0.53E-04*   0.85E-02*   0.19E-02*    0.42E-02   0.76E+02   QNRc2DIIS    0.
   8  -224.468937828  -442.101023143   150.365848145  -0.34E-04*   0.12E-02*   0.59E-03*    0.20E-02   0.76E+02   QNRc2DIIS    0.
   9  -224.468942332  -442.107228212   150.372048709  -0.45E-05*   0.72E-03*   0.19E-03*    0.62E-03   0.76E+02   QNRc2DIIS    0.
  10  -224.468943024  -442.105000832   150.369820638  -0.69E-06*   0.11E-03*   0.49E-04     0.68E-03   0.76E+02   QNRc2DIIS    0.
  11  -224.468943046  -442.106312468   150.371132251  -0.22E-07*   0.27E-04*   0.92E-05     0.87E-04   0.76E+02   QNRc2DIIS    0.
  12  -224.468943048  -442.106214837   150.371034619  -0.18E-08*   0.13E-04    0.34E-05     0.25E-04   0.76E+02   QNRc2DIIS    0.
  13  -224.468943048  -442.106172912   150.370992693  -0.24E-09    0.40E-05    0.10E-05     0.86E-03   0.76E+02   QNRc2DIIS    0.
 
       Convergence after 13 Macro Iterations
--
 
 *****************************************************************************************************************************
 *                                                                                                                           *
 *                                             SCF/KS-DFT Program, Final results                                             *
 *                                                                                                                           *
 *                                                                                                                           *
 *                                                                                                                           *
 *                                                       Final Results                                                       *
 *                                                                                                                           *
 *****************************************************************************************************************************
 
::    Total SCF energy                               -224.4689430480
      One-electron energy                            -442.1061729119
      Two-electron energy                             150.3709926934
      Nuclear repulsion energy                         67.2662371704
      Kinetic energy (interpolated)                   225.4121644557
      Virial theorem                                    0.9958155701
      Total spin, S(S+1)                                0.0000000000
      Total spin, S                                     0.0000000000
      Max non-diagonal density matrix element           0.0000051566
      Max non-diagonal Fock matrix element              0.0000008887
 
 
      All orbitals with orbital energies smaller than  E(LUMO)+0.5 are printed
 
++    Molecular orbitals:
      -------------------
 
      Title: SCF orbitals

      Molecular orbitals for symmetry species 1: a  
 
          Orbital            1         2         3         4         5         6         7         8         9        10    
          Energy          -20.9016  -20.7294  -20.7293   -1.7380   -1.4608   -1.0847   -0.8357   -0.8073   -0.7748   -0.5921
          Occ. No.          2.0000    2.0000    2.0000    2.0000    2.0000    2.0000    2.0000    2.0000    2.0000    2.0000
 
        1 O1     1s         0.0020   -0.7072    0.7072   -0.0151    0.0105    0.0112   -0.0095   -0.0189    0.0000    0.0054
        2 O1     2s        -0.0001   -0.0007    0.0005    0.3208   -0.5724    0.6195   -0.2000   -0.4058    0.0000    0.0620
        3 O1     3s        -0.0001   -0.0000   -0.0001   -0.0228    0.0132    0.0146   -0.0183   -0.0272    0.0000    0.0069
        4 O1     2px        0.0001    0.0004   -0.0003   -0.0356    0.0503    0.0885    0.2351   -0.2863    0.0000   -0.6085
        5 O1     3px        0.0003    0.0001    0.0002    0.0108   -0.0069   -0.0147   -0.0213    0.0179   -0.0000   -0.0084
        6 O1     2py        0.0000    0.0008   -0.0009   -0.1051    0.0833    0.1286   -0.2748   -0.3307   -0.0000    0.3758
        7 O1     3py        0.0002   -0.0005    0.0003    0.0247   -0.0167   -0.0191    0.0263    0.0276    0.0000    0.0014
        8 O1     2pz       -0.0000    0.0000    0.0000    0.0000   -0.0000   -0.0000   -0.0000    0.0000    0.3837    0.0000
        9 O1     3pz       -0.0000    0.0000    0.0000   -0.0000   -0.0000    0.0000   -0.0000    0.0000   -0.0245    0.0000
       10 O1     3d2-      -0.0000    0.0000   -0.0000    0.0109   -0.0117   -0.0099   -0.0062    0.0246   -0.0000    0.0064
       11 O1     3d1-      -0.0000    0.0000    0.0000    0.0000    0.0000    0.0000    0.0000   -0.0000   -0.0285   -0.0000
       12 O1     3d0        0.0001    0.0001   -0.0001   -0.0093    0.0088    0.0049   -0.0079   -0.0158    0.0000    0.0049
       13 O1     3d1+       0.0000    0.0000   -0.0000    0.0000    0.0000   -0.0000    0.0000   -0.0000   -0.0111   -0.0000
       14 O1     3d2+       0.0000   -0.0001    0.0001   -0.0155    0.0093    0.0073   -0.0244   -0.0171    0.0000    0.0175
       15 O2     1s         1.0001    0.0000   -0.0030   -0.0214    0.0000   -0.0159   -0.0059    0.0000   -0.0000    0.0000
       16 O2     2s         0.0005    0.0000   -0.0008    0.6622    0.0000   -0.6421   -0.0703    0.0000   -0.0000    0.0000
       17 O2     3s        -0.0003    0.0000   -0.0006   -0.0429    0.0000   -0.0080   -0.0092    0.0000   -0.0000    0.0000
       18 O2     2px        0.0008    0.0000   -0.0003    0.0925   -0.0000    0.1891    0.7078    0.0000    0.0000   -0.0000
       19 O2     3px       -0.0009    0.0000   -0.0004   -0.0221   -0.0000   -0.0215   -0.0574   -0.0000    0.0000   -0.0000
       20 O2     2py        0.0000    0.0008    0.0000   -0.0000   -0.3308    0.0000   -0.0000    0.5251   -0.0000   -0.1312
       21 O2     3py        0.0000    0.0010    0.0000   -0.0000    0.0771   -0.0000    0.0000   -0.0798    0.0000    0.0050
       22 O2     2pz       -0.0000    0.0000    0.0000   -0.0000    0.0000   -0.0000   -0.0000    0.0000    0.6880    0.0000
       23 O2     3pz        0.0000   -0.0000   -0.0000    0.0000    0.0000    0.0000    0.0000   -0.0000   -0.0247   -0.0000
       24 O2     3d2-      -0.0000    0.0002    0.0000    0.0000   -0.0336    0.0000   -0.0000    0.0225   -0.0000   -0.0401
       25 O2     3d1-      -0.0000    0.0000    0.0000   -0.0000   -0.0000   -0.0000    0.0000    0.0000   -0.0000    0.0000
       26 O2     3d0       -0.0003   -0.0000    0.0003   -0.0178    0.0000   -0.0046   -0.0144   -0.0000   -0.0000    0.0000
       27 O2     3d1+      -0.0000    0.0000    0.0000   -0.0000   -0.0000    0.0000   -0.0000    0.0000    0.0277    0.0000
       28 O2     3d2+      -0.0000   -0.0000    0.0002   -0.0202    0.0000   -0.0010    0.0188    0.0000    0.0000    0.0000
       29 O3     1s         0.0020    0.7072    0.7072   -0.0151   -0.0105    0.0112   -0.0095    0.0189   -0.0000   -0.0054
       30 O3     2s        -0.0001    0.0007    0.0005    0.3208    0.5724    0.6195   -0.2000    0.4058   -0.0000   -0.0620
       31 O3     3s        -0.0001    0.0000   -0.0001   -0.0228   -0.0132    0.0146   -0.0183    0.0272   -0.0000   -0.0069
       32 O3     2px        0.0001   -0.0004   -0.0003   -0.0356   -0.0503    0.0885    0.2351    0.2863   -0.0000    0.6085
       33 O3     3px        0.0003   -0.0001    0.0002    0.0108    0.0069   -0.0147   -0.0213   -0.0179   -0.0000    0.0084
       34 O3     2py       -0.0000    0.0008    0.0009    0.1051    0.0833   -0.1286    0.2748   -0.3307    0.0000    0.3758
       35 O3     3py       -0.0002   -0.0005   -0.0003   -0.0247   -0.0167    0.0191   -0.0263    0.0276   -0.0000    0.0014
       36 O3     2pz       -0.0000    0.0000    0.0000   -0.0000   -0.0000   -0.0000   -0.0000    0.0000    0.3837   -0.0000
       37 O3     3pz        0.0000   -0.0000   -0.0000    0.0000    0.0000    0.0000    0.0000   -0.0000   -0.0245    0.0000
       38 O3     3d2-       0.0000    0.0000    0.0000   -0.0109   -0.0117    0.0099    0.0062    0.0246   -0.0000    0.0064
       39 O3     3d1-       0.0000   -0.0000    0.0000    0.0000    0.0000   -0.0000   -0.0000    0.0000    0.0285    0.0000
       40 O3     3d0        0.0001   -0.0001   -0.0001   -0.0093   -0.0088    0.0049   -0.0079    0.0158   -0.0000   -0.0049
       41 O3     3d1+       0.0000   -0.0000   -0.0000    0.0000    0.0000   -0.0000    0.0000   -0.0000   -0.0111   -0.0000
       42 O3     3d2+       0.0000    0.0001    0.0001   -0.0155   -0.0093    0.0073   -0.0244    0.0171   -0.0000   -0.0175
 
          Orbital           11        12        13        14        15        16    
          Energy           -0.5260   -0.5024   -0.0467    0.2141    0.2850    0.4462
          Occ. No.          2.0000    2.0000    0.0000    0.0000    0.0000    0.0000
 
        1 O1     1s         0.0048   -0.0000    0.0000    0.0433   -0.1464   -0.0382
        2 O1     2s         0.0272   -0.0000    0.0000    0.4440   -1.0912   -0.2335
        3 O1     3s         0.0201   -0.0000    0.0000    0.0744   -0.3683   -0.1613
        4 O1     2px        0.6694   -0.0000    0.0000   -0.1051    0.3676   -0.0527
        5 O1     3px        0.0201   -0.0000    0.0000   -0.0500    0.2573    0.4093
        6 O1     2py       -0.0125    0.0000    0.0000   -0.8153    0.5439    0.0590
        7 O1     3py       -0.0234    0.0000    0.0000   -0.2910    0.5556    0.2623
        8 O1     2pz       -0.0000   -0.7085    0.6610   -0.0000   -0.0000    0.0000
        9 O1     3pz       -0.0000   -0.0427    0.1290   -0.0000    0.0000   -0.0000
       10 O1     3d2-      -0.0097    0.0000   -0.0000    0.0041   -0.0184    0.0055
       11 O1     3d1-       0.0000    0.0236    0.0093    0.0000    0.0000   -0.0000
       12 O1     3d0        0.0047   -0.0000    0.0000    0.0011    0.0148    0.0166
       13 O1     3d1+       0.0000    0.0087    0.0046    0.0000    0.0000   -0.0000
       14 O1     3d2+       0.0050   -0.0000    0.0000    0.0132    0.0200    0.0500
       15 O2     1s         0.0194   -0.0000    0.0000   -0.1450    0.0000    0.0933
       16 O2     2s         0.2494   -0.0000    0.0000   -1.2441    0.0000    0.5412
       17 O2     3s         0.0348   -0.0000    0.0000   -0.2964    0.0000    0.2549
       18 O2     2px       -0.5589    0.0000   -0.0000   -0.6035    0.0000   -0.0341
       19 O2     3px       -0.0219    0.0000   -0.0000   -0.2070    0.0000    0.5787
       20 O2     2py       -0.0000    0.0000   -0.0000    0.0000    1.2928   -0.0000
       21 O2     3py       -0.0000    0.0000    0.0000    0.0000    0.9697   -0.0000
       22 O2     2pz        0.0000    0.0000   -0.8552   -0.0000    0.0000    0.0000
       23 O2     3pz        0.0000   -0.0000   -0.1429   -0.0000    0.0000   -0.0000
       24 O2     3d2-       0.0000   -0.0000   -0.0000    0.0000    0.0397   -0.0000
       25 O2     3d1-      -0.0000   -0.0533    0.0000    0.0000   -0.0000    0.0000
       26 O2     3d0        0.0194   -0.0000    0.0000   -0.0258    0.0000   -0.0568
       27 O2     3d1+       0.0000   -0.0000   -0.0001    0.0000   -0.0000    0.0000
       28 O2     3d2+       0.0342   -0.0000    0.0000   -0.0371    0.0000   -0.1130
       29 O3     1s         0.0048   -0.0000    0.0000    0.0433    0.1464   -0.0382
       30 O3     2s         0.0272    0.0000    0.0000    0.4440    1.0912   -0.2335
       31 O3     3s         0.0201   -0.0000    0.0000    0.0744    0.3683   -0.1613
       32 O3     2px        0.6694   -0.0000    0.0000   -0.1051   -0.3676   -0.0527
       33 O3     3px        0.0201   -0.0000    0.0000   -0.0500   -0.2573    0.4093
       34 O3     2py        0.0125    0.0000   -0.0000    0.8153    0.5439   -0.0590
       35 O3     3py        0.0234   -0.0000    0.0000    0.2910    0.5556   -0.2623
       36 O3     2pz        0.0000    0.7085    0.6610    0.0000   -0.0000    0.0000
       37 O3     3pz        0.0000    0.0427    0.1290   -0.0000    0.0000   -0.0000
       38 O3     3d2-       0.0097   -0.0000   -0.0000   -0.0041   -0.0184   -0.0055
       39 O3     3d1-       0.0000    0.0236   -0.0093   -0.0000   -0.0000    0.0000
       40 O3     3d0        0.0047   -0.0000    0.0000    0.0011   -0.0148    0.0166
       41 O3     3d1+      -0.0000   -0.0087    0.0046    0.0000   -0.0000   -0.0000
       42 O3     3d2+       0.0050   -0.0000    0.0000    0.0132   -0.0200    0.0500
--
 
 
++    Molecular charges:
      ------------------
 
      Mulliken charges per centre and basis function type
      ---------------------------------------------------
 
                O1      O2      O3    
      1s       2.0003  2.0002  2.0003
      2s       1.9263  1.7472  1.9263
      2px      1.8866  1.6780  1.8866
      2pz      1.3921  1.1721  1.3921
      2py      0.9387  1.0053  0.9387
      3s      -0.0085 -0.0168 -0.0085
      3px     -0.0165 -0.0277 -0.0165
      3pz     -0.0128 -0.0083 -0.0128
      3py     -0.0040  0.0218 -0.0040
      3d2+     0.0165  0.0339  0.0165
      3d1+     0.0019  0.0059  0.0019
      3d0      0.0055  0.0078  0.0055
      3d1-     0.0121  0.0438  0.0121
      3d2-     0.0113  0.0378  0.0113
      Total    8.1495  7.7010  8.1495
 
      N-E     -0.1495  0.2990 -0.1495
 
      Total electronic charge=   24.000000
 
      Total            charge=   -0.000000
--
 
 
  Input file to MOLDEN was generated!
 
 
++    Static properties:
      ------------------
 
 
      LoProp Charges per center
 

                   O1       O2       O3    
      Nuclear      8.0000   8.0000   8.0000
      Electronic  -8.1945  -7.6110  -8.1945
 
      Total       -0.1945   0.3890  -0.1945
--
 
 
++    Natural Bond Order analysis
      ---------------------------
      Based on LoProp computed density
      -------------------------------------------------------------------------------------
      Atom A       Atom B       Bond Order | Atom A       Atom B       Bond Order
        O1           O2             2.000  |   O2           O3             2.000
      -------------------------------------------------------------------------------------
      NBO located     12.000 core electrons.
      NBO located      3.956 lone pair electrons.
      NBO located      8.000 electrons involved in    2 bonds.
      The remaining    0.044 electrons are to be considered as diffuse
--
 
 
++    Molecular properties:
      ---------------------
 
      Charge (e):
                      =   -0.0000
      Dipole Moment (Debye):
      Origin of the operator (Ang)=    0.0000    0.0000    0.0000
                   X= -4.2044E-01               Y= -4.6543E-11               Z= -4.4559E-14           Total=  4.2044E-01
      Quadrupole Moment (Debye*Ang):
      Origin of the operator (Ang)=    0.3157    0.0000    0.0000
                  XX= -1.6379E+01              XY= -1.4421E-11              XZ=  1.9606E-13              YY= -1.7444E+01
                  YZ= -2.8063E-14              ZZ= -1.5175E+01
      In traceless form (Debye*Ang)
                  XX= -6.9387E-02              XY= -2.1631E-11              XZ=  2.9408E-13              YY= -1.6676E+00
                  YZ= -4.2094E-14              ZZ=  1.7370E+00
--
 
 
  Input file to MOLDEN was generated!
 
 ###############################################################################
 ###############################################################################
 ###                                                                         ###
 ###                                                                         ###
 ###    RunFile label nBas                                                   ###
 ###    was used       78 times                                              ###
 ###                                                                         ###
 ###                                                                         ###
 ###############################################################################
 ###############################################################################
--- Stop Module: scf at Wed Nov 13 12:43:06 2024 /rc=_RC_ALL_IS_WELL_ ---
*** files: ozone_136.50.LprOrb ozone_136.50.LoProp.molden ozone_136.50.scf.molden ozone_136.50.ScfOrb ozone_136.50.scf.h5 xmldump
    saved to directory /home/grierjones/DDCASPT2/ozone/ANO-RCC-VDZP/ozone_136.50

>>> COPY /tmp/ozone_136.50/ozone_136.50.scf.h5 /home/grierjones/DDCASPT2/ozone/ANO-RCC-VDZP/ozone_136.50/

*** symbolic link created: INPORB -> ozone_136.50.ScfOrb
--- Start Module: rasscf at Wed Nov 13 12:43:06 2024 ---
 
()()()()()()()()()()()()()()()()()()()()()()()()()()()()()()()()()()()()()()()()()()()()()()()()()()

                                              &RASSCF

                                   only a single process is used
                       available to each process: 2.0 GB of memory, 1 thread?
()()()()()()()()()()()()()()()()()()()()()()()()()()()()()()()()()()()()()()()()()()()()()()()()()()
 
 
      Header of the ONEINT file:
      --------------------------
      
      Integrals generated by seward 4.2.0  , Wed Nov 13 12:43:05 2024
 
 
      OrdInt status: non-squared
 
 
      Cartesian coordinates in Angstrom:
      -----------------------------------------------------
      No.  Label        X            Y            Z        
      -----------------------------------------------------
       1   O1         0.47357200   1.18701900   0.00000000
       2   O2         0.00000000   0.00000000   0.00000000
       3   O3         0.47357200  -1.18701900   0.00000000
      -----------------------------------------------------
      Nuclear repulsion energy =   67.26623717
 
++    Wave function specifications:
      -----------------------------
 
      Number of closed shell electrons          20
      Number of electrons in active shells       4
      Max number of holes in RAS1 space          0
      Max nr of electrons in RAS3 space          0
      Number of inactive orbitals               10
      Number of active orbitals                  3
      Number of secondary orbitals              29
      Spin quantum number                      0.0
      State symmetry                             1
--
 
++    Orbital specifications:
      -----------------------
 
      Symmetry species                           1
                                                 a
      Frozen orbitals                            0
      Inactive orbitals                         10
      Active orbitals                            3
      RAS1 orbitals                              0
      RAS2 orbitals                              3
      RAS3 orbitals                              0
      Secondary orbitals                        29
      Deleted orbitals                           0
      Number of basis functions                 42
--
 
++    CI expansion specifications:
      ----------------------------
 
      Number of CSFs                             6
      Number of determinants                     6
      Number of root(s) required                 1
      Root chosen for geometry opt.              1
      CI root used                               1
         
      highest root included in the CI            1
      max. size of the explicit Hamiltonian      6
--
 
++    Optimization specifications:
      ----------------------------
 
      RASSCF algorithm: Conventional
      Maximum number of macro iterations       200
      Maximum number of SX iterations          100
      Threshold for RASSCF energy            0.100E-07
      Threshold for max MO rotation          0.100E+00
      Threshold for max BLB element          0.100E-03
      Level shift parameter                  0.500E+00
      Make Quasi-Newton update
--
 
      The MO-coefficients are taken from the file:
      /home/grierjones/DDCASPT2/ozone/ANO-RCC-VDZP/ozone_136.00/ozone_136.00.RasOrb                                                   
      Title: RASSCF average (pseudo-natural) orbitals                                      
 
      Total molecular charge    0.00
 
      ************************************************************************************************************************
      *                                                                                                                      *
      *                                            Wave function control section                                             *
      *                                                                                                                      *
      ************************************************************************************************************************
 
 
                                         RASSCF iterations: Energy and convergence statistics
                                         ----------------------------------------------------
 
      Iter CI   SX   CI       RASSCF       Energy    max ROT     max BLB   max BLB  Level Ln srch  Step   QN   Walltime
          iter iter root      energy       change     param      element    value   shift minimum  type update hh:mm:ss
 Nr of preliminary CI iterations:   1
        1   1    3    1  -224.55884814    0.00E+00   0.11E-02    9  19 1 -0.28E-02*  0.19   0.00    SX    NO    0:00:00
        2   1    3    1  -224.55886828   -0.20E-04*  0.60E-03    7  14 1 -0.14E-02*  0.19   0.00    SX    NO    0:00:00
        3   1    3    1  -224.55887279   -0.45E-05*  0.40E-03    7  14 1 -0.96E-03*  0.19   0.00    SX    NO    0:00:00
        4   1    3    1  -224.55887435   -0.16E-05*  0.18E-03    7  14 1 -0.45E-03*  0.19   0.00    SX    NO    0:00:00
        5   1    3    1  -224.55887485   -0.50E-06*  0.28E-03    7  14 1 -0.36E-03*  0.19   2.50    LS   YES    0:00:00
        6   1    3    1  -224.55887509   -0.24E-06*  0.75E-04    8  19 1  0.26E-03*  0.19   0.89    QN   YES    0:00:00
        7   1    3    1  -224.55887518   -0.96E-07*  0.26E-04    8  19 1 -0.98E-04   0.19   0.83    QN   YES    0:00:00
        8   1    3    1  -224.55887518    0.24E-08   0.11E-04    8  19 1  0.10E-03*  0.19   0.37    QN   YES    0:00:00
        9   1    2    1  -224.55887519   -0.41E-08   0.20E-04    8  19 1  0.36E-04   0.19   2.50    QN   YES    0:00:00
      Convergence after  9 iterations
 
  Dmat in MO in SXCTL bf call to SXHAM                                                                                    
  mat. size =     3x    3
 
        1.9910333241101039
       -0.0000000000006185      1.6647466032514628
        0.0016481919069989     -0.0000000000010229      0.3442200726384327
       10   1    2    1  -224.55887519   -0.20E-08   0.20E-04    8  19 1  0.26E-04   0.19   2.50    QN   YES    0:00:00
 
      ************************************************************************************************************************
                                                      Wave function printout:
                       occupation of active orbitals, and spin coupling of open shells (u,d: Spin up or down)
      ************************************************************************************************************************
 
      Note: transformation to natural orbitals
      has been made, which may change the order of the CSFs.
 
      printout of CI-coefficients larger than  0.05 for root  1
      energy=    -224.558875
      conf/sym  111     Coeff  Weight
             1  220  -0.90989 0.82789
             3  202   0.40942 0.16763
             6  022   0.06695 0.00448
 
      Natural orbitals and occupation numbers for root  1
      sym 1:   1.991035   1.664747   0.344218
 
      ************************************************************************************************************************
      *                                                                                                                      *
      *                                                    Final results                                                     *
      *                                                                                                                      *
      ************************************************************************************************************************
 
 
++    Wave function specifications:
      -----------------------------
 
      Number of closed shell electrons          20
      Number of electrons in active shells       4
      Max number of holes in RAS1 space          0
      Max nr of electrons in RAS3 space          0
      Number of inactive orbitals               10
      Number of active orbitals                  3
      Number of secondary orbitals              29
      Spin quantum number                      0.0
      State symmetry                             1
--
 
++    Orbital specifications:
      -----------------------
 
      Symmetry species                           1
                                                 a
      Frozen orbitals                            0
      Inactive orbitals                         10
      Active orbitals                            3
      RAS1 orbitals                              0
      RAS2 orbitals                              3
      RAS3 orbitals                              0
      Secondary orbitals                        29
      Deleted orbitals                           0
      Number of basis functions                 42
--
 
++    CI expansion specifications:
      ----------------------------
 
      Number of CSFs                             6
      Number of determinants                     6
      Number of root(s) required                 1
      CI root used                               1
      highest root included in the CI            1
      Root passed to geometry opt.               1
--
 
++    Final optimization conditions:
      ------------------------------
 
      Average CI energy                            -224.55887519
      RASSCF energy for state  1                   -224.55887519
      Super-CI energy                                -0.00000000
      RASSCF energy change                           -0.00000000
      Max change in MO coefficients               0.173E-04
      Max non-diagonal density matrix element     0.200E-04
      Maximum BLB matrix element                  0.260E-04
      (orbital pair   8,  19 in symmetry   1)
      Norm of electronic gradient            0.683E-04
--
 
 
      Final state energy(ies):
      ------------------------
 
::    RASSCF root number  1 Total energy:   -224.55887519
 
++    Molecular orbitals:
      -------------------
 
      Pseudonatural active orbitals and approximate occupation numbers
 
 
 
 
      Molecular orbitals for symmetry species 1: a  
 
 
      Orbital                1         2         3         4         5         6         7         8         9        10
      Energy          -20.8031  -20.7239  -20.7238   -1.7021   -1.4424   -1.0681   -0.7962   -0.7915   -0.5917   -0.5079
      Occ. No.          2.0000    2.0000    2.0000    2.0000    2.0000    2.0000    2.0000    2.0000    2.0000    2.0000
 
    1 O1     1s         0.0041   -0.7072    0.7072   -0.0148    0.0093    0.0124   -0.0080   -0.0178    0.0057    0.0045
    2 O1     2s        -0.0000   -0.0007    0.0005    0.3411   -0.5909    0.6193   -0.1548   -0.3728    0.0635    0.0169
    3 O1     3s        -0.0001    0.0001   -0.0001   -0.0235    0.0120    0.0164   -0.0161   -0.0260    0.0074    0.0231
    4 O1     2px        0.0002    0.0003   -0.0002   -0.0362    0.0487    0.0925    0.2920   -0.3073   -0.6032    0.6517
    5 O1     3px        0.0004    0.0001    0.0002    0.0107   -0.0064   -0.0138   -0.0235    0.0173   -0.0090    0.0252
    6 O1     2py        0.0000    0.0008   -0.0009   -0.1088    0.0818    0.1542   -0.2894   -0.3529    0.3858    0.0345
    7 O1     3py        0.0001   -0.0005    0.0003    0.0251   -0.0157   -0.0212    0.0223    0.0256    0.0023   -0.0252
    8 O1     2pz        0.0000    0.0000   -0.0000   -0.0000    0.0000   -0.0000   -0.0000    0.0000    0.0000   -0.0000
    9 O1     3pz        0.0000   -0.0000   -0.0000   -0.0000   -0.0000   -0.0000    0.0000   -0.0000   -0.0000   -0.0000
   10 O1     3d2-      -0.0000    0.0000    0.0000    0.0105   -0.0110   -0.0102   -0.0079    0.0242    0.0060   -0.0077
   11 O1     3d1-      -0.0000   -0.0000   -0.0000    0.0000   -0.0000    0.0000    0.0000   -0.0000    0.0000    0.0000
   12 O1     3d0        0.0001    0.0001   -0.0002   -0.0103    0.0095    0.0055   -0.0076   -0.0160    0.0054    0.0051
   13 O1     3d1+       0.0000   -0.0000    0.0000    0.0000   -0.0000   -0.0000    0.0000   -0.0000   -0.0000    0.0000
   14 O1     3d2+       0.0001   -0.0001    0.0001   -0.0158    0.0091    0.0090   -0.0238   -0.0175    0.0169    0.0077
   15 O2     1s         1.0001    0.0000   -0.0059   -0.0228    0.0000   -0.0135   -0.0078   -0.0000   -0.0000    0.0233
   16 O2     2s         0.0006    0.0000   -0.0007    0.6342    0.0000   -0.6433   -0.1114   -0.0000    0.0000    0.3083
   17 O2     3s        -0.0005    0.0000   -0.0006   -0.0369    0.0000   -0.0131   -0.0110   -0.0000   -0.0000    0.0432
   18 O2     2px        0.0008    0.0000   -0.0002    0.0935   -0.0000    0.1372    0.6489    0.0000    0.0000   -0.6074
   19 O2     3px       -0.0011    0.0000   -0.0004   -0.0210   -0.0000   -0.0147   -0.0417   -0.0000    0.0000   -0.0366
   20 O2     2py        0.0000    0.0008    0.0000   -0.0000   -0.2988    0.0000   -0.0000    0.4930   -0.1322   -0.0000
   21 O2     3py        0.0000    0.0010    0.0000   -0.0000    0.0733   -0.0000    0.0000   -0.0733   -0.0003   -0.0000
   22 O2     2pz        0.0000    0.0000    0.0000   -0.0000    0.0000   -0.0000   -0.0000    0.0000   -0.0000    0.0000
   23 O2     3pz       -0.0000   -0.0000    0.0000    0.0000    0.0000    0.0000    0.0000    0.0000   -0.0000    0.0000
   24 O2     3d2-       0.0000    0.0002    0.0000    0.0000   -0.0332    0.0000   -0.0000    0.0252   -0.0390   -0.0000
   25 O2     3d1-       0.0000   -0.0000    0.0000    0.0000   -0.0000    0.0000    0.0000   -0.0000    0.0000   -0.0000
   26 O2     3d0       -0.0001   -0.0000    0.0003   -0.0173    0.0000   -0.0043   -0.0153   -0.0000   -0.0000    0.0231
   27 O2     3d1+       0.0000   -0.0000   -0.0000    0.0000   -0.0000    0.0000   -0.0000    0.0000    0.0000   -0.0000
   28 O2     3d2+      -0.0000   -0.0000    0.0002   -0.0196    0.0000    0.0006    0.0215    0.0000    0.0000    0.0303
   29 O3     1s         0.0041    0.7072    0.7072   -0.0148   -0.0093    0.0124   -0.0080    0.0178   -0.0057    0.0045
   30 O3     2s        -0.0000    0.0007    0.0005    0.3411    0.5909    0.6193   -0.1548    0.3728   -0.0635    0.0169
   31 O3     3s        -0.0001   -0.0001   -0.0001   -0.0235   -0.0120    0.0164   -0.0161    0.0260   -0.0074    0.0231
   32 O3     2px        0.0002   -0.0003   -0.0002   -0.0362   -0.0487    0.0925    0.2920    0.3073    0.6032    0.6517
   33 O3     3px        0.0004   -0.0001    0.0002    0.0107    0.0064   -0.0138   -0.0235   -0.0173    0.0090    0.0252
   34 O3     2py       -0.0000    0.0008    0.0009    0.1088    0.0818   -0.1542    0.2894   -0.3529    0.3858   -0.0345
   35 O3     3py       -0.0001   -0.0005   -0.0003   -0.0251   -0.0157    0.0212   -0.0223    0.0256    0.0023    0.0252
   36 O3     2pz        0.0000   -0.0000   -0.0000   -0.0000   -0.0000   -0.0000   -0.0000    0.0000   -0.0000    0.0000
   37 O3     3pz        0.0000    0.0000    0.0000   -0.0000   -0.0000    0.0000   -0.0000    0.0000    0.0000    0.0000
   38 O3     3d2-       0.0000    0.0000   -0.0000   -0.0105   -0.0110    0.0102    0.0079    0.0242    0.0060    0.0077
   39 O3     3d1-       0.0000    0.0000    0.0000   -0.0000   -0.0000    0.0000    0.0000   -0.0000   -0.0000   -0.0000
   40 O3     3d0        0.0001   -0.0001   -0.0002   -0.0103   -0.0095    0.0055   -0.0076    0.0160   -0.0054    0.0051
   41 O3     3d1+      -0.0000    0.0000    0.0000    0.0000   -0.0000   -0.0000   -0.0000    0.0000    0.0000    0.0000
   42 O3     3d2+       0.0001    0.0001    0.0001   -0.0158   -0.0091    0.0090   -0.0238    0.0175   -0.0169    0.0077
 
 
      Orbital               11        12        13        14        15        16        17        18        19        20
      Energy            0.0000    0.0000    0.0000    0.2267    0.2904    0.4611    0.4640    0.5666    0.5949    0.6912
      Occ. No.          1.9910    1.6647    0.3442    0.0000    0.0000    0.0000    0.0000    0.0000    0.0000    0.0000
 
    1 O1     1s         0.0000   -0.0000    0.0000   -0.0462   -0.1482   -0.0352   -0.0000    0.0229   -0.0329    0.0026
    2 O1     2s         0.0000   -0.0000   -0.0000   -0.4659   -1.0980   -0.2145   -0.0000    0.1427   -0.0940    0.0013
    3 O1     3s        -0.0000   -0.0000    0.0000   -0.0783   -0.3739   -0.1438   -0.0000    0.2104   -0.1175    0.0454
    4 O1     2px        0.0000   -0.0000    0.0000    0.0860    0.3553   -0.0332    0.0000   -0.0975   -0.1834   -0.0321
    5 O1     3px        0.0000   -0.0000   -0.0000    0.0489    0.2644    0.4518    0.0000    0.1645   -0.1272   -0.8087
    6 O1     2py       -0.0000    0.0000   -0.0000    0.8083    0.5193    0.0447    0.0000   -0.1097   -0.3781    0.0604
    7 O1     3py       -0.0000    0.0000    0.0000    0.3001    0.5677    0.2355    0.0000   -0.7615    0.2120   -0.1162
    8 O1     2pz        0.2756   -0.7091    0.6877    0.0000   -0.0000    0.0000    0.0028   -0.0000    0.0000    0.0000
    9 O1     3pz       -0.0299   -0.0085   -0.0491    0.0000   -0.0000   -0.0000    0.4779   -0.0000   -0.0000    0.0000
   10 O1     3d2-      -0.0000    0.0000   -0.0000   -0.0037   -0.0199    0.0050    0.0000   -0.0135   -0.0921   -0.0049
   11 O1     3d1-      -0.0273    0.0183    0.0059    0.0000   -0.0000   -0.0000    0.0293    0.0000   -0.0000    0.0000
   12 O1     3d0        0.0000    0.0000   -0.0000   -0.0016    0.0153    0.0169    0.0000    0.0028    0.0541   -0.0105
   13 O1     3d1+      -0.0101    0.0062    0.0014    0.0000   -0.0000   -0.0000    0.0144   -0.0000    0.0000    0.0000
   14 O1     3d2+      -0.0000    0.0000    0.0000   -0.0151    0.0203    0.0517    0.0000   -0.0084    0.0398   -0.0029
   15 O2     1s        -0.0000   -0.0000    0.0000    0.1458    0.0000    0.0890    0.0000   -0.1352   -0.0000    0.0000
   16 O2     2s        -0.0000   -0.0000    0.0000    1.2622    0.0000    0.5113    0.0000   -0.7618   -0.0000    0.0000
   17 O2     3s        -0.0000   -0.0000    0.0000    0.3150    0.0000    0.2574    0.0000   -0.2736    0.0000   -0.0000
   18 O2     2px       -0.0000    0.0000   -0.0000    0.6496    0.0000   -0.0971   -0.0000   -0.1002   -0.0000    0.0000
   19 O2     3px       -0.0000   -0.0000   -0.0000    0.2338    0.0000    0.5061    0.0000   -0.1983   -0.0000   -0.0000
   20 O2     2py       -0.0000    0.0000    0.0000   -0.0000    1.2832   -0.0000   -0.0000    0.0000   -0.4465    0.1160
   21 O2     3py        0.0000    0.0000   -0.0000   -0.0000    0.9949   -0.0000    0.0000    0.0000    0.6449   -0.0435
   22 O2     2pz        0.8097    0.0000   -0.6373   -0.0000    0.0000    0.0000   -0.2447   -0.0000   -0.0000    0.0000
   23 O2     3pz       -0.0141   -0.0000   -0.0702    0.0000    0.0000   -0.0000    0.3589    0.0000   -0.0000    0.0000
   24 O2     3d2-       0.0000   -0.0000   -0.0000   -0.0000    0.0470   -0.0000    0.0000    0.0000    0.0957   -0.0371
   25 O2     3d1-       0.0000   -0.0421   -0.0000   -0.0000   -0.0000    0.0000    0.0000    0.0000    0.0000   -0.0000
   26 O2     3d0        0.0000   -0.0000   -0.0000    0.0225    0.0000   -0.0535   -0.0000    0.1000   -0.0000   -0.0000
   27 O2     3d1+       0.0284   -0.0000   -0.0116   -0.0000    0.0000    0.0000   -0.0312   -0.0000   -0.0000   -0.0000
   28 O2     3d2+       0.0000   -0.0000   -0.0000    0.0342    0.0000   -0.1106   -0.0000    0.0846   -0.0000   -0.0000
   29 O3     1s        -0.0000    0.0000    0.0000   -0.0462    0.1482   -0.0352   -0.0000    0.0229    0.0329   -0.0026
   30 O3     2s        -0.0000    0.0000    0.0000   -0.4659    1.0980   -0.2145   -0.0000    0.1427    0.0940   -0.0013
   31 O3     3s         0.0000   -0.0000   -0.0000   -0.0783    0.3739   -0.1438   -0.0000    0.2104    0.1175   -0.0454
   32 O3     2px        0.0000   -0.0000   -0.0000    0.0860   -0.3553   -0.0332   -0.0000   -0.0975    0.1834    0.0321
   33 O3     3px       -0.0000    0.0000    0.0000    0.0489   -0.2644    0.4518    0.0000    0.1645    0.1272    0.8087
   34 O3     2py        0.0000    0.0000    0.0000   -0.8083    0.5193   -0.0447   -0.0000    0.1097   -0.3781    0.0604
   35 O3     3py       -0.0000    0.0000    0.0000   -0.3001    0.5677   -0.2355   -0.0000    0.7615    0.2120   -0.1162
   36 O3     2pz        0.2756    0.7091    0.6877    0.0000   -0.0000   -0.0000    0.0028    0.0000    0.0000   -0.0000
   37 O3     3pz       -0.0299    0.0085   -0.0491    0.0000   -0.0000   -0.0000    0.4779    0.0000    0.0000   -0.0000
   38 O3     3d2-       0.0000   -0.0000   -0.0000    0.0037   -0.0199   -0.0050   -0.0000    0.0135   -0.0921   -0.0049
   39 O3     3d1-       0.0273    0.0183   -0.0059   -0.0000    0.0000    0.0000   -0.0293   -0.0000   -0.0000    0.0000
   40 O3     3d0       -0.0000    0.0000    0.0000   -0.0016   -0.0153    0.0169    0.0000    0.0028   -0.0541    0.0105
   41 O3     3d1+      -0.0101   -0.0062    0.0014    0.0000   -0.0000   -0.0000    0.0144   -0.0000    0.0000   -0.0000
   42 O3     3d2+      -0.0000   -0.0000   -0.0000   -0.0151   -0.0203    0.0517    0.0000   -0.0084   -0.0398    0.0029
 
 
      Orbital               21        22        23        24        25        26        27        28        29        30
      Energy            0.7022    0.8506    0.9256    0.9583    1.0000    1.6916    1.7097    1.7169    1.7849    1.9323
      Occ. No.          0.0000    0.0000    0.0000    0.0000    0.0000    0.0000    0.0000    0.0000    0.0000    0.0000
 
    1 O1     1s         0.0000   -0.0142   -0.0434    0.0000    0.0873   -0.0000   -0.0114   -0.0000   -0.1436   -0.0840
    2 O1     2s        -0.0000   -0.0791   -0.2336   -0.0000    0.4884   -0.0000   -0.0853    0.0000   -1.0421   -0.6464
    3 O1     3s         0.0000    0.4700   -0.0073   -0.0000    0.0413   -0.0000   -0.0799    0.0000   -1.2935   -0.7913
    4 O1     2px       -0.0000    0.0224   -0.3928    0.0000   -0.2504    0.0000    0.1112    0.0000    0.2877    0.0986
    5 O1     3px       -0.0000    0.1361   -0.7919   -0.0000   -0.3456    0.0000    0.0533   -0.0000    0.2672    0.2096
    6 O1     2py        0.0000   -0.0211    0.0735    0.0000    0.1508    0.0000    0.0275    0.0000    0.3181    0.4216
    7 O1     3py        0.0000    0.3116    0.0133   -0.0000    0.6884    0.0000    0.0424   -0.0000    0.2887    0.4627
    8 O1     2pz       -0.1008    0.0000   -0.0000    0.4648    0.0000   -0.1689    0.0000   -0.0921   -0.0000   -0.0000
    9 O1     3pz       -0.8455    0.0000    0.0000    0.8675   -0.0000    0.0211   -0.0000   -0.0639   -0.0000   -0.0000
   10 O1     3d2-      -0.0000   -0.0612   -0.0517    0.0000    0.0162    0.0000    0.3060   -0.0000    0.1569   -0.1477
   11 O1     3d1-      -0.0302   -0.0000    0.0000   -0.0009   -0.0000   -0.3553    0.0000   -0.3423    0.0000   -0.0000
   12 O1     3d0       -0.0000    0.0389    0.0661   -0.0000   -0.0703    0.0000    0.3267   -0.0000   -0.1487    0.1158
   13 O1     3d1+      -0.0014    0.0000    0.0000    0.0332   -0.0000   -0.2803    0.0000    0.2910    0.0000   -0.0000
   14 O1     3d2+      -0.0000    0.0392    0.0283   -0.0000   -0.1411    0.0000    0.0051    0.0000    0.1400   -0.2526
   15 O2     1s         0.0000    0.0149   -0.0260   -0.0000   -0.0000    0.0000    0.0249   -0.0000   -0.0000    0.2240
   16 O2     2s         0.0000    0.0774   -0.0885    0.0000   -0.0000    0.0000    0.1844   -0.0000   -0.0000    1.5732
   17 O2     3s         0.0000    0.5494    0.0275   -0.0000   -0.0000    0.0000    0.2053   -0.0000   -0.0000    1.5356
   18 O2     2px        0.0000   -0.0570    0.6028   -0.0000   -0.0000    0.0000    0.1165   -0.0000   -0.0000    0.1250
   19 O2     3px        0.0000   -0.1949    1.4778   -0.0000   -0.0000   -0.0000   -0.0736    0.0000   -0.0000    0.1730
   20 O2     2py        0.0000    0.0000    0.0000    0.0000   -0.7128    0.0000   -0.0000   -0.0000    1.0246    0.0000
   21 O2     3py       -0.0000   -0.0000   -0.0000   -0.0000   -1.1907    0.0000   -0.0000    0.0000    1.2313    0.0000
   22 O2     2pz        0.0000   -0.0000   -0.0000   -0.6548    0.0000    0.0000    0.0000   -0.0752   -0.0000   -0.0000
   23 O2     3pz       -0.0000   -0.0000   -0.0000   -1.5945    0.0000    0.0000    0.0000    0.1424    0.0000    0.0000
   24 O2     3d2-      -0.0000    0.0000    0.0000    0.0000    0.1860   -0.0000    0.0000    0.0000   -0.1360   -0.0000
   25 O2     3d1-       0.0709   -0.0000   -0.0000    0.0000    0.0000    0.5850   -0.0000    0.0000    0.0000   -0.0000
   26 O2     3d0       -0.0000    0.0434    0.1009   -0.0000   -0.0000    0.0000    0.4980   -0.0000   -0.0000    0.1436
   27 O2     3d1+      -0.0000    0.0000    0.0000    0.0546   -0.0000   -0.0000    0.0000    0.6332   -0.0000    0.0000
   28 O2     3d2+      -0.0000    0.0599    0.0510   -0.0000   -0.0000   -0.0000   -0.3791    0.0000   -0.0000    0.2900
   29 O3     1s        -0.0000   -0.0142   -0.0434    0.0000   -0.0873    0.0000   -0.0114    0.0000    0.1436   -0.0840
   30 O3     2s        -0.0000   -0.0791   -0.2336    0.0000   -0.4884   -0.0000   -0.0853    0.0000    1.0421   -0.6464
   31 O3     3s        -0.0000    0.4700   -0.0073   -0.0000   -0.0413   -0.0000   -0.0799    0.0000    1.2935   -0.7913
   32 O3     2px       -0.0000    0.0224   -0.3928    0.0000    0.2504    0.0000    0.1112   -0.0000   -0.2877    0.0986
   33 O3     3px        0.0000    0.1361   -0.7919    0.0000    0.3456    0.0000    0.0533   -0.0000   -0.2672    0.2096
   34 O3     2py        0.0000    0.0211   -0.0735    0.0000    0.1508   -0.0000   -0.0275    0.0000    0.3181   -0.4216
   35 O3     3py       -0.0000   -0.3116   -0.0133    0.0000    0.6884   -0.0000   -0.0424    0.0000    0.2887   -0.4627
   36 O3     2pz        0.1008    0.0000    0.0000    0.4648   -0.0000    0.1689   -0.0000   -0.0921   -0.0000    0.0000
   37 O3     3pz        0.8455    0.0000    0.0000    0.8675   -0.0000   -0.0211    0.0000   -0.0639   -0.0000   -0.0000
   38 O3     3d2-       0.0000    0.0612    0.0517    0.0000    0.0162   -0.0000   -0.3060    0.0000    0.1569    0.1477
   39 O3     3d1-      -0.0302    0.0000   -0.0000    0.0009   -0.0000   -0.3553    0.0000    0.3423   -0.0000    0.0000
   40 O3     3d0        0.0000    0.0389    0.0661   -0.0000    0.0703    0.0000    0.3267   -0.0000    0.1487    0.1158
   41 O3     3d1+       0.0014    0.0000    0.0000    0.0332    0.0000    0.2803   -0.0000    0.2910   -0.0000    0.0000
   42 O3     3d2+       0.0000    0.0392    0.0283    0.0000    0.1411   -0.0000    0.0051    0.0000   -0.1400   -0.2526
 
 
      Orbital               31        32        33        34        35        36        37        38        39        40
      Energy            2.0852    2.1313    2.2661    2.3044    2.3070    2.6870    2.9132    2.9658    2.9891    3.4706
      Occ. No.          0.0000    0.0000    0.0000    0.0000    0.0000    0.0000    0.0000    0.0000    0.0000    0.0000
 
    1 O1     1s        -0.1233    0.0000   -0.1608    0.0000    0.0960    0.0554    0.0359   -0.0000   -0.1158   -0.0000
    2 O1     2s        -0.8215   -0.0000   -1.0330    0.0000    0.6552    0.2595    0.3922   -0.0000   -0.8322   -0.0000
    3 O1     3s        -0.6484    0.0000   -0.6518    0.0000    0.4811   -0.0578    0.5258   -0.0000   -0.6011   -0.0000
    4 O1     2px        0.1745    0.0000    0.2537   -0.0000   -0.0447    0.0805   -0.2017    0.0000   -0.0700   -0.0000
    5 O1     3px        0.1636   -0.0000    0.3084    0.0000    0.1151    0.2396   -0.1881   -0.0000   -0.1736   -0.0000
    6 O1     2py        0.2624   -0.0000    0.2890   -0.0000   -0.3785   -0.0445   -0.3401    0.0000    0.6243    0.0000
    7 O1     3py       -0.0359    0.0000   -0.2045   -0.0000   -0.2467    0.1809   -0.3886    0.0000    0.4223    0.0000
    8 O1     2pz        0.0000    0.0024   -0.0000   -0.0865    0.0000    0.0000   -0.0000   -0.3493    0.0000   -0.3130
    9 O1     3pz       -0.0000   -0.0580   -0.0000   -0.1884    0.0000    0.0000   -0.0000   -0.4146    0.0000   -0.2129
   10 O1     3d2-       0.1114    0.0000   -0.4731   -0.0000   -0.0765   -0.4577    0.5907    0.0000    0.2046    0.0000
   11 O1     3d1-       0.0000    0.3977    0.0000    0.1707   -0.0000   -0.0000    0.0000    0.7161   -0.0000    0.5903
   12 O1     3d0        0.5085   -0.0000   -0.3034    0.0000    0.4938    0.0935   -0.4044    0.0000    0.3616    0.0000
   13 O1     3d1+      -0.0000   -0.5922    0.0000    0.6635   -0.0000   -0.0000   -0.0000    0.0518   -0.0000    0.3303
   14 O1     3d2+      -0.3488    0.0000   -0.2139   -0.0000   -0.3285    0.3723   -0.2871    0.0000    0.6115    0.0000
   15 O2     1s         0.0000    0.0000   -0.0000   -0.0000   -0.1299    0.1040    0.0000    0.0000    0.2585   -0.0000
   16 O2     2s         0.0000   -0.0000   -0.0000   -0.0000   -1.0399    0.4238    0.0000    0.0000    1.7785   -0.0000
   17 O2     3s         0.0000   -0.0000   -0.0000   -0.0000   -1.1273   -0.3321    0.0000    0.0000    1.1484   -0.0000
   18 O2     2px       -0.0000    0.0000   -0.0000   -0.0000   -0.5479   -0.1636    0.0000    0.0000    0.9695   -0.0000
   19 O2     3px        0.0000    0.0000   -0.0000   -0.0000   -0.5132   -0.4604    0.0000    0.0000    0.7171   -0.0000
   20 O2     2py        0.8917   -0.0000    1.2173   -0.0000   -0.0000    0.0000   -0.7845   -0.0000    0.0000    0.0000
   21 O2     3py        0.9830   -0.0000    1.3014   -0.0000   -0.0000    0.0000    0.0990    0.0000    0.0000    0.0000
   22 O2     2pz       -0.0000   -0.0000    0.0000    0.3797   -0.0000   -0.0000    0.0000    0.7388   -0.0000   -0.0000
   23 O2     3pz        0.0000   -0.0000    0.0000    0.2903   -0.0000   -0.0000    0.0000    0.7426   -0.0000    0.0000
   24 O2     3d2-       0.2904   -0.0000    0.4516   -0.0000   -0.0000    0.0000    0.2581    0.0000   -0.0000    0.0000
   25 O2     3d1-       0.0000   -0.0618    0.0000    0.0000    0.0000   -0.0000    0.0000    0.0000    0.0000    1.0644
   26 O2     3d0        0.0000   -0.0000   -0.0000   -0.0000   -0.2326    0.5981   -0.0000   -0.0000   -0.5584    0.0000
   27 O2     3d1+      -0.0000   -0.0000   -0.0000   -0.4139    0.0000   -0.0000    0.0000    0.7566   -0.0000   -0.0000
   28 O2     3d2+       0.0000   -0.0000    0.0000    0.0000    0.2777    0.1631    0.0000    0.0000    0.3813   -0.0000
   29 O3     1s         0.1233   -0.0000    0.1608    0.0000    0.0960    0.0554   -0.0359    0.0000   -0.1158    0.0000
   30 O3     2s         0.8215   -0.0000    1.0330    0.0000    0.6552    0.2595   -0.3922   -0.0000   -0.8322    0.0000
   31 O3     3s         0.6484   -0.0000    0.6518    0.0000    0.4811   -0.0578   -0.5258   -0.0000   -0.6011    0.0000
   32 O3     2px       -0.1745   -0.0000   -0.2537   -0.0000   -0.0447    0.0805    0.2017   -0.0000   -0.0700    0.0000
   33 O3     3px       -0.1636   -0.0000   -0.3084    0.0000    0.1151    0.2396    0.1881   -0.0000   -0.1736    0.0000
   34 O3     2py        0.2624   -0.0000    0.2890    0.0000    0.3785    0.0445   -0.3401   -0.0000   -0.6243    0.0000
   35 O3     3py       -0.0359    0.0000   -0.2045    0.0000    0.2467   -0.1809   -0.3886   -0.0000   -0.4223    0.0000
   36 O3     2pz        0.0000   -0.0024   -0.0000   -0.0865    0.0000    0.0000    0.0000   -0.3493    0.0000    0.3130
   37 O3     3pz       -0.0000    0.0580   -0.0000   -0.1884    0.0000    0.0000   -0.0000   -0.4146    0.0000    0.2129
   38 O3     3d2-       0.1114    0.0000   -0.4731    0.0000    0.0765    0.4577    0.5907   -0.0000   -0.2046    0.0000
   39 O3     3d1-      -0.0000    0.3977   -0.0000   -0.1707    0.0000    0.0000   -0.0000   -0.7161    0.0000    0.5903
   40 O3     3d0       -0.5085   -0.0000    0.3034    0.0000    0.4938    0.0935    0.4044    0.0000    0.3616   -0.0000
   41 O3     3d1+       0.0000    0.5922    0.0000    0.6635   -0.0000    0.0000    0.0000    0.0518   -0.0000   -0.3303
   42 O3     3d2+       0.3488   -0.0000    0.2139   -0.0000   -0.3285    0.3723    0.2871    0.0000    0.6115   -0.0000
 
 
      Orbital               41        42
      Energy            3.4716    4.0874
      Occ. No.          0.0000    0.0000
 
    1 O1     1s        -0.0950    0.1818
    2 O1     2s        -0.6246    1.2199
    3 O1     3s        -0.3110    0.6454
    4 O1     2px       -0.0631   -0.5542
    5 O1     3px       -0.1138   -0.2696
    6 O1     2py        0.4776   -0.7816
    7 O1     3py        0.1476   -0.3423
    8 O1     2pz        0.0000    0.0000
    9 O1     3pz        0.0000   -0.0000
   10 O1     3d2-       0.1286    0.6345
   11 O1     3d1-      -0.0000    0.0000
   12 O1     3d0        0.1264   -0.3158
   13 O1     3d1+      -0.0000   -0.0000
   14 O1     3d2+       0.6333   -0.0951
   15 O2     1s        -0.0000   -0.3499
   16 O2     2s         0.0000   -2.4443
   17 O2     3s        -0.0000   -1.5279
   18 O2     2px       -0.0000   -0.2563
   19 O2     3px       -0.0000    0.0621
   20 O2     2py        0.6063    0.0000
   21 O2     3py        0.1897    0.0000
   22 O2     2pz       -0.0000   -0.0000
   23 O2     3pz       -0.0000   -0.0000
   24 O2     3d2-       1.1095    0.0000
   25 O2     3d1-      -0.0000   -0.0000
   26 O2     3d0       -0.0000    0.5802
   27 O2     3d1+      -0.0000   -0.0000
   28 O2     3d2+      -0.0000    1.1278
   29 O3     1s         0.0950    0.1818
   30 O3     2s         0.6246    1.2199
   31 O3     3s         0.3110    0.6454
   32 O3     2px        0.0631   -0.5542
   33 O3     3px        0.1138   -0.2696
   34 O3     2py        0.4776    0.7816
   35 O3     3py        0.1476    0.3423
   36 O3     2pz       -0.0000    0.0000
   37 O3     3pz       -0.0000   -0.0000
   38 O3     3d2-       0.1286   -0.6345
   39 O3     3d1-      -0.0000   -0.0000
   40 O3     3d0       -0.1264   -0.3158
   41 O3     3d1+       0.0000    0.0000
   42 O3     3d2+      -0.6333   -0.0951
--
 
      Von Neumann Entropy (Root  1) =  0.66370
 

      Mulliken population analysis for root number:  1
      -----------------------------------------------
 
 
++    Molecular charges:
      ------------------
 
      Mulliken charges per centre and basis function type
      ---------------------------------------------------
 
                O1      O2      O3    
      1s       2.0003  2.0002  2.0003
      2s       1.9233  1.7433  1.9233
      2px      1.9027  1.6176  1.9027
      2pz      1.1977  1.5728  1.1977
      2py      1.0163  0.9195  1.0163
      3s      -0.0073 -0.0204 -0.0073
      3px     -0.0190 -0.0387 -0.0190
      3pz     -0.0100 -0.0095 -0.0100
      3py     -0.0038  0.0090 -0.0038
      3d2+     0.0163  0.0321  0.0163
      3d1+     0.0018  0.0044  0.0018
      3d0      0.0055  0.0091  0.0055
      3d1-     0.0129  0.0274  0.0129
      3d2-     0.0110  0.0376  0.0110
      Total    8.0477  7.9046  8.0477
 
      N-E     -0.0477  0.0954 -0.0477
 
      Total electronic charge=   24.000000
 
      Total            charge=   -0.000000
--
 
 

      Expectation values of various properties for root number:  1
      -----------------------------------------------------------
 
 
++    Molecular properties:
      ---------------------
 
      Charge (e):
                      =   -0.0000
      Dipole Moment (Debye):
      Origin of the operator (Ang)=    0.0000    0.0000    0.0000
                   X=  6.3911E-02               Y= -6.1499E-11               Z= -1.1360E-13           Total=  6.3911E-02
      Quadrupole Moment (Debye*Ang):
      Origin of the operator (Ang)=    0.3157    0.0000    0.0000
                  XX= -1.6496E+01              XY= -1.4811E-11              XZ=  1.0901E-12              YY= -1.6387E+01
                  YZ= -5.0336E-13              ZZ= -1.4669E+01
      In traceless form (Debye*Ang)
                  XX= -9.6766E-01              XY= -2.2217E-11              XZ=  1.6352E-12              YY= -8.0503E-01
                  YZ= -7.5504E-13              ZZ=  1.7727E+00
--
 

      LoProp population analysis for root number:  1
      -----------------------------------------------
 
 
++    LoProp analysis:
      ----------------
 
 
 
  Input file to MOLDEN was generated!
 
 
++    Static properties:
      ------------------
 
 
      LoProp Charges per center
 

                   O1       O2       O3    
      Nuclear      8.0000   8.0000   8.0000
      Electronic  -8.0764  -7.8472  -8.0764
 
      Total       -0.0764   0.1528  -0.0764
--
 
 
      Natural Bond Order analysis for root number:  1
 
++    Natural Bond Order analysis
      ---------------------------
      Based on LoProp computed density
      -------------------------------------------------------------------------------------
      Atom A       Atom B       Bond Order | Atom A       Atom B       Bond Order
        O1           O2             1.967  |   O2           O3             1.967
      -------------------------------------------------------------------------------------
      NBO located     12.000 core electrons.
      NBO located      3.959 lone pair electrons.
      NBO located      7.870 electrons involved in    2 bonds.
      The remaining    0.171 electrons are to be considered as diffuse
--
 
--
 
 
  Input file to MOLDEN was generated!
 
      Average orbitals are written to the RASORB file
      Natural orbitals for root   1 are written to the RASORB.1 file
      Spin density orbitals for root   1 are written to the SPDORB.1 file
 
--- Stop Module: rasscf at Wed Nov 13 12:43:07 2024 /rc=_RC_ALL_IS_WELL_ ---
*** files: ozone_136.50.LprOrb ozone_136.50.rasscf.molden ozone_136.50.LoProp.molden ozone_136.50.RasOrb ozone_136.50.RasOrb.1 ozone_136.50.rasscf.h5 ozone_136.50.SpdOrb.1 xmldump
    saved to directory /home/grierjones/DDCASPT2/ozone/ANO-RCC-VDZP/ozone_136.50

>>> COPY /tmp/ozone_136.50/ozone_136.50.rasscf.h5 /home/grierjones/DDCASPT2/ozone/ANO-RCC-VDZP/ozone_136.50/

>>> COPY /tmp/ozone_136.50/GMJ_Fock_MO.csv /home/grierjones/DDCASPT2/ozone/ANO-RCC-VDZP/ozone_136.50/ozone_136.50.GMJ_Fock_MO.csv

>>> COPY /tmp/ozone_136.50/GMJ_PT2_Fock_MO.csv /home/grierjones/DDCASPT2/ozone/ANO-RCC-VDZP/ozone_136.50/ozone_136.50.GMJ_PT2_Fock_MO.csv

*** symbolic link created: INPORB -> ozone_136.50.RasOrb
--- Start Module: motra at Wed Nov 13 12:43:07 2024 ---
 
()()()()()()()()()()()()()()()()()()()()()()()()()()()()()()()()()()()()()()()()()()()()()()()()()()

                                               &MOTRA

                                   only a single process is used
                       available to each process: 2.0 GB of memory, 1 thread?
()()()()()()()()()()()()()()()()()()()()()()()()()()()()()()()()()()()()()()()()()()()()()()()()()()
 
 
      *** WARNING: Default frozen orbitals is overwritten by user input.
      *** Default values:   3
 
      Header of the integral files:
      
       Integrals generated by seward 4.2.0  , Wed Nov 13 12:43:05 2024
 
 
      Header of MO coefficients source file:
      * RASSCF average (pseudo-natural) orbitals                                      
 
 
      Cartesian coordinates in Angstrom:
      -----------------------------------------------------
      No.  Label        X            Y            Z        
      -----------------------------------------------------
       1   O1         0.47357200   1.18701900   0.00000000
       2   O2         0.00000000   0.00000000   0.00000000
       3   O3         0.47357200  -1.18701900   0.00000000
      -----------------------------------------------------
      Nuclear repulsion energy =   67.26623717
 
      Orbital specifications:
      -----------------------
 
      Symmetry species:              1
      Number of basis functions:    42
      Frozen orbitals:               0
      Deleted orbitals:              0
      Number of orbitals used:      42

       SYMMETRY  BASIS FUNCTIONS       ORBITALS      INTEGRALS   CPU(SEC)  I/O(SEC)
 
        1 1 1 1   42  42  42  42    42  42  42  42      408156       0.00      0.00

       TOTAL CPU TIME(SEC)    0.18TOTAL I/O TIME(SEC)    0.51
 
--- Stop Module: motra at Wed Nov 13 12:43:07 2024 /rc=_RC_ALL_IS_WELL_ ---
*** files: xmldump
    saved to directory /home/grierjones/DDCASPT2/ozone/ANO-RCC-VDZP/ozone_136.50

>>> COPY /tmp/ozone_136.50/GMJ_one_int_indx.csv /home/grierjones/DDCASPT2/ozone/ANO-RCC-VDZP/ozone_136.50/ozone_136.50.GMJ_one_int_indx.csv

>>> COPY /tmp/ozone_136.50/GMJ_one_int.csv /home/grierjones/DDCASPT2/ozone/ANO-RCC-VDZP/ozone_136.50/ozone_136.50.GMJ_one_int.csv

>>> COPY /tmp/ozone_136.50/GMJ_two_int_indx.csv /home/grierjones/DDCASPT2/ozone/ANO-RCC-VDZP/ozone_136.50/ozone_136.50.GMJ_two_int_indx.csv

>>> COPY /tmp/ozone_136.50/GMJ_two_int.csv /home/grierjones/DDCASPT2/ozone/ANO-RCC-VDZP/ozone_136.50/ozone_136.50.GMJ_two_int.csv

*** symbolic link created: INPORB -> ozone_136.50.RasOrb
--- Start Module: caspt2 at Wed Nov 13 12:43:07 2024 ---
 
()()()()()()()()()()()()()()()()()()()()()()()()()()()()()()()()()()()()()()()()()()()()()()()()()()

                                              &CASPT2

                                   only a single process is used
                       available to each process: 2.0 GB of memory, 1 thread?
()()()()()()()()()()()()()()()()()()()()()()()()()()()()()()()()()()()()()()()()()()()()()()()()()()
 
 Cholesky algorithm in CASPT2 =    1
 
 ###############################################################################
 ###############################################################################
 ###                                                                         ###
 ###                                                                         ###
 ###    User changed nr of frozen orbitals.                                  ###
 ###                                                                         ###
 ###                                                                         ###
 ###############################################################################
 ###############################################################################
 
++    Wave function specifications:
      -----------------------------
 
      Number of closed shell electrons          20
      Number of electrons in active shells       4
      Max number of holes in RAS1 space          0
      Max number of electrons in RAS3 space      0
      Number of inactive orbitals               10
      Number of active orbitals                  3
      Number of secondary orbitals              29
      Spin quantum number                      0.0
      State symmetry                             1
      Number of CSFs                             6
      Number of root(s) available                1
      Root passed to geometry opt.               1
      A file JOBMIX will be created.
      This is a CASSCF or RASSCF reference function
--
 
++    Orbital specifications:
      -----------------------
 
      Symmetry species                           1
                                                 a
      Frozen orbitals                            0
      Inactive orbitals                         10
      Active orbitals                            3
      Secondary orbitals                        29
      Deleted orbitals                           0
      Number of basis functions                 42
--
 
      Type of Fock operator: STANDARD
      Type of 0-order Hamiltonian: STANDARD WITH DEFAULT IPEA
        "IP-EA" denominator shift =      0.25
      The input orbitals and the CI vector will be transformed.
 
--------------------------------------------------------------------------------
 Estimated memory requirements:
  POLY3 :                   250202
  RHS:                      279634
  SIGMA :                   302200
  PRPCTL:                        0
 Available workspace:    230396563
 
++ CASPT2 computation for group   1
 
********************************************************************************
 Multi-State initialization phase begins for group   1
--------------------------------------------------------------------------------
********************************************************************************
 Compute H0 matrices for state    1
--------------------------------------------------------------------------------
--------------------------------------------------------------------------------
 H0 matrices have been computed.
 
********************************************************************************
  CASPT2 EQUATION SOLUTION
--------------------------------------------------------------------------------
 
  Total nr of CASPT2 parameters:
   Before reduction:       86691
   After  reduction:       82880
 
 The contributions to the second order correlation energy in atomic units.
-----------------------------------------------------------------------------------------------------------------------------
  IT.      VJTU        VJTI        ATVX        AIVX        VJAI        BVAT        BJAT        BJAI        TOTAL       RNORM  
-----------------------------------------------------------------------------------------------------------------------------
   1    -0.000000   -0.001318   -0.012995   -0.095604   -0.017332   -0.016815   -0.124411   -0.271085   -0.539562    0.002149
   2    -0.000000   -0.001335   -0.013042   -0.095930   -0.017348   -0.016821   -0.124441   -0.271088   -0.540005    0.000169
   3    -0.000000   -0.001335   -0.013042   -0.095934   -0.017349   -0.016820   -0.124442   -0.271088   -0.540010    0.000022
   4    -0.000000   -0.001335   -0.013042   -0.095932   -0.017349   -0.016820   -0.124441   -0.271088   -0.540008    0.000003
-------------------------------------------------------------------------------------------------------------------
 
  FINAL CASPT2 RESULT:
 
  Correlation energy /Case, /Symm, and sums:
 VJTU     -0.00000000 -0.00000000
 VJTIP    -0.00133520 -0.00133520
 VJTIM     0.00000000  0.00000000
 ATVX     -0.01304208 -0.01304208
 AIVX     -0.09593166 -0.09593166
 VJAIP    -0.01210196 -0.01210196
 VJAIM    -0.00524663 -0.00524663
 BVATP    -0.01587094 -0.01587094
 BVATM    -0.00094954 -0.00094954
 BJATP    -0.04590720 -0.04590720
 BJATM    -0.07853419 -0.07853419
 BJAIP    -0.18223490 -0.18223490
 BJAIM    -0.08885359 -0.08885359
 Summed:  -0.54000788 -0.54000788
 
      Reference energy:        -224.5588751873
      E2 (Non-variational):      -0.5400078765
      E2 (Variational):          -0.5400079019
      Total energy:            -225.0988830891
      Residual norm:              0.0000002622
      Reference weight:           0.85479
 
      Contributions to the CASPT2 correlation energy
      Active & Virtual Only:         -0.0298625494
      One Inactive Excited:          -0.2203730527
      Two Inactive Excited:          -0.2897722744
 
 
++ Denominators, etc.
----------------------------------------------------------------------------------------------------
 Report on small energy denominators, large coefficients, and large energy contributions.
CASE  SYMM ACTIVE-MIX  NON-ACTIVE INDICES          DENOMINATOR     RHS VALUE       COEFFICIENT     CONTRIBUTION
ATVX     1  Mu1.0006  Se1.017                       1.88581727     -0.06475630      0.03499412     -0.00226609
ATVX     1  Mu1.0005  Se1.021                       1.82522907     -0.09666957      0.05194554     -0.00502155
ATVX     1  Mu1.0006  Se1.024                       2.38013770      0.06029025     -0.02541628     -0.00153235
AIVX     1  Mu1.0006  In1.004 Se1.014               2.69867605      0.07458607     -0.02759636     -0.00205830
AIVX     1  Mu1.0003  In1.005 Se1.014               2.05725339      0.06305908     -0.03026231     -0.00190831
AIVX     1  Mu1.0004  In1.007 Se1.014               1.62668562      0.06946651     -0.04320815     -0.00300152
AIVX     1  Mu1.0002  In1.008 Se1.014               1.31845291     -0.07168862      0.05385011     -0.00386044
AIVX     1  Mu1.0002  In1.009 Se1.014               1.11860471      0.05706128     -0.05025140     -0.00286741
AIVX     1  Mu1.0003  In1.009 Se1.014               1.20655205      0.03864814     -0.03169062     -0.00122478
AIVX     1  Mu1.0002  In1.008 Se1.016               1.55282791      0.04594981     -0.02890691     -0.00132827
AIVX     1  Mu1.0004  In1.010 Se1.016               1.57270398      0.05477130     -0.03484268     -0.00190838
AIVX     1  Mu1.0002  In1.009 Se1.018               1.45848038      0.06664510     -0.04447903     -0.00296431
AIVX     1  Mu1.0003  In1.009 Se1.018               1.54642772      0.04643790     -0.02926186     -0.00135886
AIVX     1  Mu1.0004  In1.008 Se1.019               1.99017806     -0.11503136      0.05827798     -0.00670380
AIVX     1  Mu1.0006  In1.008 Se1.019               2.15632042     -0.06870635      0.03205900     -0.00220266
AIVX     1  Mu1.0002  In1.010 Se1.019               1.40300371     -0.04007999      0.02830283     -0.00113438
AIVX     1  Mu1.0002  In1.010 Se1.020               1.49931263      0.07420644     -0.04816768     -0.00357435
AIVX     1  Mu1.0003  In1.010 Se1.020               1.58725998      0.04915508     -0.03003765     -0.00147650
BJAIP    1  Se1.014 In1.007 Se1.019 In1.008         2.40934223     -0.06443752      0.02674482     -0.00172337
BJAIP    1  Se1.019 In1.008 Se1.019 In1.008         2.77283467      0.10534701     -0.03799249     -0.00400239
--
 
   (Skipping property calculation,
    use PROP keyword to activate)
--
 
  Total CASPT2 energies:
::    CASPT2 Root  1     Total energy:   -225.09888309
 
  A NEW JOBIPH FILE NAMED 'JOBMIX' IS PREPARED.
********************************************************************************
--- Stop Module: caspt2 at Wed Nov 13 12:43:07 2024 /rc=_RC_ALL_IS_WELL_ ---
*** files: xmldump
    saved to directory /home/grierjones/DDCASPT2/ozone/ANO-RCC-VDZP/ozone_136.50

>>> EXPORT i = B

>>> EXPORT j = P

>>> IF (-FILE GMJ_e2_${i}_${j}.csv)

>>> COPY /tmp/ozone_136.50/GMJ_RHS_B_P.csv /home/grierjones/DDCASPT2/ozone/ANO-RCC-VDZP/ozone_136.50/GMJ_RHS_B_P.csv

>>> COPY /tmp/ozone_136.50/GMJ_IVECW_B_P.csv /home/grierjones/DDCASPT2/ozone/ANO-RCC-VDZP/ozone_136.50/GMJ_IVECW_B_P.csv

>>> COPY /tmp/ozone_136.50/GMJ_IVECX_B_P.csv /home/grierjones/DDCASPT2/ozone/ANO-RCC-VDZP/ozone_136.50/GMJ_IVECX_B_P.csv

>>> COPY /tmp/ozone_136.50/GMJ_IVECC2_B_P.csv /home/grierjones/DDCASPT2/ozone/ANO-RCC-VDZP/ozone_136.50/GMJ_IVECC2_B_P.csv

>>> COPY /tmp/ozone_136.50/GMJ_e2_B_P.csv /home/grierjones/DDCASPT2/ozone/ANO-RCC-VDZP/ozone_136.50/GMJ_e2_B_P.csv

>>> END FOREACH

>>> EXPORT j = M

>>> IF (-FILE GMJ_e2_${i}_${j}.csv)
(Skipped)

>>> END FOREACH

>>> END FOREACH

>>> EXPORT i = E

>>> EXPORT j = P

>>> IF (-FILE GMJ_e2_${i}_${j}.csv)

>>> COPY /tmp/ozone_136.50/GMJ_RHS_E_P.csv /home/grierjones/DDCASPT2/ozone/ANO-RCC-VDZP/ozone_136.50/GMJ_RHS_E_P.csv

>>> COPY /tmp/ozone_136.50/GMJ_IVECW_E_P.csv /home/grierjones/DDCASPT2/ozone/ANO-RCC-VDZP/ozone_136.50/GMJ_IVECW_E_P.csv

>>> COPY /tmp/ozone_136.50/GMJ_IVECX_E_P.csv /home/grierjones/DDCASPT2/ozone/ANO-RCC-VDZP/ozone_136.50/GMJ_IVECX_E_P.csv

>>> COPY /tmp/ozone_136.50/GMJ_IVECC2_E_P.csv /home/grierjones/DDCASPT2/ozone/ANO-RCC-VDZP/ozone_136.50/GMJ_IVECC2_E_P.csv

>>> COPY /tmp/ozone_136.50/GMJ_e2_E_P.csv /home/grierjones/DDCASPT2/ozone/ANO-RCC-VDZP/ozone_136.50/GMJ_e2_E_P.csv

>>> END FOREACH

>>> EXPORT j = M

>>> IF (-FILE GMJ_e2_${i}_${j}.csv)

>>> COPY /tmp/ozone_136.50/GMJ_RHS_E_M.csv /home/grierjones/DDCASPT2/ozone/ANO-RCC-VDZP/ozone_136.50/GMJ_RHS_E_M.csv

>>> COPY /tmp/ozone_136.50/GMJ_IVECW_E_M.csv /home/grierjones/DDCASPT2/ozone/ANO-RCC-VDZP/ozone_136.50/GMJ_IVECW_E_M.csv

>>> COPY /tmp/ozone_136.50/GMJ_IVECX_E_M.csv /home/grierjones/DDCASPT2/ozone/ANO-RCC-VDZP/ozone_136.50/GMJ_IVECX_E_M.csv

>>> COPY /tmp/ozone_136.50/GMJ_IVECC2_E_M.csv /home/grierjones/DDCASPT2/ozone/ANO-RCC-VDZP/ozone_136.50/GMJ_IVECC2_E_M.csv

>>> COPY /tmp/ozone_136.50/GMJ_e2_E_M.csv /home/grierjones/DDCASPT2/ozone/ANO-RCC-VDZP/ozone_136.50/GMJ_e2_E_M.csv

>>> END FOREACH

>>> END FOREACH

>>> EXPORT i = F

>>> EXPORT j = P

>>> IF (-FILE GMJ_e2_${i}_${j}.csv)

>>> COPY /tmp/ozone_136.50/GMJ_RHS_F_P.csv /home/grierjones/DDCASPT2/ozone/ANO-RCC-VDZP/ozone_136.50/GMJ_RHS_F_P.csv

>>> COPY /tmp/ozone_136.50/GMJ_IVECW_F_P.csv /home/grierjones/DDCASPT2/ozone/ANO-RCC-VDZP/ozone_136.50/GMJ_IVECW_F_P.csv

>>> COPY /tmp/ozone_136.50/GMJ_IVECX_F_P.csv /home/grierjones/DDCASPT2/ozone/ANO-RCC-VDZP/ozone_136.50/GMJ_IVECX_F_P.csv

>>> COPY /tmp/ozone_136.50/GMJ_IVECC2_F_P.csv /home/grierjones/DDCASPT2/ozone/ANO-RCC-VDZP/ozone_136.50/GMJ_IVECC2_F_P.csv

>>> COPY /tmp/ozone_136.50/GMJ_e2_F_P.csv /home/grierjones/DDCASPT2/ozone/ANO-RCC-VDZP/ozone_136.50/GMJ_e2_F_P.csv

>>> END FOREACH

>>> EXPORT j = M

>>> IF (-FILE GMJ_e2_${i}_${j}.csv)

>>> COPY /tmp/ozone_136.50/GMJ_RHS_F_M.csv /home/grierjones/DDCASPT2/ozone/ANO-RCC-VDZP/ozone_136.50/GMJ_RHS_F_M.csv

>>> COPY /tmp/ozone_136.50/GMJ_IVECW_F_M.csv /home/grierjones/DDCASPT2/ozone/ANO-RCC-VDZP/ozone_136.50/GMJ_IVECW_F_M.csv

>>> COPY /tmp/ozone_136.50/GMJ_IVECX_F_M.csv /home/grierjones/DDCASPT2/ozone/ANO-RCC-VDZP/ozone_136.50/GMJ_IVECX_F_M.csv

>>> COPY /tmp/ozone_136.50/GMJ_IVECC2_F_M.csv /home/grierjones/DDCASPT2/ozone/ANO-RCC-VDZP/ozone_136.50/GMJ_IVECC2_F_M.csv

>>> COPY /tmp/ozone_136.50/GMJ_e2_F_M.csv /home/grierjones/DDCASPT2/ozone/ANO-RCC-VDZP/ozone_136.50/GMJ_e2_F_M.csv

>>> END FOREACH

>>> END FOREACH

>>> EXPORT i = G

>>> EXPORT j = P

>>> IF (-FILE GMJ_e2_${i}_${j}.csv)

>>> COPY /tmp/ozone_136.50/GMJ_RHS_G_P.csv /home/grierjones/DDCASPT2/ozone/ANO-RCC-VDZP/ozone_136.50/GMJ_RHS_G_P.csv

>>> COPY /tmp/ozone_136.50/GMJ_IVECW_G_P.csv /home/grierjones/DDCASPT2/ozone/ANO-RCC-VDZP/ozone_136.50/GMJ_IVECW_G_P.csv

>>> COPY /tmp/ozone_136.50/GMJ_IVECX_G_P.csv /home/grierjones/DDCASPT2/ozone/ANO-RCC-VDZP/ozone_136.50/GMJ_IVECX_G_P.csv

>>> COPY /tmp/ozone_136.50/GMJ_IVECC2_G_P.csv /home/grierjones/DDCASPT2/ozone/ANO-RCC-VDZP/ozone_136.50/GMJ_IVECC2_G_P.csv

>>> COPY /tmp/ozone_136.50/GMJ_e2_G_P.csv /home/grierjones/DDCASPT2/ozone/ANO-RCC-VDZP/ozone_136.50/GMJ_e2_G_P.csv

>>> END FOREACH

>>> EXPORT j = M

>>> IF (-FILE GMJ_e2_${i}_${j}.csv)

>>> COPY /tmp/ozone_136.50/GMJ_RHS_G_M.csv /home/grierjones/DDCASPT2/ozone/ANO-RCC-VDZP/ozone_136.50/GMJ_RHS_G_M.csv

>>> COPY /tmp/ozone_136.50/GMJ_IVECW_G_M.csv /home/grierjones/DDCASPT2/ozone/ANO-RCC-VDZP/ozone_136.50/GMJ_IVECW_G_M.csv

>>> COPY /tmp/ozone_136.50/GMJ_IVECX_G_M.csv /home/grierjones/DDCASPT2/ozone/ANO-RCC-VDZP/ozone_136.50/GMJ_IVECX_G_M.csv

>>> COPY /tmp/ozone_136.50/GMJ_IVECC2_G_M.csv /home/grierjones/DDCASPT2/ozone/ANO-RCC-VDZP/ozone_136.50/GMJ_IVECC2_G_M.csv

>>> COPY /tmp/ozone_136.50/GMJ_e2_G_M.csv /home/grierjones/DDCASPT2/ozone/ANO-RCC-VDZP/ozone_136.50/GMJ_e2_G_M.csv

>>> END FOREACH

>>> END FOREACH

>>> EXPORT i = H

>>> EXPORT j = P

>>> IF (-FILE GMJ_e2_${i}_${j}.csv)

>>> COPY /tmp/ozone_136.50/GMJ_RHS_H_P.csv /home/grierjones/DDCASPT2/ozone/ANO-RCC-VDZP/ozone_136.50/GMJ_RHS_H_P.csv

>>> COPY /tmp/ozone_136.50/GMJ_IVECW_H_P.csv /home/grierjones/DDCASPT2/ozone/ANO-RCC-VDZP/ozone_136.50/GMJ_IVECW_H_P.csv

>>> COPY /tmp/ozone_136.50/GMJ_IVECX_H_P.csv /home/grierjones/DDCASPT2/ozone/ANO-RCC-VDZP/ozone_136.50/GMJ_IVECX_H_P.csv

>>> COPY /tmp/ozone_136.50/GMJ_IVECC2_H_P.csv /home/grierjones/DDCASPT2/ozone/ANO-RCC-VDZP/ozone_136.50/GMJ_IVECC2_H_P.csv

>>> COPY /tmp/ozone_136.50/GMJ_e2_H_P.csv /home/grierjones/DDCASPT2/ozone/ANO-RCC-VDZP/ozone_136.50/GMJ_e2_H_P.csv

>>> END FOREACH

>>> EXPORT j = M

>>> IF (-FILE GMJ_e2_${i}_${j}.csv)

>>> COPY /tmp/ozone_136.50/GMJ_RHS_H_M.csv /home/grierjones/DDCASPT2/ozone/ANO-RCC-VDZP/ozone_136.50/GMJ_RHS_H_M.csv

>>> COPY /tmp/ozone_136.50/GMJ_IVECW_H_M.csv /home/grierjones/DDCASPT2/ozone/ANO-RCC-VDZP/ozone_136.50/GMJ_IVECW_H_M.csv

>>> COPY /tmp/ozone_136.50/GMJ_IVECX_H_M.csv /home/grierjones/DDCASPT2/ozone/ANO-RCC-VDZP/ozone_136.50/GMJ_IVECX_H_M.csv

>>> COPY /tmp/ozone_136.50/GMJ_IVECC2_H_M.csv /home/grierjones/DDCASPT2/ozone/ANO-RCC-VDZP/ozone_136.50/GMJ_IVECC2_H_M.csv

>>> COPY /tmp/ozone_136.50/GMJ_e2_H_M.csv /home/grierjones/DDCASPT2/ozone/ANO-RCC-VDZP/ozone_136.50/GMJ_e2_H_M.csv

>>> END FOREACH

>>> END FOREACH

>>> EXPORT i = A

>>> IF (-FILE GMJ_e2_$i.csv)

>>> COPY /tmp/ozone_136.50/GMJ_RHS_A.csv /home/grierjones/DDCASPT2/ozone/ANO-RCC-VDZP/ozone_136.50/GMJ_RHS_A.csv

>>> COPY /tmp/ozone_136.50/GMJ_IVECW_A.csv /home/grierjones/DDCASPT2/ozone/ANO-RCC-VDZP/ozone_136.50/GMJ_IVECW_A.csv

>>> COPY /tmp/ozone_136.50/GMJ_IVECX_A.csv /home/grierjones/DDCASPT2/ozone/ANO-RCC-VDZP/ozone_136.50/GMJ_IVECX_A.csv

>>> COPY /tmp/ozone_136.50/GMJ_IVECC2_A.csv /home/grierjones/DDCASPT2/ozone/ANO-RCC-VDZP/ozone_136.50/GMJ_IVECC2_A.csv

>>> COPY /tmp/ozone_136.50/GMJ_e2_A.csv /home/grierjones/DDCASPT2/ozone/ANO-RCC-VDZP/ozone_136.50/GMJ_e2_A.csv

>>> END FOREACH

>>> EXPORT i = C

>>> IF (-FILE GMJ_e2_$i.csv)

>>> COPY /tmp/ozone_136.50/GMJ_RHS_C.csv /home/grierjones/DDCASPT2/ozone/ANO-RCC-VDZP/ozone_136.50/GMJ_RHS_C.csv

>>> COPY /tmp/ozone_136.50/GMJ_IVECW_C.csv /home/grierjones/DDCASPT2/ozone/ANO-RCC-VDZP/ozone_136.50/GMJ_IVECW_C.csv

>>> COPY /tmp/ozone_136.50/GMJ_IVECX_C.csv /home/grierjones/DDCASPT2/ozone/ANO-RCC-VDZP/ozone_136.50/GMJ_IVECX_C.csv

>>> COPY /tmp/ozone_136.50/GMJ_IVECC2_C.csv /home/grierjones/DDCASPT2/ozone/ANO-RCC-VDZP/ozone_136.50/GMJ_IVECC2_C.csv

>>> COPY /tmp/ozone_136.50/GMJ_e2_C.csv /home/grierjones/DDCASPT2/ozone/ANO-RCC-VDZP/ozone_136.50/GMJ_e2_C.csv

>>> END FOREACH

>>> EXPORT i = D

>>> IF (-FILE GMJ_e2_$i.csv)

>>> COPY /tmp/ozone_136.50/GMJ_RHS_D.csv /home/grierjones/DDCASPT2/ozone/ANO-RCC-VDZP/ozone_136.50/GMJ_RHS_D.csv

>>> COPY /tmp/ozone_136.50/GMJ_IVECW_D.csv /home/grierjones/DDCASPT2/ozone/ANO-RCC-VDZP/ozone_136.50/GMJ_IVECW_D.csv

>>> COPY /tmp/ozone_136.50/GMJ_IVECX_D.csv /home/grierjones/DDCASPT2/ozone/ANO-RCC-VDZP/ozone_136.50/GMJ_IVECX_D.csv

>>> COPY /tmp/ozone_136.50/GMJ_IVECC2_D.csv /home/grierjones/DDCASPT2/ozone/ANO-RCC-VDZP/ozone_136.50/GMJ_IVECC2_D.csv

>>> COPY /tmp/ozone_136.50/GMJ_e2_D.csv /home/grierjones/DDCASPT2/ozone/ANO-RCC-VDZP/ozone_136.50/GMJ_e2_D.csv

>>> END FOREACH

.########################.
.# Non-zero return code #.
.########################.

    Timing: Wall=2.45 User=1.56 System=0.88
********************************************
*** WorkDir at /tmp/ozone_136.50 cleaned ***
********************************************
