[Molden Format]
[N_Atoms]
                     2
[Atoms] (AU)
LI1         1      3           0.00000000      0.00000000      0.00000000
O2          2      8           0.00000000      0.00000000      2.07869874
[Charge] (Mulliken)
  0.686376715708271     
 -0.686376715708288     
[GTO] (AU)
   1
   s  14
  9.497934400E+03  9.668999974E-05
  1.416811200E+03  6.087099984E-04
  3.214599400E+02  3.101519992E-03
  9.112416300E+01  1.266904997E-02
  2.999989100E+01  4.248012989E-02
  1.101763100E+01  1.150183297E-01
  4.372801000E+00  2.398650094E-01
  1.831256000E+00  3.584300090E-01
  8.022610000E-01  3.048527792E-01
  3.626480000E-01  8.824261976E-02
  1.139950000E-01 -8.445899977E-04
  5.123700000E-02 -7.943959979E-03
  2.246800000E-02 -3.764419990E-03
  7.860000000E-03 -8.868999976E-05
   s  14
  9.497934400E+03 -1.244999993E-05
  1.416811200E+03 -7.838999954E-05
  3.214599400E+02 -4.007099976E-04
  9.112416300E+01 -1.645249990E-03
  2.999989100E+01 -5.634599967E-03
  1.101763100E+01 -1.590780991E-02
  4.372801000E+00 -3.612581979E-02
  1.831256000E+00 -6.459927962E-02
  8.022610000E-01 -1.008321794E-01
  3.626480000E-01 -9.757613942E-02
  1.139950000E-01  2.301215886E-01
  5.123700000E-02  6.102389764E-01
  2.246800000E-02  2.849406083E-01
  7.860000000E-03  4.026899976E-03
   p   9
  1.311950400E+01  1.524940000E-03
  3.077424200E+00  8.314830000E-03
  1.098800500E+00  1.933203000E-02
  4.357784000E-01  4.934293000E-02
  1.802432000E-01  1.623554000E-01
  7.613330000E-02  3.847505400E-01
  3.254650000E-02  4.336100400E-01
  1.401820000E-02  1.287005900E-01
  4.906400000E-03 -1.018520000E-03
 
   2
   s  14
  1.053749500E+05  1.238600013E-04
  1.567924000E+04  5.120100053E-04
  3.534544700E+03  2.152910022E-03
  9.873651600E+02  8.528440089E-03
  3.159787500E+02  3.018049031E-02
  1.116542800E+02  9.099702095E-02
  4.269945100E+01  2.177936423E-01
  1.739559600E+01  3.686245738E-01
  7.438309000E+00  3.366707335E-01
  3.222862000E+00  9.657630101E-02
  1.253877000E+00  2.144520022E-03
  4.951550000E-01  1.194350012E-03
  1.916650000E-01  5.390200056E-04
  6.708300000E-02  2.103400022E-04
   s  14
  1.053749500E+05 -2.815000008E-05
  1.567924000E+04 -1.163000003E-04
  3.534544700E+03 -4.909200013E-04
  9.873651600E+02 -1.946160005E-03
  3.159787500E+02 -7.005300019E-03
  1.116542800E+02 -2.167814006E-02
  4.269945100E+01 -5.641213015E-02
  1.739559600E+01 -1.127053003E-01
  7.438309000E+00 -1.589119704E-01
  3.222862000E+00 -3.355083009E-02
  1.253877000E+00  3.531902810E-01
  4.951550000E-01  5.534199315E-01
  1.916650000E-01  2.301839106E-01
  6.708300000E-02  1.127267003E-02
   p   9
  2.000000000E+02  9.173000030E-04
  4.653336700E+01  7.377140024E-03
  1.462180900E+01  3.483515011E-02
  5.313064000E+00  1.144397004E-01
  2.102525000E+00  2.554966408E-01
  8.502230000E-01  3.722557412E-01
  3.375970000E-01  3.323314911E-01
  1.288920000E-01  1.400847905E-01
  4.511200000E-02  2.395784008E-02
 
[MO]
Sym=     1a  
Ene=   -20.4050
Spin= Alpha
Occup=    1.00000
   1        -0.00072481
   2        -0.00091786
   3        -0.00000000
   4         0.00000000
   5        -0.00067156
   6         1.00008141
   7         0.00267683
   8        -0.00000000
   9         0.00000000
  10        -0.00052948
Sym=     1a  
Ene=   -20.3610
Spin= Beta
Occup=    1.00000
   1        -0.00039745
   2        -0.00041708
   3        -0.00000000
   4        -0.00000000
   5        -0.00023303
   6         1.00003434
   7         0.00009199
   8         0.00000000
   9         0.00000000
  10        -0.00059117
Sym=     2a  
Ene=    -2.5474
Spin= Alpha
Occup=    1.00000
   1         0.96422027
   2        -0.00000779
   3        -0.00000000
   4        -0.00000000
   5         0.00052457
   6        -0.00934496
   7         0.08189173
   8        -0.00000000
   9         0.00000000
  10        -0.05656854
Sym=     2a  
Ene=    -2.5068
Spin= Beta
Occup=    1.00000
   1         0.97156144
   2         0.00427330
   3        -0.00000000
   4        -0.00000000
   5        -0.00008665
   6        -0.00925374
   7         0.07321407
   8        -0.00000000
   9        -0.00000000
  10        -0.04068259
Sym=     3a  
Ene=    -1.2020
Spin= Alpha
Occup=    1.00000
   1        -0.28168273
   2        -0.01308985
   3        -0.00000000
   4        -0.00000000
   5         0.03023470
   6        -0.00053418
   7         1.00751344
   8        -0.00000000
   9        -0.00000000
  10        -0.05816691
Sym=     3a  
Ene=    -1.0303
Spin= Beta
Occup=    1.00000
   1        -0.27863201
   2         0.01589645
   3        -0.00000000
   4        -0.00000000
   5         0.05750639
   6        -0.00119663
   7         0.98480356
   8        -0.00000000
   9        -0.00000000
  10        -0.08416110
Sym=     4a  
Ene=    -0.5060
Spin= Alpha
Occup=    1.00000
   1         0.35358332
   2         0.09304232
   3         0.00000000
   4         0.00000000
   5        -0.06894775
   6        -0.00279174
   7        -0.00406842
   8         0.00000000
   9        -0.00000000
  10         1.05063958
Sym=     4a  
Ene=    -0.4089
Spin= Beta
Occup=    1.00000
   1         0.00000000
   2        -0.00000000
   3         0.18994522
   4         0.00619301
   5         0.00000000
   6         0.00000000
   7         0.00000000
   8         0.92300537
   9         0.03009384
  10         0.00000000
Sym=     5a  
Ene=    -0.4715
Spin= Alpha
Occup=    1.00000
   1        -0.00000000
   2        -0.00000000
   3         0.12037062
   4         0.00321727
   5         0.00000000
   6         0.00000000
   7         0.00000000
   8         0.95502221
   9         0.02552589
  10        -0.00000000
Sym=     5a  
Ene=    -0.4089
Spin= Beta
Occup=    1.00000
   1         0.00000000
   2         0.00000000
   3        -0.00619301
   4         0.18994522
   5         0.00000000
   6        -0.00000000
   7        -0.00000000
   8        -0.03009384
   9         0.92300537
  10         0.00000000
Sym=     6a  
Ene=    -0.4715
Spin= Alpha
Occup=    1.00000
   1         0.00000000
   2         0.00000000
   3        -0.00321727
   4         0.12037062
   5         0.00000000
   6        -0.00000000
   7        -0.00000000
   8        -0.02552589
   9         0.95502221
  10         0.00000000
Sym=     6a  
Ene=     0.0178
Spin= Beta
Occup=    0.00000
   1        -0.01911893
   2        -0.84620699
   3         0.00000000
   4        -0.00000000
   5         0.54710252
   6         0.00322491
   7         0.07763318
   8        -0.00000000
   9         0.00000000
  10        -0.04279098
Sym=     7a  
Ene=     0.0194
Spin= Alpha
Occup=    0.00000
   1        -0.00472549
   2        -0.84118212
   3         0.00000000
   4        -0.00000000
   5         0.54727707
   6         0.00278034
   7         0.06581929
   8        -0.00000000
   9         0.00000000
  10        -0.00098835
Sym=     7a  
Ene=     0.1421
Spin= Beta
Occup=    0.00000
   1        -0.00000000
   2         0.00000000
   3        -0.19568602
   4        -1.01822606
   5         0.00000000
   6        -0.00000000
   7        -0.00000000
   8         0.09592779
   9         0.49914745
  10        -0.00000000
Sym=     8a  
Ene=     0.1329
Spin= Alpha
Occup=    0.00000
   1        -0.00000000
   2        -0.00000000
   3         0.15446182
   4         1.03577844
   5        -0.00000000
   6         0.00000000
   7         0.00000000
   8        -0.06571008
   9        -0.44063370
  10        -0.00000000
Sym=     8a  
Ene=     0.1421
Spin= Beta
Occup=    0.00000
   1        -0.00000000
   2        -0.00000000
   3        -1.01822606
   4         0.19568602
   5        -0.00000000
   6         0.00000000
   7         0.00000000
   8         0.49914745
   9        -0.09592779
  10        -0.00000000
Sym=     9a  
Ene=     0.1329
Spin= Alpha
Occup=    0.00000
   1        -0.00000000
   2        -0.00000000
   3        -1.03577844
   4         0.15446182
   5        -0.00000000
   6         0.00000000
   7         0.00000000
   8         0.44063370
   9        -0.06571008
  10         0.00000000
Sym=     9a  
Ene=     0.2150
Spin= Beta
Occup=    0.00000
   1         0.20503901
   2         0.68571264
   3        -0.00000000
   4         0.00000000
   5         0.92944300
   6        -0.08391402
   7        -0.68150069
   8         0.00000000
   9        -0.00000000
  10         0.23830359
Sym=    10a  
Ene=     0.2114
Spin= Alpha
Occup=    0.00000
   1         0.11325331
   2         0.69754995
   3        -0.00000000
   4         0.00000000
   5         0.97737864
   6        -0.08588960
   7        -0.68118064
   8         0.00000000
   9        -0.00000000
  10        -0.04641874
Sym=    10a  
Ene=     0.3415
Spin= Beta
Occup=    0.00000
   1         0.28803142
   2        -0.12826968
   3         0.00000000
   4        -0.00000000
   5        -0.30652461
   6         0.02086367
   7         0.21091251
   8        -0.00000000
   9         0.00000000
  10         1.02236231
