[Molden Format]
[N_Atoms]
                     2
[Atoms] (AU)
C1          1      6           0.00000000      0.00000000      0.00000000
N2          2      7           0.00000000      0.00000000      4.34637009
[Charge] (Mulliken)
 -2.304975557574362E-002
  2.304975557567612E-002
[GTO] (AU)
   1
   s  14
  5.055750100E+04  1.128874000E-04
  7.524785600E+03  5.295373000E-04
  1.694327600E+03  2.450038300E-03
  4.728227900E+02  1.005398470E-02
  1.517107500E+02  3.545398060E-02
  5.391874600E+01  1.044071086E-01
  2.065931100E+01  2.412894918E-01
  8.383976000E+00  3.834225483E-01
  3.577015000E+00  3.078514393E-01
  1.547118000E+00  6.872442990E-02
  6.130130000E-01  2.224445000E-04
  2.460680000E-01  1.976748900E-03
  9.908700000E-02  2.057859400E-03
  3.468000000E-02  4.182020000E-04
   s  14
  5.055750100E+04 -2.507420000E-05
  7.524785600E+03 -1.175945000E-04
  1.694327600E+03 -5.456275000E-04
  4.728227900E+02 -2.245077100E-03
  1.517107500E+02 -8.043471800E-03
  5.391874600E+01 -2.442588710E-02
  2.065931100E+01 -6.136791180E-02
  8.383976000E+00 -1.177767835E-01
  3.577015000E+00 -1.550487783E-01
  1.547118000E+00 -1.933316860E-02
  6.130130000E-01  3.996930678E-01
  2.460680000E-01  5.589420949E-01
  9.908700000E-02  1.711195023E-01
  3.468000000E-02  7.456244600E-03
   p   9
  8.333315500E+01  1.344656000E-03
  1.955761100E+01  1.023555500E-02
  6.080365000E+00  4.520067100E-02
  2.179317000E+00  1.410756198E-01
  8.651500000E-01  3.047388085E-01
  3.619440000E-01  3.995281011E-01
  1.547400000E-01  2.719163432E-01
  6.542900000E-02  5.857669330E-02
  2.290000000E-02 -1.263813000E-04
 
   2
   s  14
  7.476171500E+04  1.182599996E-04
  1.112365400E+04  5.172899983E-04
  2.512685700E+03  2.266659992E-03
  7.037772900E+02  9.145289970E-03
  2.254787900E+02  3.239342989E-02
  7.961581000E+01  9.770792967E-02
  3.023728300E+01  2.317036792E-01
  1.226362200E+01  3.768898887E-01
  5.265086000E+00  3.177420689E-01
  2.333471000E+00  8.211308973E-02
  9.018560000E-01  3.312089989E-03
  3.583360000E-01  3.720819988E-03
  1.410930000E-01  3.165419989E-03
  4.938300000E-02  4.595799985E-04
   s  14
  7.476171500E+04 -2.707000010E-05
  1.112365400E+04 -1.183700004E-04
  2.512685700E+03 -5.203800020E-04
  7.037772900E+02 -2.102930008E-03
  2.254787900E+02 -7.568200028E-03
  7.961581000E+01 -2.346767009E-02
  3.023728300E+01 -6.042901023E-02
  1.226362200E+01 -1.170549104E-01
  5.265086000E+00 -1.555321506E-01
  2.333471000E+00 -2.468935009E-02
  9.018560000E-01  3.625054514E-01
  3.583360000E-01  5.550845021E-01
  1.410930000E-01  2.148376908E-01
  4.938300000E-02  8.983850034E-03
   p   9
  1.266665700E+02  1.233630000E-03
  2.983738900E+01  9.493409996E-03
  9.394038000E+00  4.293961998E-02
  3.405104000E+00  1.362925399E-01
  1.350000000E+00  2.921362499E-01
  5.576960000E-01  3.887887598E-01
  2.324490000E-01  2.946801399E-01
  9.426400000E-02  8.012875997E-02
  3.299200000E-02  5.405199998E-04
 
[MO]
Sym=     1a  
Ene=   -15.6330
Spin= Alpha
Occup=    1.00000
   1        -0.00005537
   2        -0.00063203
   3         0.00000000
   4        -0.00000000
   5        -0.00065887
   6         1.00000867
   7        -0.00224315
   8        -0.00000000
   9        -0.00000000
  10        -0.00019703
Sym=     1a  
Ene=   -15.5400
Spin= Beta
Occup=    1.00000
   1        -0.00003102
   2        -0.00024100
   3         0.00000000
   4         0.00000000
   5        -0.00018285
   6         0.99996309
   7        -0.00895464
   8        -0.00000000
   9        -0.00000000
  10        -0.00009014
Sym=     2a  
Ene=   -11.2000
Spin= Alpha
Occup=    1.00000
   1         0.99999022
   2        -0.00480783
   3        -0.00000000
   4        -0.00000000
   5         0.00018071
   6        -0.00003360
   7        -0.00025159
   8         0.00000000
   9        -0.00000000
  10         0.00009407
Sym=     2a  
Ene=   -11.2470
Spin= Beta
Occup=    1.00000
   1         1.00000765
   2         0.00021621
   3        -0.00000000
   4        -0.00000000
   5         0.00052323
   6        -0.00006090
   7        -0.00061891
   8         0.00000000
   9        -0.00000000
  10         0.00054420
Sym=     3a  
Ene=    -1.1539
Spin= Alpha
Occup=    1.00000
   1         0.00347494
   2        -0.01995916
   3         0.00000000
   4         0.00000000
   5        -0.00840983
   6        -0.00219746
   7        -0.99665821
   8        -0.00000000
   9         0.00000000
  10         0.00962053
Sym=     3a  
Ene=    -0.8109
Spin= Beta
Occup=    1.00000
   1         0.00196659
   2        -0.84884145
   3        -0.00000000
   4         0.00000000
   5        -0.06198432
   6         0.00047246
   7        -0.43945807
   8        -0.00000000
   9         0.00000000
  10         0.02878871
Sym=     4a  
Ene=    -0.6144
Spin= Alpha
Occup=    1.00000
   1        -0.00402407
   2         0.56668046
   3         0.00000000
   4         0.00000000
   5         0.01411614
   6        -0.00296462
   7        -0.07491924
   8        -0.00000000
   9         0.00000000
  10        -0.75272317
Sym=     4a  
Ene=    -0.7115
Spin= Beta
Occup=    1.00000
   1         0.00322921
   2         0.52910602
   3        -0.00000000
   4         0.00000000
   5        -0.01672169
   6        -0.01018334
   7        -0.89455460
   8         0.00000000
   9         0.00000000
  10         0.00290221
Sym=     5a  
Ene=    -0.5704
Spin= Alpha
Occup=    1.00000
   1         0.00000000
   2        -0.00000000
   3        -0.00634038
   4         0.01386819
   5         0.00000000
   6         0.00000000
   7         0.00000000
   8        -0.41538950
   9         0.90857285
  10         0.00000000
Sym=     5a  
Ene=    -0.4006
Spin= Beta
Occup=    1.00000
   1        -0.00000000
   2        -0.00000000
   3         0.38842683
   4         0.91853113
   5        -0.00000000
   6         0.00000000
   7         0.00000000
   8         0.01420867
   9         0.03359990
  10        -0.00000000
Sym=     6a  
Ene=    -0.5704
Spin= Alpha
Occup=    1.00000
   1        -0.00000000
   2         0.00000000
   3         0.01386819
   4         0.00634038
   5         0.00000000
   6        -0.00000000
   7        -0.00000000
   8         0.90857285
   9         0.41538950
  10        -0.00000000
Sym=     6a  
Ene=    -0.4006
Spin= Beta
Occup=    1.00000
   1         0.00000000
   2         0.00000000
   3        -0.91853113
   4         0.38842683
   5        -0.00000000
   6         0.00000000
   7         0.00000000
   8        -0.03359990
   9         0.01420867
  10         0.00000000
Sym=     7a  
Ene=    -0.5046
Spin= Alpha
Occup=    1.00000
   1        -0.01024237
   2        -0.82955272
   3        -0.00000000
   4         0.00000000
   5         0.12600503
   6         0.00246199
   7         0.06287833
   8         0.00000000
   9        -0.00000000
  10        -0.64142901
Sym=     7a  
Ene=     0.0873
Spin= Beta
Occup=    0.00000
   1         0.00386746
   2         0.09854598
   3         0.00000000
   4        -0.00000000
   5        -0.83836485
   6         0.01065506
   7         0.16766124
   8         0.00000000
   9        -0.00000000
  10         0.43740236
Sym=     8a  
Ene=     0.2074
Spin= Alpha
Occup=    0.00000
   1         0.00354508
   2         0.13105923
   3        -0.00000000
   4         0.00000000
   5         1.01777530
   6        -0.01317455
   7        -0.17190010
   8         0.00000000
   9        -0.00000000
  10         0.26124294
Sym=     8a  
Ene=     0.2321
Spin= Beta
Occup=    0.00000
   1         0.00000000
   2         0.00000000
   3        -0.02263457
   4        -0.08993944
   5        -0.00000000
   6         0.00000000
   7         0.00000000
   8         0.24427975
   9         0.97065588
  10         0.00000000
Sym=     9a  
Ene=     0.2392
Spin= Alpha
Occup=    0.00000
   1         0.00000000
   2         0.00000000
   3         0.40902278
   4         0.91413572
   5         0.00000000
   6        -0.00000000
   7        -0.00000000
   8        -0.02923344
   9        -0.06533458
  10         0.00000000
Sym=     9a  
Ene=     0.2321
Spin= Beta
Occup=    0.00000
   1        -0.00000000
   2        -0.00000000
   3        -0.08993944
   4         0.02263457
   5         0.00000000
   6        -0.00000000
   7        -0.00000000
   8         0.97065588
   9        -0.24427975
  10        -0.00000000
Sym=    10a  
Ene=     0.2392
Spin= Alpha
Occup=    0.00000
   1        -0.00000000
   2        -0.00000000
   3        -0.91413572
   4         0.40902278
   5        -0.00000000
   6         0.00000000
   7         0.00000000
   8         0.06533458
   9        -0.02923344
  10        -0.00000000
Sym=    10a  
Ene=     0.3013
Spin= Beta
Occup=    0.00000
   1        -0.00903514
   2        -0.12917607
   3         0.00000000
   4        -0.00000000
   5        -0.58739823
   6         0.00818194
   7         0.10443527
   8        -0.00000000
   9         0.00000000
  10        -0.92423238
