[Molden Format]
[N_Atoms]
                     2
[Atoms] (AU)
C1          1      6           0.00000000      0.00000000      0.00000000
N2          2      7           0.00000000      0.00000000      4.34637009
[Charge] (Mulliken)
  0.125626596384491     
 -0.125626596384523     
[GTO] (AU)
   1
   s  14
  5.055750100E+04  1.128874000E-04
  7.524785600E+03  5.295373000E-04
  1.694327600E+03  2.450038300E-03
  4.728227900E+02  1.005398470E-02
  1.517107500E+02  3.545398060E-02
  5.391874600E+01  1.044071086E-01
  2.065931100E+01  2.412894918E-01
  8.383976000E+00  3.834225483E-01
  3.577015000E+00  3.078514393E-01
  1.547118000E+00  6.872442990E-02
  6.130130000E-01  2.224445000E-04
  2.460680000E-01  1.976748900E-03
  9.908700000E-02  2.057859400E-03
  3.468000000E-02  4.182020000E-04
   s  14
  5.055750100E+04 -2.507420000E-05
  7.524785600E+03 -1.175945000E-04
  1.694327600E+03 -5.456275000E-04
  4.728227900E+02 -2.245077100E-03
  1.517107500E+02 -8.043471800E-03
  5.391874600E+01 -2.442588710E-02
  2.065931100E+01 -6.136791180E-02
  8.383976000E+00 -1.177767835E-01
  3.577015000E+00 -1.550487783E-01
  1.547118000E+00 -1.933316860E-02
  6.130130000E-01  3.996930678E-01
  2.460680000E-01  5.589420949E-01
  9.908700000E-02  1.711195023E-01
  3.468000000E-02  7.456244600E-03
   p   9
  8.333315500E+01  1.344656000E-03
  1.955761100E+01  1.023555500E-02
  6.080365000E+00  4.520067100E-02
  2.179317000E+00  1.410756198E-01
  8.651500000E-01  3.047388085E-01
  3.619440000E-01  3.995281011E-01
  1.547400000E-01  2.719163432E-01
  6.542900000E-02  5.857669330E-02
  2.290000000E-02 -1.263813000E-04
 
   2
   s  14
  7.476171500E+04  1.182599996E-04
  1.112365400E+04  5.172899983E-04
  2.512685700E+03  2.266659992E-03
  7.037772900E+02  9.145289970E-03
  2.254787900E+02  3.239342989E-02
  7.961581000E+01  9.770792967E-02
  3.023728300E+01  2.317036792E-01
  1.226362200E+01  3.768898887E-01
  5.265086000E+00  3.177420689E-01
  2.333471000E+00  8.211308973E-02
  9.018560000E-01  3.312089989E-03
  3.583360000E-01  3.720819988E-03
  1.410930000E-01  3.165419989E-03
  4.938300000E-02  4.595799985E-04
   s  14
  7.476171500E+04 -2.707000010E-05
  1.112365400E+04 -1.183700004E-04
  2.512685700E+03 -5.203800020E-04
  7.037772900E+02 -2.102930008E-03
  2.254787900E+02 -7.568200028E-03
  7.961581000E+01 -2.346767009E-02
  3.023728300E+01 -6.042901023E-02
  1.226362200E+01 -1.170549104E-01
  5.265086000E+00 -1.555321506E-01
  2.333471000E+00 -2.468935009E-02
  9.018560000E-01  3.625054514E-01
  3.583360000E-01  5.550845021E-01
  1.410930000E-01  2.148376908E-01
  4.938300000E-02  8.983850034E-03
   p   9
  1.266665700E+02  1.233630000E-03
  2.983738900E+01  9.493409996E-03
  9.394038000E+00  4.293961998E-02
  3.405104000E+00  1.362925399E-01
  1.350000000E+00  2.921362499E-01
  5.576960000E-01  3.887887598E-01
  2.324490000E-01  2.946801399E-01
  9.426400000E-02  8.012875997E-02
  3.299200000E-02  5.405199998E-04
 
[MO]
Sym=     1a  
Ene=   -15.4580
Spin= Alpha
Occup=    1.00000
   1        -0.00038217
   2        -0.00047892
   3        -0.00001298
   4        -0.00003054
   5         0.00533954
   6         0.99990589
   7        -0.00544362
   8        -0.00007730
   9        -0.00018244
  10        -0.00162848
Sym=     1a  
Ene=   -15.4580
Spin= Beta
Occup=    1.00000
   1        -0.00038217
   2        -0.00047892
   3        -0.00001298
   4        -0.00003054
   5         0.00533954
   6         0.99990589
   7        -0.00544362
   8        -0.00007730
   9        -0.00018244
  10        -0.00162848
Sym=     2a  
Ene=   -11.3240
Spin= Alpha
Occup=    1.00000
   1         0.99985956
   2        -0.00269124
   3        -0.00003134
   4        -0.00007375
   5         0.01429794
   6         0.00002384
   7        -0.00034275
   8        -0.00018609
   9        -0.00043920
  10        -0.00273298
Sym=     2a  
Ene=   -11.3240
Spin= Beta
Occup=    1.00000
   1         0.99985956
   2        -0.00269124
   3        -0.00003134
   4        -0.00007375
   5         0.01429794
   6         0.00002384
   7        -0.00034275
   8        -0.00018609
   9        -0.00043920
  10        -0.00273298
Sym=     3a  
Ene=    -0.8529
Spin= Alpha
Occup=    1.00000
   1        -0.00257583
   2         0.24145686
   3         0.00039678
   4         0.00093416
   5        -0.12288794
   6         0.00563570
   7         0.95907554
   8         0.00264920
   9         0.00625203
  10         0.03411836
Sym=     3a  
Ene=    -0.8529
Spin= Beta
Occup=    1.00000
   1        -0.00257583
   2         0.24145686
   3         0.00039678
   4         0.00093416
   5        -0.12288794
   6         0.00563570
   7         0.95907554
   8         0.00264920
   9         0.00625203
  10         0.03411836
Sym=     4a  
Ene=    -0.7170
Spin= Alpha
Occup=    1.00000
   1        -0.00321427
   2        -0.96575394
   3         0.00004189
   4         0.00009869
   5        -0.00057855
   6         0.00617090
   7         0.32240836
   8         0.00024363
   9         0.00057470
  10         0.06104984
Sym=     4a  
Ene=    -0.7170
Spin= Beta
Occup=    1.00000
   1        -0.00321427
   2        -0.96575394
   3         0.00004189
   4         0.00009869
   5        -0.00057855
   6         0.00617090
   7         0.32240836
   8         0.00024363
   9         0.00057470
  10         0.06104984
Sym=     5a  
Ene=    -0.3537
Spin= Alpha
Occup=    1.00000
   1        -0.00006382
   2        -0.00140074
   3         0.03461472
   4         0.08169671
   5         0.03186197
   6        -0.00040779
   7        -0.00698723
   8         0.38642058
   9         0.91201409
  10        -0.00807535
Sym=     5a  
Ene=    -0.3537
Spin= Beta
Occup=    1.00000
   1        -0.00006382
   2        -0.00140074
   3         0.03461472
   4         0.08169671
   5         0.03186197
   6        -0.00040779
   7        -0.00698723
   8         0.38642058
   9         0.91201409
  10        -0.00807535
Sym=     6a  
Ene=    -0.3864
Spin= Alpha
Occup=    1.00000
   1         0.01680737
   2         0.00288824
   3         0.00212319
   4         0.00499694
   5        -0.95030841
   6         0.01733097
   7         0.00818238
   8         0.01266167
   9         0.02988262
  10         0.19550607
Sym=     6a  
Ene=    -0.3864
Spin= Beta
Occup=    1.00000
   1         0.01680737
   2         0.00288824
   3         0.00212319
   4         0.00499694
   5        -0.95030841
   6         0.01733097
   7         0.00818238
   8         0.01266167
   9         0.02988262
  10         0.19550607
Sym=     7a  
Ene=    -0.0000
Spin= Alpha
Occup=    1.00000
   1         0.00000003
   2         0.00000042
   3        -0.04717702
   4         0.01998892
   5        -0.00000005
   6        -0.00000000
   7         0.00000010
   8        -0.91690099
   9         0.38849118
  10         0.00000266
Sym=     7a  
Ene=    -0.0000
Spin= Beta
Occup=    0.00000
   1         0.00000003
   2         0.00000042
   3        -0.04717702
   4         0.01998892
   5        -0.00000005
   6        -0.00000000
   7         0.00000010
   8        -0.91690099
   9         0.38849118
  10         0.00000266
Sym=     8a  
Ene=     0.0875
Spin= Alpha
Occup=    0.00000
   1         0.00001279
   2         0.00022060
   3        -0.38920365
   4        -0.91858193
   5        -0.00210427
   6         0.00002591
   7         0.00034231
   8         0.05651356
   9         0.13338092
  10         0.00137803
Sym=     8a  
Ene=     0.0875
Spin= Beta
Occup=    0.00000
   1         0.00001279
   2         0.00022060
   3        -0.38920365
   4        -0.91858193
   5        -0.00210427
   6         0.00002591
   7         0.00034231
   8         0.05651356
   9         0.13338092
  10         0.00137803
Sym=     9a  
Ene=     0.0896
Spin= Alpha
Occup=    0.00000
   1         0.00000003
   2         0.00000057
   3        -0.92101472
   4         0.39023444
   5        -0.00000453
   6         0.00000006
   7         0.00000072
   8         0.09892694
   9        -0.04191540
  10         0.00000325
Sym=     9a  
Ene=     0.0896
Spin= Beta
Occup=    0.00000
   1         0.00000003
   2         0.00000057
   3        -0.92101472
   4         0.39023444
   5        -0.00000453
   6         0.00000006
   7         0.00000072
   8         0.09892694
   9        -0.04191540
  10         0.00000325
Sym=    10a  
Ene=     0.2200
Spin= Alpha
Occup=    0.00000
   1        -0.01036559
   2        -0.18942794
   3        -0.00038706
   4        -0.00090772
   5        -0.36410694
   6         0.00533139
   7         0.09235925
   8        -0.00046267
   9        -0.00108629
  10        -1.00158516
Sym=    10a  
Ene=     0.2200
Spin= Beta
Occup=    0.00000
   1        -0.01036559
   2        -0.18942794
   3        -0.00038706
   4        -0.00090772
   5        -0.36410694
   6         0.00533139
   7         0.09235925
   8        -0.00046267
   9        -0.00108629
  10        -1.00158516
