   This run of MOLCAS is using the pymolcas driver

                             OPE
                             OPE          NMOL  CASOP  ENMOLC A   SO
                 OPE        NMOLC        AS  OP EN  MO LC     AS  OP
                OPENM       OL CA        SO  PE NM  OL CA     SOP EN
                OP EN      MO   LC       AS  OP ENMOL  CASO   PENMOL
                OP  EN     MO   LC       AS  OP EN     MO     LC ASO
               OP   E  NMOL  C  AS       OP  EN MO     LC     AS  OP
               OP  E   NMO   LC AS        OPEN  MO     LCASOP EN   M
               O  PEN   MO  LCA  SO
            OPE   NMO   L   CAS    OP
        OPENMOL  CASOP     ENMOL   CASOPE
     OPENMOLCA   SOPENMOLCASOPEN   MOLCASOPE
    OPENMOLCAS   OP           EN   MOL    CAS
    OPENMOLCAS       OP  ENM        O     LCA
    OPENMOLCAS    OPEN  MOLCASO     P  E  NMO
    OPENMOLCAS     OP               E  N  MOL
    OPENMOLCA   SO           PENM   O  L  CAS    OPEN    MO    LCAS
    OPENMOLCA   SOP           ENM   O  L  CAS   OP  EN  MOLC  AS   O
    OPENMOLCA   SOPE           NM      O  LCA   S      OP  EN MO
    OPENMOLC                AS         O  PEN   M      OL  CA  SOPE
    OPENMO        LCASOPE  NMOL        C  ASO   P      ENMOLC     AS
    OPE     NMO      LCA  SO     P     E   NM   OL  CA SO  PE N   MO
          OPENMOLCA            SOPE   NMO        LCAS  O    P  ENMO
     OPENMOLCASOPENMOLCASOPENMOLCASOPENMOLCA
        OPENMOLCASOPENMOLCASOPENMOLCASOPE
            OPENMOLCASOPENMOLCASOPENM
               OPENMOLCASOPENMOLCA        version: ea724fe96-dirty
                   OPENMOLCASO
                       OPE                tag:

 OpenMolcas is free software; you can redistribute it and/or modify it
 under the terms of the GNU Lesser General Public License version 2.1.
 OpenMolcas is distributed in the hope that it will be useful, but it
 is provided "as is" and without any express or implied warranties.
 For more details see the full text of the license in the file
 LICENSE or in <http://www.gnu.org/licenses/>.

                 Copyright (C) The OpenMolcas Authors
           For the author list and the recommended citation,
                   consult the file CONTRIBUTORS.md

           *************************************************
           * pymolcas version py2.28                       *
           *   build c4a6d18ded8cb6cad61d2372a9abd97c      *
           *   (after the EMIL interpreter by V. Veryazov) *
           *************************************************

configuration info
------------------
C Compiler ID: Intel
C flags: -std=gnu99
Fortran Compiler ID: Intel
Fortran flags: -fpp -i8 -r8 -heap-arrays
Definitions: _MOLCAS_;_I8_;_LINUX_
Parallel: OFF (GA=OFF)


   --------------------------------------------------------------------------------
  |
  |              Project: ozone_161.50
  |       Submitted from: /home/grierjones/DDCASPT2/ozone/ANO-RCC-VTZP/ozone_161.50
  |         Scratch area: /tmp/ozone_161.50
  |      Save outputs to: /home/grierjones/DDCASPT2/ozone/ANO-RCC-VTZP/ozone_161.50
  |               Molcas: /home/grierjones/Test/build
  |
  | Scratch area is empty
  |
  |       MOLCAS_DRIVER = /usr/local/pymolcas
  | MOLCAS_KEEP_WORKDIR = NO
  |  MOLCAS_NEW_WORKDIR = YES
  |       MOLCAS_NPROCS = 1
  |        MOLCAS_PRINT = NORMAL
  |       MOLCAS_SOURCE = /home/grierjones/Test/build
  |    MOLCAS_STRUCTURE = 0
  |
   --------------------------------------------------------------------------------

++ ---------   Input file   ---------

&GATEWAY
coord=ozone_161.50.xyz
Basis = ANO-RCC-VTZP
Group = nosymm
Expert
End of Input

&SEWARD
End of Input

&SCF

>>> COPY $WorkDir/ozone_161.50.scf.h5 $CurrDir/

&RASSCF
Title= RASSCF
FileOrb
/home/grierjones/DDCASPT2/ozone/ANO-RCC-VTZP/ozone_161.00/ozone_161.00.RasOrb
NACTEL
4 0 0
Inactive
10
RAS2
3
Symmetry
1
Spin
1
orblisting
all
ITERation
300 200

>>> COPY $WorkDir/ozone_161.50.rasscf.h5 $CurrDir/

>>> COPY $WorkDir/GMJ_Fock_MO.csv $CurrDir/ozone_161.50.GMJ_Fock_MO.csv

>>> COPY $WorkDir/GMJ_PT2_Fock_MO.csv $CurrDir/ozone_161.50.GMJ_PT2_Fock_MO.csv

&MOTRA
Frozen=0
LUMORB

>>> COPY $WorkDir/GMJ_one_int_indx.csv $CurrDir/ozone_161.50.GMJ_one_int_indx.csv

>>> COPY $WorkDir/GMJ_one_int.csv $CurrDir/ozone_161.50.GMJ_one_int.csv

>>> COPY $WorkDir/GMJ_two_int_indx.csv $CurrDir/ozone_161.50.GMJ_two_int_indx.csv

>>> COPY $WorkDir/GMJ_two_int.csv $CurrDir/ozone_161.50.GMJ_two_int.csv

&CASPT2
Frozen
0
MAXITER
50

>>> FOREACH i IN (B,E,F,G,H)

  >>> FOREACH j IN (P,M)

    >>> IF (-FILE GMJ_e2_${i}_${j}.csv)

      >>> COPY $WorkDir/GMJ_RHS_${i}_${j}.csv $CurrDir/GMJ_RHS_${i}_${j}.csv

      >>> COPY $WorkDir/GMJ_IVECW_${i}_${j}.csv $CurrDir/GMJ_IVECW_${i}_${j}.csv

      >>> COPY $WorkDir/GMJ_IVECX_${i}_${j}.csv $CurrDir/GMJ_IVECX_${i}_${j}.csv

      >>> COPY $WorkDir/GMJ_IVECC2_${i}_${j}.csv $CurrDir/GMJ_IVECC2_${i}_${j}.csv

      >>> COPY $WorkDir/GMJ_e2_${i}_${j}.csv $CurrDir/GMJ_e2_${i}_${j}.csv

    >>> END IF

  >>> END FOREACH

>>> END FOREACH

>>> FOREACH i IN (A,C,D)

  >>> IF (-FILE GMJ_e2_$i.csv)

    >>> COPY $WorkDir/GMJ_RHS_$i.csv $CurrDir/GMJ_RHS_$i.csv

    >>> COPY $WorkDir/GMJ_IVECW_$i.csv $CurrDir/GMJ_IVECW_$i.csv

    >>> COPY $WorkDir/GMJ_IVECX_$i.csv $CurrDir/GMJ_IVECX_$i.csv

    >>> COPY $WorkDir/GMJ_IVECC2_$i.csv $CurrDir/GMJ_IVECC2_$i.csv

    >>> COPY $WorkDir/GMJ_e2_$i.csv $CurrDir/GMJ_e2_$i.csv

  >>> END IF

>>> END FOREACH

-- ----------------------------------

--- Start Module: gateway at Wed Nov 20 08:01:17 2024 ---
 
()()()()()()()()()()()()()()()()()()()()()()()()()()()()()()()()()()()()()()()()()()()()()()()()()()

                                              &GATEWAY

                                   only a single process is used
                       available to each process: 2.0 GB of memory, 1 thread?
()()()()()()()()()()()()()()()()()()()()()()()()()()()()()()()()()()()()()()()()()()()()()()()()()()
 
 ###############################################################################
 ###############################################################################
 ###                                                                         ###
 ###                                                                         ###
 ###                                                                         ###
 ###    WARNING: EXPERT option is ON!                                        ###
 ###                                                                         ###
 ###                                                                         ###
 ###############################################################################
 ###############################################################################
 
++    Symmetry information:
      ---------------------
 
                    Character Table for C1 
 
                             E  
                    a        1  x, y, xy, Rz, z, xz, Ry, yz, Rx, I
--
 
 
++    Basis set information:
      ----------------------
 
 
      Basis set label: O.ANO-RCC...4S3P2D1F.
 
      Electronic valence basis set:
      ------------------
      Associated Effective Charge   8.000000 au
      Associated Actual Charge      8.000000 au
      Nuclear Model: Point charge
 
      Shell  nPrim  nBasis  Cartesian Spherical Contaminant
         s      14       4        X                  
         p       9       3        X                  
         d       4       2                 X         
         f       3       1                 X         
--
 
 
++    Molecular structure info:
      -------------------------
 
                    ************************************************ 
                    **** Cartesian Coordinates / Bohr, Angstrom **** 
                    ************************************************ 
 
     Center  Label                x              y              z                     x              y              z
        1      O1               0.388205       2.383665       0.000000              0.205429       1.261381       0.000000
        2      O2               0.000000       0.000000       0.000000              0.000000       0.000000       0.000000
        3      O3               0.388205      -2.383665       0.000000              0.205429      -1.261381       0.000000
 
                    *************************************** 
                    *    InterNuclear Distances / Bohr    * 
                    *************************************** 
 
               1 O1            2 O2            3 O3    
    1 O1       0.000000
    2 O2       2.415069        0.000000
    3 O3       4.767329        2.415069        0.000000
 
                    ******************************************* 
                    *    InterNuclear Distances / Angstrom    * 
                    ******************************************* 
 
               1 O1            2 O2            3 O3    
    1 O1       0.000000
    2 O2       1.278000        0.000000
    3 O3       2.522762        1.278000        0.000000
 
                    ************************************** 
                    *    Valence Bond Angles / Degree    * 
                    ************************************** 
                          Atom centers                 Phi
                      1 O1       2 O2       3 O3       161.50
--
 
 
            Nuclear Potential Energy             66.42525630 au
 
 ###############################################################################
 ###############################################################################
 ###                                                                         ###
 ###                                                                         ###
 ###    There were warnings during the execution                             ###
 ###    Please, check the output with care!                                  ###
 ###                                                                         ###
 ###                                                                         ###
 ###############################################################################
 ###############################################################################
--- Stop Module: gateway at Wed Nov 20 08:01:17 2024 /rc=_RC_ALL_IS_WELL_ ---
*** files: xmldump
    saved to directory /home/grierjones/DDCASPT2/ozone/ANO-RCC-VTZP/ozone_161.50

--- Start Module: seward at Wed Nov 20 08:01:17 2024 ---
 
()()()()()()()()()()()()()()()()()()()()()()()()()()()()()()()()()()()()()()()()()()()()()()()()()()

                                              &SEWARD

                                   only a single process is used
                       available to each process: 2.0 GB of memory, 1 thread?
()()()()()()()()()()()()()()()()()()()()()()()()()()()()()()()()()()()()()()()()()()()()()()()()()()
 
 ###############################################################################
 ###############################################################################
 ###                                                                         ###
 ###                                                                         ###
 ###                                                                         ###
 ###    WARNING: EXPERT option is ON!                                        ###
 ###                                                                         ###
 ###                                                                         ###
 ###############################################################################
 ###############################################################################
               SEWARD will generate:
                  Multipole Moment integrals up to order  2
                  Kinetic Energy integrals
                  Nuclear Attraction integrals (point charge)
                  One-Electron Hamiltonian integrals
                  Velocity integrals
                  Relativistic Douglas-Kroll-Hess integrals:
                    - Parametrization         : EXP
                    - DKH order of Hamiltonian: 2
                    - DKH order of Properties : 0
                         - multipole moment operators
                         - electric potential operators
                         - contact operators
                  Atomic mean-field integrals
                  Two-Electron Repulsion integrals
 
                   Integrals are discarded if absolute value <: 0.10E-13
                   Integral cutoff threshold is set to       <: 0.10E-15
 
            Nuclear Potential Energy             66.42525630 au
 
 
      Basis set specifications :
      Symmetry species         a  
      Basis functions           90
 
 
  Input file to MOLDEN was generated!
 
 ###############################################################################
 ###############################################################################
 ###                                                                         ###
 ###                                                                         ###
 ###    There were warnings during the execution                             ###
 ###    Please, check the output with care!                                  ###
 ###                                                                         ###
 ###                                                                         ###
 ###############################################################################
 ###############################################################################
--- Stop Module: seward at Wed Nov 20 08:01:19 2024 /rc=_RC_ALL_IS_WELL_ ---
*** files: ozone_161.50.GssOrb ozone_161.50.guessorb.h5 ozone_161.50.guessorb.molden xmldump
    saved to directory /home/grierjones/DDCASPT2/ozone/ANO-RCC-VTZP/ozone_161.50
--- Module seward spent 2 seconds ---

*** symbolic link created: INPORB -> ozone_161.50.GssOrb
--- Start Module: scf at Wed Nov 20 08:01:19 2024 ---
 
()()()()()()()()()()()()()()()()()()()()()()()()()()()()()()()()()()()()()()()()()()()()()()()()()()

                                                &SCF

                                   only a single process is used
                       available to each process: 2.0 GB of memory, 1 thread?
()()()()()()()()()()()()()()()()()()()()()()()()()()()()()()()()()()()()()()()()()()()()()()()()()()
 
++    Input section:
      --------------
 
      Header of the integral files:
      
       Integrals generated by seward 4.2.0  , Wed Nov 20 08:01:17 2024
 
 
      Cartesian coordinates in Angstrom:
      -----------------------------------------------------
      No.  Label        X            Y            Z        
      -----------------------------------------------------
       1   O1         0.20542900   1.26138100   0.00000000
       2   O2         0.00000000   0.00000000   0.00000000
       3   O3         0.20542900  -1.26138100   0.00000000
      -----------------------------------------------------
      Nuclear repulsion energy =   66.42525630
--
 
++    Orbital specifications:
      -----------------------
 
      Symmetry species               1
                                     a
      Frozen orbitals                0
      Occupied orbitals             12
      Secondary orbitals            78
      Deleted orbitals               0
      Total number of orbitals      90
      Number of basis functions     90
--
 
      Molecular charge                           0.000
 
++    Optimization specifications:
      ----------------------------
 
      SCF Algorithm: Conventional
      Minimized density differences are used
      Number of density matrices in core                5
      Maximum number of NDDO SCF iterations           400
      Maximum number of HF SCF iterations             400
      Threshold for SCF energy change            0.10E-08
      Threshold for density matrix               0.10E-03
      Threshold for Fock matrix                  0.15E-03
      Threshold for linear dependence            0.10E-08
      Threshold at which DIIS is turned on       0.15E+00
      Threshold at which QNR/C2DIIS is turned on 0.75E-01
      Threshold for Norm(delta) (QNR/C2DIIS)     0.20E-04
      DIIS extrapolation of the SCF procedure
      All orbitals punched on: SCFORB
--
 
      Input vectors read from INPORB
      Orbital file label: *Guess orbitals
 
 
++ Convergence information
                                   SCF        iterations: Energy and convergence statistics
 
Iter     Tot. SCF        One-elec.       Two-elec.     Energy      Max Dij or  Max Fij      DNorm      TNorm      AccCon     Time
         Energy          Energy          Energy        Change      Delta Norm                                                in Sec.
   1  -223.926587855  -436.726360398   146.374516240   0.00E+00    0.54E+00*   0.27E+00*    0.73E+01   0.11E+03   None         0.
   2  -224.145290889  -442.722940419   152.152393227  -0.22E+00*   0.29E+00*   0.17E+00*    0.25E+01   0.11E+03   EDIIS        0.
   3  -224.378662557  -440.038245960   149.234327100  -0.23E+00*   0.18E+00*   0.76E-01*    0.75E+00   0.11E+03   EDIIS        0.
   4  -224.398775976  -440.953708212   150.129675933  -0.20E-01*   0.57E-01*   0.49E-01*    0.22E+00   0.11E+03   EDIIS        0.
   5  -224.426718018  -440.482981426   149.631007106  -0.28E-01*   0.15E-01*   0.81E-02*    0.51E-01   0.11E+03   c2DIIS       0.
   6  -224.427901450  -440.557907723   149.704749970  -0.12E-02*   0.63E-02*   0.29E-02*    0.12E-01   0.11E+03   QNRc2DIIS    0.
   7  -224.428021674  -440.560992760   149.707714784  -0.12E-03*   0.14E-01*   0.25E-02*    0.38E-02   0.11E+03   QNRc2DIIS    0.
   8  -224.428103276  -440.552761777   149.699402198  -0.82E-04*   0.23E-02*   0.15E-02*    0.24E-02   0.11E+03   QNRc2DIIS    0.
   9  -224.428112806  -440.563040904   149.709671795  -0.95E-05*   0.13E-02*   0.63E-03*    0.80E-03   0.11E+03   QNRc2DIIS    0.
  10  -224.428116576  -440.559222829   149.705849949  -0.38E-05*   0.60E-03*   0.97E-04     0.13E-02   0.11E+03   QNRc2DIIS    0.
  11  -224.428116806  -440.560616960   149.707243851  -0.23E-06*   0.69E-04*   0.31E-04     0.56E-03   0.11E+03   QNRc2DIIS    0.
  12  -224.428116816  -440.559608796   149.706235677  -0.10E-07*   0.21E-04*   0.90E-05     0.16E-03   0.11E+03   QNRc2DIIS    0.
  13  -224.428116817  -440.559833942   149.706460822  -0.12E-08*   0.66E-05    0.21E-05     0.46E-04   0.11E+03   QNRc2DIIS    0.
  14  -224.428116817  -440.559873385   149.706500264  -0.70E-10    0.63E-06    0.21E-06     0.42E-04   0.11E+03   QNRc2DIIS    0.
 
       Convergence after 14 Macro Iterations
--
 
 *****************************************************************************************************************************
 *                                                                                                                           *
 *                                             SCF/KS-DFT Program, Final results                                             *
 *                                                                                                                           *
 *                                                                                                                           *
 *                                                                                                                           *
 *                                                       Final Results                                                       *
 *                                                                                                                           *
 *****************************************************************************************************************************
 
::    Total SCF energy                               -224.4281168175
      One-electron energy                            -440.5598733850
      Two-electron energy                             149.7065002644
      Nuclear repulsion energy                         66.4252563031
      Kinetic energy (interpolated)                   225.2233356560
      Virial theorem                                    0.9964691987
      Total spin, S(S+1)                                0.0000000000
      Total spin, S                                     0.0000000000
      Max non-diagonal density matrix element           0.0000004112
      Max non-diagonal Fock matrix element              0.0000000678
 
 
      All orbitals with orbital energies smaller than  E(LUMO)+0.5 are printed
 
++    Molecular orbitals:
      -------------------
 
      Title: SCF orbitals

      Molecular orbitals for symmetry species 1: a  
 
          Orbital            1         2         3         4         5         6         7         8         9        10    
          Energy          -20.8746  -20.7404  -20.7403   -1.7079   -1.4638   -1.0624   -0.8346   -0.7900   -0.7548   -0.6107
          Occ. No.          2.0000    2.0000    2.0000    2.0000    2.0000    2.0000    2.0000    2.0000    2.0000    2.0000
 
        1 O1     1s         0.0024   -0.7063    0.7063   -0.0127    0.0125    0.0142   -0.0043   -0.0249    0.0000    0.0063
        2 O1     2s         0.0012    0.0060   -0.0058    0.3460   -0.5583    0.6512   -0.0941   -0.4432    0.0000    0.0737
        3 O1     3s         0.0006    0.0042   -0.0040   -0.0093    0.0214    0.0232   -0.0060   -0.0540    0.0000    0.0128
        4 O1     4s         0.0001    0.0009   -0.0008   -0.0003    0.0040    0.0040   -0.0013   -0.0113   -0.0000    0.0028
        5 O1     2px       -0.0002   -0.0005    0.0005   -0.0153    0.0227    0.0470    0.3290   -0.1706    0.0000   -0.6758
        6 O1     3px       -0.0003   -0.0005    0.0003    0.0070   -0.0036   -0.0084   -0.0237    0.0136    0.0000    0.0069
        7 O1     4px       -0.0002    0.0001   -0.0002    0.0016    0.0006    0.0002   -0.0007    0.0004    0.0000    0.0054
        8 O1     2py       -0.0009   -0.0026    0.0030   -0.1152    0.0876    0.1705   -0.1270   -0.3802    0.0000    0.1783
        9 O1     3py       -0.0004   -0.0025    0.0029    0.0119   -0.0197   -0.0276    0.0108    0.0475   -0.0000   -0.0046
       10 O1     4py        0.0002    0.0017   -0.0016    0.0010   -0.0033    0.0007    0.0021    0.0040   -0.0000   -0.0017
       11 O1     2pz       -0.0000   -0.0000    0.0000   -0.0000   -0.0000    0.0000   -0.0000    0.0000    0.4194    0.0000
       12 O1     3pz        0.0000    0.0000    0.0000   -0.0000   -0.0000   -0.0000    0.0000    0.0000   -0.0149   -0.0000
       13 O1     4pz       -0.0000   -0.0000   -0.0000    0.0000    0.0000   -0.0000   -0.0000   -0.0000   -0.0067   -0.0000
       14 O1     3d2-      -0.0000    0.0003   -0.0003    0.0046   -0.0049   -0.0052   -0.0193    0.0100   -0.0000    0.0119
       15 O1     4d2-      -0.0000    0.0002   -0.0002    0.0001   -0.0005   -0.0002   -0.0017    0.0004   -0.0000    0.0011
       16 O1     3d1-      -0.0000    0.0000   -0.0000   -0.0000    0.0000   -0.0000    0.0000   -0.0000   -0.0319   -0.0000
       17 O1     4d1-      -0.0000    0.0000   -0.0000   -0.0000    0.0000   -0.0000    0.0000   -0.0000   -0.0056    0.0000
       18 O1     3d0       -0.0001   -0.0005    0.0006   -0.0103    0.0084    0.0069   -0.0045   -0.0149   -0.0000    0.0046
       19 O1     4d0       -0.0001   -0.0004    0.0005   -0.0010    0.0006    0.0003   -0.0007   -0.0009   -0.0000    0.0008
       20 O1     3d1+      -0.0000   -0.0000   -0.0000   -0.0000   -0.0000    0.0000    0.0000   -0.0000   -0.0042   -0.0000
       21 O1     4d1+      -0.0000    0.0000   -0.0000   -0.0000   -0.0000    0.0000    0.0000    0.0000   -0.0008   -0.0000
       22 O1     3d2+      -0.0003   -0.0012    0.0013   -0.0197    0.0146    0.0153   -0.0128   -0.0271    0.0000    0.0108
       23 O1     4d2+      -0.0001   -0.0006    0.0007   -0.0028    0.0017    0.0016   -0.0013   -0.0020   -0.0000    0.0014
       24 O1     4f3-       0.0001    0.0002   -0.0002    0.0053   -0.0048   -0.0028    0.0039    0.0060   -0.0000   -0.0035
       25 O1     4f2-      -0.0000    0.0000    0.0000    0.0000    0.0000    0.0000    0.0000   -0.0000    0.0015   -0.0000
       26 O1     4f1-       0.0000    0.0002   -0.0002    0.0034   -0.0030   -0.0020    0.0012    0.0040   -0.0000   -0.0011
       27 O1     4f0        0.0000    0.0000   -0.0000    0.0000    0.0000   -0.0000    0.0000   -0.0000   -0.0037    0.0000
       28 O1     4f1+      -0.0000    0.0000   -0.0000    0.0004   -0.0004   -0.0003   -0.0005    0.0004   -0.0000   -0.0006
       29 O1     4f2+      -0.0000    0.0000    0.0000   -0.0000    0.0000    0.0000    0.0000   -0.0000   -0.0069   -0.0000
       30 O1     4f3+      -0.0000    0.0001   -0.0001    0.0023   -0.0021   -0.0018   -0.0064    0.0035   -0.0000    0.0051
       31 O2     1s         0.9996    0.0000   -0.0013   -0.0284   -0.0000   -0.0152   -0.0032   -0.0000   -0.0000    0.0000
       32 O2     2s        -0.0023   -0.0000    0.0121    0.6239    0.0000   -0.6315   -0.0325   -0.0000   -0.0000    0.0000
       33 O2     3s        -0.0020   -0.0000    0.0069   -0.0677   -0.0000   -0.0223   -0.0045   -0.0000   -0.0000   -0.0000
       34 O2     4s        -0.0003   -0.0000    0.0011   -0.0126   -0.0000   -0.0043   -0.0024   -0.0000   -0.0000   -0.0000
       35 O2     2px        0.0004   -0.0000    0.0014    0.0418    0.0000    0.0919    0.7279   -0.0000    0.0000   -0.0000
       36 O2     3px       -0.0002   -0.0000    0.0009   -0.0188   -0.0000   -0.0110   -0.0767    0.0000   -0.0000    0.0000
       37 O2     4px        0.0010    0.0000   -0.0003   -0.0037   -0.0000    0.0015   -0.0106    0.0000   -0.0000    0.0000
       38 O2     2py       -0.0000   -0.0073   -0.0000    0.0000   -0.3376   -0.0000    0.0000    0.5579   -0.0000   -0.1155
       39 O2     3py       -0.0000   -0.0050   -0.0000   -0.0000    0.0644    0.0000   -0.0000   -0.0517   -0.0000   -0.0038
       40 O2     4py        0.0000    0.0013    0.0000   -0.0000   -0.0005    0.0000   -0.0000   -0.0115    0.0000    0.0012
       41 O2     2pz       -0.0000    0.0000   -0.0000    0.0000    0.0000   -0.0000   -0.0000    0.0000    0.6334    0.0000
       42 O2     3pz        0.0000   -0.0000   -0.0000    0.0000    0.0000   -0.0000    0.0000   -0.0000   -0.0412    0.0000
       43 O2     4pz        0.0000   -0.0000   -0.0000    0.0000    0.0000    0.0000   -0.0000   -0.0000   -0.0188    0.0000
       44 O2     3d2-      -0.0000   -0.0007   -0.0000    0.0000   -0.0185   -0.0000    0.0000    0.0128   -0.0000   -0.0426
       45 O2     4d2-      -0.0000   -0.0004   -0.0000    0.0000   -0.0020   -0.0000    0.0000    0.0012   -0.0000   -0.0068
       46 O2     3d1-      -0.0000    0.0000   -0.0000   -0.0000    0.0000    0.0000    0.0000    0.0000   -0.0000   -0.0000
       47 O2     4d1-      -0.0000    0.0000   -0.0000   -0.0000    0.0000    0.0000    0.0000    0.0000   -0.0000   -0.0000
       48 O2     3d0       -0.0001    0.0000   -0.0011   -0.0147   -0.0000   -0.0005   -0.0093    0.0000   -0.0000    0.0000
       49 O2     4d0        0.0003    0.0000   -0.0006    0.0005   -0.0000    0.0007   -0.0010    0.0000   -0.0000    0.0000
       50 O2     3d1+      -0.0000    0.0000    0.0000    0.0000    0.0000    0.0000   -0.0000    0.0000    0.0152    0.0000
       51 O2     4d1+       0.0000    0.0000    0.0000    0.0000    0.0000    0.0000    0.0000   -0.0000    0.0024    0.0000
       52 O2     3d2+       0.0005    0.0000   -0.0019   -0.0243   -0.0000   -0.0043    0.0082    0.0000   -0.0000    0.0000
       53 O2     4d2+       0.0002    0.0000   -0.0009   -0.0011   -0.0000   -0.0001    0.0001    0.0000   -0.0000    0.0000
       54 O2     4f3-       0.0000    0.0002    0.0000   -0.0000    0.0095    0.0000   -0.0000   -0.0091    0.0000   -0.0035
       55 O2     4f2-      -0.0000   -0.0000    0.0000   -0.0000   -0.0000    0.0000    0.0000    0.0000   -0.0000   -0.0000
       56 O2     4f1-       0.0000    0.0001    0.0000   -0.0000    0.0054    0.0000   -0.0000   -0.0047    0.0000    0.0008
       57 O2     4f0       -0.0000   -0.0000   -0.0000    0.0000   -0.0000   -0.0000   -0.0000   -0.0000   -0.0054   -0.0000
       58 O2     4f1+       0.0000    0.0000   -0.0000   -0.0011   -0.0000    0.0002    0.0001    0.0000    0.0000   -0.0000
       59 O2     4f2+      -0.0000   -0.0000   -0.0000    0.0000   -0.0000   -0.0000    0.0000   -0.0000   -0.0111   -0.0000
       60 O2     4f3+       0.0001    0.0000   -0.0001   -0.0056   -0.0000   -0.0007   -0.0116    0.0000   -0.0000    0.0000
       61 O3     1s         0.0024    0.7063    0.7063   -0.0127   -0.0125    0.0142   -0.0043    0.0249   -0.0000   -0.0063
       62 O3     2s         0.0012   -0.0060   -0.0058    0.3460    0.5583    0.6512   -0.0941    0.4432   -0.0000   -0.0737
       63 O3     3s         0.0006   -0.0042   -0.0040   -0.0093   -0.0214    0.0232   -0.0060    0.0540   -0.0000   -0.0128
       64 O3     4s         0.0001   -0.0009   -0.0008   -0.0003   -0.0040    0.0040   -0.0013    0.0113   -0.0000   -0.0028
       65 O3     2px       -0.0002    0.0005    0.0005   -0.0153   -0.0227    0.0470    0.3290    0.1706   -0.0000    0.6758
       66 O3     3px       -0.0003    0.0005    0.0003    0.0070    0.0036   -0.0084   -0.0237   -0.0136    0.0000   -0.0069
       67 O3     4px       -0.0002   -0.0001   -0.0002    0.0016   -0.0006    0.0002   -0.0007   -0.0004    0.0000   -0.0054
       68 O3     2py        0.0009   -0.0026   -0.0030    0.1152    0.0876   -0.1705    0.1270   -0.3802    0.0000    0.1783
       69 O3     3py        0.0004   -0.0025   -0.0029   -0.0119   -0.0197    0.0276   -0.0108    0.0475   -0.0000   -0.0046
       70 O3     4py       -0.0002    0.0017    0.0016   -0.0010   -0.0033   -0.0007   -0.0021    0.0040   -0.0000   -0.0017
       71 O3     2pz       -0.0000    0.0000   -0.0000   -0.0000   -0.0000    0.0000   -0.0000    0.0000    0.4194   -0.0000
       72 O3     3pz       -0.0000    0.0000    0.0000   -0.0000   -0.0000   -0.0000    0.0000    0.0000   -0.0149   -0.0000
       73 O3     4pz       -0.0000    0.0000    0.0000   -0.0000    0.0000   -0.0000    0.0000   -0.0000   -0.0067   -0.0000
       74 O3     3d2-       0.0000    0.0003    0.0003   -0.0046   -0.0049    0.0052    0.0193    0.0100    0.0000    0.0119
       75 O3     4d2-       0.0000    0.0002    0.0002   -0.0001   -0.0005    0.0002    0.0017    0.0004    0.0000    0.0011
       76 O3     3d1-      -0.0000   -0.0000   -0.0000   -0.0000   -0.0000   -0.0000   -0.0000    0.0000    0.0319    0.0000
       77 O3     4d1-      -0.0000   -0.0000   -0.0000   -0.0000   -0.0000   -0.0000    0.0000    0.0000    0.0056    0.0000
       78 O3     3d0       -0.0001    0.0005    0.0006   -0.0103   -0.0084    0.0069   -0.0045    0.0149   -0.0000   -0.0046
       79 O3     4d0       -0.0001    0.0004    0.0005   -0.0010   -0.0006    0.0003   -0.0007    0.0009   -0.0000   -0.0008
       80 O3     3d1+       0.0000   -0.0000   -0.0000    0.0000    0.0000   -0.0000   -0.0000   -0.0000   -0.0042   -0.0000
       81 O3     4d1+       0.0000    0.0000   -0.0000    0.0000    0.0000   -0.0000   -0.0000   -0.0000   -0.0008   -0.0000
       82 O3     3d2+      -0.0003    0.0012    0.0013   -0.0197   -0.0146    0.0153   -0.0128    0.0271   -0.0000   -0.0108
       83 O3     4d2+      -0.0001    0.0006    0.0007   -0.0028   -0.0017    0.0016   -0.0013    0.0020    0.0000   -0.0014
       84 O3     4f3-      -0.0001    0.0002    0.0002   -0.0053   -0.0048    0.0028   -0.0039    0.0060   -0.0000   -0.0035
       85 O3     4f2-       0.0000    0.0000    0.0000    0.0000    0.0000   -0.0000    0.0000   -0.0000   -0.0015   -0.0000
       86 O3     4f1-      -0.0000    0.0002    0.0002   -0.0034   -0.0030    0.0020   -0.0012    0.0040   -0.0000   -0.0011
       87 O3     4f0       -0.0000    0.0000    0.0000    0.0000    0.0000    0.0000   -0.0000   -0.0000   -0.0037   -0.0000
       88 O3     4f1+      -0.0000   -0.0000   -0.0000    0.0004    0.0004   -0.0003   -0.0005   -0.0004    0.0000    0.0006
       89 O3     4f2+       0.0000    0.0000    0.0000   -0.0000   -0.0000    0.0000    0.0000   -0.0000   -0.0069    0.0000
       90 O3     4f3+      -0.0000   -0.0001   -0.0001    0.0023    0.0021   -0.0018   -0.0064   -0.0035    0.0000   -0.0051
 
          Orbital           11        12        13        14        15        16        17        18        19        20    
          Energy           -0.5121   -0.4818   -0.0277    0.1387    0.1680    0.2333    0.2348    0.2797    0.3642    0.3686
          Occ. No.          2.0000    2.0000    0.0000    0.0000    0.0000    0.0000    0.0000    0.0000    0.0000    0.0000
 
        1 O1     1s        -0.0000    0.0007    0.0000    0.0626   -0.2242   -0.0429   -0.0000    0.0919   -0.0106    0.0000
        2 O1     2s        -0.0000   -0.0089    0.0000    0.5774   -1.6298   -0.2859   -0.0000    0.6163   -0.0392    0.0000
        3 O1     3s        -0.0000    0.0085    0.0000    0.1579   -0.9757   -0.2079   -0.0000    0.5676   -0.0128    0.0000
        4 O1     4s         0.0000    0.0033    0.0000    0.0152   -0.2216   -0.0481   -0.0000    0.1480    0.0008    0.0000
        5 O1     2px       -0.0000    0.6661    0.0000    0.0145    0.1602   -0.0311   -0.0000   -0.0989   -0.1729   -0.0000
        6 O1     3px       -0.0000    0.0372    0.0000   -0.0038    0.1761    0.4029    0.0000    0.0658   -0.8543   -0.0000
        7 O1     4px       -0.0000   -0.0002    0.0000    0.0038    0.0256    0.1946    0.0000    0.0599   -0.3385   -0.0000
        8 O1     2py        0.0000    0.0703   -0.0000   -0.9186    0.6457    0.1490    0.0000   -0.4290   -0.1047   -0.0000
        9 O1     3py        0.0000   -0.0084   -0.0000   -0.4135    0.8007    0.2394    0.0000   -1.0062   -0.0723   -0.0000
       10 O1     4py        0.0000   -0.0027   -0.0000   -0.0494    0.1031    0.0255   -0.0000   -0.2331   -0.0137   -0.0000
       11 O1     2pz       -0.6948   -0.0000    0.6646   -0.0000    0.0000    0.0000   -0.1166    0.0000    0.0000   -0.1504
       12 O1     3pz       -0.0251   -0.0000    0.1721   -0.0000   -0.0000   -0.0000    0.3778    0.0000    0.0000   -0.8758
       13 O1     4pz        0.0071    0.0000    0.0280   -0.0000   -0.0000   -0.0000    0.2051   -0.0000    0.0000   -0.3517
       14 O1     3d2-      -0.0000    0.0014    0.0000    0.0163   -0.0287   -0.0051   -0.0000    0.0149    0.0133    0.0000
       15 O1     4d2-       0.0000   -0.0000   -0.0000    0.0074   -0.0199   -0.0077   -0.0000    0.0102    0.0164    0.0000
       16 O1     3d1-       0.0253    0.0000    0.0144    0.0000   -0.0000   -0.0000    0.0071   -0.0000   -0.0000    0.0110
       17 O1     4d1-       0.0058   -0.0000    0.0018    0.0000   -0.0000    0.0000   -0.0010   -0.0000   -0.0000    0.0148
       18 O1     3d0        0.0000    0.0028   -0.0000   -0.0128    0.0521    0.0218    0.0000   -0.0557   -0.0050   -0.0000
       19 O1     4d0        0.0000    0.0002    0.0000   -0.0088    0.0327    0.0140    0.0000   -0.0392   -0.0060   -0.0000
       20 O1     3d1+       0.0029   -0.0000    0.0028    0.0000    0.0000   -0.0000    0.0020    0.0000   -0.0000    0.0068
       21 O1     4d1+       0.0006   -0.0000    0.0002    0.0000    0.0000    0.0000    0.0005    0.0000   -0.0000    0.0054
       22 O1     3d2+       0.0000    0.0068   -0.0000   -0.0157    0.0844    0.0406    0.0000   -0.1008    0.0035   -0.0000
       23 O1     4d2+       0.0000    0.0000   -0.0000   -0.0121    0.0518    0.0247    0.0000   -0.0712   -0.0005   -0.0000
       24 O1     4f3-      -0.0000   -0.0016    0.0000    0.0043   -0.0068   -0.0016   -0.0000    0.0117   -0.0013    0.0000
       25 O1     4f2-      -0.0012    0.0000   -0.0003   -0.0000   -0.0000   -0.0000    0.0005    0.0000    0.0000   -0.0034
       26 O1     4f1-      -0.0000   -0.0009    0.0000    0.0022   -0.0049   -0.0027   -0.0000    0.0105    0.0030    0.0000
       27 O1     4f0        0.0019   -0.0000    0.0015    0.0000    0.0000    0.0000   -0.0019   -0.0000   -0.0000    0.0063
       28 O1     4f1+      -0.0000    0.0012    0.0000    0.0007   -0.0003   -0.0014   -0.0000    0.0011    0.0031    0.0000
       29 O1     4f2+       0.0057    0.0000   -0.0004    0.0000   -0.0000    0.0000   -0.0018   -0.0000   -0.0000    0.0067
       30 O1     4f3+       0.0000   -0.0019   -0.0000    0.0025   -0.0018   -0.0042   -0.0000    0.0043    0.0092    0.0000
       31 O2     1s         0.0000    0.0178   -0.0000   -0.1935    0.0000    0.1031    0.0000   -0.2984    0.0000   -0.0000
       32 O2     2s         0.0000    0.2095   -0.0000   -1.6205    0.0000    0.6668    0.0000   -1.8683    0.0000   -0.0000
       33 O2     3s         0.0000    0.0474   -0.0000   -0.7198    0.0000    0.4268    0.0000   -1.1154   -0.0000   -0.0000
       34 O2     4s         0.0000    0.0115   -0.0000   -0.1629    0.0000    0.0868    0.0000   -0.2071   -0.0000   -0.0000
       35 O2     2px        0.0000   -0.6844   -0.0000   -0.3736    0.0000   -0.0523   -0.0000   -0.1151    0.0000   -0.0000
       36 O2     3px        0.0000   -0.0371   -0.0000   -0.1240    0.0000    0.3168    0.0000   -0.1857    0.0000   -0.0000
       37 O2     4px        0.0000   -0.0034   -0.0000   -0.0049   -0.0000    0.1668    0.0000    0.0093    0.0000   -0.0000
       38 O2     2py        0.0000   -0.0000   -0.0000    0.0000    1.5843   -0.0000    0.0000    0.0000   -0.0333   -0.0000
       39 O2     3py        0.0000   -0.0000   -0.0000    0.0000    1.6411   -0.0000    0.0000    0.0000    0.1847   -0.0000
       40 O2     4py       -0.0000   -0.0000   -0.0000    0.0000    0.1673   -0.0000    0.0000    0.0000    0.0933    0.0000
       41 O2     2pz       -0.0000    0.0000   -0.9112    0.0000   -0.0000    0.0000   -0.0468    0.0000   -0.0000   -0.0000
       42 O2     3pz       -0.0000    0.0000   -0.2099   -0.0000   -0.0000   -0.0000    0.2849   -0.0000   -0.0000   -0.0000
       43 O2     4pz        0.0000    0.0000   -0.0211   -0.0000   -0.0000   -0.0000    0.1784   -0.0000   -0.0000   -0.0000
       44 O2     3d2-      -0.0000    0.0000   -0.0000    0.0000    0.0644    0.0000    0.0000    0.0000    0.1031    0.0000
       45 O2     4d2-      -0.0000    0.0000   -0.0000    0.0000    0.0396    0.0000    0.0000    0.0000    0.0673    0.0000
       46 O2     3d1-      -0.0623   -0.0000    0.0000    0.0000    0.0000   -0.0000    0.0000   -0.0000   -0.0000    0.1182
       47 O2     4d1-      -0.0145   -0.0000    0.0000    0.0000    0.0000    0.0000    0.0000   -0.0000   -0.0000    0.0716
       48 O2     3d0        0.0000    0.0140    0.0000   -0.0168   -0.0000   -0.0417   -0.0000    0.1165   -0.0000    0.0000
       49 O2     4d0        0.0000    0.0016    0.0000    0.0044   -0.0000   -0.0216   -0.0000    0.0517   -0.0000    0.0000
       50 O2     3d1+      -0.0000    0.0000   -0.0038    0.0000    0.0000    0.0000   -0.0104    0.0000   -0.0000    0.0000
       51 O2     4d1+      -0.0000   -0.0000   -0.0005    0.0000   -0.0000    0.0000   -0.0040    0.0000   -0.0000    0.0000
       52 O2     3d2+       0.0000    0.0221    0.0000   -0.0329   -0.0000   -0.0826   -0.0000    0.1673    0.0000    0.0000
       53 O2     4d2+      -0.0000    0.0038    0.0000    0.0072   -0.0000   -0.0392   -0.0000    0.0671    0.0000    0.0000
       54 O2     4f3-      -0.0000    0.0000    0.0000   -0.0000   -0.0143   -0.0000   -0.0000    0.0000   -0.0014    0.0000
       55 O2     4f2-      -0.0038   -0.0000    0.0000    0.0000   -0.0000    0.0000    0.0000   -0.0000   -0.0000    0.0030
       56 O2     4f1-      -0.0000   -0.0000    0.0000   -0.0000   -0.0113   -0.0000   -0.0000    0.0000   -0.0046   -0.0000
       57 O2     4f0        0.0000    0.0000   -0.0021    0.0000    0.0000    0.0000   -0.0016    0.0000    0.0000    0.0000
       58 O2     4f1+       0.0000   -0.0021   -0.0000   -0.0012   -0.0000   -0.0016   -0.0000    0.0022   -0.0000    0.0000
       59 O2     4f2+       0.0000   -0.0000    0.0020   -0.0000    0.0000    0.0000   -0.0021    0.0000   -0.0000    0.0000
       60 O2     4f3+      -0.0000    0.0015    0.0000   -0.0006   -0.0000   -0.0051   -0.0000    0.0054    0.0000    0.0000
       61 O3     1s        -0.0000    0.0007   -0.0000    0.0626    0.2242   -0.0429   -0.0000    0.0919    0.0106    0.0000
       62 O3     2s        -0.0000   -0.0089   -0.0000    0.5774    1.6298   -0.2859   -0.0000    0.6163    0.0392   -0.0000
       63 O3     3s        -0.0000    0.0085   -0.0000    0.1579    0.9757   -0.2079   -0.0000    0.5676    0.0128    0.0000
       64 O3     4s         0.0000    0.0033   -0.0000    0.0152    0.2216   -0.0481   -0.0000    0.1480   -0.0008    0.0000
       65 O3     2px       -0.0000    0.6661    0.0000    0.0145   -0.1602   -0.0311   -0.0000   -0.0989    0.1729    0.0000
       66 O3     3px       -0.0000    0.0372    0.0000   -0.0038   -0.1761    0.4029    0.0000    0.0658    0.8543    0.0000
       67 O3     4px       -0.0000   -0.0002    0.0000    0.0038   -0.0256    0.1946    0.0000    0.0599    0.3385    0.0000
       68 O3     2py       -0.0000   -0.0703    0.0000    0.9186    0.6457   -0.1490   -0.0000    0.4290   -0.1047   -0.0000
       69 O3     3py        0.0000    0.0084    0.0000    0.4135    0.8007   -0.2394   -0.0000    1.0062   -0.0723    0.0000
       70 O3     4py        0.0000    0.0027   -0.0000    0.0494    0.1031   -0.0255    0.0000    0.2331   -0.0137    0.0000
       71 O3     2pz        0.6948   -0.0000    0.6646    0.0000    0.0000    0.0000   -0.1166   -0.0000   -0.0000    0.1504
       72 O3     3pz        0.0251   -0.0000    0.1721    0.0000   -0.0000   -0.0000    0.3778   -0.0000   -0.0000    0.8758
       73 O3     4pz       -0.0071   -0.0000    0.0280    0.0000   -0.0000   -0.0000    0.2051   -0.0000   -0.0000    0.3517
       74 O3     3d2-       0.0000   -0.0014   -0.0000   -0.0163   -0.0287    0.0051   -0.0000   -0.0149    0.0133    0.0000
       75 O3     4d2-      -0.0000    0.0000    0.0000   -0.0074   -0.0199    0.0077    0.0000   -0.0102    0.0164    0.0000
       76 O3     3d1-       0.0253    0.0000   -0.0144    0.0000   -0.0000    0.0000   -0.0071   -0.0000   -0.0000    0.0110
       77 O3     4d1-       0.0058    0.0000   -0.0018    0.0000   -0.0000   -0.0000    0.0010   -0.0000   -0.0000    0.0148
       78 O3     3d0        0.0000    0.0028   -0.0000   -0.0128   -0.0521    0.0218    0.0000   -0.0557    0.0050   -0.0000
       79 O3     4d0       -0.0000    0.0002   -0.0000   -0.0088   -0.0327    0.0140    0.0000   -0.0392    0.0060   -0.0000
       80 O3     3d1+      -0.0029   -0.0000    0.0028   -0.0000   -0.0000   -0.0000    0.0020    0.0000    0.0000   -0.0068
       81 O3     4d1+      -0.0006    0.0000    0.0002   -0.0000   -0.0000   -0.0000    0.0005    0.0000    0.0000   -0.0054
       82 O3     3d2+       0.0000    0.0068   -0.0000   -0.0157   -0.0844    0.0406    0.0000   -0.1008   -0.0035   -0.0000
       83 O3     4d2+       0.0000    0.0000   -0.0000   -0.0121   -0.0518    0.0247    0.0000   -0.0712    0.0005   -0.0000
       84 O3     4f3-       0.0000    0.0016   -0.0000   -0.0043   -0.0068    0.0016   -0.0000   -0.0117   -0.0013   -0.0000
       85 O3     4f2-      -0.0012    0.0000    0.0003    0.0000   -0.0000    0.0000   -0.0005    0.0000    0.0000   -0.0034
       86 O3     4f1-       0.0000    0.0009    0.0000   -0.0022   -0.0049    0.0027    0.0000   -0.0105    0.0030    0.0000
       87 O3     4f0       -0.0019   -0.0000    0.0015   -0.0000    0.0000    0.0000   -0.0019    0.0000    0.0000   -0.0063
       88 O3     4f1+       0.0000    0.0012    0.0000    0.0007    0.0003   -0.0014   -0.0000    0.0011   -0.0031   -0.0000
       89 O3     4f2+      -0.0057    0.0000   -0.0004   -0.0000    0.0000    0.0000   -0.0018    0.0000    0.0000   -0.0067
       90 O3     4f3+      -0.0000   -0.0019   -0.0000    0.0025    0.0018   -0.0042   -0.0000    0.0043   -0.0092   -0.0000
 
          Orbital           21    
          Energy            0.4573
          Occ. No.          0.0000
 
        1 O1     1s        -0.0643
        2 O1     2s        -0.3777
        3 O1     3s         0.1621
        4 O1     4s         0.1331
        5 O1     2px        0.0870
        6 O1     3px        0.1763
        7 O1     4px        0.0349
        8 O1     2py        0.0208
        9 O1     3py        0.4474
       10 O1     4py        0.0818
       11 O1     2pz        0.0000
       12 O1     3pz        0.0000
       13 O1     4pz        0.0000
       14 O1     3d2-      -0.0476
       15 O1     4d2-      -0.0292
       16 O1     3d1-      -0.0000
       17 O1     4d1-      -0.0000
       18 O1     3d0        0.0678
       19 O1     4d0        0.0393
       20 O1     3d1+       0.0000
       21 O1     4d1+       0.0000
       22 O1     3d2+       0.0991
       23 O1     4d2+       0.0553
       24 O1     4f3-      -0.0028
       25 O1     4f2-      -0.0000
       26 O1     4f1-      -0.0037
       27 O1     4f0       -0.0000
       28 O1     4f1+      -0.0010
       29 O1     4f2+       0.0000
       30 O1     4f3+      -0.0031
       31 O2     1s         0.0950
       32 O2     2s         0.5911
       33 O2     3s         0.9631
       34 O2     4s         0.2936
       35 O2     2px       -0.0926
       36 O2     3px       -0.2174
       37 O2     4px       -0.0897
       38 O2     2py        0.0000
       39 O2     3py       -0.0000
       40 O2     4py       -0.0000
       41 O2     2pz       -0.0000
       42 O2     3pz       -0.0000
       43 O2     4pz       -0.0000
       44 O2     3d2-       0.0000
       45 O2     4d2-       0.0000
       46 O2     3d1-      -0.0000
       47 O2     4d1-      -0.0000
       48 O2     3d0       -0.0345
       49 O2     4d0       -0.0127
       50 O2     3d1+       0.0000
       51 O2     4d1+       0.0000
       52 O2     3d2+      -0.0818
       53 O2     4d2+      -0.0388
       54 O2     4f3-       0.0000
       55 O2     4f2-      -0.0000
       56 O2     4f1-       0.0000
       57 O2     4f0        0.0000
       58 O2     4f1+      -0.0011
       59 O2     4f2+       0.0000
       60 O2     4f3+      -0.0049
       61 O3     1s        -0.0643
       62 O3     2s        -0.3777
       63 O3     3s         0.1621
       64 O3     4s         0.1331
       65 O3     2px        0.0870
       66 O3     3px        0.1763
       67 O3     4px        0.0349
       68 O3     2py       -0.0208
       69 O3     3py       -0.4474
       70 O3     4py       -0.0818
       71 O3     2pz        0.0000
       72 O3     3pz        0.0000
       73 O3     4pz        0.0000
       74 O3     3d2-       0.0476
       75 O3     4d2-       0.0292
       76 O3     3d1-       0.0000
       77 O3     4d1-       0.0000
       78 O3     3d0        0.0678
       79 O3     4d0        0.0393
       80 O3     3d1+       0.0000
       81 O3     4d1+       0.0000
       82 O3     3d2+       0.0991
       83 O3     4d2+       0.0553
       84 O3     4f3-       0.0028
       85 O3     4f2-       0.0000
       86 O3     4f1-       0.0037
       87 O3     4f0       -0.0000
       88 O3     4f1+      -0.0010
       89 O3     4f2+      -0.0000
       90 O3     4f3+      -0.0031
--
 
 
++    Molecular charges:
      ------------------
 
      Mulliken charges per centre and basis function type
      ---------------------------------------------------
 
                O1      O2      O3    
      1s       1.9976  1.9993  1.9976
      2s       1.9586  1.6246  1.9586
      2px      1.9905  1.8658  1.9905
      2pz      1.4309  1.0461  1.4309
      2py      0.7508  1.0479  0.7508
      3s      -0.0083 -0.0375 -0.0083
      3px     -0.0164 -0.0413 -0.0164
      3pz     -0.0069 -0.0148 -0.0069
      3py     -0.0019  0.0056 -0.0019
      4s       0.0033 -0.0004  0.0033
      3d2+     0.0215  0.0226  0.0215
      3d1+     0.0003  0.0016  0.0003
      3d0      0.0060  0.0054  0.0060
      3d1-     0.0144  0.0548  0.0144
      3d2-     0.0105  0.0357  0.0105
      4px      0.0007  0.0009  0.0007
      4pz      0.0012  0.0020  0.0012
      4py      0.0022  0.0051  0.0022
      4d2+     0.0015  0.0018  0.0015
      4d1+     0.0001  0.0002  0.0001
      4d0      0.0002 -0.0004  0.0002
      4d1-     0.0022  0.0138  0.0022
      4d2-     0.0008  0.0058  0.0008
      4f3+     0.0023  0.0038  0.0023
      4f2+     0.0019  0.0039  0.0019
      4f1+     0.0002  0.0003  0.0002
      4f0      0.0008  0.0015  0.0008
      4f1-     0.0013  0.0013  0.0013
      4f2-     0.0001  0.0007  0.0001
      4f3-     0.0031  0.0045  0.0031
      Total    8.1695  7.6611  8.1695
 
      N-E     -0.1695  0.3389 -0.1695
 
      Total electronic charge=   24.000000
 
      Total            charge=   -0.000000
--
 
 
  Input file to MOLDEN was generated!
 
 
++    Static properties:
      ------------------
 
 
      LoProp Charges per center
 

                   O1       O2       O3    
      Nuclear      8.0000   8.0000   8.0000
      Electronic  -8.1772  -7.6456  -8.1772
 
      Total       -0.1772   0.3544  -0.1772
--
 
 
++    Natural Bond Order analysis
      ---------------------------
      Based on LoProp computed density
      -------------------------------------------------------------------------------------
      Atom A       Atom B       Bond Order | Atom A       Atom B       Bond Order
        O1           O2             1.995  |   O2           O3             1.995
      -------------------------------------------------------------------------------------
      NBO located     11.999 core electrons.
      NBO located      3.989 lone pair electrons.
      NBO located      7.980 electrons involved in    2 bonds.
      The remaining    0.032 electrons are to be considered as diffuse
--
 
 
++    Molecular properties:
      ---------------------
 
      Charge (e):
                      =   -0.0000
      Dipole Moment (Debye):
      Origin of the operator (Ang)=    0.0000    0.0000    0.0000
                   X= -5.8951E-02               Y=  1.3332E-10               Z=  2.0806E-13           Total=  5.8951E-02
      Quadrupole Moment (Debye*Ang):
      Origin of the operator (Ang)=    0.1370    0.0000    0.0000
                  XX= -1.6169E+01              XY=  1.5222E-11              XZ=  1.7619E-13              YY= -1.6850E+01
                  YZ=  6.1896E-13              ZZ= -1.4900E+01
      In traceless form (Debye*Ang)
                  XX= -2.9442E-01              XY=  2.2833E-11              XZ=  2.6428E-13              YY= -1.3146E+00
                  YZ=  9.2845E-13              ZZ=  1.6091E+00
--
 
 
  Input file to MOLDEN was generated!
 
 ###############################################################################
 ###############################################################################
 ###                                                                         ###
 ###                                                                         ###
 ###    RunFile label nBas                                                   ###
 ###    was used       78 times                                              ###
 ###                                                                         ###
 ###                                                                         ###
 ###############################################################################
 ###############################################################################
--- Stop Module: scf at Wed Nov 20 08:01:20 2024 /rc=_RC_ALL_IS_WELL_ ---
*** files: ozone_161.50.LprOrb ozone_161.50.LoProp.molden ozone_161.50.scf.molden ozone_161.50.ScfOrb ozone_161.50.scf.h5 xmldump
    saved to directory /home/grierjones/DDCASPT2/ozone/ANO-RCC-VTZP/ozone_161.50

>>> COPY /tmp/ozone_161.50/ozone_161.50.scf.h5 /home/grierjones/DDCASPT2/ozone/ANO-RCC-VTZP/ozone_161.50/

*** symbolic link created: INPORB -> ozone_161.50.ScfOrb
--- Start Module: rasscf at Wed Nov 20 08:01:20 2024 ---
 
()()()()()()()()()()()()()()()()()()()()()()()()()()()()()()()()()()()()()()()()()()()()()()()()()()

                                              &RASSCF

                                   only a single process is used
                       available to each process: 2.0 GB of memory, 1 thread?
()()()()()()()()()()()()()()()()()()()()()()()()()()()()()()()()()()()()()()()()()()()()()()()()()()
 
 
 *************** WARNING ****************
 ###############################################################################
 ###############################################################################
 ###                                                                         ###
 ###                                                                         ###
 ###    Too many macro-iterations.                                           ###
 ###                                                                         ###
 ###                                                                         ###
 ###############################################################################
 ###############################################################################
 Too many macro-iterations requested.
 Reset to maximum, new MAXIT=     200
 ****************************************
 
 *************** WARNING ****************
 ###############################################################################
 ###############################################################################
 ###                                                                         ###
 ###                                                                         ###
 ###    Too many SX-iterations.                                              ###
 ###                                                                         ###
 ###                                                                         ###
 ###############################################################################
 ###############################################################################
 Too many SX-iterations requested.
 Reset to maximum, new ITMAX=     100
 ****************************************
 
      Header of the ONEINT file:
      --------------------------
      
      Integrals generated by seward 4.2.0  , Wed Nov 20 08:01:17 2024
 
 
      OrdInt status: non-squared
 
 
      Cartesian coordinates in Angstrom:
      -----------------------------------------------------
      No.  Label        X            Y            Z        
      -----------------------------------------------------
       1   O1         0.20542900   1.26138100   0.00000000
       2   O2         0.00000000   0.00000000   0.00000000
       3   O3         0.20542900  -1.26138100   0.00000000
      -----------------------------------------------------
      Nuclear repulsion energy =   66.42525630
 
++    Wave function specifications:
      -----------------------------
 
      Number of closed shell electrons          20
      Number of electrons in active shells       4
      Max number of holes in RAS1 space          0
      Max nr of electrons in RAS3 space          0
      Number of inactive orbitals               10
      Number of active orbitals                  3
      Number of secondary orbitals              77
      Spin quantum number                      0.0
      State symmetry                             1
--
 
++    Orbital specifications:
      -----------------------
 
      Symmetry species                           1
                                                 a
      Frozen orbitals                            0
      Inactive orbitals                         10
      Active orbitals                            3
      RAS1 orbitals                              0
      RAS2 orbitals                              3
      RAS3 orbitals                              0
      Secondary orbitals                        77
      Deleted orbitals                           0
      Number of basis functions                 90
--
 
++    CI expansion specifications:
      ----------------------------
 
      Number of CSFs                             6
      Number of determinants                     6
      Number of root(s) required                 1
      Root chosen for geometry opt.              1
      CI root used                               1
         
      highest root included in the CI            1
      max. size of the explicit Hamiltonian      6
--
 
++    Optimization specifications:
      ----------------------------
 
      RASSCF algorithm: Conventional
      Maximum number of macro iterations       200
      Maximum number of SX iterations          100
      Threshold for RASSCF energy            0.100E-07
      Threshold for max MO rotation          0.100E+00
      Threshold for max BLB element          0.100E-03
      Level shift parameter                  0.500E+00
      Make Quasi-Newton update
--
 
      The MO-coefficients are taken from the file:
      /home/grierjones/DDCASPT2/ozone/ANO-RCC-VTZP/ozone_161.00/ozone_161.00.RasOrb                                                   
      Title: RASSCF average (pseudo-natural) orbitals                                      
 
      Total molecular charge    0.00
 
      ************************************************************************************************************************
      *                                                                                                                      *
      *                                            Wave function control section                                             *
      *                                                                                                                      *
      ************************************************************************************************************************
 
 
                                         RASSCF iterations: Energy and convergence statistics
                                         ----------------------------------------------------
 
      Iter CI   SX   CI       RASSCF       Energy    max ROT     max BLB   max BLB  Level Ln srch  Step   QN   Walltime
          iter iter root      energy       change     param      element    value   shift minimum  type update hh:mm:ss
 Nr of preliminary CI iterations:   1
        1   1    3    1  -224.50367561    0.00E+00   0.13E-02    7  14 1 -0.28E-02*  0.19   0.00    SX    NO    0:00:00
        2   1    3    1  -224.50369919   -0.24E-04*  0.74E-03    7  14 1 -0.17E-02*  0.19   0.00    SX    NO    0:00:00
        3   1    3    1  -224.50370469   -0.55E-05*  0.48E-03    7  14 1 -0.11E-02*  0.19   0.00    SX    NO    0:00:00
        4   1    3    1  -224.50370662   -0.19E-05*  0.25E-03    7  14 1 -0.56E-03*  0.19   0.00    SX    NO    0:00:00
        5   1    3    1  -224.50370722   -0.60E-06*  0.73E-03    7  14 1 -0.40E-03*  0.19   2.00    QN   YES    0:00:00
        6   1    3    1  -224.50370762   -0.39E-06* -0.34E-03    7  14 1  0.46E-03*  0.19   0.67    QN   YES    0:00:00
        7   1    3    1  -224.50370773   -0.12E-06* -0.89E-04    8  25 1  0.29E-03*  0.19   0.58    SX   YES    0:00:00
        8   1    3    1  -224.50370777   -0.40E-07*  0.58E-04    8  25 1 -0.19E-03*  0.19   0.57    SX   YES    0:00:00
        9   1    3    1  -224.50370778   -0.26E-08  -0.30E-04    8  25 1  0.22E-03*  0.19   0.49    LS   YES    0:00:00
       10   1    3    1  -224.50370780   -0.23E-07* -0.67E-04   10  14 1  0.62E-04   0.19   0.65    QN   YES    0:00:00
       11   1    3    1  -224.50370781   -0.96E-08  -0.10E-03    8  25 1  0.55E-04   0.19   2.50    LS   YES    0:00:00
      Convergence after 11 iterations
 
  Dmat in MO in SXCTL bf call to SXHAM                                                                                    
  mat. size =     3x    3
 
        1.9862350263189859
       -0.0000000000003970      1.7517771770800665
       -0.0025450567998438      0.0000000000009362      0.2619877966009467
       12   1    3    1  -224.50370781    0.31E-08  -0.10E-03    8  25 1  0.87E-04   0.19   2.50    LS   YES    0:00:00
 
      ************************************************************************************************************************
                                                      Wave function printout:
                       occupation of active orbitals, and spin coupling of open shells (u,d: Spin up or down)
      ************************************************************************************************************************
 
      Note: transformation to natural orbitals
      has been made, which may change the order of the CSFs.
 
      printout of CI-coefficients larger than  0.05 for root  1
      energy=    -224.503708
      conf/sym  111     Coeff  Weight
             1  220  -0.93221 0.86901
             3  202   0.35229 0.12411
             6  022   0.08295 0.00688
 
      Natural orbitals and occupation numbers for root  1
      sym 1:   1.986239   1.751777   0.261984
 
      ************************************************************************************************************************
      *                                                                                                                      *
      *                                                    Final results                                                     *
      *                                                                                                                      *
      ************************************************************************************************************************
 
 
++    Wave function specifications:
      -----------------------------
 
      Number of closed shell electrons          20
      Number of electrons in active shells       4
      Max number of holes in RAS1 space          0
      Max nr of electrons in RAS3 space          0
      Number of inactive orbitals               10
      Number of active orbitals                  3
      Number of secondary orbitals              77
      Spin quantum number                      0.0
      State symmetry                             1
--
 
++    Orbital specifications:
      -----------------------
 
      Symmetry species                           1
                                                 a
      Frozen orbitals                            0
      Inactive orbitals                         10
      Active orbitals                            3
      RAS1 orbitals                              0
      RAS2 orbitals                              3
      RAS3 orbitals                              0
      Secondary orbitals                        77
      Deleted orbitals                           0
      Number of basis functions                 90
--
 
++    CI expansion specifications:
      ----------------------------
 
      Number of CSFs                             6
      Number of determinants                     6
      Number of root(s) required                 1
      CI root used                               1
      highest root included in the CI            1
      Root passed to geometry opt.               1
--
 
++    Final optimization conditions:
      ------------------------------
 
      Average CI energy                            -224.50370781
      RASSCF energy for state  1                   -224.50370781
      Super-CI energy                                -0.00000001
      RASSCF energy change                            0.00000000
      Max change in MO coefficients              -0.982E-04
      Max non-diagonal density matrix element    -0.100E-03
      Maximum BLB matrix element                  0.874E-04
      (orbital pair   8,  25 in symmetry   1)
      Norm of electronic gradient            0.265E-03
--
 
 
      Final state energy(ies):
      ------------------------
 
::    RASSCF root number  1 Total energy:   -224.50370781
 
++    Molecular orbitals:
      -------------------
 
      Pseudonatural active orbitals and approximate occupation numbers
 
 
 
 
      Molecular orbitals for symmetry species 1: a  
 
 
      Orbital                1         2         3         4         5         6         7         8         9        10
      Energy          -20.7851  -20.7415  -20.7414   -1.6757   -1.4481   -1.0517   -0.7975   -0.7779   -0.6115   -0.4611
      Occ. No.          2.0000    2.0000    2.0000    2.0000    2.0000    2.0000    2.0000    2.0000    2.0000    2.0000
 
    1 O1     1s         0.0067   -0.7063    0.7062   -0.0127    0.0114    0.0151   -0.0036    0.0237    0.0068   -0.0004
    2 O1     2s         0.0017    0.0059   -0.0057    0.3646   -0.5749    0.6420   -0.0738    0.4117    0.0785   -0.0229
    3 O1     3s         0.0009    0.0042   -0.0039   -0.0114    0.0208    0.0239   -0.0042    0.0512    0.0132    0.0086
    4 O1     4s         0.0001    0.0009   -0.0007   -0.0008    0.0041    0.0039   -0.0010    0.0108    0.0030    0.0038
    5 O1     2px       -0.0002   -0.0005    0.0005   -0.0150    0.0219    0.0471    0.3839    0.1887   -0.6728    0.6390
    6 O1     3px       -0.0004   -0.0005    0.0003    0.0074   -0.0035   -0.0085   -0.0254   -0.0140    0.0080    0.0433
    7 O1     4px       -0.0002    0.0001   -0.0002    0.0015    0.0007   -0.0000   -0.0020   -0.0007    0.0057    0.0013
    8 O1     2py       -0.0012   -0.0025    0.0030   -0.1164    0.0843    0.1895   -0.1306    0.4030    0.1895    0.1058
    9 O1     3py       -0.0005   -0.0025    0.0028    0.0130   -0.0191   -0.0288    0.0090   -0.0456   -0.0045   -0.0079
   10 O1     4py        0.0003    0.0017   -0.0016    0.0008   -0.0034    0.0004    0.0027   -0.0049   -0.0021   -0.0038
   11 O1     2pz        0.0000   -0.0000    0.0000   -0.0000   -0.0000    0.0000   -0.0000   -0.0000    0.0000   -0.0000
   12 O1     3pz        0.0000   -0.0000    0.0000    0.0000   -0.0000    0.0000   -0.0000   -0.0000   -0.0000    0.0000
   13 O1     4pz       -0.0000   -0.0000   -0.0000   -0.0000    0.0000    0.0000   -0.0000    0.0000   -0.0000   -0.0000
   14 O1     3d2-       0.0000    0.0003   -0.0003    0.0041   -0.0044   -0.0048   -0.0197   -0.0095    0.0107    0.0054
   15 O1     4d2-      -0.0000    0.0002   -0.0002   -0.0001   -0.0004   -0.0001   -0.0018   -0.0003    0.0006    0.0011
   16 O1     3d1-      -0.0000    0.0000   -0.0000   -0.0000    0.0000   -0.0000   -0.0000    0.0000    0.0000   -0.0000
   17 O1     4d1-      -0.0000    0.0000   -0.0000   -0.0000   -0.0000   -0.0000   -0.0000    0.0000    0.0000   -0.0000
   18 O1     3d0       -0.0002   -0.0005    0.0006   -0.0110    0.0089    0.0071   -0.0045    0.0149    0.0053    0.0030
   19 O1     4d0       -0.0001   -0.0004    0.0004   -0.0012    0.0010    0.0001   -0.0008    0.0008    0.0010    0.0002
   20 O1     3d1+       0.0000    0.0000   -0.0000    0.0000   -0.0000   -0.0000   -0.0000    0.0000    0.0000    0.0000
   21 O1     4d1+      -0.0000    0.0000   -0.0000   -0.0000    0.0000    0.0000    0.0000    0.0000   -0.0000    0.0000
   22 O1     3d2+      -0.0004   -0.0012    0.0013   -0.0194    0.0139    0.0163   -0.0121    0.0274    0.0110    0.0084
   23 O1     4d2+      -0.0001   -0.0005    0.0006   -0.0027    0.0016    0.0017   -0.0013    0.0022    0.0014    0.0003
   24 O1     4f3-       0.0001    0.0002   -0.0002    0.0052   -0.0047   -0.0029    0.0036   -0.0060   -0.0033   -0.0021
   25 O1     4f2-       0.0000   -0.0000    0.0000    0.0000   -0.0000    0.0000    0.0000   -0.0000    0.0000   -0.0000
   26 O1     4f1-       0.0000    0.0002   -0.0002    0.0034   -0.0030   -0.0017    0.0010   -0.0035   -0.0011   -0.0009
   27 O1     4f0       -0.0000    0.0000    0.0000   -0.0000    0.0000   -0.0000    0.0000   -0.0000    0.0000   -0.0000
   28 O1     4f1+      -0.0000    0.0000   -0.0000    0.0004   -0.0003   -0.0002   -0.0002   -0.0002   -0.0010    0.0016
   29 O1     4f2+      -0.0000    0.0000   -0.0000   -0.0000   -0.0000    0.0000    0.0000    0.0000   -0.0000   -0.0000
   30 O1     4f3+      -0.0000    0.0001   -0.0001    0.0021   -0.0019   -0.0016   -0.0066   -0.0034    0.0048   -0.0010
   31 O2     1s         0.9995    0.0000   -0.0073   -0.0290   -0.0000   -0.0130   -0.0040    0.0000   -0.0000    0.0218
   32 O2     2s        -0.0030   -0.0000    0.0119    0.6011    0.0000   -0.6357   -0.0492    0.0000   -0.0000    0.2603
   33 O2     3s        -0.0027   -0.0000    0.0068   -0.0593   -0.0000   -0.0283   -0.0056    0.0000   -0.0000    0.0603
   34 O2     4s        -0.0003   -0.0000    0.0010   -0.0120   -0.0000   -0.0047   -0.0027    0.0000   -0.0000    0.0143
   35 O2     2px        0.0004   -0.0000    0.0014    0.0434    0.0000    0.0686    0.6636    0.0000   -0.0000   -0.7390
   36 O2     3px       -0.0003   -0.0000    0.0009   -0.0187   -0.0000   -0.0070   -0.0614   -0.0000    0.0000   -0.0548
   37 O2     4px        0.0012    0.0000   -0.0003   -0.0044   -0.0000    0.0020   -0.0116   -0.0000    0.0000   -0.0034
   38 O2     2py       -0.0000   -0.0072   -0.0000    0.0000   -0.3095   -0.0000    0.0000   -0.5284   -0.1226   -0.0000
   39 O2     3py       -0.0000   -0.0050   -0.0000   -0.0000    0.0612    0.0000   -0.0000    0.0475   -0.0058   -0.0000
   40 O2     4py        0.0000    0.0012    0.0000   -0.0000    0.0001    0.0000   -0.0000    0.0113    0.0012   -0.0000
   41 O2     2pz       -0.0000    0.0000   -0.0000   -0.0000   -0.0000   -0.0000   -0.0000   -0.0000    0.0000    0.0000
   42 O2     3pz       -0.0000    0.0000   -0.0000   -0.0000    0.0000   -0.0000   -0.0000    0.0000   -0.0000    0.0000
   43 O2     4pz        0.0000   -0.0000    0.0000    0.0000    0.0000   -0.0000    0.0000   -0.0000   -0.0000    0.0000
   44 O2     3d2-      -0.0000   -0.0007   -0.0000    0.0000   -0.0190   -0.0000    0.0000   -0.0148   -0.0404    0.0000
   45 O2     4d2-      -0.0000   -0.0004   -0.0000    0.0000   -0.0020   -0.0000    0.0000   -0.0017   -0.0058    0.0000
   46 O2     3d1-      -0.0000    0.0000   -0.0000   -0.0000    0.0000   -0.0000    0.0000    0.0000    0.0000   -0.0000
   47 O2     4d1-      -0.0000    0.0000   -0.0000   -0.0000    0.0000   -0.0000    0.0000    0.0000    0.0000   -0.0000
   48 O2     3d0        0.0002    0.0000   -0.0011   -0.0142   -0.0000   -0.0002   -0.0103   -0.0000   -0.0000    0.0172
   49 O2     4d0        0.0003    0.0000   -0.0006    0.0004   -0.0000    0.0007   -0.0014   -0.0000   -0.0000    0.0021
   50 O2     3d1+       0.0000   -0.0000   -0.0000   -0.0000    0.0000   -0.0000   -0.0000   -0.0000    0.0000   -0.0000
   51 O2     4d1+      -0.0000   -0.0000    0.0000   -0.0000   -0.0000   -0.0000    0.0000   -0.0000    0.0000   -0.0000
   52 O2     3d2+       0.0007    0.0000   -0.0018   -0.0247   -0.0000   -0.0008    0.0099   -0.0000   -0.0000    0.0201
   53 O2     4d2+       0.0003    0.0000   -0.0009   -0.0013   -0.0000    0.0009    0.0005   -0.0000   -0.0000    0.0029
   54 O2     4f3-       0.0000    0.0002    0.0000   -0.0000    0.0091    0.0000   -0.0000    0.0093   -0.0033    0.0000
   55 O2     4f2-      -0.0000   -0.0000   -0.0000    0.0000    0.0000   -0.0000    0.0000   -0.0000    0.0000    0.0000
   56 O2     4f1-       0.0000    0.0001    0.0000   -0.0000    0.0062    0.0000   -0.0000    0.0057    0.0012   -0.0000
   57 O2     4f0        0.0000    0.0000    0.0000    0.0000   -0.0000   -0.0000    0.0000    0.0000   -0.0000    0.0000
   58 O2     4f1+       0.0000    0.0000   -0.0000   -0.0012   -0.0000    0.0001   -0.0013   -0.0000    0.0000   -0.0009
   59 O2     4f2+       0.0000    0.0000    0.0000    0.0000   -0.0000    0.0000    0.0000    0.0000   -0.0000   -0.0000
   60 O2     4f3+       0.0001    0.0000   -0.0001   -0.0058   -0.0000   -0.0002   -0.0115   -0.0000   -0.0000    0.0032
   61 O3     1s         0.0067    0.7063    0.7062   -0.0127   -0.0114    0.0151   -0.0036   -0.0237   -0.0068   -0.0004
   62 O3     2s         0.0017   -0.0059   -0.0057    0.3646    0.5749    0.6420   -0.0738   -0.4117   -0.0785   -0.0229
   63 O3     3s         0.0009   -0.0042   -0.0039   -0.0114   -0.0208    0.0239   -0.0042   -0.0512   -0.0132    0.0086
   64 O3     4s         0.0001   -0.0009   -0.0007   -0.0008   -0.0041    0.0039   -0.0010   -0.0108   -0.0030    0.0038
   65 O3     2px       -0.0002    0.0005    0.0005   -0.0150   -0.0219    0.0471    0.3839   -0.1887    0.6728    0.6390
   66 O3     3px       -0.0004    0.0005    0.0003    0.0074    0.0035   -0.0085   -0.0254    0.0140   -0.0080    0.0433
   67 O3     4px       -0.0002   -0.0001   -0.0002    0.0015   -0.0007   -0.0000   -0.0020    0.0007   -0.0057    0.0013
   68 O3     2py        0.0012   -0.0025   -0.0030    0.1164    0.0843   -0.1895    0.1306    0.4030    0.1895   -0.1058
   69 O3     3py        0.0005   -0.0025   -0.0028   -0.0130   -0.0191    0.0288   -0.0090   -0.0456   -0.0045    0.0079
   70 O3     4py       -0.0003    0.0017    0.0016   -0.0008   -0.0034   -0.0004   -0.0027   -0.0049   -0.0021    0.0038
   71 O3     2pz        0.0000    0.0000    0.0000    0.0000    0.0000   -0.0000    0.0000    0.0000    0.0000   -0.0000
   72 O3     3pz        0.0000    0.0000    0.0000    0.0000    0.0000    0.0000    0.0000    0.0000    0.0000   -0.0000
   73 O3     4pz       -0.0000   -0.0000    0.0000   -0.0000   -0.0000    0.0000   -0.0000    0.0000    0.0000   -0.0000
   74 O3     3d2-      -0.0000    0.0003    0.0003   -0.0041   -0.0044    0.0048    0.0197   -0.0095    0.0107   -0.0054
   75 O3     4d2-       0.0000    0.0002    0.0002    0.0001   -0.0004    0.0001    0.0018   -0.0003    0.0006   -0.0011
   76 O3     3d1-       0.0000    0.0000    0.0000    0.0000    0.0000   -0.0000    0.0000    0.0000   -0.0000    0.0000
   77 O3     4d1-      -0.0000    0.0000    0.0000    0.0000    0.0000   -0.0000    0.0000   -0.0000   -0.0000    0.0000
   78 O3     3d0       -0.0002    0.0005    0.0006   -0.0110   -0.0089    0.0071   -0.0045   -0.0149   -0.0053    0.0030
   79 O3     4d0       -0.0001    0.0004    0.0004   -0.0012   -0.0010    0.0001   -0.0008   -0.0008   -0.0010    0.0002
   80 O3     3d1+      -0.0000    0.0000    0.0000   -0.0000    0.0000   -0.0000    0.0000   -0.0000   -0.0000    0.0000
   81 O3     4d1+      -0.0000   -0.0000   -0.0000    0.0000   -0.0000   -0.0000   -0.0000   -0.0000    0.0000    0.0000
   82 O3     3d2+      -0.0004    0.0012    0.0013   -0.0194   -0.0139    0.0163   -0.0121   -0.0274   -0.0110    0.0084
   83 O3     4d2+      -0.0001    0.0005    0.0006   -0.0027   -0.0016    0.0017   -0.0013   -0.0022   -0.0014    0.0003
   84 O3     4f3-      -0.0001    0.0002    0.0002   -0.0052   -0.0047    0.0029   -0.0036   -0.0060   -0.0033    0.0021
   85 O3     4f2-       0.0000    0.0000    0.0000    0.0000    0.0000    0.0000    0.0000    0.0000   -0.0000   -0.0000
   86 O3     4f1-      -0.0000    0.0002    0.0002   -0.0034   -0.0030    0.0017   -0.0010   -0.0035   -0.0011    0.0009
   87 O3     4f0        0.0000   -0.0000   -0.0000   -0.0000    0.0000   -0.0000   -0.0000   -0.0000    0.0000   -0.0000
   88 O3     4f1+      -0.0000   -0.0000   -0.0000    0.0004    0.0003   -0.0002   -0.0002    0.0002    0.0010    0.0016
   89 O3     4f2+      -0.0000   -0.0000   -0.0000    0.0000   -0.0000   -0.0000    0.0000   -0.0000    0.0000   -0.0000
   90 O3     4f3+      -0.0000   -0.0001   -0.0001    0.0021    0.0019   -0.0016   -0.0066    0.0034   -0.0048   -0.0010
 
 
      Orbital               11        12        13        14        15        16        17        18        19        20
      Energy            0.0000    0.0000    0.0000    0.1441    0.1676    0.2274    0.2376    0.2816    0.3647    0.3666
      Occ. No.          1.9862    1.7518    0.2620    0.0000    0.0000    0.0000    0.0000    0.0000    0.0000    0.0000
 
    1 O1     1s        -0.0000    0.0000   -0.0000   -0.0664   -0.2235   -0.0000   -0.0382    0.0966   -0.0077    0.0000
    2 O1     2s        -0.0000    0.0000   -0.0000   -0.6049   -1.6231   -0.0000   -0.2524    0.6471   -0.0247    0.0000
    3 O1     3s        -0.0000    0.0000   -0.0000   -0.1661   -0.9738   -0.0000   -0.1770    0.5805   -0.0027    0.0000
    4 O1     4s        -0.0000   -0.0000   -0.0000   -0.0162   -0.2213   -0.0000   -0.0391    0.1485    0.0025    0.0000
    5 O1     2px        0.0000   -0.0000    0.0000   -0.0338    0.1578   -0.0000   -0.0135   -0.1089   -0.1740   -0.0000
    6 O1     3px       -0.0000   -0.0000   -0.0000   -0.0007    0.1805   -0.0000    0.4349    0.0320   -0.8611   -0.0000
    7 O1     4px        0.0000   -0.0000    0.0000   -0.0040    0.0276    0.0000    0.2054    0.0470   -0.3406   -0.0000
    8 O1     2py        0.0000   -0.0000    0.0000    0.9173    0.6373    0.0000    0.1195   -0.4429   -0.0843   -0.0000
    9 O1     3py        0.0000   -0.0000    0.0000    0.4245    0.8044   -0.0000    0.1920   -1.0345   -0.0533   -0.0000
   10 O1     4py       -0.0000    0.0000   -0.0000    0.0507    0.1051   -0.0000    0.0145   -0.2359   -0.0066   -0.0000
   11 O1     2pz       -0.3248   -0.6982    0.6583    0.0000    0.0000    0.0419    0.0000    0.0000    0.0000   -0.1687
   12 O1     3pz        0.0217    0.0015   -0.0708    0.0000   -0.0000    0.4464    0.0000   -0.0000    0.0000   -0.8763
   13 O1     4pz        0.0054    0.0081    0.0037    0.0000   -0.0000    0.2172   -0.0000   -0.0000    0.0000   -0.3512
   14 O1     3d2-       0.0000    0.0000   -0.0000   -0.0174   -0.0290    0.0000   -0.0058    0.0165    0.0136    0.0000
   15 O1     4d2-       0.0000    0.0000   -0.0000   -0.0078   -0.0202   -0.0000   -0.0085    0.0115    0.0162    0.0000
   16 O1     3d1-       0.0305    0.0193    0.0136    0.0000   -0.0000    0.0066    0.0000   -0.0000   -0.0000    0.0126
   17 O1     4d1-       0.0050    0.0033    0.0051    0.0000    0.0000   -0.0025    0.0000    0.0000   -0.0000    0.0149
   18 O1     3d0        0.0000   -0.0000    0.0000    0.0131    0.0522   -0.0000    0.0197   -0.0595   -0.0058   -0.0000
   19 O1     4d0        0.0000   -0.0000    0.0000    0.0094    0.0330   -0.0000    0.0123   -0.0412   -0.0059   -0.0000
   20 O1     3d1+       0.0036    0.0017    0.0021   -0.0000    0.0000    0.0028    0.0000    0.0000   -0.0000    0.0067
   21 O1     4d1+       0.0004    0.0001    0.0003   -0.0000    0.0000    0.0008    0.0000    0.0000   -0.0000    0.0052
   22 O1     3d2+       0.0000   -0.0000    0.0000    0.0149    0.0848   -0.0000    0.0371   -0.1065    0.0022   -0.0000
   23 O1     4d2+       0.0000   -0.0000    0.0000    0.0124    0.0521   -0.0000    0.0219   -0.0742   -0.0008   -0.0000
   24 O1     4f3-      -0.0000   -0.0000   -0.0000   -0.0041   -0.0069    0.0000   -0.0010    0.0121   -0.0018   -0.0000
   25 O1     4f2-      -0.0014   -0.0009   -0.0005    0.0000   -0.0000    0.0006    0.0000   -0.0000    0.0000   -0.0035
   26 O1     4f1-       0.0000    0.0000    0.0000   -0.0020   -0.0050    0.0000   -0.0023    0.0111    0.0027    0.0000
   27 O1     4f0        0.0035   -0.0000    0.0111   -0.0000    0.0000   -0.0022    0.0000   -0.0000   -0.0000    0.0067
   28 O1     4f1+       0.0000   -0.0000    0.0000   -0.0007   -0.0004    0.0000   -0.0016    0.0012    0.0033    0.0000
   29 O1     4f2+       0.0066    0.0052   -0.0002    0.0000   -0.0000   -0.0023   -0.0000   -0.0000   -0.0000    0.0071
   30 O1     4f3+       0.0000   -0.0000   -0.0000   -0.0025   -0.0018    0.0000   -0.0044    0.0048    0.0093    0.0000
   31 O2     1s         0.0000   -0.0000   -0.0000    0.1965    0.0000   -0.0000    0.0889   -0.3091    0.0000   -0.0000
   32 O2     2s         0.0000   -0.0000   -0.0000    1.6574    0.0000   -0.0000    0.5729   -1.9367    0.0000   -0.0000
   33 O2     3s         0.0000   -0.0000   -0.0000    0.7509    0.0000   -0.0000    0.3814   -1.1798    0.0000   -0.0000
   34 O2     4s         0.0000   -0.0000   -0.0000    0.1690    0.0000   -0.0000    0.0799   -0.2235   -0.0000   -0.0000
[...]
()()()()()()()()()()()()()()()()()()()()()()()()()()()()()()()()()()()()()()()()()()()()()()()()()()
 
 
      *** WARNING: Default frozen orbitals is overwritten by user input.
      *** Default values:   3
 
      Header of the integral files:
      
       Integrals generated by seward 4.2.0  , Wed Nov 20 08:01:17 2024
 
 
      Header of MO coefficients source file:
      * RASSCF average (pseudo-natural) orbitals                                      
 
 
      Cartesian coordinates in Angstrom:
      -----------------------------------------------------
      No.  Label        X            Y            Z        
      -----------------------------------------------------
       1   O1         0.20542900   1.26138100   0.00000000
       2   O2         0.00000000   0.00000000   0.00000000
       3   O3         0.20542900  -1.26138100   0.00000000
      -----------------------------------------------------
      Nuclear repulsion energy =   66.42525630
 
      Orbital specifications:
      -----------------------
 
      Symmetry species:              1
      Number of basis functions:    90
      Frozen orbitals:               0
      Deleted orbitals:              0
      Number of orbitals used:      90

       SYMMETRY  BASIS FUNCTIONS       ORBITALS      INTEGRALS   CPU(SEC)  I/O(SEC)
 
        1 1 1 1   90  90  90  90    90  90  90  90     8386560       0.00      0.00

       TOTAL CPU TIME(SEC)    4.29TOTAL I/O TIME(SEC)   11.02
 
--- Stop Module: motra at Wed Nov 20 08:01:32 2024 /rc=_RC_ALL_IS_WELL_ ---
*** files: xmldump
    saved to directory /home/grierjones/DDCASPT2/ozone/ANO-RCC-VTZP/ozone_161.50
--- Module motra spent 11 seconds ---

>>> COPY /tmp/ozone_161.50/GMJ_one_int_indx.csv /home/grierjones/DDCASPT2/ozone/ANO-RCC-VTZP/ozone_161.50/ozone_161.50.GMJ_one_int_indx.csv

>>> COPY /tmp/ozone_161.50/GMJ_one_int.csv /home/grierjones/DDCASPT2/ozone/ANO-RCC-VTZP/ozone_161.50/ozone_161.50.GMJ_one_int.csv

>>> COPY /tmp/ozone_161.50/GMJ_two_int_indx.csv /home/grierjones/DDCASPT2/ozone/ANO-RCC-VTZP/ozone_161.50/ozone_161.50.GMJ_two_int_indx.csv

>>> COPY /tmp/ozone_161.50/GMJ_two_int.csv /home/grierjones/DDCASPT2/ozone/ANO-RCC-VTZP/ozone_161.50/ozone_161.50.GMJ_two_int.csv

*** symbolic link created: INPORB -> ozone_161.50.RasOrb
--- Start Module: caspt2 at Wed Nov 20 08:01:33 2024 ---
 
()()()()()()()()()()()()()()()()()()()()()()()()()()()()()()()()()()()()()()()()()()()()()()()()()()

                                              &CASPT2

                                   only a single process is used
                       available to each process: 2.0 GB of memory, 1 thread?
()()()()()()()()()()()()()()()()()()()()()()()()()()()()()()()()()()()()()()()()()()()()()()()()()()
 
 Cholesky algorithm in CASPT2 =    1
 
 ###############################################################################
 ###############################################################################
 ###                                                                         ###
 ###                                                                         ###
 ###    User changed nr of frozen orbitals.                                  ###
 ###                                                                         ###
 ###                                                                         ###
 ###############################################################################
 ###############################################################################
 
++    Wave function specifications:
      -----------------------------
 
      Number of closed shell electrons          20
      Number of electrons in active shells       4
      Max number of holes in RAS1 space          0
      Max number of electrons in RAS3 space      0
      Number of inactive orbitals               10
      Number of active orbitals                  3
      Number of secondary orbitals              77
      Spin quantum number                      0.0
      State symmetry                             1
      Number of CSFs                             6
      Number of root(s) available                1
      Root passed to geometry opt.               1
      A file JOBMIX will be created.
      This is a CASSCF or RASSCF reference function
--
 
++    Orbital specifications:
      -----------------------
 
      Symmetry species                           1
                                                 a
      Frozen orbitals                            0
      Inactive orbitals                         10
      Active orbitals                            3
      Secondary orbitals                        77
      Deleted orbitals                           0
      Number of basis functions                 90
--
 
      Type of Fock operator: STANDARD
      Type of 0-order Hamiltonian: STANDARD WITH DEFAULT IPEA
        "IP-EA" denominator shift =      0.25
      The input orbitals and the CI vector will be transformed.
 
--------------------------------------------------------------------------------
 Estimated memory requirements:
  POLY3 :                   250202
  RHS:                      446386
  SIGMA :                   610360
  PRPCTL:                        0
 Available workspace:    230385072
 
++ CASPT2 computation for group   1
 
********************************************************************************
 Multi-State initialization phase begins for group   1
--------------------------------------------------------------------------------
********************************************************************************
 Compute H0 matrices for state    1
--------------------------------------------------------------------------------
--------------------------------------------------------------------------------
 H0 matrices have been computed.
 
********************************************************************************
  CASPT2 EQUATION SOLUTION
--------------------------------------------------------------------------------
 
  Total nr of CASPT2 parameters:
   Before reduction:      541275
   After  reduction:      532232
 
 The contributions to the second order correlation energy in atomic units.
-----------------------------------------------------------------------------------------------------------------------------
  IT.      VJTU        VJTI        ATVX        AIVX        VJAI        BVAT        BJAT        BJAI        TOTAL       RNORM  
-----------------------------------------------------------------------------------------------------------------------------
   1    -0.000000   -0.001538   -0.015480   -0.104176   -0.018692   -0.023523   -0.170497   -0.360591   -0.694497    0.003133
   2    -0.000000   -0.001564   -0.015552   -0.104661   -0.018721   -0.023531   -0.170537   -0.360597   -0.695163    0.000289
   3    -0.000000   -0.001564   -0.015553   -0.104668   -0.018721   -0.023531   -0.170538   -0.360597   -0.695173    0.000037
   4    -0.000000   -0.001565   -0.015553   -0.104665   -0.018721   -0.023531   -0.170537   -0.360597   -0.695169    0.000007
-------------------------------------------------------------------------------------------------------------------
 
  FINAL CASPT2 RESULT:
 
  Correlation energy /Case, /Symm, and sums:
 VJTU     -0.00000000 -0.00000000
 VJTIP    -0.00156477 -0.00156477
 VJTIM     0.00000000  0.00000000
 ATVX     -0.01555268 -0.01555268
 AIVX     -0.10466469 -0.10466469
 VJAIP    -0.01312163 -0.01312163
 VJAIM    -0.00559912 -0.00559912
 BVATP    -0.02220383 -0.02220383
 BVATM    -0.00132704 -0.00132704
 BJATP    -0.07067206 -0.07067206
 BJATM    -0.09986538 -0.09986538
 BJAIP    -0.24880162 -0.24880162
 BJAIM    -0.11179583 -0.11179583
 Summed:  -0.69516864 -0.69516864
 
      Reference energy:        -224.5037078064
      E2 (Non-variational):      -0.6951686366
      E2 (Variational):          -0.6951686934
      Total energy:            -225.1988764998
      Residual norm:              0.0000005930
      Reference weight:           0.84760
 
      Contributions to the CASPT2 correlation energy
      Active & Virtual Only:         -0.0390835399
      One Inactive Excited:          -0.2752021311
      Two Inactive Excited:          -0.3808829656
 
 
++ Denominators, etc.
----------------------------------------------------------------------------------------------------
 Report on small energy denominators, large coefficients, and large energy contributions.
CASE  SYMM ACTIVE-MIX  NON-ACTIVE INDICES          DENOMINATOR     RHS VALUE       COEFFICIENT     CONTRIBUTION
ATVX     1  Mu1.0005  Se1.020                       1.54213048      0.06468092     -0.04098034     -0.00265065
ATVX     1  Mu1.0005  Se1.042                       3.10357673     -0.10336941      0.03257925     -0.00336770
AIVX     1  Mu1.0005  In1.004 Se1.014               2.61308443     -0.07762922      0.02981847     -0.00231478
AIVX     1  Mu1.0003  In1.005 Se1.014               2.06097834      0.06439172     -0.03066702     -0.00197470
AIVX     1  Mu1.0004  In1.006 Se1.014               1.83126620     -0.04895707      0.02713551     -0.00132847
AIVX     1  Mu1.0004  In1.007 Se1.014               1.57704513      0.04948012     -0.03184102     -0.00157550
AIVX     1  Mu1.0002  In1.008 Se1.014               1.29368267      0.09408111     -0.07184476     -0.00675924
AIVX     1  Mu1.0003  In1.008 Se1.014               1.39075018      0.04969864     -0.03549793     -0.00176420
AIVX     1  Mu1.0002  In1.009 Se1.014               1.12735965      0.05188241     -0.04533302     -0.00235199
AIVX     1  Mu1.0003  In1.009 Se1.014               1.22442716      0.03396709     -0.02748238     -0.00093350
AIVX     1  Mu1.0002  In1.008 Se1.018               1.43117480      0.03956454     -0.02698756     -0.00106775
AIVX     1  Mu1.0002  In1.009 Se1.018               1.26485179      0.03527367     -0.02720632     -0.00095967
AIVX     1  Mu1.0002  In1.010 Se1.019               1.19747255      0.03124229     -0.02505011     -0.00078262
AIVX     1  Mu1.0004  In1.006 Se1.021               2.15127660      0.06029486     -0.02816035     -0.00169792
AIVX     1  Mu1.0002  In1.008 Se1.021               1.61369306     -0.05822318      0.03528600     -0.00205446
AIVX     1  Mu1.0004  In1.008 Se1.022               1.92386865      0.07830062     -0.04131971     -0.00323536
AIVX     1  Mu1.0004  In1.008 Se1.025               2.09988847     -0.09587078      0.04610424     -0.00442005
AIVX     1  Mu1.0005  In1.008 Se1.025               2.25774590      0.06327374     -0.02832866     -0.00179246
AIVX     1  Mu1.0002  In1.010 Se1.025               1.51940184      0.05121688     -0.03324615     -0.00170276
BJAIP    1  Se1.014 In1.008 Se1.014 In1.008         1.84390600      0.06045717     -0.03278756     -0.00198224
BJAIP    1  Se1.022 In1.008 Se1.025 In1.008         2.75288396     -0.07317695      0.02658183     -0.00194518
--
 
   (Skipping property calculation,
    use PROP keyword to activate)
--
 
  Total CASPT2 energies:
::    CASPT2 Root  1     Total energy:   -225.19887650
 
  A NEW JOBIPH FILE NAMED 'JOBMIX' IS PREPARED.
********************************************************************************
--- Stop Module: caspt2 at Wed Nov 20 08:01:34 2024 /rc=_RC_ALL_IS_WELL_ ---
*** files: xmldump
    saved to directory /home/grierjones/DDCASPT2/ozone/ANO-RCC-VTZP/ozone_161.50
--- Module caspt2 spent 1 second ---

>>> EXPORT i = B

>>> EXPORT j = P

>>> IF (-FILE GMJ_e2_${i}_${j}.csv)

>>> COPY /tmp/ozone_161.50/GMJ_RHS_B_P.csv /home/grierjones/DDCASPT2/ozone/ANO-RCC-VTZP/ozone_161.50/GMJ_RHS_B_P.csv

>>> COPY /tmp/ozone_161.50/GMJ_IVECW_B_P.csv /home/grierjones/DDCASPT2/ozone/ANO-RCC-VTZP/ozone_161.50/GMJ_IVECW_B_P.csv

>>> COPY /tmp/ozone_161.50/GMJ_IVECX_B_P.csv /home/grierjones/DDCASPT2/ozone/ANO-RCC-VTZP/ozone_161.50/GMJ_IVECX_B_P.csv

>>> COPY /tmp/ozone_161.50/GMJ_IVECC2_B_P.csv /home/grierjones/DDCASPT2/ozone/ANO-RCC-VTZP/ozone_161.50/GMJ_IVECC2_B_P.csv

>>> COPY /tmp/ozone_161.50/GMJ_e2_B_P.csv /home/grierjones/DDCASPT2/ozone/ANO-RCC-VTZP/ozone_161.50/GMJ_e2_B_P.csv

>>> END FOREACH

>>> EXPORT j = M

>>> IF (-FILE GMJ_e2_${i}_${j}.csv)
(Skipped)

>>> END FOREACH

>>> END FOREACH

>>> EXPORT i = E

>>> EXPORT j = P

>>> IF (-FILE GMJ_e2_${i}_${j}.csv)

>>> COPY /tmp/ozone_161.50/GMJ_RHS_E_P.csv /home/grierjones/DDCASPT2/ozone/ANO-RCC-VTZP/ozone_161.50/GMJ_RHS_E_P.csv

>>> COPY /tmp/ozone_161.50/GMJ_IVECW_E_P.csv /home/grierjones/DDCASPT2/ozone/ANO-RCC-VTZP/ozone_161.50/GMJ_IVECW_E_P.csv

>>> COPY /tmp/ozone_161.50/GMJ_IVECX_E_P.csv /home/grierjones/DDCASPT2/ozone/ANO-RCC-VTZP/ozone_161.50/GMJ_IVECX_E_P.csv

>>> COPY /tmp/ozone_161.50/GMJ_IVECC2_E_P.csv /home/grierjones/DDCASPT2/ozone/ANO-RCC-VTZP/ozone_161.50/GMJ_IVECC2_E_P.csv

>>> COPY /tmp/ozone_161.50/GMJ_e2_E_P.csv /home/grierjones/DDCASPT2/ozone/ANO-RCC-VTZP/ozone_161.50/GMJ_e2_E_P.csv

>>> END FOREACH

>>> EXPORT j = M

>>> IF (-FILE GMJ_e2_${i}_${j}.csv)

>>> COPY /tmp/ozone_161.50/GMJ_RHS_E_M.csv /home/grierjones/DDCASPT2/ozone/ANO-RCC-VTZP/ozone_161.50/GMJ_RHS_E_M.csv

>>> COPY /tmp/ozone_161.50/GMJ_IVECW_E_M.csv /home/grierjones/DDCASPT2/ozone/ANO-RCC-VTZP/ozone_161.50/GMJ_IVECW_E_M.csv

>>> COPY /tmp/ozone_161.50/GMJ_IVECX_E_M.csv /home/grierjones/DDCASPT2/ozone/ANO-RCC-VTZP/ozone_161.50/GMJ_IVECX_E_M.csv

>>> COPY /tmp/ozone_161.50/GMJ_IVECC2_E_M.csv /home/grierjones/DDCASPT2/ozone/ANO-RCC-VTZP/ozone_161.50/GMJ_IVECC2_E_M.csv

>>> COPY /tmp/ozone_161.50/GMJ_e2_E_M.csv /home/grierjones/DDCASPT2/ozone/ANO-RCC-VTZP/ozone_161.50/GMJ_e2_E_M.csv

>>> END FOREACH

>>> END FOREACH

>>> EXPORT i = F

>>> EXPORT j = P

>>> IF (-FILE GMJ_e2_${i}_${j}.csv)

>>> COPY /tmp/ozone_161.50/GMJ_RHS_F_P.csv /home/grierjones/DDCASPT2/ozone/ANO-RCC-VTZP/ozone_161.50/GMJ_RHS_F_P.csv

>>> COPY /tmp/ozone_161.50/GMJ_IVECW_F_P.csv /home/grierjones/DDCASPT2/ozone/ANO-RCC-VTZP/ozone_161.50/GMJ_IVECW_F_P.csv

>>> COPY /tmp/ozone_161.50/GMJ_IVECX_F_P.csv /home/grierjones/DDCASPT2/ozone/ANO-RCC-VTZP/ozone_161.50/GMJ_IVECX_F_P.csv

>>> COPY /tmp/ozone_161.50/GMJ_IVECC2_F_P.csv /home/grierjones/DDCASPT2/ozone/ANO-RCC-VTZP/ozone_161.50/GMJ_IVECC2_F_P.csv

>>> COPY /tmp/ozone_161.50/GMJ_e2_F_P.csv /home/grierjones/DDCASPT2/ozone/ANO-RCC-VTZP/ozone_161.50/GMJ_e2_F_P.csv

>>> END FOREACH

>>> EXPORT j = M

>>> IF (-FILE GMJ_e2_${i}_${j}.csv)

>>> COPY /tmp/ozone_161.50/GMJ_RHS_F_M.csv /home/grierjones/DDCASPT2/ozone/ANO-RCC-VTZP/ozone_161.50/GMJ_RHS_F_M.csv

>>> COPY /tmp/ozone_161.50/GMJ_IVECW_F_M.csv /home/grierjones/DDCASPT2/ozone/ANO-RCC-VTZP/ozone_161.50/GMJ_IVECW_F_M.csv

>>> COPY /tmp/ozone_161.50/GMJ_IVECX_F_M.csv /home/grierjones/DDCASPT2/ozone/ANO-RCC-VTZP/ozone_161.50/GMJ_IVECX_F_M.csv

>>> COPY /tmp/ozone_161.50/GMJ_IVECC2_F_M.csv /home/grierjones/DDCASPT2/ozone/ANO-RCC-VTZP/ozone_161.50/GMJ_IVECC2_F_M.csv

>>> COPY /tmp/ozone_161.50/GMJ_e2_F_M.csv /home/grierjones/DDCASPT2/ozone/ANO-RCC-VTZP/ozone_161.50/GMJ_e2_F_M.csv

>>> END FOREACH

>>> END FOREACH

>>> EXPORT i = G

>>> EXPORT j = P

>>> IF (-FILE GMJ_e2_${i}_${j}.csv)

>>> COPY /tmp/ozone_161.50/GMJ_RHS_G_P.csv /home/grierjones/DDCASPT2/ozone/ANO-RCC-VTZP/ozone_161.50/GMJ_RHS_G_P.csv

>>> COPY /tmp/ozone_161.50/GMJ_IVECW_G_P.csv /home/grierjones/DDCASPT2/ozone/ANO-RCC-VTZP/ozone_161.50/GMJ_IVECW_G_P.csv

>>> COPY /tmp/ozone_161.50/GMJ_IVECX_G_P.csv /home/grierjones/DDCASPT2/ozone/ANO-RCC-VTZP/ozone_161.50/GMJ_IVECX_G_P.csv

>>> COPY /tmp/ozone_161.50/GMJ_IVECC2_G_P.csv /home/grierjones/DDCASPT2/ozone/ANO-RCC-VTZP/ozone_161.50/GMJ_IVECC2_G_P.csv

>>> COPY /tmp/ozone_161.50/GMJ_e2_G_P.csv /home/grierjones/DDCASPT2/ozone/ANO-RCC-VTZP/ozone_161.50/GMJ_e2_G_P.csv

>>> END FOREACH

>>> EXPORT j = M

>>> IF (-FILE GMJ_e2_${i}_${j}.csv)

>>> COPY /tmp/ozone_161.50/GMJ_RHS_G_M.csv /home/grierjones/DDCASPT2/ozone/ANO-RCC-VTZP/ozone_161.50/GMJ_RHS_G_M.csv

>>> COPY /tmp/ozone_161.50/GMJ_IVECW_G_M.csv /home/grierjones/DDCASPT2/ozone/ANO-RCC-VTZP/ozone_161.50/GMJ_IVECW_G_M.csv

>>> COPY /tmp/ozone_161.50/GMJ_IVECX_G_M.csv /home/grierjones/DDCASPT2/ozone/ANO-RCC-VTZP/ozone_161.50/GMJ_IVECX_G_M.csv

>>> COPY /tmp/ozone_161.50/GMJ_IVECC2_G_M.csv /home/grierjones/DDCASPT2/ozone/ANO-RCC-VTZP/ozone_161.50/GMJ_IVECC2_G_M.csv

>>> COPY /tmp/ozone_161.50/GMJ_e2_G_M.csv /home/grierjones/DDCASPT2/ozone/ANO-RCC-VTZP/ozone_161.50/GMJ_e2_G_M.csv

>>> END FOREACH

>>> END FOREACH

>>> EXPORT i = H

>>> EXPORT j = P

>>> IF (-FILE GMJ_e2_${i}_${j}.csv)

>>> COPY /tmp/ozone_161.50/GMJ_RHS_H_P.csv /home/grierjones/DDCASPT2/ozone/ANO-RCC-VTZP/ozone_161.50/GMJ_RHS_H_P.csv

>>> COPY /tmp/ozone_161.50/GMJ_IVECW_H_P.csv /home/grierjones/DDCASPT2/ozone/ANO-RCC-VTZP/ozone_161.50/GMJ_IVECW_H_P.csv

>>> COPY /tmp/ozone_161.50/GMJ_IVECX_H_P.csv /home/grierjones/DDCASPT2/ozone/ANO-RCC-VTZP/ozone_161.50/GMJ_IVECX_H_P.csv

>>> COPY /tmp/ozone_161.50/GMJ_IVECC2_H_P.csv /home/grierjones/DDCASPT2/ozone/ANO-RCC-VTZP/ozone_161.50/GMJ_IVECC2_H_P.csv

>>> COPY /tmp/ozone_161.50/GMJ_e2_H_P.csv /home/grierjones/DDCASPT2/ozone/ANO-RCC-VTZP/ozone_161.50/GMJ_e2_H_P.csv

>>> END FOREACH

>>> EXPORT j = M

>>> IF (-FILE GMJ_e2_${i}_${j}.csv)

>>> COPY /tmp/ozone_161.50/GMJ_RHS_H_M.csv /home/grierjones/DDCASPT2/ozone/ANO-RCC-VTZP/ozone_161.50/GMJ_RHS_H_M.csv

>>> COPY /tmp/ozone_161.50/GMJ_IVECW_H_M.csv /home/grierjones/DDCASPT2/ozone/ANO-RCC-VTZP/ozone_161.50/GMJ_IVECW_H_M.csv

>>> COPY /tmp/ozone_161.50/GMJ_IVECX_H_M.csv /home/grierjones/DDCASPT2/ozone/ANO-RCC-VTZP/ozone_161.50/GMJ_IVECX_H_M.csv

>>> COPY /tmp/ozone_161.50/GMJ_IVECC2_H_M.csv /home/grierjones/DDCASPT2/ozone/ANO-RCC-VTZP/ozone_161.50/GMJ_IVECC2_H_M.csv

>>> COPY /tmp/ozone_161.50/GMJ_e2_H_M.csv /home/grierjones/DDCASPT2/ozone/ANO-RCC-VTZP/ozone_161.50/GMJ_e2_H_M.csv

>>> END FOREACH

>>> END FOREACH

>>> EXPORT i = A

>>> IF (-FILE GMJ_e2_$i.csv)

>>> COPY /tmp/ozone_161.50/GMJ_RHS_A.csv /home/grierjones/DDCASPT2/ozone/ANO-RCC-VTZP/ozone_161.50/GMJ_RHS_A.csv

>>> COPY /tmp/ozone_161.50/GMJ_IVECW_A.csv /home/grierjones/DDCASPT2/ozone/ANO-RCC-VTZP/ozone_161.50/GMJ_IVECW_A.csv

>>> COPY /tmp/ozone_161.50/GMJ_IVECX_A.csv /home/grierjones/DDCASPT2/ozone/ANO-RCC-VTZP/ozone_161.50/GMJ_IVECX_A.csv

>>> COPY /tmp/ozone_161.50/GMJ_IVECC2_A.csv /home/grierjones/DDCASPT2/ozone/ANO-RCC-VTZP/ozone_161.50/GMJ_IVECC2_A.csv

>>> COPY /tmp/ozone_161.50/GMJ_e2_A.csv /home/grierjones/DDCASPT2/ozone/ANO-RCC-VTZP/ozone_161.50/GMJ_e2_A.csv

>>> END FOREACH

>>> EXPORT i = C

>>> IF (-FILE GMJ_e2_$i.csv)

>>> COPY /tmp/ozone_161.50/GMJ_RHS_C.csv /home/grierjones/DDCASPT2/ozone/ANO-RCC-VTZP/ozone_161.50/GMJ_RHS_C.csv

>>> COPY /tmp/ozone_161.50/GMJ_IVECW_C.csv /home/grierjones/DDCASPT2/ozone/ANO-RCC-VTZP/ozone_161.50/GMJ_IVECW_C.csv

>>> COPY /tmp/ozone_161.50/GMJ_IVECX_C.csv /home/grierjones/DDCASPT2/ozone/ANO-RCC-VTZP/ozone_161.50/GMJ_IVECX_C.csv

>>> COPY /tmp/ozone_161.50/GMJ_IVECC2_C.csv /home/grierjones/DDCASPT2/ozone/ANO-RCC-VTZP/ozone_161.50/GMJ_IVECC2_C.csv

>>> COPY /tmp/ozone_161.50/GMJ_e2_C.csv /home/grierjones/DDCASPT2/ozone/ANO-RCC-VTZP/ozone_161.50/GMJ_e2_C.csv

>>> END FOREACH

>>> EXPORT i = D

>>> IF (-FILE GMJ_e2_$i.csv)

>>> COPY /tmp/ozone_161.50/GMJ_RHS_D.csv /home/grierjones/DDCASPT2/ozone/ANO-RCC-VTZP/ozone_161.50/GMJ_RHS_D.csv

>>> COPY /tmp/ozone_161.50/GMJ_IVECW_D.csv /home/grierjones/DDCASPT2/ozone/ANO-RCC-VTZP/ozone_161.50/GMJ_IVECW_D.csv

>>> COPY /tmp/ozone_161.50/GMJ_IVECX_D.csv /home/grierjones/DDCASPT2/ozone/ANO-RCC-VTZP/ozone_161.50/GMJ_IVECX_D.csv

>>> COPY /tmp/ozone_161.50/GMJ_IVECC2_D.csv /home/grierjones/DDCASPT2/ozone/ANO-RCC-VTZP/ozone_161.50/GMJ_IVECC2_D.csv

>>> COPY /tmp/ozone_161.50/GMJ_e2_D.csv /home/grierjones/DDCASPT2/ozone/ANO-RCC-VTZP/ozone_161.50/GMJ_e2_D.csv

>>> END FOREACH

.########################.
.# Non-zero return code #.
.########################.

    Timing: Wall=17.11 User=9.21 System=7.89
********************************************
*** WorkDir at /tmp/ozone_161.50 cleaned ***
********************************************
