[Molden Format]
[N_Atoms]
                     2
[Atoms] (AU)
B1          1      5           0.00000000      0.00000000      0.00000000
B2          2      5           0.00000000      0.00000000      2.26767135
[Charge] (Mulliken)
  0.999999999999615     
   1.00000000000037     
[GTO] (AU)
   1
   s  14
  3.336021700E+04  1.039699991E-04
  4.972095200E+03  5.254399956E-04
  1.125641700E+03  2.509059979E-03
  3.164913600E+02  1.031887991E-02
  1.020072600E+02  3.636632969E-02
  3.629587300E+01  1.064607991E-01
  1.397141000E+01  2.403999880E-01
  5.741156000E+00  3.748581168E-01
  2.494268000E+00  3.100066974E-01
  1.114202000E+00  7.922455933E-02
  4.215490000E-01 -4.947589958E-03
  1.696330000E-01 -7.737119935E-03
  6.853500000E-02 -1.501079987E-03
  2.398700000E-02 -1.333299989E-04
   s  14
  3.336021700E+04 -2.030000008E-05
  4.972095200E+03 -1.025700004E-04
  1.125641700E+03 -4.911300020E-04
  3.164913600E+02 -2.026570008E-03
  1.020072600E+02 -7.261010030E-03
  3.629587300E+01 -2.197722009E-02
  1.397141000E+01 -5.408428022E-02
  5.741156000E+00 -1.022402604E-01
  2.494268000E+00 -1.423595206E-01
  1.114202000E+00 -4.658690019E-02
  4.215490000E-01  3.799402916E-01
  1.696330000E-01  5.890463624E-01
  6.853500000E-02  1.749075107E-01
  2.398700000E-02 -1.142030005E-03
   p   9
  5.500000000E+01  1.229800005E-03
  1.336610100E+01  8.827380035E-03
  4.135394000E+00  3.843340015E-02
  1.481256000E+00  1.150031805E-01
  6.021360000E-01  2.733674011E-01
  2.556360000E-01  4.061972116E-01
  1.111510000E-01  3.014967912E-01
  4.764800000E-02  7.684809030E-02
  1.667700000E-02 -8.170000032E-06
 
   2
   s  14
  3.336021700E+04  1.039699991E-04
  4.972095200E+03  5.254399956E-04
  1.125641700E+03  2.509059979E-03
  3.164913600E+02  1.031887991E-02
  1.020072600E+02  3.636632969E-02
  3.629587300E+01  1.064607991E-01
  1.397141000E+01  2.403999880E-01
  5.741156000E+00  3.748581168E-01
  2.494268000E+00  3.100066974E-01
  1.114202000E+00  7.922455933E-02
  4.215490000E-01 -4.947589958E-03
  1.696330000E-01 -7.737119935E-03
  6.853500000E-02 -1.501079987E-03
  2.398700000E-02 -1.333299989E-04
   s  14
  3.336021700E+04 -2.030000008E-05
  4.972095200E+03 -1.025700004E-04
  1.125641700E+03 -4.911300020E-04
  3.164913600E+02 -2.026570008E-03
  1.020072600E+02 -7.261010030E-03
  3.629587300E+01 -2.197722009E-02
  1.397141000E+01 -5.408428022E-02
  5.741156000E+00 -1.022402604E-01
  2.494268000E+00 -1.423595206E-01
  1.114202000E+00 -4.658690019E-02
  4.215490000E-01  3.799402916E-01
  1.696330000E-01  5.890463624E-01
  6.853500000E-02  1.749075107E-01
  2.398700000E-02 -1.142030005E-03
   p   9
  5.500000000E+01  1.229800005E-03
  1.336610100E+01  8.827380035E-03
  4.135394000E+00  3.843340015E-02
  1.481256000E+00  1.150031805E-01
  6.021360000E-01  2.733674011E-01
  2.556360000E-01  4.061972116E-01
  1.111510000E-01  3.014967912E-01
  4.764800000E-02  7.684809030E-02
  1.667700000E-02 -8.170000032E-06
 
[MO]
Sym=     1a  
Ene=    -8.6845
Spin= Alpha
Occup=    2.00000
   1         0.70597686
   2         0.00994952
   3         0.00000000
   4        -0.00000000
   5         0.00183896
   6         0.70597686
   7         0.00994952
   8        -0.00000000
   9        -0.00000000
  10        -0.00183896
Sym=     2a  
Ene=    -8.6745
Spin= Alpha
Occup=    2.00000
   1        -0.70743732
   2        -0.00798281
   3         0.00000000
   4        -0.00000000
   5         0.00089317
   6         0.70743732
   7         0.00798281
   8        -0.00000000
   9         0.00000000
  10         0.00089317
Sym=     3a  
Ene=    -1.5143
Spin= Alpha
Occup=    2.00000
   1        -0.10827161
   2         0.38987522
   3         0.00000000
   4         0.00000000
   5         0.34353858
   6        -0.10827161
   7         0.38987522
   8        -0.00000000
   9         0.00000000
  10        -0.34353858
Sym=     4a  
Ene=    -0.9021
Spin= Alpha
Occup=    1.00000
   1         0.00000000
   2        -0.00000000
   3        -0.45405642
   4         0.35184174
   5         0.00000000
   6        -0.00000000
   7         0.00000000
   8        -0.45405642
   9         0.35184174
  10         0.00000000
Sym=     5a  
Ene=     0.0000
Spin= Alpha
Occup=    1.00000
   1         0.00000000
   2         0.00000000
   3         0.35184174
   4         0.45405642
   5        -0.00000000
   6         0.00000000
   7        -0.00000000
   8         0.35184174
   9         0.45405642
  10         0.00000000
Sym=     6a  
Ene=    -0.7167
Spin= Alpha
Occup=    0.00000
   1        -0.00154072
   2        -0.64544356
   3         0.00000000
   4        -0.00000000
   5         0.34210427
   6         0.00154072
   7         0.64544356
   8         0.00000000
   9        -0.00000000
  10         0.34210427
Sym=     7a  
Ene=    -0.6647
Spin= Alpha
Occup=    0.00000
   1         0.06096975
   2         0.46445445
   3         0.00000000
   4        -0.00000000
   5        -0.67222585
   6         0.06096975
   7         0.46445445
   8        -0.00000000
   9        -0.00000000
  10         0.67222585
Sym=     8a  
Ene=    -0.4195
Spin= Alpha
Occup=    0.00000
   1         0.00000000
   2         0.00000000
   3        -0.98283516
   4         0.25627605
   5        -0.00000000
   6        -0.00000000
   7        -0.00000000
   8         0.98283516
   9        -0.25627605
  10         0.00000000
Sym=     9a  
Ene=    -0.4195
Spin= Alpha
Occup=    0.00000
   1         0.00000000
   2         0.00000000
   3        -0.25627605
   4        -0.98283516
   5         0.00000000
   6        -0.00000000
   7        -0.00000000
   8         0.25627605
   9         0.98283516
  10         0.00000000
Sym=    10a  
Ene=     0.3530
Spin= Alpha
Occup=    0.00000
   1        -0.55599392
   2        -2.69457759
   3        -0.00000000
   4         0.00000000
   5        -1.75212076
   6         0.55599392
   7         2.69457759
   8         0.00000000
   9         0.00000000
  10        -1.75212076
