[Molden Format]
[N_Atoms]
                     2
[Atoms] (AU)
B1          1      5           0.00000000      0.00000000      0.00000000
B2          2      5           0.00000000      0.00000000      2.26767135
[Charge] (Mulliken)
 -4.831690603168681E-013
  4.831690603168681E-013
[GTO] (AU)
   1
   s  14
  3.336021700E+04  1.039699991E-04
  4.972095200E+03  5.254399956E-04
  1.125641700E+03  2.509059979E-03
  3.164913600E+02  1.031887991E-02
  1.020072600E+02  3.636632969E-02
  3.629587300E+01  1.064607991E-01
  1.397141000E+01  2.403999880E-01
  5.741156000E+00  3.748581168E-01
  2.494268000E+00  3.100066974E-01
  1.114202000E+00  7.922455933E-02
  4.215490000E-01 -4.947589958E-03
  1.696330000E-01 -7.737119935E-03
  6.853500000E-02 -1.501079987E-03
  2.398700000E-02 -1.333299989E-04
   s  14
  3.336021700E+04 -2.030000008E-05
  4.972095200E+03 -1.025700004E-04
  1.125641700E+03 -4.911300020E-04
  3.164913600E+02 -2.026570008E-03
  1.020072600E+02 -7.261010030E-03
  3.629587300E+01 -2.197722009E-02
  1.397141000E+01 -5.408428022E-02
  5.741156000E+00 -1.022402604E-01
  2.494268000E+00 -1.423595206E-01
  1.114202000E+00 -4.658690019E-02
  4.215490000E-01  3.799402916E-01
  1.696330000E-01  5.890463624E-01
  6.853500000E-02  1.749075107E-01
  2.398700000E-02 -1.142030005E-03
   p   9
  5.500000000E+01  1.229800005E-03
  1.336610100E+01  8.827380035E-03
  4.135394000E+00  3.843340015E-02
  1.481256000E+00  1.150031805E-01
  6.021360000E-01  2.733674011E-01
  2.556360000E-01  4.061972116E-01
  1.111510000E-01  3.014967912E-01
  4.764800000E-02  7.684809030E-02
  1.667700000E-02 -8.170000032E-06
 
   2
   s  14
  3.336021700E+04  1.039699991E-04
  4.972095200E+03  5.254399956E-04
  1.125641700E+03  2.509059979E-03
  3.164913600E+02  1.031887991E-02
  1.020072600E+02  3.636632969E-02
  3.629587300E+01  1.064607991E-01
  1.397141000E+01  2.403999880E-01
  5.741156000E+00  3.748581168E-01
  2.494268000E+00  3.100066974E-01
  1.114202000E+00  7.922455933E-02
  4.215490000E-01 -4.947589958E-03
  1.696330000E-01 -7.737119935E-03
  6.853500000E-02 -1.501079987E-03
  2.398700000E-02 -1.333299989E-04
   s  14
  3.336021700E+04 -2.030000008E-05
  4.972095200E+03 -1.025700004E-04
  1.125641700E+03 -4.911300020E-04
  3.164913600E+02 -2.026570008E-03
  1.020072600E+02 -7.261010030E-03
  3.629587300E+01 -2.197722009E-02
  1.397141000E+01 -5.408428022E-02
  5.741156000E+00 -1.022402604E-01
  2.494268000E+00 -1.423595206E-01
  1.114202000E+00 -4.658690019E-02
  4.215490000E-01  3.799402916E-01
  1.696330000E-01  5.890463624E-01
  6.853500000E-02  1.749075107E-01
  2.398700000E-02 -1.142030005E-03
   p   9
  5.500000000E+01  1.229800005E-03
  1.336610100E+01  8.827380035E-03
  4.135394000E+00  3.843340015E-02
  1.481256000E+00  1.150031805E-01
  6.021360000E-01  2.733674011E-01
  2.556360000E-01  4.061972116E-01
  1.111510000E-01  3.014967912E-01
  4.764800000E-02  7.684809030E-02
  1.667700000E-02 -8.170000032E-06
 
[MO]
Sym=     1a  
Ene=    -7.7656
Spin= Alpha
Occup=    2.00000
   1         0.70587292
   2         0.01104701
   3         0.00000000
   4         0.00000000
   5         0.00165541
   6         0.70587292
   7         0.01104701
   8        -0.00000000
   9         0.00000000
  10        -0.00165541
Sym=     2a  
Ene=    -7.7552
Spin= Alpha
Occup=    2.00000
   1        -0.70780662
   2        -0.01057218
   3         0.00000000
   4        -0.00000000
   5         0.00016014
   6         0.70780662
   7         0.01057218
   8        -0.00000000
   9         0.00000000
  10         0.00016014
Sym=     3a  
Ene=    -0.7485
Spin= Alpha
Occup=    2.00000
   1        -0.09980431
   2         0.45132297
   3         0.00000000
   4        -0.00000000
   5         0.24554480
   6        -0.09980431
   7         0.45132297
   8        -0.00000000
   9         0.00000000
  10        -0.24554480
Sym=     4a  
Ene=    -0.3687
Spin= Alpha
Occup=    2.00000
   1         0.00000000
   2        -0.00000000
   3        -0.07227669
   4         0.56985605
   5         0.00000000
   6        -0.00000000
   7         0.00000000
   8        -0.07227669
   9         0.56985605
  10         0.00000000
Sym=     5a  
Ene=    -0.3127
Spin= Alpha
Occup=    1.64468
   1        -0.00000000
   2        -0.00000000
   3         0.56985605
   4         0.07227669
   5         0.00000000
   6         0.00000000
   7         0.00000000
   8         0.56985605
   9         0.07227669
  10         0.00000000
Sym=     6a  
Ene=    -0.0002
Spin= Alpha
Occup=    0.35532
   1        -0.02125656
   2        -0.74490518
   3        -0.00000000
   4        -0.00000000
   5         0.27689815
   6         0.02125656
   7         0.74490518
   8        -0.00000000
   9        -0.00000000
  10         0.27689815
Sym=     7a  
Ene=     0.0193
Spin= Alpha
Occup=    0.00000
   1         0.07500595
   2         0.40497551
   3        -0.00000000
   4        -0.00000000
   5        -0.71387305
   6         0.07500595
   7         0.40497551
   8        -0.00000000
   9         0.00000000
  10         0.71387305
Sym=     8a  
Ene=     0.2810
Spin= Alpha
Occup=    0.00000
   1         0.00000000
   2        -0.00000000
   3         0.12780043
   4        -1.00762563
   5         0.00000000
   6        -0.00000000
   7        -0.00000000
   8        -0.12780043
   9         1.00762563
  10        -0.00000000
Sym=     9a  
Ene=     0.2863
Spin= Alpha
Occup=    0.00000
   1         0.00000000
   2         0.00000000
   3        -1.00762563
   4        -0.12780043
   5        -0.00000000
   6        -0.00000000
   7        -0.00000000
   8         1.00762563
   9         0.12780043
  10        -0.00000000
Sym=    10a  
Ene=     1.1252
Spin= Alpha
Occup=    0.00000
   1        -0.55511901
   2        -2.66878512
   3        -0.00000000
   4         0.00000000
   5        -1.76360162
   6         0.55511901
   7         2.66878512
   8        -0.00000000
   9         0.00000000
  10        -1.76360162
