[Molden Format]
[N_Atoms]
                     2
[Atoms] (AU)
BE1         1      4           0.00000000      0.00000000      0.00000000
LI2         2      3           0.00000000      0.00000000      1.51178090
[Charge] (Mulliken)
 -0.102542317365386     
  0.102542317365369     
[GTO] (AU)
   1
   s  14
  2.262859900E+04  8.443999941E-05
  3.372318100E+03  4.601499968E-04
  7.603504000E+02  2.285389984E-03
  2.117404800E+02  9.648129932E-03
  6.722346800E+01  3.494469975E-02
  2.337217700E+01  1.061099893E-01
  8.721373000E+00  2.458240383E-01
  3.468091000E+00  3.862428773E-01
  1.452144000E+00  3.105526078E-01
  6.086150000E-01  6.415933955E-02
  2.576860000E-01 -2.265049984E-03
  1.041760000E-01 -5.217499963E-04
  4.242700000E-02 -8.757499938E-04
  1.484900000E-02  1.242199991E-04
   s  14
  2.262859900E+04 -1.586999994E-05
  3.372318100E+03 -8.656999968E-05
  7.603504000E+02 -4.302199984E-04
  2.117404800E+02 -1.825079993E-03
  6.722346800E+01 -6.682749976E-03
  2.337217700E+01 -2.095119992E-02
  8.721373000E+00 -5.200308981E-02
  3.468091000E+00 -9.849176964E-02
  1.452144000E+00 -1.355800695E-01
  6.086150000E-01 -6.429875976E-02
  2.576860000E-01  3.125414989E-01
  1.041760000E-01  6.270468577E-01
  4.242700000E-02  2.110231492E-01
  1.484900000E-02 -4.104669985E-03
   p   9
  3.371018400E+01  1.069960000E-03
  8.057649500E+00  6.828550001E-03
  2.836471400E+00  2.119065000E-02
  1.099965700E+00  5.843696001E-02
  4.433964000E-01  2.020920800E-01
  1.822264000E-01  4.582953101E-01
  7.572410000E-02  3.691239601E-01
  3.168540000E-02  6.611471001E-02
  1.108990000E-02  1.405160000E-03
 
   2
   s  14
  9.497934400E+03  9.668999974E-05
  1.416811200E+03  6.087099984E-04
  3.214599400E+02  3.101519992E-03
  9.112416300E+01  1.266904997E-02
  2.999989100E+01  4.248012989E-02
  1.101763100E+01  1.150183297E-01
  4.372801000E+00  2.398650094E-01
  1.831256000E+00  3.584300090E-01
  8.022610000E-01  3.048527792E-01
  3.626480000E-01  8.824261976E-02
  1.139950000E-01 -8.445899977E-04
  5.123700000E-02 -7.943959979E-03
  2.246800000E-02 -3.764419990E-03
  7.860000000E-03 -8.868999976E-05
   s  14
  9.497934400E+03 -1.244999993E-05
  1.416811200E+03 -7.838999954E-05
  3.214599400E+02 -4.007099976E-04
  9.112416300E+01 -1.645249990E-03
  2.999989100E+01 -5.634599967E-03
  1.101763100E+01 -1.590780991E-02
  4.372801000E+00 -3.612581979E-02
  1.831256000E+00 -6.459927962E-02
  8.022610000E-01 -1.008321794E-01
  3.626480000E-01 -9.757613942E-02
  1.139950000E-01  2.301215886E-01
  5.123700000E-02  6.102389764E-01
  2.246800000E-02  2.849406083E-01
  7.860000000E-03  4.026899976E-03
   p   9
  1.311950400E+01  1.524940000E-03
  3.077424200E+00  8.314830000E-03
  1.098800500E+00  1.933203000E-02
  4.357784000E-01  4.934293000E-02
  1.802432000E-01  1.623554000E-01
  7.613330000E-02  3.847505400E-01
  3.254650000E-02  4.336100400E-01
  1.401820000E-02  1.287005900E-01
  4.906400000E-03 -1.018520000E-03
 
[MO]
Sym=     1a  
Ene=    -5.1590
Spin= Alpha
Occup=    2.00000
   1         0.98565145
   2        -0.01506612
   3         0.00000000
   4         0.00000000
   5         0.00550488
   6         0.06944359
   7         0.01356269
   8        -0.00000000
   9        -0.00000000
  10        -0.01257822
Sym=     2a  
Ene=    -2.9806
Spin= Alpha
Occup=    2.00000
   1        -0.20038488
   2         0.05559084
   3        -0.00000001
   4        -0.00000000
   5        -0.00915837
   6         0.98922674
   7         0.04205075
   8         0.00000000
   9         0.00000000
  10        -0.02827846
Sym=     3a  
Ene=    -0.4270
Spin= Alpha
Occup=    2.00000
   1         0.04564719
   2         0.98439795
   3        -0.00000005
   4        -0.00000002
   5        -0.17728588
   6        -0.31654486
   7         0.03427502
   8         0.00000001
   9         0.00000000
  10         0.01948405
Sym=     4a  
Ene=    -0.0017
Spin= Alpha
Occup=    1.00000
   1         0.02669399
   2        -0.21208982
   3         0.00000061
   4         0.00000022
   5         0.27911148
   6        -0.05105622
   7         0.66910091
   8         0.00000017
   9         0.00000006
  10         0.57218146
Sym=     5a  
Ene=    -0.0814
Spin= Alpha
Occup=    0.00000
   1         0.00000000
   2        -0.00000000
   3        -0.26335485
   4         0.71074922
   5         0.00000000
   6        -0.00000000
   7         0.00000001
   8        -0.10243447
   9         0.27645291
  10         0.00000001
Sym=     6a  
Ene=    -0.0814
Spin= Alpha
Occup=    0.00000
   1        -0.00000003
   2         0.00000021
   3         0.71074922
   4         0.26335485
   5        -0.00000017
   6         0.00000001
   7        -0.00000053
   8         0.27645291
   9         0.10243447
  10        -0.00000051
Sym=     7a  
Ene=     0.1426
Spin= Alpha
Occup=    0.00000
   1         0.00000004
   2         0.00000014
   3        -1.14632616
   4        -0.67673340
   5        -0.00000006
   6        -0.00000002
   7        -0.00000012
   8         1.29446826
   9         0.76418906
  10         0.00000015
Sym=     8a  
Ene=     0.1426
Spin= Alpha
Occup=    0.00000
   1        -0.00000001
   2        -0.00000003
   3         0.67673340
   4        -1.14632616
   5         0.00000001
   6         0.00000000
   7         0.00000002
   8        -0.76418906
   9         1.29446826
  10        -0.00000003
Sym=     9a  
Ene=     0.1725
Spin= Alpha
Occup=    0.00000
   1         0.45716491
   2         1.95389097
   3         0.00000013
   4         0.00000005
   5        -0.82125799
   6        -0.27372538
   7        -1.67842381
   8        -0.00000011
   9        -0.00000004
  10         1.60651946
Sym=    10a  
Ene=     0.3482
Spin= Alpha
Occup=    0.00000
   1        -0.26676458
   2        -1.58365903
   3         0.00000002
   4         0.00000001
   5        -1.14343330
   6         0.93062811
   7         1.58678962
   8         0.00000001
   9         0.00000000
  10         0.07950232
