[Molden Format]
[N_Atoms]
                     2
[Atoms] (AU)
BE1         1      4           0.00000000      0.00000000      0.00000000
LI2         2      3           0.00000000      0.00000000      1.51178090
[Charge] (Mulliken)
 -0.104059858837041     
  0.104059858837022     
[GTO] (AU)
   1
   s  14
  2.262859900E+04  8.443999941E-05
  3.372318100E+03  4.601499968E-04
  7.603504000E+02  2.285389984E-03
  2.117404800E+02  9.648129932E-03
  6.722346800E+01  3.494469975E-02
  2.337217700E+01  1.061099893E-01
  8.721373000E+00  2.458240383E-01
  3.468091000E+00  3.862428773E-01
  1.452144000E+00  3.105526078E-01
  6.086150000E-01  6.415933955E-02
  2.576860000E-01 -2.265049984E-03
  1.041760000E-01 -5.217499963E-04
  4.242700000E-02 -8.757499938E-04
  1.484900000E-02  1.242199991E-04
   s  14
  2.262859900E+04 -1.586999994E-05
  3.372318100E+03 -8.656999968E-05
  7.603504000E+02 -4.302199984E-04
  2.117404800E+02 -1.825079993E-03
  6.722346800E+01 -6.682749976E-03
  2.337217700E+01 -2.095119992E-02
  8.721373000E+00 -5.200308981E-02
  3.468091000E+00 -9.849176964E-02
  1.452144000E+00 -1.355800695E-01
  6.086150000E-01 -6.429875976E-02
  2.576860000E-01  3.125414989E-01
  1.041760000E-01  6.270468577E-01
  4.242700000E-02  2.110231492E-01
  1.484900000E-02 -4.104669985E-03
   p   9
  3.371018400E+01  1.069960000E-03
  8.057649500E+00  6.828550001E-03
  2.836471400E+00  2.119065000E-02
  1.099965700E+00  5.843696001E-02
  4.433964000E-01  2.020920800E-01
  1.822264000E-01  4.582953101E-01
  7.572410000E-02  3.691239601E-01
  3.168540000E-02  6.611471001E-02
  1.108990000E-02  1.405160000E-03
 
   2
   s  14
  9.497934400E+03  9.668999974E-05
  1.416811200E+03  6.087099984E-04
  3.214599400E+02  3.101519992E-03
  9.112416300E+01  1.266904997E-02
  2.999989100E+01  4.248012989E-02
  1.101763100E+01  1.150183297E-01
  4.372801000E+00  2.398650094E-01
  1.831256000E+00  3.584300090E-01
  8.022610000E-01  3.048527792E-01
  3.626480000E-01  8.824261976E-02
  1.139950000E-01 -8.445899977E-04
  5.123700000E-02 -7.943959979E-03
  2.246800000E-02 -3.764419990E-03
  7.860000000E-03 -8.868999976E-05
   s  14
  9.497934400E+03 -1.244999993E-05
  1.416811200E+03 -7.838999954E-05
  3.214599400E+02 -4.007099976E-04
  9.112416300E+01 -1.645249990E-03
  2.999989100E+01 -5.634599967E-03
  1.101763100E+01 -1.590780991E-02
  4.372801000E+00 -3.612581979E-02
  1.831256000E+00 -6.459927962E-02
  8.022610000E-01 -1.008321794E-01
  3.626480000E-01 -9.757613942E-02
  1.139950000E-01  2.301215886E-01
  5.123700000E-02  6.102389764E-01
  2.246800000E-02  2.849406083E-01
  7.860000000E-03  4.026899976E-03
   p   9
  1.311950400E+01  1.524940000E-03
  3.077424200E+00  8.314830000E-03
  1.098800500E+00  1.933203000E-02
  4.357784000E-01  4.934293000E-02
  1.802432000E-01  1.623554000E-01
  7.613330000E-02  3.847505400E-01
  3.254650000E-02  4.336100400E-01
  1.401820000E-02  1.287005900E-01
  4.906400000E-03 -1.018520000E-03
 
[MO]
Sym=     1a  
Ene=    -5.1608
Spin= Alpha
Occup=    1.00000
   1         0.98525895
   2        -0.02082377
   3        -0.00000000
   4         0.00000000
   5         0.00641161
   6         0.07201989
   7         0.01334888
   8         0.00000000
   9         0.00000000
  10        -0.01251484
Sym=     1a  
Ene=    -5.1577
Spin= Beta
Occup=    1.00000
   1         0.98517971
   2        -0.02124736
   3        -0.00000000
   4         0.00000000
   5         0.00672278
   6         0.07211913
   7         0.01346073
   8         0.00000000
   9        -0.00000000
  10        -0.01281786
Sym=     2a  
Ene=    -3.0139
Spin= Alpha
Occup=    1.00000
   1        -0.20554312
   2        -0.05402095
   3         0.00000000
   4        -0.00000000
   5         0.01020525
   6         1.01831481
   7         0.03865787
   8        -0.00000000
   9         0.00000000
  10        -0.02985502
Sym=     2a  
Ene=    -3.0075
Spin= Beta
Occup=    1.00000
   1        -0.20556623
   2        -0.05323250
   3         0.00000000
   4        -0.00000000
   5         0.01099153
   6         1.01776316
   7         0.03755687
   8         0.00000000
   9        -0.00000000
  10        -0.03054410
Sym=     3a  
Ene=    -0.4147
Spin= Alpha
Occup=    1.00000
   1         0.04022996
   2         0.99819099
   3         0.00000000
   4        -0.00000000
   5        -0.20824227
   6        -0.19739681
   7         0.06228197
   8        -0.00000000
   9         0.00000000
  10         0.10983875
Sym=     3a  
Ene=    -0.3764
Spin= Beta
Occup=    1.00000
   1         0.01958466
   2         0.94517731
   3        -0.00000000
   4         0.00000000
   5        -0.12168473
   6        -0.21472369
   7         0.07606405
   8         0.00000000
   9        -0.00000000
  10        -0.02905964
Sym=     4a  
Ene=    -0.2151
Spin= Alpha
Occup=    1.00000
   1         0.01918116
   2        -0.29985574
   3        -0.00000000
   4         0.00000000
   5         0.30856864
   6        -0.03803154
   7         0.68202073
   8        -0.00000000
   9         0.00000000
  10         0.54517430
Sym=     4a  
Ene=    -0.0763
Spin= Beta
Occup=    0.00000
   1        -0.00000000
   2        -0.00000000
   3         0.75904071
   4         0.20192636
   5         0.00000000
   6        -0.00000000
   7         0.00000000
   8         0.25469445
   9         0.06775595
  10         0.00000000
Sym=     5a  
Ene=    -0.0861
Spin= Alpha
Occup=    0.00000
   1         0.00000000
   2        -0.00000000
   3         0.70895660
   4         0.16702753
   5         0.00000000
   6        -0.00000000
   7         0.00000000
   8         0.31922997
   9         0.07520939
  10         0.00000000
Sym=     5a  
Ene=    -0.0763
Spin= Beta
Occup=    0.00000
   1         0.00000000
   2         0.00000000
   3        -0.20192636
   4         0.75904071
   5        -0.00000000
   6         0.00000000
   7        -0.00000000
   8        -0.06775595
   9         0.25469445
  10        -0.00000000
Sym=     6a  
Ene=    -0.0861
Spin= Alpha
Occup=    0.00000
   1        -0.00000000
   2         0.00000000
   3        -0.16702753
   4         0.70895660
   5        -0.00000000
   6         0.00000000
   7        -0.00000000
   8        -0.07520939
   9         0.31922997
  10        -0.00000000
Sym=     6a  
Ene=     0.0373
Spin= Beta
Occup=    0.00000
   1         0.02205093
   2        -0.25620226
   3        -0.00000000
   4         0.00000000
   5         0.25486367
   6        -0.02845613
   7         0.69597988
   8         0.00000000
   9        -0.00000000
  10         0.57907915
Sym=     7a  
Ene=     0.1310
Spin= Alpha
Occup=    0.00000
   1        -0.00000000
   2        -0.00000000
   3        -1.18685038
   4        -0.63829501
   5         0.00000000
   6         0.00000000
   7         0.00000000
   8         1.31783127
   9         0.70873729
  10        -0.00000000
Sym=     7a  
Ene=     0.1551
Spin= Beta
Occup=    0.00000
   1         0.00000000
   2         0.00000000
   3        -1.19292126
   4        -0.55369110
   5        -0.00000000
   6        -0.00000000
   7        -0.00000000
   8         1.36875219
   9         0.63530254
  10         0.00000000
Sym=     8a  
Ene=     0.1310
Spin= Alpha
Occup=    0.00000
   1         0.00000000
   2         0.00000000
   3         0.63829501
   4        -1.18685038
   5        -0.00000000
   6        -0.00000000
   7        -0.00000000
   8        -0.70873729
   9         1.31783127
  10         0.00000000
Sym=     8a  
Ene=     0.1551
Spin= Beta
Occup=    0.00000
   1        -0.00000000
   2        -0.00000000
   3         0.55369110
   4        -1.19292126
   5         0.00000000
   6         0.00000000
   7         0.00000000
   8        -0.63530254
   9         1.36875219
  10        -0.00000000
Sym=     9a  
Ene=     0.1596
Spin= Alpha
Occup=    0.00000
   1         0.44394965
   2         1.84422175
   3        -0.00000000
   4         0.00000000
   5        -0.86034599
   6        -0.22606070
   7        -1.59873023
   8         0.00000000
   9        -0.00000000
  10         1.61416963
Sym=     9a  
Ene=     0.1854
Spin= Beta
Occup=    0.00000
   1         0.47008307
   2         2.05882784
   3         0.00000000
   4        -0.00000000
   5        -0.77163467
   6        -0.32417079
   7        -1.75139431
   8        -0.00000000
   9         0.00000000
  10         1.59943261
Sym=    10a  
Ene=     0.3396
Spin= Alpha
Occup=    0.00000
   1        -0.28733497
   2        -1.68884580
   3        -0.00000000
   4         0.00000000
   5        -1.10110497
   6         0.94526523
   7         1.66108052
   8         0.00000000
   9        -0.00000000
  10         0.00913262
Sym=    10a  
Ene=     0.3589
Spin= Beta
Occup=    0.00000
   1        -0.24482194
   2        -1.46353942
   3         0.00000000
   4        -0.00000000
   5        -1.18995938
   6         0.91331695
   7         1.49220752
   8        -0.00000000
   9         0.00000000
  10         0.14316239
