[Molden Format]
[N_Atoms]
                     2
[Atoms] (AU)
H1          1      1           0.00000000      0.00000000      0.00000000
O2          2      8           0.00000000      0.00000000      2.26767135
[Charge] (Mulliken)
  0.307388098398122     
 -0.307388098398132     
[GTO] (AU)
   1
   s   8
  1.886144500E+02  9.638500027E-04
  2.827659600E+01  7.491960021E-03
  6.424830000E+00  3.759541011E-02
  1.815041000E+00  1.433949804E-01
  5.910630000E-01  3.486363010E-01
  2.121490000E-01  4.382973612E-01
  7.989100000E-02  1.651066105E-01
  2.796200000E-02  2.102287006E-02
 
   2
   s  14
  1.053749500E+05  1.238600013E-04
  1.567924000E+04  5.120100053E-04
  3.534544700E+03  2.152910022E-03
  9.873651600E+02  8.528440089E-03
  3.159787500E+02  3.018049031E-02
  1.116542800E+02  9.099702095E-02
  4.269945100E+01  2.177936423E-01
  1.739559600E+01  3.686245738E-01
  7.438309000E+00  3.366707335E-01
  3.222862000E+00  9.657630101E-02
  1.253877000E+00  2.144520022E-03
  4.951550000E-01  1.194350012E-03
  1.916650000E-01  5.390200056E-04
  6.708300000E-02  2.103400022E-04
   s  14
  1.053749500E+05 -2.815000008E-05
  1.567924000E+04 -1.163000003E-04
  3.534544700E+03 -4.909200013E-04
  9.873651600E+02 -1.946160005E-03
  3.159787500E+02 -7.005300019E-03
  1.116542800E+02 -2.167814006E-02
  4.269945100E+01 -5.641213015E-02
  1.739559600E+01 -1.127053003E-01
  7.438309000E+00 -1.589119704E-01
  3.222862000E+00 -3.355083009E-02
  1.253877000E+00  3.531902810E-01
  4.951550000E-01  5.534199315E-01
  1.916650000E-01  2.301839106E-01
  6.708300000E-02  1.127267003E-02
   p   9
  2.000000000E+02  9.173000030E-04
  4.653336700E+01  7.377140024E-03
  1.462180900E+01  3.483515011E-02
  5.313064000E+00  1.144397004E-01
  2.102525000E+00  2.554966408E-01
  8.502230000E-01  3.722557412E-01
  3.375970000E-01  3.323314911E-01
  1.288920000E-01  1.400847905E-01
  4.511200000E-02  2.395784008E-02
 
[MO]
Sym=     1a  
Ene=   -20.6480
Spin= Alpha
Occup=    1.00000
   1        -0.00090520
   2         1.00003358
   3         0.00143258
   4         0.00000000
   5        -0.00000000
   6        -0.00122748
Sym=     1a  
Ene=   -20.6060
Spin= Beta
Occup=    1.00000
   1        -0.00036990
   2         1.00001327
   3        -0.00093078
   4         0.00000000
   5        -0.00000000
   6        -0.00098107
Sym=     2a  
Ene=    -1.3487
Spin= Alpha
Occup=    1.00000
   1         0.08267678
   2        -0.00431075
   3         0.96020170
   4        -0.00000000
   5        -0.00000000
   6        -0.07967627
Sym=     2a  
Ene=    -1.1777
Spin= Beta
Occup=    1.00000
   1         0.15532389
   2        -0.00499102
   3         0.92519418
   4        -0.00000000
   5        -0.00000000
   6        -0.06376343
Sym=     3a  
Ene=    -0.6454
Spin= Alpha
Occup=    1.00000
   1        -0.00000000
   2         0.00000000
   3         0.00000000
   4        -0.00000000
   5         1.00000000
   6         0.00000000
Sym=     3a  
Ene=    -0.5658
Spin= Beta
Occup=    1.00000
   1        -0.53500812
   2         0.02138359
   3         0.37079393
   4         0.00000000
   5         0.00000000
   6         0.67554220
Sym=     4a  
Ene=    -0.6172
Spin= Alpha
Occup=    1.00000
   1        -0.38871183
   2         0.01541264
   3         0.27426340
   4         0.00000000
   5        -0.00000000
   6         0.79043014
Sym=     4a  
Ene=    -0.5201
Spin= Beta
Occup=    1.00000
   1         0.00000000
   2        -0.00000000
   3        -0.00000000
   4         1.00000000
   5         0.00000000
   6        -0.00000000
Sym=     5a  
Ene=    -0.5663
Spin= Alpha
Occup=    1.00000
   1         0.00000000
   2        -0.00000000
   3        -0.00000000
   4         1.00000000
   5         0.00000000
   6        -0.00000000
Sym=     5a  
Ene=     0.1590
Spin= Beta
Occup=    0.00000
   1         0.00000000
   2        -0.00000000
   3        -0.00000000
   4        -0.00000000
   5         1.00000000
   6         0.00000000
Sym=     6a  
Ene=     0.2574
Spin= Alpha
Occup=    0.00000
   1         1.11252000
   2        -0.04179921
   3        -0.44892729
   4        -0.00000000
   5        -0.00000000
   6         0.75079180
Sym=     6a  
Ene=     0.2856
Spin= Beta
Occup=    0.00000
   1         1.04176512
   2        -0.03951912
   3        -0.45306976
   4         0.00000000
   5        -0.00000000
   6         0.85696788
