[Molden Format]
[N_Atoms]
                     2
[Atoms] (AU)
B1          1      5           0.00000000      0.00000000      0.00000000
BE2         2      4           0.00000000      0.00000000      3.21253441
[Charge] (Mulliken)
 -0.165244998433758     
  0.165244998433712     
[GTO] (AU)
   1
   s  14
  3.336021700E+04  1.039699991E-04
  4.972095200E+03  5.254399956E-04
  1.125641700E+03  2.509059979E-03
  3.164913600E+02  1.031887991E-02
  1.020072600E+02  3.636632969E-02
  3.629587300E+01  1.064607991E-01
  1.397141000E+01  2.403999880E-01
  5.741156000E+00  3.748581168E-01
  2.494268000E+00  3.100066974E-01
  1.114202000E+00  7.922455933E-02
  4.215490000E-01 -4.947589958E-03
  1.696330000E-01 -7.737119935E-03
  6.853500000E-02 -1.501079987E-03
  2.398700000E-02 -1.333299989E-04
   s  14
  3.336021700E+04 -2.030000008E-05
  4.972095200E+03 -1.025700004E-04
  1.125641700E+03 -4.911300020E-04
  3.164913600E+02 -2.026570008E-03
  1.020072600E+02 -7.261010030E-03
  3.629587300E+01 -2.197722009E-02
  1.397141000E+01 -5.408428022E-02
  5.741156000E+00 -1.022402604E-01
  2.494268000E+00 -1.423595206E-01
  1.114202000E+00 -4.658690019E-02
  4.215490000E-01  3.799402916E-01
  1.696330000E-01  5.890463624E-01
  6.853500000E-02  1.749075107E-01
  2.398700000E-02 -1.142030005E-03
   p   9
  5.500000000E+01  1.229800005E-03
  1.336610100E+01  8.827380035E-03
  4.135394000E+00  3.843340015E-02
  1.481256000E+00  1.150031805E-01
  6.021360000E-01  2.733674011E-01
  2.556360000E-01  4.061972116E-01
  1.111510000E-01  3.014967912E-01
  4.764800000E-02  7.684809030E-02
  1.667700000E-02 -8.170000032E-06
 
   2
   s  14
  2.262859900E+04  8.443999941E-05
  3.372318100E+03  4.601499968E-04
  7.603504000E+02  2.285389984E-03
  2.117404800E+02  9.648129932E-03
  6.722346800E+01  3.494469975E-02
  2.337217700E+01  1.061099893E-01
  8.721373000E+00  2.458240383E-01
  3.468091000E+00  3.862428773E-01
  1.452144000E+00  3.105526078E-01
  6.086150000E-01  6.415933955E-02
  2.576860000E-01 -2.265049984E-03
  1.041760000E-01 -5.217499963E-04
  4.242700000E-02 -8.757499938E-04
  1.484900000E-02  1.242199991E-04
   s  14
  2.262859900E+04 -1.586999994E-05
  3.372318100E+03 -8.656999968E-05
  7.603504000E+02 -4.302199984E-04
  2.117404800E+02 -1.825079993E-03
  6.722346800E+01 -6.682749976E-03
  2.337217700E+01 -2.095119992E-02
  8.721373000E+00 -5.200308981E-02
  3.468091000E+00 -9.849176964E-02
  1.452144000E+00 -1.355800695E-01
  6.086150000E-01 -6.429875976E-02
  2.576860000E-01  3.125414989E-01
  1.041760000E-01  6.270468577E-01
  4.242700000E-02  2.110231492E-01
  1.484900000E-02 -4.104669985E-03
   p   9
  3.371018400E+01  1.069960000E-03
  8.057649500E+00  6.828550001E-03
  2.836471400E+00  2.119065000E-02
  1.099965700E+00  5.843696001E-02
  4.433964000E-01  2.020920800E-01
  1.822264000E-01  4.582953101E-01
  7.572410000E-02  3.691239601E-01
  3.168540000E-02  6.611471001E-02
  1.108990000E-02  1.405160000E-03
 
[MO]
Sym=     1a  
Ene=    -7.6466
Spin= Alpha
Occup=    1.00000
   1         1.00008346
   2         0.01899690
   3         0.00000000
   4         0.00000000
   5         0.00131093
   6        -0.00042526
   7        -0.00187284
   8         0.00000000
   9         0.00000000
  10         0.00129455
Sym=     1a  
Ene=    -7.6152
Spin= Beta
Occup=    1.00000
   1         0.99999793
   2         0.01426934
   3         0.00000000
   4         0.00000000
   5         0.00129884
   6        -0.00018721
   7        -0.00089040
   8        -0.00000000
   9         0.00000000
  10         0.00040907
Sym=     2a  
Ene=    -4.7231
Spin= Alpha
Occup=    1.00000
   1        -0.00069005
   2         0.00025558
   3         0.00000000
   4         0.00000000
   5         0.00118172
   6         0.99983022
   7         0.00331079
   8        -0.00000000
   9         0.00000000
  10        -0.00163809
Sym=     2a  
Ene=    -4.7350
Spin= Beta
Occup=    1.00000
   1        -0.00038556
   2         0.00151842
   3         0.00000000
   4         0.00000000
   5         0.00132697
   6         0.99973287
   7         0.00280367
   8        -0.00000000
   9         0.00000000
  10         0.00036297
Sym=     3a  
Ene=    -0.6340
Spin= Alpha
Occup=    1.00000
   1        -0.04676447
   2         0.77422443
   3         0.00000000
   4        -0.00000000
   5         0.04124562
   6        -0.05810985
   7         0.21924072
   8        -0.00000000
   9         0.00000000
  10        -0.17582298
Sym=     3a  
Ene=    -0.5145
Spin= Beta
Occup=    1.00000
   1        -0.04693074
   2         0.60854923
   3         0.00000000
   4         0.00000000
   5         0.29085829
   6        -0.07802170
   7         0.34507498
   8         0.00000000
   9        -0.00000000
  10        -0.15534013
Sym=     4a  
Ene=    -0.3865
Spin= Alpha
Occup=    1.00000
   1        -0.03165815
   2        -0.42932062
   3         0.00000000
   4        -0.00000000
   5         0.81281317
   6        -0.07330157
   7         0.27876272
   8         0.00000000
   9        -0.00000000
  10        -0.19231992
Sym=     4a  
Ene=    -0.3063
Spin= Beta
Occup=    1.00000
   1         0.02376669
   2        -0.23538874
   3         0.00000000
   4        -0.00000000
   5        -0.06674355
   6         0.02131792
   7         0.75972798
   8         0.00000000
   9        -0.00000000
  10         0.63182043
Sym=     5a  
Ene=    -0.3236
Spin= Alpha
Occup=    1.00000
   1        -0.00000000
   2        -0.00000000
   3        -0.34146449
   4         0.80150121
   5         0.00000000
   6        -0.00000000
   7         0.00000000
   8        -0.10250079
   9         0.24059459
  10        -0.00000000
Sym=     5a  
Ene=     0.0268
Spin= Beta
Occup=    0.00000
   1         0.00000000
   2         0.00000000
   3         0.41425363
   4         0.17648496
   5        -0.00000000
   6        -0.00000000
   7        -0.00000000
   8         0.67938344
   9         0.28943852
  10        -0.00000000
Sym=     6a  
Ene=     0.0168
Spin= Alpha
Occup=    0.00000
   1         0.00000000
   2         0.00000000
   3         0.61115185
   4         0.26036974
   5        -0.00000000
   6         0.00000000
   7        -0.00000000
   8         0.49408003
   9         0.21049349
  10         0.00000000
Sym=     6a  
Ene=     0.0501
Spin= Beta
Occup=    0.00000
   1         0.00000000
   2         0.00000000
   3        -0.15070647
   4         0.35374519
   5        -0.00000000
   6         0.00000000
   7         0.00000000
   8        -0.30920114
   9         0.72577119
  10         0.00000000
Sym=     7a  
Ene=     0.1002
Spin= Alpha
Occup=    0.00000
   1         0.00317363
   2        -0.17940177
   3         0.00000000
   4        -0.00000000
   5        -0.34792775
   6         0.05255866
   7         0.89954778
   8        -0.00000000
   9         0.00000000
  10         0.52576133
Sym=     7a  
Ene=     0.1498
Spin= Beta
Occup=    0.00000
   1         0.04062067
   2         0.73301573
   3        -0.00000000
   4        -0.00000000
   5        -0.71326706
   6         0.03967202
   7        -0.11116647
   8         0.00000000
   9        -0.00000000
  10         0.39867204
Sym=     8a  
Ene=     0.1780
Spin= Alpha
Occup=    0.00000
   1         0.00000000
   2         0.00000000
   3         0.25051233
   4        -0.58801411
   5         0.00000000
   6        -0.00000000
   7        -0.00000000
   8        -0.41091120
   9         0.96450973
  10        -0.00000000
Sym=     8a  
Ene=     0.2449
Spin= Beta
Occup=    0.00000
   1        -0.00000000
   2        -0.00000000
   3        -0.90363638
   4        -0.38497726
   5         0.00000000
   6         0.00000000
   7         0.00000000
   8         0.72567411
   9         0.30915979
  10        -0.00000000
Sym=     9a  
Ene=     0.2312
Spin= Alpha
Occup=    0.00000
   1        -0.00000000
   2        -0.00000000
   3        -0.78400139
   4        -0.33400903
   5         0.00000000
   6         0.00000000
   7         0.00000000
   8         0.86258315
   9         0.36748730
  10        -0.00000000
Sym=     9a  
Ene=     0.2787
Spin= Beta
Occup=    0.00000
   1         0.00000000
   2         0.00000000
   3         0.39578023
   4        -0.92899360
   5         0.00000000
   6        -0.00000000
   7        -0.00000000
   8        -0.28939434
   9         0.67927974
  10         0.00000000
Sym=    10a  
Ene=     0.5384
Spin= Alpha
Occup=    0.00000
   1         0.21253433
   2         1.52252166
   3        -0.00000000
   4         0.00000000
   5         1.03841855
   6        -0.22218951
   7        -1.29604912
   8         0.00000000
   9        -0.00000000
  10         1.42303948
Sym=    10a  
Ene=     0.5519
Spin= Beta
Occup=    0.00000
   1         0.21005731
   2         1.47346524
   3        -0.00000000
   4         0.00000000
   5         1.12424631
   6        -0.23012942
   7        -1.38061188
   8         0.00000000
   9        -0.00000000
  10         1.33682612
