[Molden Format]
[N_Atoms]
                     2
[Atoms] (AU)
H1          1      1           0.00000000      0.00000000      0.00000000
O2          2      8           0.00000000      0.00000000      2.83458919
[Charge] (Mulliken)
  0.160702137760589     
 -0.160702137760598     
[GTO] (AU)
   1
   s   8
  1.886144500E+02  9.638500027E-04
  2.827659600E+01  7.491960021E-03
  6.424830000E+00  3.759541011E-02
  1.815041000E+00  1.433949804E-01
  5.910630000E-01  3.486363010E-01
  2.121490000E-01  4.382973612E-01
  7.989100000E-02  1.651066105E-01
  2.796200000E-02  2.102287006E-02
 
   2
   s  14
  1.053749500E+05  1.238600013E-04
  1.567924000E+04  5.120100053E-04
  3.534544700E+03  2.152910022E-03
  9.873651600E+02  8.528440089E-03
  3.159787500E+02  3.018049031E-02
  1.116542800E+02  9.099702095E-02
  4.269945100E+01  2.177936423E-01
  1.739559600E+01  3.686245738E-01
  7.438309000E+00  3.366707335E-01
  3.222862000E+00  9.657630101E-02
  1.253877000E+00  2.144520022E-03
  4.951550000E-01  1.194350012E-03
  1.916650000E-01  5.390200056E-04
  6.708300000E-02  2.103400022E-04
   s  14
  1.053749500E+05 -2.815000008E-05
  1.567924000E+04 -1.163000003E-04
  3.534544700E+03 -4.909200013E-04
  9.873651600E+02 -1.946160005E-03
  3.159787500E+02 -7.005300019E-03
  1.116542800E+02 -2.167814006E-02
  4.269945100E+01 -5.641213015E-02
  1.739559600E+01 -1.127053003E-01
  7.438309000E+00 -1.589119704E-01
  3.222862000E+00 -3.355083009E-02
  1.253877000E+00  3.531902810E-01
  4.951550000E-01  5.534199315E-01
  1.916650000E-01  2.301839106E-01
  6.708300000E-02  1.127267003E-02
   p   9
  2.000000000E+02  9.173000030E-04
  4.653336700E+01  7.377140024E-03
  1.462180900E+01  3.483515011E-02
  5.313064000E+00  1.144397004E-01
  2.102525000E+00  2.554966408E-01
  8.502230000E-01  3.722557412E-01
  3.375970000E-01  3.323314911E-01
  1.288920000E-01  1.400847905E-01
  4.511200000E-02  2.395784008E-02
 
[MO]
Sym=     1a  
Ene=   -20.6890
Spin= Alpha
Occup=    1.00000
   1        -0.00056298
   2         1.00001067
   3         0.00165427
   4        -0.00000000
   5        -0.00000000
   6        -0.00057333
Sym=     1a  
Ene=   -20.6280
Spin= Beta
Occup=    1.00000
   1        -0.00007774
   2         0.99999997
   3        -0.00178022
   4        -0.00000000
   5        -0.00000000
   6        -0.00039035
Sym=     2a  
Ene=    -1.3762
Spin= Alpha
Occup=    1.00000
   1         0.01745322
   2        -0.00189762
   3         0.99420362
   4         0.00000000
   5         0.00000000
   6        -0.04618225
Sym=     2a  
Ene=    -1.1200
Spin= Beta
Occup=    1.00000
   1         0.11605113
   2        -0.00070180
   3         0.96443175
   4         0.00000000
   5         0.00000000
   6        -0.00782459
Sym=     3a  
Ene=    -0.6678
Spin= Alpha
Occup=    1.00000
   1        -0.00000000
   2         0.00000000
   3         0.00000000
   4        -0.05188696
   5         0.99865296
   6         0.00000000
Sym=     3a  
Ene=    -0.5217
Spin= Beta
Occup=    1.00000
   1         0.00000000
   2        -0.00000000
   3        -0.00000000
   4         0.99865296
   5         0.05188696
   6        -0.00000000
Sym=     4a  
Ene=    -0.6562
Spin= Alpha
Occup=    1.00000
   1        -0.12196109
   2         0.00287756
   3         0.08313028
   4         0.00000000
   5        -0.00000000
   6         0.95702373
Sym=     4a  
Ene=    -0.5140
Spin= Beta
Occup=    1.00000
   1        -0.85284054
   2         0.01860426
   3         0.32295375
   4         0.00000000
   5         0.00000000
   6         0.35935324
Sym=     5a  
Ene=    -0.5886
Spin= Alpha
Occup=    1.00000
   1        -0.00000000
   2        -0.00000000
   3         0.00000000
   4        -0.99865296
   5        -0.05188696
   6        -0.00000000
Sym=     5a  
Ene=     0.1575
Spin= Beta
Occup=    0.00000
   1         0.00000000
   2        -0.00000000
   3        -0.00000000
   4        -0.05188696
   5         0.99865296
   6         0.00000000
Sym=     6a  
Ene=     0.1905
Spin= Alpha
Occup=    0.00000
   1         1.07505091
   2        -0.02241308
   3        -0.27831740
   4        -0.00000000
   5        -0.00000000
   6         0.42371686
Sym=     6a  
Ene=     0.1961
Spin= Beta
Occup=    0.00000
   1        -0.65582699
   2         0.01374844
   3         0.19591813
   4        -0.00000000
   5         0.00000000
   6        -0.98405660
