[Molden Format]
[N_Atoms]
                     2
[Atoms] (AU)
B1          1      5           0.00000000      0.00000000      0.00000000
B2          2      5           0.00000000      0.00000000      3.59047964
[Charge] (Mulliken)
 -1.998401444325282E-012
  1.984190589610080E-012
[GTO] (AU)
   1
   s  14
  3.336021700E+04  1.039699991E-04
  4.972095200E+03  5.254399956E-04
  1.125641700E+03  2.509059979E-03
  3.164913600E+02  1.031887991E-02
  1.020072600E+02  3.636632969E-02
  3.629587300E+01  1.064607991E-01
  1.397141000E+01  2.403999880E-01
  5.741156000E+00  3.748581168E-01
  2.494268000E+00  3.100066974E-01
  1.114202000E+00  7.922455933E-02
  4.215490000E-01 -4.947589958E-03
  1.696330000E-01 -7.737119935E-03
  6.853500000E-02 -1.501079987E-03
  2.398700000E-02 -1.333299989E-04
   s  14
  3.336021700E+04 -2.030000008E-05
  4.972095200E+03 -1.025700004E-04
  1.125641700E+03 -4.911300020E-04
  3.164913600E+02 -2.026570008E-03
  1.020072600E+02 -7.261010030E-03
  3.629587300E+01 -2.197722009E-02
  1.397141000E+01 -5.408428022E-02
  5.741156000E+00 -1.022402604E-01
  2.494268000E+00 -1.423595206E-01
  1.114202000E+00 -4.658690019E-02
  4.215490000E-01  3.799402916E-01
  1.696330000E-01  5.890463624E-01
  6.853500000E-02  1.749075107E-01
  2.398700000E-02 -1.142030005E-03
   p   9
  5.500000000E+01  1.229800005E-03
  1.336610100E+01  8.827380035E-03
  4.135394000E+00  3.843340015E-02
  1.481256000E+00  1.150031805E-01
  6.021360000E-01  2.733674011E-01
  2.556360000E-01  4.061972116E-01
  1.111510000E-01  3.014967912E-01
  4.764800000E-02  7.684809030E-02
  1.667700000E-02 -8.170000032E-06
 
   2
   s  14
  3.336021700E+04  1.039699991E-04
  4.972095200E+03  5.254399956E-04
  1.125641700E+03  2.509059979E-03
  3.164913600E+02  1.031887991E-02
  1.020072600E+02  3.636632969E-02
  3.629587300E+01  1.064607991E-01
  1.397141000E+01  2.403999880E-01
  5.741156000E+00  3.748581168E-01
  2.494268000E+00  3.100066974E-01
  1.114202000E+00  7.922455933E-02
  4.215490000E-01 -4.947589958E-03
  1.696330000E-01 -7.737119935E-03
  6.853500000E-02 -1.501079987E-03
  2.398700000E-02 -1.333299989E-04
   s  14
  3.336021700E+04 -2.030000008E-05
  4.972095200E+03 -1.025700004E-04
  1.125641700E+03 -4.911300020E-04
  3.164913600E+02 -2.026570008E-03
  1.020072600E+02 -7.261010030E-03
  3.629587300E+01 -2.197722009E-02
  1.397141000E+01 -5.408428022E-02
  5.741156000E+00 -1.022402604E-01
  2.494268000E+00 -1.423595206E-01
  1.114202000E+00 -4.658690019E-02
  4.215490000E-01  3.799402916E-01
  1.696330000E-01  5.890463624E-01
  6.853500000E-02  1.749075107E-01
  2.398700000E-02 -1.142030005E-03
   p   9
  5.500000000E+01  1.229800005E-03
  1.336610100E+01  8.827380035E-03
  4.135394000E+00  3.843340015E-02
  1.481256000E+00  1.150031805E-01
  6.021360000E-01  2.733674011E-01
  2.556360000E-01  4.061972116E-01
  1.111510000E-01  3.014967912E-01
  4.764800000E-02  7.684809030E-02
  1.667700000E-02 -8.170000032E-06
 
[MO]
Sym=     1a  
Ene=    -7.6904
Spin= Alpha
Occup=    1.00000
   1         0.70696032
   2         0.00996375
   3        -0.00000000
   4         0.00000000
   5         0.00039653
   6         0.70696033
   7         0.00996375
   8         0.00000000
   9        -0.00000000
  10        -0.00039653
Sym=     1a  
Ene=    -7.6904
Spin= Beta
Occup=    1.00000
   1         0.70696032
   2         0.00996375
   3        -0.00000000
   4         0.00000000
   5         0.00039653
   6         0.70696033
   7         0.00996375
   8         0.00000000
   9        -0.00000000
  10        -0.00039653
Sym=     2a  
Ene=    -7.6902
Spin= Alpha
Occup=    1.00000
   1        -0.70715116
   2        -0.01054608
   3        -0.00000000
   4         0.00000000
   5        -0.00085081
   6         0.70715115
   7         0.01054608
   8         0.00000000
   9        -0.00000000
  10        -0.00085081
Sym=     2a  
Ene=    -7.6902
Spin= Beta
Occup=    1.00000
   1        -0.70715116
   2        -0.01054608
   3        -0.00000000
   4         0.00000000
   5        -0.00085081
   6         0.70715115
   7         0.01054608
   8         0.00000000
   9        -0.00000000
  10        -0.00085081
Sym=     3a  
Ene=    -0.6378
Spin= Alpha
Occup=    1.00000
   1        -0.03350901
   2         0.56584256
   3         0.00000000
   4         0.00000000
   5         0.12116992
   6        -0.03350901
   7         0.56584256
   8         0.00000000
   9        -0.00000000
  10        -0.12116992
Sym=     3a  
Ene=    -0.6378
Spin= Beta
Occup=    1.00000
   1        -0.03350901
   2         0.56584256
   3         0.00000000
   4         0.00000000
   5         0.12116992
   6        -0.03350901
   7         0.56584256
   8         0.00000000
   9        -0.00000000
  10        -0.12116992
Sym=     4a  
Ene=    -0.3862
Spin= Alpha
Occup=    1.00000
   1        -0.00182019
   2        -0.74799497
   3         0.00000000
   4         0.00000000
   5         0.17278294
   6         0.00182019
   7         0.74799497
   8        -0.00000000
   9         0.00000000
  10         0.17278294
Sym=     4a  
Ene=    -0.3862
Spin= Beta
Occup=    1.00000
   1        -0.00182019
   2        -0.74799497
   3         0.00000000
   4         0.00000000
   5         0.17278294
   6         0.00182019
   7         0.74799497
   8        -0.00000000
   9         0.00000000
  10         0.17278294
Sym=     5a  
Ene=    -0.2617
Spin= Alpha
Occup=    1.00000
   1        -0.00000000
   2        -0.00000000
   3         0.54625827
   4        -0.31986823
   5         0.00000000
   6        -0.00000000
   7        -0.00000000
   8         0.54625827
   9        -0.31986823
  10        -0.00000000
Sym=     5a  
Ene=    -0.2617
Spin= Beta
Occup=    1.00000
   1        -0.00000000
   2        -0.00000000
   3         0.54625827
   4        -0.31986823
   5         0.00000000
   6        -0.00000000
   7        -0.00000000
   8         0.54625827
   9        -0.31986823
  10        -0.00000000
Sym=     6a  
Ene=     0.0078
Spin= Alpha
Occup=    0.00000
   1         0.02738773
   2         0.30814663
   3         0.00000000
   4        -0.00000000
   5        -0.64456665
   6         0.02738773
   7         0.30814663
   8         0.00000000
   9        -0.00000000
  10         0.64456665
Sym=     6a  
Ene=     0.0078
Spin= Beta
Occup=    0.00000
   1         0.02738773
   2         0.30814663
   3         0.00000000
   4        -0.00000000
   5        -0.64456665
   6         0.02738773
   7         0.30814663
   8         0.00000000
   9        -0.00000000
  10         0.64456665
Sym=     7a  
Ene=     0.0254
Spin= Alpha
Occup=    0.00000
   1         0.00000000
   2         0.00000000
   3         0.31986823
   4         0.54625827
   5        -0.00000000
   6         0.00000000
   7        -0.00000000
   8         0.31986823
   9         0.54625827
  10         0.00000000
Sym=     7a  
Ene=     0.0254
Spin= Beta
Occup=    0.00000
   1         0.00000000
   2         0.00000000
   3         0.31986823
   4         0.54625827
   5        -0.00000000
   6         0.00000000
   7        -0.00000000
   8         0.31986823
   9         0.54625827
  10         0.00000000
Sym=     8a  
Ene=     0.1236
Spin= Alpha
Occup=    0.00000
   1        -0.00000000
   2        -0.00000000
   3        -0.70354446
   4         0.41196908
   5        -0.00000000
   6        -0.00000000
   7         0.00000000
   8         0.70354446
   9        -0.41196908
  10        -0.00000000
Sym=     8a  
Ene=     0.1236
Spin= Beta
Occup=    0.00000
   1        -0.00000000
   2        -0.00000000
   3        -0.70354446
   4         0.41196908
   5        -0.00000000
   6        -0.00000000
   7         0.00000000
   8         0.70354446
   9        -0.41196908
  10        -0.00000000
Sym=     9a  
Ene=     0.1832
Spin= Alpha
Occup=    0.00000
   1        -0.00000000
   2        -0.00000000
   3        -0.41196908
   4        -0.70354446
   5        -0.00000000
   6         0.00000000
   7         0.00000000
   8         0.41196908
   9         0.70354446
  10        -0.00000000
Sym=     9a  
Ene=     0.1832
Spin= Beta
Occup=    0.00000
   1        -0.00000000
   2        -0.00000000
   3        -0.41196908
   4        -0.70354446
   5        -0.00000000
   6         0.00000000
   7         0.00000000
   8         0.41196908
   9         0.70354446
  10        -0.00000000
Sym=    10a  
Ene=     0.4377
Spin= Alpha
Occup=    0.00000
   1         0.07743027
   2         0.76454040
   3        -0.00000000
   4        -0.00000000
   5         1.02390973
   6        -0.07743027
   7        -0.76454040
   8         0.00000000
   9         0.00000000
  10         1.02390973
Sym=    10a  
Ene=     0.4377
Spin= Beta
Occup=    0.00000
   1         0.07743027
   2         0.76454040
   3        -0.00000000
   4        -0.00000000
   5         1.02390973
   6        -0.07743027
   7        -0.76454040
   8         0.00000000
   9         0.00000000
  10         1.02390973
