[Molden Format]
[N_Atoms]
                     2
[Atoms] (AU)
B1          1      5           0.00000000      0.00000000      0.00000000
B2          2      5           0.00000000      0.00000000      3.59047964
[Charge] (Mulliken)
 -1.650396264096798E-009
  1.650404257702576E-009
[GTO] (AU)
   1
   s  14
  3.336021700E+04  1.039699991E-04
  4.972095200E+03  5.254399956E-04
  1.125641700E+03  2.509059979E-03
  3.164913600E+02  1.031887991E-02
  1.020072600E+02  3.636632969E-02
  3.629587300E+01  1.064607991E-01
  1.397141000E+01  2.403999880E-01
  5.741156000E+00  3.748581168E-01
  2.494268000E+00  3.100066974E-01
  1.114202000E+00  7.922455933E-02
  4.215490000E-01 -4.947589958E-03
  1.696330000E-01 -7.737119935E-03
  6.853500000E-02 -1.501079987E-03
  2.398700000E-02 -1.333299989E-04
   s  14
  3.336021700E+04 -2.030000008E-05
  4.972095200E+03 -1.025700004E-04
  1.125641700E+03 -4.911300020E-04
  3.164913600E+02 -2.026570008E-03
  1.020072600E+02 -7.261010030E-03
  3.629587300E+01 -2.197722009E-02
  1.397141000E+01 -5.408428022E-02
  5.741156000E+00 -1.022402604E-01
  2.494268000E+00 -1.423595206E-01
  1.114202000E+00 -4.658690019E-02
  4.215490000E-01  3.799402916E-01
  1.696330000E-01  5.890463624E-01
  6.853500000E-02  1.749075107E-01
  2.398700000E-02 -1.142030005E-03
   p   9
  5.500000000E+01  1.229800005E-03
  1.336610100E+01  8.827380035E-03
  4.135394000E+00  3.843340015E-02
  1.481256000E+00  1.150031805E-01
  6.021360000E-01  2.733674011E-01
  2.556360000E-01  4.061972116E-01
  1.111510000E-01  3.014967912E-01
  4.764800000E-02  7.684809030E-02
  1.667700000E-02 -8.170000032E-06
 
   2
   s  14
  3.336021700E+04  1.039699991E-04
  4.972095200E+03  5.254399956E-04
  1.125641700E+03  2.509059979E-03
  3.164913600E+02  1.031887991E-02
  1.020072600E+02  3.636632969E-02
  3.629587300E+01  1.064607991E-01
  1.397141000E+01  2.403999880E-01
  5.741156000E+00  3.748581168E-01
  2.494268000E+00  3.100066974E-01
  1.114202000E+00  7.922455933E-02
  4.215490000E-01 -4.947589958E-03
  1.696330000E-01 -7.737119935E-03
  6.853500000E-02 -1.501079987E-03
  2.398700000E-02 -1.333299989E-04
   s  14
  3.336021700E+04 -2.030000008E-05
  4.972095200E+03 -1.025700004E-04
  1.125641700E+03 -4.911300020E-04
  3.164913600E+02 -2.026570008E-03
  1.020072600E+02 -7.261010030E-03
  3.629587300E+01 -2.197722009E-02
  1.397141000E+01 -5.408428022E-02
  5.741156000E+00 -1.022402604E-01
  2.494268000E+00 -1.423595206E-01
  1.114202000E+00 -4.658690019E-02
  4.215490000E-01  3.799402916E-01
  1.696330000E-01  5.890463624E-01
  6.853500000E-02  1.749075107E-01
  2.398700000E-02 -1.142030005E-03
   p   9
  5.500000000E+01  1.229800005E-03
  1.336610100E+01  8.827380035E-03
  4.135394000E+00  3.843340015E-02
  1.481256000E+00  1.150031805E-01
  6.021360000E-01  2.733674011E-01
  2.556360000E-01  4.061972116E-01
  1.111510000E-01  3.014967912E-01
  4.764800000E-02  7.684809030E-02
  1.667700000E-02 -8.170000032E-06
 
[MO]
Sym=     1a  
Ene=    -7.6903
Spin= Alpha
Occup=    2.00000
   1         0.70696051
   2         0.00997716
   3         0.00000000
   4         0.00000000
   5         0.00037212
   6         0.70696205
   7         0.00997718
   8        -0.00000000
   9         0.00000000
  10        -0.00037212
Sym=     2a  
Ene=    -7.6898
Spin= Alpha
Occup=    2.00000
   1        -0.70712008
   2        -0.00557924
   3         0.00000000
   4         0.00000000
   5        -0.00192736
   6         0.70711854
   7         0.00557922
   8        -0.00000000
   9         0.00000000
  10        -0.00192736
Sym=     3a  
Ene=    -0.6363
Spin= Alpha
Occup=    2.00000
   1        -0.03350295
   2         0.56593303
   3         0.00000000
   4        -0.00000000
   5         0.12098031
   6        -0.03350295
   7         0.56593330
   8        -0.00000000
   9         0.00000000
  10        -0.12098024
Sym=     4a  
Ene=    -0.2611
Spin= Alpha
Occup=    2.00000
   1         0.00000000
   2        -0.00000000
   3        -0.07964983
   4         0.62798860
   5         0.00000000
   6        -0.00000000
   7         0.00000000
   8        -0.07964983
   9         0.62798860
  10         0.00000000
Sym=     5a  
Ene=     0.0212
Spin= Alpha
Occup=    0.03303
   1        -0.00000000
   2        -0.00000000
   3         0.62798875
   4         0.07964985
   5        -0.00000000
   6         0.00000000
   7         0.00000000
   8         0.62798846
   9         0.07964981
  10        -0.00000000
Sym=     6a  
Ene=    -0.0482
Spin= Alpha
Occup=    1.96697
   1        -0.00670418
   2        -0.75032657
   3        -0.00000000
   4        -0.00000000
   5         0.16971714
   6         0.00670419
   7         0.75032637
   8         0.00000000
   9        -0.00000000
  10         0.16971718
Sym=     7a  
Ene=     0.0089
Spin= Alpha
Occup=    0.00000
   1         0.02737045
   2         0.30797976
   3        -0.00000000
   4        -0.00000000
   5        -0.64460228
   6         0.02737045
   7         0.30797976
   8        -0.00000000
   9        -0.00000000
  10         0.64460229
Sym=     8a  
Ene=     0.1240
Spin= Alpha
Occup=    0.00000
   1        -0.00000000
   2        -0.00000000
   3         0.10258371
   4        -0.80880771
   5        -0.00000000
   6         0.00000000
   7         0.00000000
   8        -0.10258371
   9         0.80880771
  10        -0.00000000
Sym=     9a  
Ene=     0.1827
Spin= Alpha
Occup=    0.00000
   1        -0.00000000
   2         0.00000000
   3        -0.80880760
   4        -0.10258369
   5         0.00000000
   6        -0.00000000
   7        -0.00000000
   8         0.80880782
   9         0.10258372
  10        -0.00000000
Sym=    10a  
Ene=     0.4385
Spin= Alpha
Occup=    0.00000
   1        -0.07745224
   2        -0.76230491
   3        -0.00000000
   4         0.00000000
   5        -1.02442089
   6         0.07745224
   7         0.76230491
   8        -0.00000000
   9        -0.00000000
  10        -1.02442089
