[Molden Format]
[N_Atoms]
                     2
[Atoms] (AU)
B1          1      5           0.00000000      0.00000000      0.00000000
B2          2      5           0.00000000      0.00000000      3.59047964
[Charge] (Mulliken)
  0.000000000000000E+000
  0.000000000000000E+000
[GTO] (AU)
   1
   s  14
  3.336021700E+04  1.039699991E-04
  4.972095200E+03  5.254399956E-04
  1.125641700E+03  2.509059979E-03
  3.164913600E+02  1.031887991E-02
  1.020072600E+02  3.636632969E-02
  3.629587300E+01  1.064607991E-01
  1.397141000E+01  2.403999880E-01
  5.741156000E+00  3.748581168E-01
  2.494268000E+00  3.100066974E-01
  1.114202000E+00  7.922455933E-02
  4.215490000E-01 -4.947589958E-03
  1.696330000E-01 -7.737119935E-03
  6.853500000E-02 -1.501079987E-03
  2.398700000E-02 -1.333299989E-04
   s  14
  3.336021700E+04 -2.030000008E-05
  4.972095200E+03 -1.025700004E-04
  1.125641700E+03 -4.911300020E-04
  3.164913600E+02 -2.026570008E-03
  1.020072600E+02 -7.261010030E-03
  3.629587300E+01 -2.197722009E-02
  1.397141000E+01 -5.408428022E-02
  5.741156000E+00 -1.022402604E-01
  2.494268000E+00 -1.423595206E-01
  1.114202000E+00 -4.658690019E-02
  4.215490000E-01  3.799402916E-01
  1.696330000E-01  5.890463624E-01
  6.853500000E-02  1.749075107E-01
  2.398700000E-02 -1.142030005E-03
   p   9
  5.500000000E+01  1.229800005E-03
  1.336610100E+01  8.827380035E-03
  4.135394000E+00  3.843340015E-02
  1.481256000E+00  1.150031805E-01
  6.021360000E-01  2.733674011E-01
  2.556360000E-01  4.061972116E-01
  1.111510000E-01  3.014967912E-01
  4.764800000E-02  7.684809030E-02
  1.667700000E-02 -8.170000032E-06
 
   2
   s  14
  3.336021700E+04  1.039699991E-04
  4.972095200E+03  5.254399956E-04
  1.125641700E+03  2.509059979E-03
  3.164913600E+02  1.031887991E-02
  1.020072600E+02  3.636632969E-02
  3.629587300E+01  1.064607991E-01
  1.397141000E+01  2.403999880E-01
  5.741156000E+00  3.748581168E-01
  2.494268000E+00  3.100066974E-01
  1.114202000E+00  7.922455933E-02
  4.215490000E-01 -4.947589958E-03
  1.696330000E-01 -7.737119935E-03
  6.853500000E-02 -1.501079987E-03
  2.398700000E-02 -1.333299989E-04
   s  14
  3.336021700E+04 -2.030000008E-05
  4.972095200E+03 -1.025700004E-04
  1.125641700E+03 -4.911300020E-04
  3.164913600E+02 -2.026570008E-03
  1.020072600E+02 -7.261010030E-03
  3.629587300E+01 -2.197722009E-02
  1.397141000E+01 -5.408428022E-02
  5.741156000E+00 -1.022402604E-01
  2.494268000E+00 -1.423595206E-01
  1.114202000E+00 -4.658690019E-02
  4.215490000E-01  3.799402916E-01
  1.696330000E-01  5.890463624E-01
  6.853500000E-02  1.749075107E-01
  2.398700000E-02 -1.142030005E-03
   p   9
  5.500000000E+01  1.229800005E-03
  1.336610100E+01  8.827380035E-03
  4.135394000E+00  3.843340015E-02
  1.481256000E+00  1.150031805E-01
  6.021360000E-01  2.733674011E-01
  2.556360000E-01  4.061972116E-01
  1.111510000E-01  3.014967912E-01
  4.764800000E-02  7.684809030E-02
  1.667700000E-02 -8.170000032E-06
 
[MO]
Sym=     1a  
Ene=    -7.7028
Spin= Alpha
Occup=    2.00000
   1        -0.70674099
   2         0.00120954
   3        -0.00000000
   4        -0.00000000
   5         0.00167724
   6         0.70674099
   7        -0.00120954
   8         0.00000000
   9         0.00000000
  10         0.00167724
Sym=     2a  
Ene=    -7.6927
Spin= Alpha
Occup=    2.00000
   1         0.70719870
   2         0.00136611
   3        -0.00000000
   4        -0.00000000
   5         0.00176612
   6         0.70719870
   7         0.00136611
   8        -0.00000000
   9        -0.00000000
  10        -0.00176612
Sym=     3a  
Ene=    -0.7323
Spin= Alpha
Occup=    2.00000
   1        -0.02797068
   2         0.52522733
   3         0.00000000
   4        -0.00000000
   5         0.19701474
   6        -0.02797068
   7         0.52522733
   8         0.00000000
   9        -0.00000000
  10        -0.19701474
Sym=     4a  
Ene=    -0.4437
Spin= Alpha
Occup=    2.00000
   1         0.00396957
   2        -0.60812279
   3        -0.00000000
   4        -0.00000000
   5         0.34329150
   6        -0.00396957
   7         0.60812279
   8        -0.00000000
   9        -0.00000000
  10         0.34329150
Sym=     5a  
Ene=    -0.3879
Spin= Alpha
Occup=    1.00000
   1         0.00000000
   2         0.00000000
   3         0.54625827
   4        -0.31986823
   5         0.00000000
   6        -0.00000000
   7        -0.00000000
   8         0.54625827
   9        -0.31986823
  10         0.00000000
Sym=     6a  
Ene=    -0.3879
Spin= Alpha
Occup=    1.00000
   1        -0.00000000
   2        -0.00000000
   3         0.31986823
   4         0.54625827
   5        -0.00000000
   6         0.00000000
   7         0.00000000
   8         0.31986823
   9         0.54625827
  10         0.00000000
Sym=     7a  
Ene=    -0.3245
Spin= Alpha
Occup=    0.00000
   1         0.02744969
   2         0.37331730
   3        -0.00000000
   4        -0.00000000
   5        -0.62556418
   6         0.02744969
   7         0.37331730
   8        -0.00000000
   9         0.00000000
  10         0.62556418
Sym=     8a  
Ene=    -0.2339
Spin= Alpha
Occup=    0.00000
   1         0.00000000
   2         0.00000000
   3        -0.79927877
   4         0.16076931
   5         0.00000000
   6        -0.00000000
   7        -0.00000000
   8         0.79927877
   9        -0.16076931
  10         0.00000000
Sym=     9a  
Ene=    -0.2339
Spin= Alpha
Occup=    0.00000
   1        -0.00000000
   2        -0.00000000
   3        -0.16076931
   4        -0.79927877
   5        -0.00000000
   6         0.00000000
   7         0.00000000
   8         0.16076931
   9         0.79927877
  10        -0.00000000
Sym=    10a  
Ene=    -0.1074
Spin= Alpha
Occup=    0.00000
   1         0.08101190
   2         0.87995166
   3        -0.00000000
   4        -0.00000000
   5         0.97999690
   6        -0.08101190
   7        -0.87995166
   8         0.00000000
   9         0.00000000
  10         0.97999690
