   This run of MOLCAS is using the pymolcas driver

                             OPE
                             OPE          NMOL  CASOP  ENMOLC A   SO
                 OPE        NMOLC        AS  OP EN  MO LC     AS  OP
                OPENM       OL CA        SO  PE NM  OL CA     SOP EN
                OP EN      MO   LC       AS  OP ENMOL  CASO   PENMOL
                OP  EN     MO   LC       AS  OP EN     MO     LC ASO
               OP   E  NMOL  C  AS       OP  EN MO     LC     AS  OP
               OP  E   NMO   LC AS        OPEN  MO     LCASOP EN   M
               O  PEN   MO  LCA  SO
            OPE   NMO   L   CAS    OP
        OPENMOL  CASOP     ENMOL   CASOPE
     OPENMOLCA   SOPENMOLCASOPEN   MOLCASOPE
    OPENMOLCAS   OP           EN   MOL    CAS
    OPENMOLCAS       OP  ENM        O     LCA
    OPENMOLCAS    OPEN  MOLCASO     P  E  NMO
    OPENMOLCAS     OP               E  N  MOL
    OPENMOLCA   SO           PENM   O  L  CAS    OPEN    MO    LCAS
    OPENMOLCA   SOP           ENM   O  L  CAS   OP  EN  MOLC  AS   O
    OPENMOLCA   SOPE           NM      O  LCA   S      OP  EN MO
    OPENMOLC                AS         O  PEN   M      OL  CA  SOPE
    OPENMO        LCASOPE  NMOL        C  ASO   P      ENMOLC     AS
    OPE     NMO      LCA  SO     P     E   NM   OL  CA SO  PE N   MO
          OPENMOLCA            SOPE   NMO        LCAS  O    P  ENMO
     OPENMOLCASOPENMOLCASOPENMOLCASOPENMOLCA
        OPENMOLCASOPENMOLCASOPENMOLCASOPE
            OPENMOLCASOPENMOLCASOPENM
               OPENMOLCASOPENMOLCA        version: 44d3b5344-dirty
                   OPENMOLCASO
                       OPE                tag:

 OpenMolcas is free software; you can redistribute it and/or modify it
 under the terms of the GNU Lesser General Public License version 2.1.
 OpenMolcas is distributed in the hope that it will be useful, but it
 is provided "as is" and without any express or implied warranties.
 For more details see the full text of the license in the file
 LICENSE or in <http://www.gnu.org/licenses/>.

                 Copyright (C) The OpenMolcas Authors
           For the author list and the recommended citation,
                   consult the file CONTRIBUTORS.md

           *************************************************
           * pymolcas version py2.28                       *
           *   build c4a6d18ded8cb6cad61d2372a9abd97c      *
           *   (after the EMIL interpreter by V. Veryazov) *
           *************************************************

configuration info
------------------
C Compiler ID: GNU
C flags: -std=gnu99
Fortran Compiler ID: Intel
Fortran flags: -fpp -i8 -r8 -heap-arrays
Definitions: _MOLCAS_;_I8_;_LINUX_
Parallel: OFF (GA=OFF)


   ------------------------------------------------------------------------------
  |
  |              Project: O3_112
  |       Submitted from: /home/grierjones/DDCASPT2/ozone/basis_sets/MB/O3/O3_112
  |         Scratch area: /tmp/MOLCASTMP/O3_112
  |      Save outputs to: /home/grierjones/DDCASPT2/ozone/basis_sets/MB/O3/O3_112
  |               Molcas: /home/grierjones/Test/build
  |
  | Scratch area is empty
  |
  |       MOLCAS_DRIVER = /usr/local/pymolcas
  | MOLCAS_KEEP_WORKDIR = NO
  |  MOLCAS_NEW_WORKDIR = YES
  |       MOLCAS_NPROCS = 1
  |       MOLCAS_SOURCE = /home/grierjones/Test/build
  |    MOLCAS_STRUCTURE = 0
  |
   ------------------------------------------------------------------------------

++ ---------   Input file   ---------

&GATEWAY
coord=O3_112.xyz
Basis = ANO-RCC-MB
Group = nosymm
Expert
End of Input

&SEWARD
End of Input

&MOTRA
Frozen=0

>>> COPY $WorkDir/GMJ_one_int_indx.csv $CurrDir/O3_112.GMJ_one_int_indx.csv

>>> COPY $WorkDir/GMJ_one_int.csv $CurrDir/O3_112.GMJ_one_int.csv

>>> COPY $WorkDir/GMJ_two_int_indx.csv $CurrDir/O3_112.GMJ_two_int_indx.csv

>>> COPY $WorkDir/GMJ_two_int.csv $CurrDir/O3_112.GMJ_two_int.csv

&SCF

>>> COPY $WorkDir/O3_112.scf.h5 $CurrDir/

&RASSCF
Title= RASSCF
FileOrb
/home/grierjones/DDCASPT2/ozone/basis_sets/MB/O3/O3_111/O3_111.RasOrb

NACTEL
4 0 0
Inactive
10
RAS2
3
Symmetry
1
Spin
1
orblisting
all
ITERation
200 100
CIMX
200
SDAV
500
PRWF
0
PRSD

>>> COPY $WorkDir/O3_112.rasscf.h5 $CurrDir/

>>> COPY $WorkDir/GMJ_Fock_MO.csv $CurrDir/O3_112.GMJ_Fock_MO.csv

&CASPT2
Frozen
0
Imaginary Shift
0.0

>>> FOREACH i IN (B,E,F,G,H)

  >>> FOREACH j IN (P,M)

    >>> IF (-FILE GMJ_e2_${i}_${j}.csv)

      >>> COPY $WorkDir/GMJ_RHS_${i}_${j}.csv $CurrDir/GMJ_RHS_${i}_${j}.csv

      >>> COPY $WorkDir/GMJ_IVECW_${i}_${j}.csv $CurrDir/GMJ_IVECW_${i}_${j}.csv

      >>> COPY $WorkDir/GMJ_e2_${i}_${j}.csv $CurrDir/GMJ_e2_${i}_${j}.csv

    >>> END IF

  >>> END FOREACH

>>> END FOREACH

>>> FOREACH i IN (A,C,D)

  >>> IF (-FILE GMJ_e2_$i.csv)

    >>> COPY $WorkDir/GMJ_RHS_$i.csv $CurrDir/GMJ_RHS_$i.csv

    >>> COPY $WorkDir/GMJ_IVECW_$i.csv $CurrDir/GMJ_IVECW_$i.csv

    >>> COPY $WorkDir/GMJ_e2_$i.csv $CurrDir/GMJ_e2_$i.csv

  >>> END IF

>>> END FOREACH

-- ----------------------------------

--- Start Module: gateway at Tue Jul 30 20:43:07 2024 ---
 
()()()()()()()()()()()()()()()()()()()()()()()()()()()()()()()()()()()()()()()()()()()()()()()()()()

                                              &GATEWAY

                                   only a single process is used
                       available to each process: 2.0 GB of memory, 1 thread?
()()()()()()()()()()()()()()()()()()()()()()()()()()()()()()()()()()()()()()()()()()()()()()()()()()
 
 ###############################################################################
 ###############################################################################
 ###                                                                         ###
 ###                                                                         ###
 ###                                                                         ###
 ###    WARNING: EXPERT option is ON!                                        ###
 ###                                                                         ###
 ###                                                                         ###
 ###############################################################################
 ###############################################################################
 
++    Symmetry information:
      ---------------------
 
                    Character Table for C1 
 
                             E  
                    a        1  x, y, xy, Rz, z, xz, Ry, yz, Rx, I
--
 
 
++    Basis set information:
      ----------------------
 
 
      Basis set label: O.ANO-RCC...2S1P.
 
      Electronic valence basis set:
      ------------------
      Associated Effective Charge   8.000000 au
      Associated Actual Charge      8.000000 au
      Nuclear Model: Point charge
 
      Shell  nPrim  nBasis  Cartesian Spherical Contaminant
         s      14       2        X                  
         p       9       1        X                  
--
 
 
++    Molecular structure info:
      -------------------------
 
                    ************************************************ 
                    **** Cartesian Coordinates / Bohr, Angstrom **** 
                    ************************************************ 
 
     Center  Label                x              y              z                     x              y              z
        1      O1               1.350491       2.002184       0.000000              0.714649       1.059510       0.000000
        2      O2               0.000000       0.000000       0.000000              0.000000       0.000000       0.000000
        3      O3               1.350491      -2.002184       0.000000              0.714649      -1.059510       0.000000
 
                    *************************************** 
                    *    InterNuclear Distances / Bohr    * 
                    *************************************** 
 
               1 O1            2 O2            3 O3    
    1 O1       0.000000
    2 O2       2.415070        0.000000
    3 O3       4.004367        2.415070        0.000000
 
                    ******************************************* 
                    *    InterNuclear Distances / Angstrom    * 
                    ******************************************* 
 
               1 O1            2 O2            3 O3    
    1 O1       0.000000
    2 O2       1.278000        0.000000
    3 O3       2.119020        1.278000        0.000000
 
                    ************************************** 
                    *    Valence Bond Angles / Degree    * 
                    ************************************** 
                          Atom centers                 Phi
                      1 O1       2 O2       3 O3       112.00
--
 
 
            Nuclear Potential Energy             68.98307336 au
 
 ###############################################################################
 ###############################################################################
 ###                                                                         ###
 ###                                                                         ###
 ###    There were warnings during the execution                             ###
 ###    Please, check the output with care!                                  ###
 ###                                                                         ###
 ###                                                                         ###
 ###############################################################################
 ###############################################################################
--- Stop Module: gateway at Tue Jul 30 20:43:07 2024 /rc=_RC_ALL_IS_WELL_ ---
*** files: xmldump
    saved to directory /home/grierjones/DDCASPT2/ozone/basis_sets/MB/O3/O3_112

--- Start Module: seward at Tue Jul 30 20:43:07 2024 ---
 
()()()()()()()()()()()()()()()()()()()()()()()()()()()()()()()()()()()()()()()()()()()()()()()()()()

                                              &SEWARD

                                   only a single process is used
                       available to each process: 2.0 GB of memory, 1 thread?
()()()()()()()()()()()()()()()()()()()()()()()()()()()()()()()()()()()()()()()()()()()()()()()()()()
 
 ###############################################################################
 ###############################################################################
 ###                                                                         ###
 ###                                                                         ###
 ###                                                                         ###
 ###    WARNING: EXPERT option is ON!                                        ###
 ###                                                                         ###
 ###                                                                         ###
 ###############################################################################
 ###############################################################################
               SEWARD will generate:
                  Multipole Moment integrals up to order  2
                  Kinetic Energy integrals
                  Nuclear Attraction integrals (point charge)
                  One-Electron Hamiltonian integrals
                  Velocity integrals
                  Relativistic Douglas-Kroll-Hess integrals:
                    - Parametrization         : EXP
                    - DKH order of Hamiltonian: 2
                    - DKH order of Properties : 0
                         - multipole moment operators
                         - electric potential operators
                         - contact operators
                  Atomic mean-field integrals
                  Two-Electron Repulsion integrals
 
                   Integrals are discarded if absolute value <: 0.10E-13
                   Integral cutoff threshold is set to       <: 0.10E-15
 
            Nuclear Potential Energy             68.98307336 au
 
 
      Basis set specifications :
      Symmetry species         a  
      Basis functions           15
 
 
  Input file to MOLDEN was generated!
 
 ###############################################################################
 ###############################################################################
 ###                                                                         ###
 ###                                                                         ###
 ###    There were warnings during the execution                             ###
 ###    Please, check the output with care!                                  ###
 ###                                                                         ###
 ###                                                                         ###
 ###############################################################################
 ###############################################################################
--- Stop Module: seward at Tue Jul 30 20:43:07 2024 /rc=_RC_ALL_IS_WELL_ ---
*** files: O3_112.GssOrb O3_112.guessorb.h5 O3_112.guessorb.molden xmldump
    saved to directory /home/grierjones/DDCASPT2/ozone/basis_sets/MB/O3/O3_112

*** symbolic link created: INPORB -> O3_112.GssOrb
--- Start Module: motra at Tue Jul 30 20:43:07 2024 ---
 
()()()()()()()()()()()()()()()()()()()()()()()()()()()()()()()()()()()()()()()()()()()()()()()()()()

                                               &MOTRA

                                   only a single process is used
                       available to each process: 2.0 GB of memory, 1 thread?
()()()()()()()()()()()()()()()()()()()()()()()()()()()()()()()()()()()()()()()()()()()()()()()()()()
 
 
      *** WARNING: Default frozen orbitals is overwritten by user input.
      *** Default values:   3
 
      Header of the integral files:
      
       Integrals generated by seward 4.2.0  , Tue Jul 30 20:43:07 2024
 
 
      Header of MO coefficients source file:
      *Guess orbitals                                                                 
 
 
      Cartesian coordinates in Angstrom:
      -----------------------------------------------------
      No.  Label        X            Y            Z        
      -----------------------------------------------------
       1   O1         0.71464900   1.05951000   0.00000000
       2   O2         0.00000000   0.00000000   0.00000000
       3   O3         0.71464900  -1.05951000   0.00000000
      -----------------------------------------------------
      Nuclear repulsion energy =   68.98307336
 
      Orbital specifications:
      -----------------------
 
      Symmetry species:              1
      Number of basis functions:    15
      Frozen orbitals:               0
      Deleted orbitals:              0
      Number of orbitals used:      15

       SYMMETRY  BASIS FUNCTIONS       ORBITALS      INTEGRALS   CPU(SEC)  I/O(SEC)
 
        1 1 1 1   15  15  15  15    15  15  15  15        7260       0.00      0.00

       TOTAL CPU TIME(SEC)    0.06TOTAL I/O TIME(SEC)    0.09
 
--- Stop Module: motra at Tue Jul 30 20:43:07 2024 /rc=_RC_ALL_IS_WELL_ ---
*** files: xmldump
    saved to directory /home/grierjones/DDCASPT2/ozone/basis_sets/MB/O3/O3_112

>>> COPY /tmp/MOLCASTMP/O3_112/GMJ_one_int_indx.csv /home/grierjones/DDCASPT2/ozone/basis_sets/MB/O3/O3_112/O3_112.GMJ_one_int_indx.csv

>>> COPY /tmp/MOLCASTMP/O3_112/GMJ_one_int.csv /home/grierjones/DDCASPT2/ozone/basis_sets/MB/O3/O3_112/O3_112.GMJ_one_int.csv

>>> COPY /tmp/MOLCASTMP/O3_112/GMJ_two_int_indx.csv /home/grierjones/DDCASPT2/ozone/basis_sets/MB/O3/O3_112/O3_112.GMJ_two_int_indx.csv

>>> COPY /tmp/MOLCASTMP/O3_112/GMJ_two_int.csv /home/grierjones/DDCASPT2/ozone/basis_sets/MB/O3/O3_112/O3_112.GMJ_two_int.csv

*** symbolic link created: INPORB -> O3_112.GssOrb
--- Start Module: scf at Tue Jul 30 20:43:07 2024 ---
 
()()()()()()()()()()()()()()()()()()()()()()()()()()()()()()()()()()()()()()()()()()()()()()()()()()

                                                &SCF

                                   only a single process is used
                       available to each process: 2.0 GB of memory, 1 thread?
()()()()()()()()()()()()()()()()()()()()()()()()()()()()()()()()()()()()()()()()()()()()()()()()()()
 
++    Input section:
      --------------
 
      Header of the integral files:
      
       Integrals generated by seward 4.2.0  , Tue Jul 30 20:43:07 2024
 
 
      Cartesian coordinates in Angstrom:
      -----------------------------------------------------
      No.  Label        X            Y            Z        
      -----------------------------------------------------
       1   O1         0.71464900   1.05951000   0.00000000
       2   O2         0.00000000   0.00000000   0.00000000
       3   O3         0.71464900  -1.05951000   0.00000000
      -----------------------------------------------------
      Nuclear repulsion energy =   68.98307336
--
 
++    Orbital specifications:
      -----------------------
 
      Symmetry species               1
                                     a
      Frozen orbitals                0
      Occupied orbitals             12
      Secondary orbitals             3
      Deleted orbitals               0
      Total number of orbitals      15
      Number of basis functions     15
--
 
      Molecular charge                           0.000
 
++    Optimization specifications:
      ----------------------------
 
      SCF Algorithm: Conventional
      Minimized density differences are used
      Number of density matrices in core                5
      Maximum number of NDDO SCF iterations           400
      Maximum number of HF SCF iterations             400
      Threshold for SCF energy change            0.10E-08
      Threshold for density matrix               0.10E-03
      Threshold for Fock matrix                  0.15E-03
      Threshold for linear dependence            0.10E-08
      Threshold at which DIIS is turned on       0.15E+00
      Threshold at which QNR/C2DIIS is turned on 0.75E-01
      Threshold for Norm(delta) (QNR/C2DIIS)     0.20E-04
      DIIS extrapolation of the SCF procedure
      All orbitals punched on: SCFORB
--
 
      Input vectors read from INPORB
      Orbital file label: *Guess orbitals
 
 
++ Convergence information
                                   SCF        iterations: Energy and convergence statistics
 
Iter     Tot. SCF        One-elec.       Two-elec.     Energy      Max Dij or  Max Fij      DNorm      TNorm      AccCon     Time
         Energy          Energy          Energy        Change      Delta Norm                                                in Sec.
   1  -223.869891249  -441.673334255   148.820369643   0.00E+00    0.64E+00*   0.27E+00*    0.74E+01   0.50E+02   None         0.
   2  -224.140592745  -444.619655495   151.495989387  -0.27E+00*   0.44E+00*   0.15E+00*    0.25E+01   0.50E+02   EDIIS        0.
   3  -224.203047397  -443.274662395   150.088541635  -0.62E-01*   0.13E+00*   0.82E-01*    0.54E+00   0.50E+02   EDIIS        0.
   4  -224.239766292  -444.040112812   150.817273158  -0.37E-01*   0.12E-01*   0.23E-01*    0.94E-01   0.50E+02   c2DIIS       0.
   5  -224.244507652  -443.851837776   150.624256762  -0.47E-02*   0.41E-02*   0.26E-02*    0.15E-01   0.50E+02   QNRc2DIIS    0.
   6  -224.244554352  -443.855606548   150.627978833  -0.47E-04*   0.58E-02*   0.13E-02*    0.60E-02   0.50E+02   QNRc2DIIS    0.
   7  -224.244577719  -443.854166303   150.626515221  -0.23E-04*   0.74E-03*   0.74E-03*    0.40E-02   0.50E+02   QNRc2DIIS    0.
   8  -224.244579163  -443.856403686   150.628751160  -0.14E-05*   0.66E-03*   0.22E-03*    0.24E-03   0.50E+02   QNRc2DIIS    0.
   9  -224.244579624  -443.855580378   150.627927392  -0.46E-06*   0.45E-04*   0.26E-04     0.48E-04   0.50E+02   QNRc2DIIS    0.
  10  -224.244579627  -443.855642778   150.627989789  -0.31E-08*   0.34E-05    0.27E-05     0.19E-03   0.50E+02   QNRc2DIIS    0.
  11  -224.244579627  -443.855639115   150.627986125  -0.32E-10    0.23E-05    0.78E-06     0.73E-03   0.50E+02   QNRc2DIIS    0.
 
       Convergence after 11 Macro Iterations
--
 
 *****************************************************************************************************************************
 *                                                                                                                           *
 *                                             SCF/KS-DFT Program, Final results                                             *
 *                                                                                                                           *
 *                                                                                                                           *
 *                                                                                                                           *
 *                                                       Final Results                                                       *
 *                                                                                                                           *
 *****************************************************************************************************************************
 
::    Total SCF energy                               -224.2445796268
      One-electron energy                            -443.8556391149
      Two-electron energy                             150.6279861252
      Nuclear repulsion energy                         68.9830733630
      Kinetic energy (interpolated)                   224.8590699491
      Virial theorem                                    0.9972672202
      Total spin, S(S+1)                                0.0000000000
      Total spin, S                                     0.0000000000
      Max non-diagonal density matrix element           0.0000030858
      Max non-diagonal Fock matrix element              0.0000005557
 
 
      All orbitals with orbital energies smaller than  E(LUMO)+0.5 are printed
 
++    Molecular orbitals:
      -------------------
 
      Title: SCF orbitals

      Molecular orbitals for symmetry species 1: a  
 
          Orbital            1         2         3         4         5         6         7         8         9        10    
          Energy          -21.0664  -20.7840  -20.7839   -1.8172   -1.4698   -1.1407   -0.8622   -0.8330   -0.8158   -0.6045
          Occ. No.          2.0000    2.0000    2.0000    2.0000    2.0000    2.0000    2.0000    2.0000    2.0000    2.0000
 
        1 O1     1s         0.0009   -0.7071    0.7071   -0.0202    0.0116    0.0079   -0.0191    0.0000   -0.0236    0.0021
        2 O1     2s        -0.0005   -0.0003    0.0001    0.2813   -0.5773    0.5776   -0.3289    0.0000   -0.4278    0.0363
        3 O1     2px       -0.0001    0.0007   -0.0007   -0.0626    0.0595    0.0915    0.1153   -0.0000   -0.3466   -0.4915
        4 O1     2py        0.0002    0.0011   -0.0010   -0.0912    0.0930    0.0588   -0.3448    0.0000   -0.2295    0.5578
        5 O1     2pz       -0.0000   -0.0000   -0.0000   -0.0000   -0.0000   -0.0000    0.0000    0.3372   -0.0000   -0.0000
        6 O2     1s         1.0000    0.0000   -0.0017   -0.0230    0.0000   -0.0163   -0.0078    0.0000    0.0000   -0.0000
        7 O2     2s         0.0000    0.0000   -0.0011    0.6491   -0.0000   -0.6746   -0.0876    0.0000    0.0000   -0.0000
        8 O2     2px        0.0016    0.0000   -0.0002    0.1665   -0.0000    0.2404    0.6882   -0.0000    0.0000    0.0000
        9 O2     2py       -0.0000    0.0006    0.0000   -0.0000   -0.3365    0.0000   -0.0000    0.0000    0.6029   -0.1594
       10 O2     2pz       -0.0000   -0.0000   -0.0000    0.0000    0.0000    0.0000    0.0000    0.7417   -0.0000    0.0000
       11 O3     1s         0.0009    0.7071    0.7071   -0.0202   -0.0116    0.0079   -0.0191    0.0000    0.0236   -0.0021
       12 O3     2s        -0.0005    0.0003    0.0001    0.2813    0.5773    0.5776   -0.3289    0.0000    0.4278   -0.0363
       13 O3     2px       -0.0001   -0.0007   -0.0007   -0.0626   -0.0595    0.0915    0.1153   -0.0000    0.3466    0.4915
       14 O3     2py       -0.0002    0.0011    0.0010    0.0912    0.0930   -0.0588    0.3448   -0.0000   -0.2295    0.5578
       15 O3     2pz       -0.0000    0.0000    0.0000   -0.0000   -0.0000    0.0000    0.0000    0.3372   -0.0000    0.0000
 
          Orbital           11        12        13        14        15    
          Energy           -0.6018   -0.5205   -0.1085    0.2671    0.3499
          Occ. No.          2.0000    2.0000    0.0000    0.0000    0.0000
 
        1 O1     1s         0.0078    0.0000   -0.0000   -0.0285   -0.0433
        2 O1     2s         0.0698    0.0000   -0.0000   -0.3226   -0.4192
        3 O1     2px        0.6331    0.0000   -0.0000    0.3241    0.4826
        4 O1     2py       -0.1898   -0.0000    0.0000    0.6580    0.4968
        5 O1     2pz        0.0000   -0.7258    0.6372   -0.0000   -0.0000
        6 O2     1s         0.0166    0.0000    0.0000    0.0835   -0.0000
        7 O2     2s         0.2028    0.0000   -0.0000    0.8230   -0.0000
        8 O2     2px       -0.5090   -0.0000    0.0000    0.6467   -0.0000
        9 O2     2py       -0.0000   -0.0000    0.0000    0.0000    0.9832
       10 O2     2pz       -0.0000    0.0000   -0.7363   -0.0000    0.0000
       11 O3     1s         0.0078   -0.0000   -0.0000   -0.0285    0.0433
       12 O3     2s         0.0698   -0.0000    0.0000   -0.3226    0.4192
       13 O3     2px        0.6331    0.0000    0.0000    0.3241   -0.4826
       14 O3     2py        0.1898   -0.0000    0.0000   -0.6580    0.4968
       15 O3     2pz       -0.0000    0.7258    0.6372   -0.0000    0.0000
--
 
 
++    Molecular charges:
      ------------------
 
      Mulliken charges per centre and basis function type
      ---------------------------------------------------
 
                O1      O2      O3    
      1s       2.0001  2.0001  2.0001
      2s       1.9172  1.7832  1.9172
      2px      1.6135  1.6286  1.6135
      2pz      1.3444  1.3111  1.3444
      2py      1.1887  1.1488  1.1887
      Total    8.0641  7.8719  8.0641
 
      N-E     -0.0641  0.1281 -0.0641
 
      Total electronic charge=   24.000000
 
      Total            charge=   -0.000000
--
 
 
  Input file to MOLDEN was generated!
 
 
++    Static properties:
      ------------------
 
 
      LoProp Charges per center
 

                   O1       O2       O3    
      Nuclear      8.0000   8.0000   8.0000
      Electronic  -8.1128  -7.7744  -8.1128
 
      Total       -0.1128   0.2256  -0.1128
--
 
 
++    Natural Bond Order analysis
      ---------------------------
      Based on LoProp computed density
      -------------------------------------------------------------------------------------
      Atom A       Atom B       Bond Order | Atom A       Atom B       Bond Order
        O1           O2             2.000  |   O2           O3             2.000
      -------------------------------------------------------------------------------------
      NBO located     12.000 core electrons.
      NBO located      3.959 lone pair electrons.
      NBO located      8.000 electrons involved in    2 bonds.
      The remaining    0.041 electrons are to be considered as diffuse
--
 
 
++    Molecular properties:
      ---------------------
 
      Charge (e):
                      =   -0.0000
      Dipole Moment (Debye):
      Origin of the operator (Ang)=    0.0000    0.0000    0.0000
                   X= -3.4621E-01               Y= -7.7779E-12               Z=  1.2010E-13           Total=  3.4621E-01
      Quadrupole Moment (Debye*Ang):
      Origin of the operator (Ang)=    0.4764    0.0000    0.0000
                  XX= -1.7234E+01              XY= -2.8354E-12              XZ= -1.8389E-13              YY= -1.8499E+01
                  YZ=  7.2119E-14              ZZ= -1.5726E+01
      In traceless form (Debye*Ang)
                  XX= -1.2201E-01              XY= -4.2531E-12              XZ= -2.7584E-13              YY= -2.0185E+00
                  YZ=  1.0818E-13              ZZ=  2.1405E+00
--
 
 
  Input file to MOLDEN was generated!
 
 ###############################################################################
 ###############################################################################
 ###                                                                         ###
 ###                                                                         ###
 ###    RunFile label nBas                                                   ###
 ###    was used       78 times                                              ###
 ###                                                                         ###
 ###                                                                         ###
 ###############################################################################
 ###############################################################################
--- Stop Module: scf at Tue Jul 30 20:43:07 2024 /rc=_RC_ALL_IS_WELL_ ---
*** files: O3_112.LprOrb O3_112.LoProp.molden O3_112.scf.molden O3_112.ScfOrb O3_112.scf.h5 xmldump
    saved to directory /home/grierjones/DDCASPT2/ozone/basis_sets/MB/O3/O3_112

>>> COPY /tmp/MOLCASTMP/O3_112/O3_112.scf.h5 /home/grierjones/DDCASPT2/ozone/basis_sets/MB/O3/O3_112/

*** symbolic link created: INPORB -> O3_112.ScfOrb
--- Start Module: rasscf at Tue Jul 30 20:43:07 2024 ---
 
()()()()()()()()()()()()()()()()()()()()()()()()()()()()()()()()()()()()()()()()()()()()()()()()()()

                                              &RASSCF

                                   only a single process is used
                       available to each process: 2.0 GB of memory, 1 thread?
()()()()()()()()()()()()()()()()()()()()()()()()()()()()()()()()()()()()()()()()()()()()()()()()()()
 
 
      Header of the ONEINT file:
      --------------------------
      
      Integrals generated by seward 4.2.0  , Tue Jul 30 20:43:07 2024
 
 
      OrdInt status: non-squared
 
 
      Cartesian coordinates in Angstrom:
      -----------------------------------------------------
      No.  Label        X            Y            Z        
      -----------------------------------------------------
       1   O1         0.71464900   1.05951000   0.00000000
       2   O2         0.00000000   0.00000000   0.00000000
       3   O3         0.71464900  -1.05951000   0.00000000
      -----------------------------------------------------
      Nuclear repulsion energy =   68.98307336
 
++    Wave function specifications:
      -----------------------------
 
      Number of closed shell electrons          20
      Number of electrons in active shells       4
      Max number of holes in RAS1 space          0
      Max nr of electrons in RAS3 space          0
      Number of inactive orbitals               10
      Number of active orbitals                  3
      Number of secondary orbitals               2
      Spin quantum number                      0.0
      State symmetry                             1
--
 
++    Orbital specifications:
      -----------------------
 
      Symmetry species                           1
                                                 a
      Frozen orbitals                            0
      Inactive orbitals                         10
      Active orbitals                            3
      RAS1 orbitals                              0
      RAS2 orbitals                              3
      RAS3 orbitals                              0
      Secondary orbitals                         2
      Deleted orbitals                           0
      Number of basis functions                 15
--
 
++    CI expansion specifications:
      ----------------------------
 
      Number of CSFs                             6
      Number of determinants                     6
      Number of root(s) required                 1
      Root chosen for geometry opt.              1
      CI root used                               1
         
      highest root included in the CI            1
      max. size of the explicit Hamiltonian      6
--
 
++    Optimization specifications:
      ----------------------------
 
      RASSCF algorithm: Conventional
      Maximum number of macro iterations       200
      Maximum number of SX iterations          100
      Threshold for RASSCF energy            0.100E-07
      Threshold for max MO rotation          0.100E+00
      Threshold for max BLB element          0.100E-03
      Level shift parameter                  0.500E+00
      Make Quasi-Newton update
--
 
      The MO-coefficients are taken from the file:
      /home/grierjones/DDCASPT2/ozone/basis_sets/MB/O3/O3_111/O3_111.RasOrb                                                           
      Title: RASSCF average (pseudo-natural) orbitals                                      
 
      Total molecular charge    0.00
 
      ************************************************************************************************************************
      *                                                                                                                      *
      *                                            Wave function control section                                             *
      *                                                                                                                      *
      ************************************************************************************************************************
 
 
                                         RASSCF iterations: Energy and convergence statistics
                                         ----------------------------------------------------
 
      Iter CI   SX   CI       RASSCF       Energy    max ROT     max BLB   max BLB  Level Ln srch  Step   QN   Walltime
          iter iter root      energy       change     param      element    value   shift minimum  type update hh:mm:ss
 Nr of preliminary CI iterations:   1
        1   1    3    1  -224.36640669    0.00E+00   0.26E-02    7  14 1 -0.69E-02*  0.23   0.00    SX    NO    0:00:00
        2   1    3    1  -224.36646829   -0.62E-04* -0.13E-02    7  14 1 -0.33E-02*  0.23   0.00    SX    NO    0:00:00
        3   1    3    1  -224.36648877   -0.20E-04*  0.84E-03    7  14 1 -0.21E-02*  0.23   0.00    SX    NO    0:00:00
        4   1    3    1  -224.36649637   -0.76E-05*  0.51E-03    9  15 1  0.12E-02*  0.23   0.00    SX    NO    0:00:00
        5   1    3    1  -224.36649914   -0.28E-05*  0.76E-03    9  15 1  0.78E-03*  0.23   2.50    LS   YES    0:00:00
        6   1    3    1  -224.36650080   -0.17E-05* -0.79E-04    4  14 1 -0.14E-03*  0.23   1.06    QN   YES    0:00:00
        7   1    2    1  -224.36650083   -0.26E-07* -0.42E-04   10  14 1 -0.48E-04   0.23   1.31    QN   YES    0:00:00
        8   1    2    1  -224.36650083   -0.48E-08   0.11E-04    8  15 1 -0.19E-04   0.23   1.22    QN   YES    0:00:00
      Convergence after  8 iterations
        9   1    2    1  -224.36650083   -0.41E-09   0.11E-04    4  14 1  0.10E-04   0.23   1.22    QN   YES    0:00:00
 
      ************************************************************************************************************************
                                                      Wave function printout:
                       occupation of active orbitals, and spin coupling of open shells (u,d: Spin up or down)
      ************************************************************************************************************************
 
      Note: transformation to natural orbitals
      has been made, which may change the order of the CSFs.
 
      printout of CI-coefficients larger than  0.00 for root  1
      energy=    -224.366501
      conf/sym  111     Coeff  Weight
             1  220  -0.85884 0.73760
 
   + sqrt(     1/1     )  |220|
 
             2  2ud   0.00000 0.00000
 
   + sqrt(     1/2     )  |2ab|
   - sqrt(     1/2     )  |2ba|
 
             3  202   0.50909 0.25918
 
   + sqrt(     1/1     )  |202|
 
             4  u2d  -0.00000 0.00000
 
   - sqrt(     1/2     )  |a2b|
   + sqrt(     1/2     )  |b2a|
 
             5  ud2  -0.00000 0.00000
 
   + sqrt(     1/2     )  |ab2|
   - sqrt(     1/2     )  |ba2|
 
             6  022   0.05678 0.00322
 
   + sqrt(     1/1     )  |022|
 
 
      Natural orbitals and occupation numbers for root  1
      sym 1:   1.993553   1.481648   0.524800
 
      ************************************************************************************************************************
      *                                                                                                                      *
      *                                                    Final results                                                     *
      *                                                                                                                      *
      ************************************************************************************************************************
 
 
++    Wave function specifications:
      -----------------------------
 
      Number of closed shell electrons          20
      Number of electrons in active shells       4
      Max number of holes in RAS1 space          0
      Max nr of electrons in RAS3 space          0
      Number of inactive orbitals               10
      Number of active orbitals                  3
      Number of secondary orbitals               2
      Spin quantum number                      0.0
      State symmetry                             1
--
 
++    Orbital specifications:
      -----------------------
 
      Symmetry species                           1
                                                 a
      Frozen orbitals                            0
      Inactive orbitals                         10
      Active orbitals                            3
      RAS1 orbitals                              0
      RAS2 orbitals                              3
      RAS3 orbitals                              0
      Secondary orbitals                         2
      Deleted orbitals                           0
      Number of basis functions                 15
--
 
++    CI expansion specifications:
      ----------------------------
 
      Number of CSFs                             6
      Number of determinants                     6
      Number of root(s) required                 1
      CI root used                               1
      highest root included in the CI            1
      Root passed to geometry opt.               1
--
 
++    Final optimization conditions:
      ------------------------------
 
      Average CI energy                            -224.36650083
      RASSCF energy for state  1                   -224.36650083
      Super-CI energy                                -0.00000000
      RASSCF energy change                           -0.00000000
      Max change in MO coefficients               0.110E-04
      Max non-diagonal density matrix element     0.106E-04
      Maximum BLB matrix element                  0.104E-04
      (orbital pair   4,  14 in symmetry   1)
      Norm of electronic gradient            0.117E-04
--
 
 
      Final state energy(ies):
      ------------------------
 
::    RASSCF root number  1 Total energy:   -224.36650083
 
++    Molecular orbitals:
      -------------------
 
      Pseudonatural active orbitals and approximate occupation numbers
 
 
 
 
      Molecular orbitals for symmetry species 1: a  
 
 
      Orbital                1         2         3         4         5         6         7         8         9        10
      Energy          -20.9327  -20.8153  -20.8152   -1.7850   -1.4637   -1.1256   -0.8334   -0.8051   -0.6203   -0.5957
      Occ. No.          2.0000    2.0000    2.0000    2.0000    2.0000    2.0000    2.0000    2.0000    2.0000    2.0000
 
    1 O1     1s         0.0021   -0.7071    0.7071   -0.0192    0.0097    0.0103   -0.0159   -0.0209    0.0018    0.0081
    2 O1     2s        -0.0006   -0.0003    0.0000    0.3117   -0.6023    0.5905   -0.2543   -0.3749    0.0354    0.0639
    3 O1     2px       -0.0001    0.0007   -0.0007   -0.0654    0.0581    0.1116    0.1871   -0.3942   -0.4719    0.6256
    4 O1     2py        0.0003    0.0011   -0.0009   -0.1001    0.0929    0.0928   -0.3893   -0.2522    0.5744   -0.1142
    5 O1     2pz        0.0000   -0.0000   -0.0000    0.0000   -0.0000   -0.0000    0.0000   -0.0000   -0.0000    0.0000
    6 O2     1s         1.0000    0.0000   -0.0033   -0.0255    0.0000   -0.0127   -0.0108   -0.0000   -0.0000    0.0226
    7 O2     2s         0.0005    0.0000   -0.0011    0.6050   -0.0000   -0.6726   -0.1552   -0.0000   -0.0000    0.2912
    8 O2     2px        0.0019    0.0000   -0.0002    0.1635   -0.0000    0.1599    0.6052    0.0000    0.0000   -0.5634
    9 O2     2py        0.0000    0.0005    0.0000   -0.0000   -0.2915    0.0000   -0.0000    0.5402   -0.1538   -0.0000
   10 O2     2pz       -0.0000   -0.0000    0.0000    0.0000   -0.0000    0.0000    0.0000    0.0000   -0.0000   -0.0000
   11 O3     1s         0.0021    0.7071    0.7071   -0.0192   -0.0097    0.0103   -0.0159    0.0209   -0.0018    0.0081
   12 O3     2s        -0.0006    0.0003    0.0000    0.3117    0.6023    0.5905   -0.2543    0.3749   -0.0354    0.0639
   13 O3     2px       -0.0001   -0.0007   -0.0007   -0.0654   -0.0581    0.1116    0.1871    0.3942    0.4719    0.6256
   14 O3     2py       -0.0003    0.0011    0.0009    0.1001    0.0929   -0.0928    0.3893   -0.2522    0.5744    0.1142
   15 O3     2pz       -0.0000   -0.0000    0.0000   -0.0000   -0.0000    0.0000   -0.0000   -0.0000   -0.0000   -0.0000
 
 
      Orbital               11        12        13        14        15
      Energy            0.0000    0.0000    0.0000    0.2745    0.3822
      Occ. No.          1.9936    1.4816    0.5248    0.0000    0.0000
 
    1 O1     1s        -0.0000    0.0000    0.0000   -0.0302   -0.0452
    2 O1     2s        -0.0000   -0.0000    0.0000   -0.3396   -0.4346
    3 O1     2px       -0.0000    0.0000   -0.0000    0.2973    0.4655
    4 O1     2py        0.0000   -0.0000    0.0000    0.6453    0.4659
    5 O1     2pz        0.2133   -0.7258    0.6887    0.0000    0.0000
    6 O2     1s         0.0000    0.0000   -0.0000    0.0814   -0.0000
    7 O2     2s         0.0000    0.0000   -0.0000    0.8217   -0.0000
    8 O2     2px       -0.0000   -0.0000    0.0000    0.7074   -0.0000
    9 O2     2py       -0.0000   -0.0000   -0.0000    0.0000    1.0336
   10 O2     2pz        0.8653   -0.0000   -0.5862    0.0000   -0.0000
   11 O3     1s         0.0000    0.0000   -0.0000   -0.0302    0.0452
   12 O3     2s         0.0000   -0.0000   -0.0000   -0.3396    0.4346
   13 O3     2px        0.0000    0.0000    0.0000    0.2973   -0.4655
   14 O3     2py        0.0000    0.0000    0.0000   -0.6453    0.4659
   15 O3     2pz        0.2133    0.7258    0.6887   -0.0000    0.0000
--
 
      Von Neumann Entropy (Root  1) =  0.83174
 

      Mulliken population analysis for root number:  1
      -----------------------------------------------
 
 
++    Molecular charges:
      ------------------
 
      Mulliken charges per centre and basis function type
      ---------------------------------------------------
 
                O1      O2      O3    
      1s       2.0001  2.0002  2.0001
      2s       1.9075  1.7714  1.9075
      2px      1.6730  1.5152  1.6730
      2pz      1.1306  1.7388  1.1306
      2py      1.2798  0.9924  1.2798
      Total    7.9910  8.0180  7.9910
 
      N-E      0.0090 -0.0180  0.0090
 
      Total electronic charge=   24.000000
 
      Total            charge=   -0.000000
--
 
 

      Expectation values of various properties for root number:  1
      -----------------------------------------------------------
 
 
++    Molecular properties:
      ---------------------
 
      Charge (e):
                      =   -0.0000
      Dipole Moment (Debye):
      Origin of the operator (Ang)=    0.0000    0.0000    0.0000
                   X=  1.9317E-01               Y= -5.0879E-12               Z=  1.3411E-12           Total=  1.9317E-01
      Quadrupole Moment (Debye*Ang):
      Origin of the operator (Ang)=    0.4764    0.0000    0.0000
                  XX= -1.7481E+01              XY= -1.9665E-12              XZ= -3.6512E-11              YY= -1.7891E+01
                  YZ=  9.7227E-07              ZZ= -1.5457E+01
      In traceless form (Debye*Ang)
                  XX= -8.0699E-01              XY= -2.9498E-12              XZ= -5.4768E-11              YY= -1.4214E+00
                  YZ=  1.4584E-06              ZZ=  2.2284E+00
--
 

      LoProp population analysis for root number:  1
      -----------------------------------------------
 
 
++    LoProp analysis:
      ----------------
 
 
 
  Input file to MOLDEN was generated!
 
 
++    Static properties:
      ------------------
 
 
      LoProp Charges per center
 

                   O1       O2       O3    
      Nuclear      8.0000   8.0000   8.0000
      Electronic  -8.0225  -7.9549  -8.0225
 
      Total       -0.0225   0.0451  -0.0225
--
 
 
      Natural Bond Order analysis for root number:  1
 
++    Natural Bond Order analysis
      ---------------------------
      Based on LoProp computed density
      -------------------------------------------------------------------------------------
      Atom A       Atom B       Bond Order | Atom A       Atom B       Bond Order
        O1           O2             1.966  |   O2           O3             1.966
      -------------------------------------------------------------------------------------
      NBO located     12.000 core electrons.
      NBO located      3.955 lone pair electrons.
      NBO located      7.864 electrons involved in    2 bonds.
      The remaining    0.182 electrons are to be considered as diffuse
--
 
--
 
 
  Input file to MOLDEN was generated!
 
      Average orbitals are written to the RASORB file
      Natural orbitals for root   1 are written to the RASORB.1 file
      Spin density orbitals for root   1 are written to the SPDORB.1 file
 
--- Stop Module: rasscf at Tue Jul 30 20:43:08 2024 /rc=_RC_ALL_IS_WELL_ ---
*** files: O3_112.LprOrb O3_112.rasscf.molden O3_112.LoProp.molden O3_112.RasOrb O3_112.RasOrb.1 O3_112.rasscf.h5 O3_112.SpdOrb.1 xmldump
    saved to directory /home/grierjones/DDCASPT2/ozone/basis_sets/MB/O3/O3_112

>>> COPY /tmp/MOLCASTMP/O3_112/O3_112.rasscf.h5 /home/grierjones/DDCASPT2/ozone/basis_sets/MB/O3/O3_112/

>>> COPY /tmp/MOLCASTMP/O3_112/GMJ_Fock_MO.csv /home/grierjones/DDCASPT2/ozone/basis_sets/MB/O3/O3_112/O3_112.GMJ_Fock_MO.csv

*** symbolic link created: INPORB -> O3_112.RasOrb
--- Start Module: caspt2 at Tue Jul 30 20:43:08 2024 ---
 
()()()()()()()()()()()()()()()()()()()()()()()()()()()()()()()()()()()()()()()()()()()()()()()()()()

                                              &CASPT2

                                   only a single process is used
                       available to each process: 2.0 GB of memory, 1 thread?
()()()()()()()()()()()()()()()()()()()()()()()()()()()()()()()()()()()()()()()()()()()()()()()()()()
 
 Cholesky algorithm in CASPT2 =    1
 
 ###############################################################################
 ###############################################################################
 ###                                                                         ###
 ###                                                                         ###
 ###    User changed nr of frozen orbitals.                                  ###
 ###                                                                         ###
 ###                                                                         ###
 ###############################################################################
 ###############################################################################
 
++    Wave function specifications:
      -----------------------------
 
      Number of closed shell electrons          20
      Number of electrons in active shells       4
      Max number of holes in RAS1 space          0
      Max number of electrons in RAS3 space      0
      Number of inactive orbitals               10
      Number of active orbitals                  3
      Number of secondary orbitals               2
      Spin quantum number                      0.0
      State symmetry                             1
      Number of CSFs                             6
      Number of root(s) available                1
      Root passed to geometry opt.               1
      A file JOBMIX will be created.
      This is a CASSCF or RASSCF reference function
--
 
++    Orbital specifications:
      -----------------------
 
      Symmetry species                           1
                                                 a
      Frozen orbitals                            0
      Inactive orbitals                         10
      Active orbitals                            3
      Secondary orbitals                         2
      Deleted orbitals                           0
      Number of basis functions                 15
--
 
      Type of Fock operator: STANDARD
      Type of 0-order Hamiltonian: STANDARD WITH DEFAULT IPEA
        "IP-EA" denominator shift =      0.25
      The input orbitals and the CI vector will be transformed.
 
--------------------------------------------------------------------------------
 Estimated memory requirements:
  POLY3 :                   250202
  RHS:                      251368
  SIGMA :                   251440
  PRPCTL:                        0
 Available workspace:    230399382
 
++ CASPT2 computation for group   1
 
********************************************************************************
 Multi-State initialization phase begins for group   1
--------------------------------------------------------------------------------
********************************************************************************
 Compute H0 matrices for state    1
--------------------------------------------------------------------------------
--------------------------------------------------------------------------------
 H0 matrices have been computed.
 
********************************************************************************
  CASPT2 EQUATION SOLUTION
--------------------------------------------------------------------------------
 
  Total nr of CASPT2 parameters:
   Before reduction:        2100
   After  reduction:        1232
-------------------------------------------------------------------------------------------------------------------
 
  FINAL CASPT2 RESULT:
 
  Correlation energy /Case, /Symm, and sums:
 VJTU     -0.00000000 -0.00000000
 VJTIP    -0.00065754 -0.00065754
 VJTIM     0.00000000  0.00000000
 ATVX     -0.00000000 -0.00000000
 AIVX     -0.04339821 -0.04339821
 VJAIP    -0.00000000 -0.00000000
 VJAIM    -0.00000000 -0.00000000
 BVATP    -0.00057482 -0.00057482
 BVATM    -0.00000012 -0.00000012
 BJATP    -0.00000000 -0.00000000
 BJATM    -0.00000000 -0.00000000
 BJAIP    -0.04434374 -0.04434374
 BJAIM    -0.00630109 -0.00630109
 Summed:  -0.09527552 -0.09527552
 
      Reference energy:        -224.3665008342
      E2 (Non-variational):      -0.0952755171
      E2 (Variational):          -0.0952755384
      Total energy:            -224.4617763726
      Residual norm:              0.0000007000
      Reference weight:           0.95410
 
      Contributions to the CASPT2 correlation energy
      Active & Virtual Only:         -0.0005749335
      One Inactive Excited:          -0.0433982110
      Two Inactive Excited:          -0.0513023726
 
 
++ Denominators, etc.
----------------------------------------------------------------------------------------------------
 Report on small energy denominators, large coefficients, and large energy contributions.
CASE  SYMM ACTIVE-MIX  NON-ACTIVE INDICES          DENOMINATOR     RHS VALUE       COEFFICIENT     CONTRIBUTION
AIVX     1  Mu1.0003  In1.005 Se1.014               1.99240446     -0.05584670      0.02802980     -0.00156537
AIVX     1  Mu1.0001  In1.007 Se1.014               1.03046812      0.02792755     -0.02710181     -0.00075689
AIVX     1  Mu1.0004  In1.007 Se1.014               1.58093655     -0.04314198      0.02728887     -0.00117730
AIVX     1  Mu1.0005  In1.007 Se1.014               1.65760785     -0.06977314      0.04209267     -0.00293694
AIVX     1  Mu1.0002  In1.008 Se1.014               1.25849112      0.05855530     -0.04652818     -0.00272447
AIVX     1  Mu1.0002  In1.009 Se1.014               1.07374456     -0.04393336      0.04091602     -0.00179758
AIVX     1  Mu1.0003  In1.009 Se1.014               1.14900888     -0.03193365      0.02779234     -0.00088751
AIVX     1  Mu1.0005  In1.010 Se1.014               1.41991728      0.04346410     -0.03061030     -0.00133045
AIVX     1  Mu1.0001  In1.008 Se1.015               1.10985117      0.04074605     -0.03671307     -0.00149591
AIVX     1  Mu1.0004  In1.008 Se1.015               1.66031960     -0.06252439      0.03765804     -0.00235455
AIVX     1  Mu1.0005  In1.008 Se1.015               1.73699090     -0.09861361      0.05677267     -0.00559856
AIVX     1  Mu1.0006  In1.008 Se1.015               1.89804401      0.07036520     -0.03707248     -0.00260861
AIVX     1  Mu1.0002  In1.010 Se1.015               1.15686604     -0.05086162      0.04396500     -0.00223613
AIVX     1  Mu1.0003  In1.010 Se1.015               1.23213037     -0.03409669      0.02767295     -0.00094356
BJAIP    1  Se1.014 In1.007 Se1.014 In1.007         2.21580530      0.06512634     -0.02939173     -0.00191418
BJAIP    1  Se1.014 In1.007 Se1.015 In1.008         2.29518835      0.08290054     -0.03611927     -0.00299431
BJAIP    1  Se1.014 In1.008 Se1.014 In1.008         2.15912285      0.06059983     -0.02806687     -0.00170085
BJAIP    1  Se1.015 In1.008 Se1.015 In1.008         2.37457140      0.11688665     -0.04922431     -0.00575367
BJAIP    1  Se1.014 In1.009 Se1.014 In1.009         1.78962973      0.04523712     -0.02527736     -0.00114348
BJAIP    1  Se1.014 In1.008 Se1.015 In1.010         2.05749777     -0.08807955      0.04280906     -0.00377060
BJAIP    1  Se1.015 In1.010 Se1.015 In1.010         1.95587269      0.05584285     -0.02855137     -0.00159439
BJAIM    1  Se1.014 In1.007 Se1.014 In1.008         2.29518835      0.08452499     -0.03682704     -0.00311281
--
 
   (Skipping property calculation,
    use PROP keyword to activate)
--
 
  Total CASPT2 energies:
::    CASPT2 Root  1     Total energy:   -224.46177637
 
  A NEW JOBIPH FILE NAMED 'JOBMIX' IS PREPARED.
********************************************************************************
--- Stop Module: caspt2 at Tue Jul 30 20:43:08 2024 /rc=_RC_ALL_IS_WELL_ ---
*** files: xmldump
    saved to directory /home/grierjones/DDCASPT2/ozone/basis_sets/MB/O3/O3_112

>>> EXPORT i = B

>>> EXPORT j = P

>>> IF (-FILE GMJ_e2_${i}_${j}.csv)

>>> COPY /tmp/MOLCASTMP/O3_112/GMJ_RHS_B_P.csv /home/grierjones/DDCASPT2/ozone/basis_sets/MB/O3/O3_112/GMJ_RHS_B_P.csv

>>> COPY /tmp/MOLCASTMP/O3_112/GMJ_IVECW_B_P.csv /home/grierjones/DDCASPT2/ozone/basis_sets/MB/O3/O3_112/GMJ_IVECW_B_P.csv

>>> COPY /tmp/MOLCASTMP/O3_112/GMJ_e2_B_P.csv /home/grierjones/DDCASPT2/ozone/basis_sets/MB/O3/O3_112/GMJ_e2_B_P.csv

>>> END FOREACH

>>> EXPORT j = M

>>> IF (-FILE GMJ_e2_${i}_${j}.csv)
(Skipped)

>>> END FOREACH

>>> END FOREACH

>>> EXPORT i = E

>>> EXPORT j = P

>>> IF (-FILE GMJ_e2_${i}_${j}.csv)

>>> COPY /tmp/MOLCASTMP/O3_112/GMJ_RHS_E_P.csv /home/grierjones/DDCASPT2/ozone/basis_sets/MB/O3/O3_112/GMJ_RHS_E_P.csv

>>> COPY /tmp/MOLCASTMP/O3_112/GMJ_IVECW_E_P.csv /home/grierjones/DDCASPT2/ozone/basis_sets/MB/O3/O3_112/GMJ_IVECW_E_P.csv

>>> COPY /tmp/MOLCASTMP/O3_112/GMJ_e2_E_P.csv /home/grierjones/DDCASPT2/ozone/basis_sets/MB/O3/O3_112/GMJ_e2_E_P.csv

>>> END FOREACH

>>> EXPORT j = M

>>> IF (-FILE GMJ_e2_${i}_${j}.csv)

>>> COPY /tmp/MOLCASTMP/O3_112/GMJ_RHS_E_M.csv /home/grierjones/DDCASPT2/ozone/basis_sets/MB/O3/O3_112/GMJ_RHS_E_M.csv

>>> COPY /tmp/MOLCASTMP/O3_112/GMJ_IVECW_E_M.csv /home/grierjones/DDCASPT2/ozone/basis_sets/MB/O3/O3_112/GMJ_IVECW_E_M.csv

>>> COPY /tmp/MOLCASTMP/O3_112/GMJ_e2_E_M.csv /home/grierjones/DDCASPT2/ozone/basis_sets/MB/O3/O3_112/GMJ_e2_E_M.csv

>>> END FOREACH

>>> END FOREACH

>>> EXPORT i = F

>>> EXPORT j = P

>>> IF (-FILE GMJ_e2_${i}_${j}.csv)

>>> COPY /tmp/MOLCASTMP/O3_112/GMJ_RHS_F_P.csv /home/grierjones/DDCASPT2/ozone/basis_sets/MB/O3/O3_112/GMJ_RHS_F_P.csv

>>> COPY /tmp/MOLCASTMP/O3_112/GMJ_IVECW_F_P.csv /home/grierjones/DDCASPT2/ozone/basis_sets/MB/O3/O3_112/GMJ_IVECW_F_P.csv

>>> COPY /tmp/MOLCASTMP/O3_112/GMJ_e2_F_P.csv /home/grierjones/DDCASPT2/ozone/basis_sets/MB/O3/O3_112/GMJ_e2_F_P.csv

>>> END FOREACH

>>> EXPORT j = M

>>> IF (-FILE GMJ_e2_${i}_${j}.csv)

>>> COPY /tmp/MOLCASTMP/O3_112/GMJ_RHS_F_M.csv /home/grierjones/DDCASPT2/ozone/basis_sets/MB/O3/O3_112/GMJ_RHS_F_M.csv

>>> COPY /tmp/MOLCASTMP/O3_112/GMJ_IVECW_F_M.csv /home/grierjones/DDCASPT2/ozone/basis_sets/MB/O3/O3_112/GMJ_IVECW_F_M.csv

>>> COPY /tmp/MOLCASTMP/O3_112/GMJ_e2_F_M.csv /home/grierjones/DDCASPT2/ozone/basis_sets/MB/O3/O3_112/GMJ_e2_F_M.csv

>>> END FOREACH

>>> END FOREACH

>>> EXPORT i = G

>>> EXPORT j = P

>>> IF (-FILE GMJ_e2_${i}_${j}.csv)

>>> COPY /tmp/MOLCASTMP/O3_112/GMJ_RHS_G_P.csv /home/grierjones/DDCASPT2/ozone/basis_sets/MB/O3/O3_112/GMJ_RHS_G_P.csv

>>> COPY /tmp/MOLCASTMP/O3_112/GMJ_IVECW_G_P.csv /home/grierjones/DDCASPT2/ozone/basis_sets/MB/O3/O3_112/GMJ_IVECW_G_P.csv

>>> COPY /tmp/MOLCASTMP/O3_112/GMJ_e2_G_P.csv /home/grierjones/DDCASPT2/ozone/basis_sets/MB/O3/O3_112/GMJ_e2_G_P.csv

>>> END FOREACH

>>> EXPORT j = M

>>> IF (-FILE GMJ_e2_${i}_${j}.csv)

>>> COPY /tmp/MOLCASTMP/O3_112/GMJ_RHS_G_M.csv /home/grierjones/DDCASPT2/ozone/basis_sets/MB/O3/O3_112/GMJ_RHS_G_M.csv

>>> COPY /tmp/MOLCASTMP/O3_112/GMJ_IVECW_G_M.csv /home/grierjones/DDCASPT2/ozone/basis_sets/MB/O3/O3_112/GMJ_IVECW_G_M.csv

>>> COPY /tmp/MOLCASTMP/O3_112/GMJ_e2_G_M.csv /home/grierjones/DDCASPT2/ozone/basis_sets/MB/O3/O3_112/GMJ_e2_G_M.csv

>>> END FOREACH

>>> END FOREACH

>>> EXPORT i = H

>>> EXPORT j = P

>>> IF (-FILE GMJ_e2_${i}_${j}.csv)

>>> COPY /tmp/MOLCASTMP/O3_112/GMJ_RHS_H_P.csv /home/grierjones/DDCASPT2/ozone/basis_sets/MB/O3/O3_112/GMJ_RHS_H_P.csv

>>> COPY /tmp/MOLCASTMP/O3_112/GMJ_IVECW_H_P.csv /home/grierjones/DDCASPT2/ozone/basis_sets/MB/O3/O3_112/GMJ_IVECW_H_P.csv

>>> COPY /tmp/MOLCASTMP/O3_112/GMJ_e2_H_P.csv /home/grierjones/DDCASPT2/ozone/basis_sets/MB/O3/O3_112/GMJ_e2_H_P.csv

>>> END FOREACH

>>> EXPORT j = M

>>> IF (-FILE GMJ_e2_${i}_${j}.csv)

>>> COPY /tmp/MOLCASTMP/O3_112/GMJ_RHS_H_M.csv /home/grierjones/DDCASPT2/ozone/basis_sets/MB/O3/O3_112/GMJ_RHS_H_M.csv

>>> COPY /tmp/MOLCASTMP/O3_112/GMJ_IVECW_H_M.csv /home/grierjones/DDCASPT2/ozone/basis_sets/MB/O3/O3_112/GMJ_IVECW_H_M.csv

>>> COPY /tmp/MOLCASTMP/O3_112/GMJ_e2_H_M.csv /home/grierjones/DDCASPT2/ozone/basis_sets/MB/O3/O3_112/GMJ_e2_H_M.csv

>>> END FOREACH

>>> END FOREACH

>>> EXPORT i = A

>>> IF (-FILE GMJ_e2_$i.csv)

>>> COPY /tmp/MOLCASTMP/O3_112/GMJ_RHS_A.csv /home/grierjones/DDCASPT2/ozone/basis_sets/MB/O3/O3_112/GMJ_RHS_A.csv

>>> COPY /tmp/MOLCASTMP/O3_112/GMJ_IVECW_A.csv /home/grierjones/DDCASPT2/ozone/basis_sets/MB/O3/O3_112/GMJ_IVECW_A.csv

>>> COPY /tmp/MOLCASTMP/O3_112/GMJ_e2_A.csv /home/grierjones/DDCASPT2/ozone/basis_sets/MB/O3/O3_112/GMJ_e2_A.csv

>>> END FOREACH

>>> EXPORT i = C

>>> IF (-FILE GMJ_e2_$i.csv)

>>> COPY /tmp/MOLCASTMP/O3_112/GMJ_RHS_C.csv /home/grierjones/DDCASPT2/ozone/basis_sets/MB/O3/O3_112/GMJ_RHS_C.csv

>>> COPY /tmp/MOLCASTMP/O3_112/GMJ_IVECW_C.csv /home/grierjones/DDCASPT2/ozone/basis_sets/MB/O3/O3_112/GMJ_IVECW_C.csv

>>> COPY /tmp/MOLCASTMP/O3_112/GMJ_e2_C.csv /home/grierjones/DDCASPT2/ozone/basis_sets/MB/O3/O3_112/GMJ_e2_C.csv

>>> END FOREACH

>>> EXPORT i = D

>>> IF (-FILE GMJ_e2_$i.csv)

>>> COPY /tmp/MOLCASTMP/O3_112/GMJ_RHS_D.csv /home/grierjones/DDCASPT2/ozone/basis_sets/MB/O3/O3_112/GMJ_RHS_D.csv

>>> COPY /tmp/MOLCASTMP/O3_112/GMJ_IVECW_D.csv /home/grierjones/DDCASPT2/ozone/basis_sets/MB/O3/O3_112/GMJ_IVECW_D.csv

>>> COPY /tmp/MOLCASTMP/O3_112/GMJ_e2_D.csv /home/grierjones/DDCASPT2/ozone/basis_sets/MB/O3/O3_112/GMJ_e2_D.csv

>>> END FOREACH

.########################.
.# Non-zero return code #.
.########################.

    Timing: Wall=1.10 User=0.79 System=0.30
************************************************
*** WorkDir at /tmp/MOLCASTMP/O3_112 cleaned ***
************************************************
