[Molden Format]
[N_Atoms]
                     2
[Atoms] (AU)
C1          1      6           0.00000000      0.00000000      0.00000000
N2          2      7           0.00000000      0.00000000      4.53534270
[Charge] (Mulliken)
  0.104474657871521     
 -0.104474657871544     
[GTO] (AU)
   1
   s  14
  5.055750100E+04  1.128874000E-04
  7.524785600E+03  5.295373000E-04
  1.694327600E+03  2.450038300E-03
  4.728227900E+02  1.005398470E-02
  1.517107500E+02  3.545398060E-02
  5.391874600E+01  1.044071086E-01
  2.065931100E+01  2.412894918E-01
  8.383976000E+00  3.834225483E-01
  3.577015000E+00  3.078514393E-01
  1.547118000E+00  6.872442990E-02
  6.130130000E-01  2.224445000E-04
  2.460680000E-01  1.976748900E-03
  9.908700000E-02  2.057859400E-03
  3.468000000E-02  4.182020000E-04
   s  14
  5.055750100E+04 -2.507420000E-05
  7.524785600E+03 -1.175945000E-04
  1.694327600E+03 -5.456275000E-04
  4.728227900E+02 -2.245077100E-03
  1.517107500E+02 -8.043471800E-03
  5.391874600E+01 -2.442588710E-02
  2.065931100E+01 -6.136791180E-02
  8.383976000E+00 -1.177767835E-01
  3.577015000E+00 -1.550487783E-01
  1.547118000E+00 -1.933316860E-02
  6.130130000E-01  3.996930678E-01
  2.460680000E-01  5.589420949E-01
  9.908700000E-02  1.711195023E-01
  3.468000000E-02  7.456244600E-03
   p   9
  8.333315500E+01  1.344656000E-03
  1.955761100E+01  1.023555500E-02
  6.080365000E+00  4.520067100E-02
  2.179317000E+00  1.410756198E-01
  8.651500000E-01  3.047388085E-01
  3.619440000E-01  3.995281011E-01
  1.547400000E-01  2.719163432E-01
  6.542900000E-02  5.857669330E-02
  2.290000000E-02 -1.263813000E-04
 
   2
   s  14
  7.476171500E+04  1.182599996E-04
  1.112365400E+04  5.172899983E-04
  2.512685700E+03  2.266659992E-03
  7.037772900E+02  9.145289970E-03
  2.254787900E+02  3.239342989E-02
  7.961581000E+01  9.770792967E-02
  3.023728300E+01  2.317036792E-01
  1.226362200E+01  3.768898887E-01
  5.265086000E+00  3.177420689E-01
  2.333471000E+00  8.211308973E-02
  9.018560000E-01  3.312089989E-03
  3.583360000E-01  3.720819988E-03
  1.410930000E-01  3.165419989E-03
  4.938300000E-02  4.595799985E-04
   s  14
  7.476171500E+04 -2.707000010E-05
  1.112365400E+04 -1.183700004E-04
  2.512685700E+03 -5.203800020E-04
  7.037772900E+02 -2.102930008E-03
  2.254787900E+02 -7.568200028E-03
  7.961581000E+01 -2.346767009E-02
  3.023728300E+01 -6.042901023E-02
  1.226362200E+01 -1.170549104E-01
  5.265086000E+00 -1.555321506E-01
  2.333471000E+00 -2.468935009E-02
  9.018560000E-01  3.625054514E-01
  3.583360000E-01  5.550845021E-01
  1.410930000E-01  2.148376908E-01
  4.938300000E-02  8.983850034E-03
   p   9
  1.266665700E+02  1.233630000E-03
  2.983738900E+01  9.493409996E-03
  9.394038000E+00  4.293961998E-02
  3.405104000E+00  1.362925399E-01
  1.350000000E+00  2.921362499E-01
  5.576960000E-01  3.887887598E-01
  2.324490000E-01  2.946801399E-01
  9.426400000E-02  8.012875997E-02
  3.299200000E-02  5.405199998E-04
 
[MO]
Sym=     1a  
Ene=   -15.4690
Spin= Alpha
Occup=    1.00000
   1        -0.00036999
   2        -0.00038068
   3        -0.00001080
   4        -0.00002540
   5         0.00541214
   6         0.99991571
   7        -0.00539859
   8        -0.00007718
   9        -0.00018216
  10        -0.00138373
Sym=     1a  
Ene=   -15.4690
Spin= Beta
Occup=    1.00000
   1        -0.00036999
   2        -0.00038068
   3        -0.00001080
   4        -0.00002540
   5         0.00541214
   6         0.99991571
   7        -0.00539859
   8        -0.00007718
   9        -0.00018216
  10        -0.00138373
Sym=     2a  
Ene=   -11.3100
Spin= Alpha
Occup=    1.00000
   1         0.99986713
   2        -0.00256082
   3        -0.00002620
   4        -0.00006164
   5         0.01437762
   6         0.00005825
   7        -0.00009099
   8        -0.00018672
   9        -0.00044069
  10        -0.00237874
Sym=     2a  
Ene=   -11.3100
Spin= Beta
Occup=    1.00000
   1         0.99986713
   2        -0.00256082
   3        -0.00002620
   4        -0.00006164
   5         0.01437762
   6         0.00005825
   7        -0.00009099
   8        -0.00018672
   9        -0.00044069
  10        -0.00237874
Sym=     3a  
Ene=    -0.8552
Spin= Alpha
Occup=    1.00000
   1        -0.00213359
   2         0.18008718
   3         0.00031121
   4         0.00073252
   5        -0.12447524
   6         0.00596621
   7         0.97776604
   8         0.00252658
   9         0.00596275
  10         0.03255311
Sym=     3a  
Ene=    -0.8552
Spin= Beta
Occup=    1.00000
   1        -0.00213359
   2         0.18008718
   3         0.00031121
   4         0.00073252
   5        -0.12447524
   6         0.00596621
   7         0.97776604
   8         0.00252658
   9         0.00596275
  10         0.03255311
Sym=     4a  
Ene=    -0.7135
Spin= Alpha
Occup=    1.00000
   1        -0.00295170
   2        -0.98024702
   3         0.00000795
   4         0.00001876
   5         0.00553754
   6         0.00489070
   7         0.24997205
   8         0.00002817
   9         0.00006629
  10         0.04916867
Sym=     4a  
Ene=    -0.7135
Spin= Beta
Occup=    1.00000
   1        -0.00295170
   2        -0.98024702
   3         0.00000795
   4         0.00001876
   5         0.00553754
   6         0.00489070
   7         0.24997205
   8         0.00002817
   9         0.00006629
  10         0.04916867
Sym=     5a  
Ene=    -0.3606
Spin= Alpha
Occup=    1.00000
   1        -0.00004694
   2        -0.00119171
   3         0.02529181
   4         0.05969311
   5         0.03201470
   6        -0.00034103
   7        -0.00610019
   8         0.38788463
   9         0.91546947
  10        -0.00712505
Sym=     5a  
Ene=    -0.3606
Spin= Beta
Occup=    1.00000
   1        -0.00004694
   2        -0.00119171
   3         0.02529181
   4         0.05969311
   5         0.03201470
   6        -0.00034103
   7        -0.00610019
   8         0.38788463
   9         0.91546947
  10        -0.00712505
Sym=     6a  
Ene=    -0.3778
Spin= Alpha
Occup=    1.00000
   1         0.01626859
   2        -0.00360998
   3         0.00177138
   4         0.00416797
   5        -0.95883738
   6         0.01538831
   7        -0.00727647
   8         0.01267550
   9         0.02991550
  10         0.17181243
Sym=     6a  
Ene=    -0.3778
Spin= Beta
Occup=    1.00000
   1         0.01626859
   2        -0.00360998
   3         0.00177138
   4         0.00416797
   5        -0.95883738
   6         0.01538831
   7        -0.00727647
   8         0.01267550
   9         0.02991550
  10         0.17181243
Sym=     7a  
Ene=    -0.0000
Spin= Alpha
Occup=    1.00000
   1         0.00000002
   2         0.00000032
   3        -0.03500865
   4         0.01483317
   5         0.00000002
   6        -0.00000000
   7         0.00000006
   8        -0.91843245
   9         0.38914006
  10         0.00000235
Sym=     7a  
Ene=    -0.0000
Spin= Beta
Occup=    0.00000
   1         0.00000002
   2         0.00000032
   3        -0.03500865
   4         0.01483317
   5         0.00000002
   6        -0.00000000
   7         0.00000006
   8        -0.91843245
   9         0.38914006
  10         0.00000235
Sym=     8a  
Ene=     0.0945
Spin= Alpha
Occup=    0.00000
   1         0.00001080
   2         0.00020225
   3        -0.38974466
   4        -0.91985836
   5        -0.00202621
   6         0.00002073
   7         0.00027900
   8         0.04383960
   9         0.10346834
  10         0.00140844
Sym=     8a  
Ene=     0.0945
Spin= Beta
Occup=    0.00000
   1         0.00001080
   2         0.00020225
   3        -0.38974466
   4        -0.91985836
   5        -0.00202621
   6         0.00002073
   7         0.00027900
   8         0.04383960
   9         0.10346834
  10         0.00140844
Sym=     9a  
Ene=     0.0956
Spin= Alpha
Occup=    0.00000
   1         0.00000002
   2         0.00000047
   3        -0.92113839
   4         0.39028702
   5        -0.00000415
   6         0.00000004
   7         0.00000056
   8         0.07876338
   9        -0.03337211
  10         0.00000307
Sym=     9a  
Ene=     0.0956
Spin= Beta
Occup=    0.00000
   1         0.00000002
   2         0.00000047
   3        -0.92113839
   4         0.39028702
   5        -0.00000415
   6         0.00000004
   7         0.00000056
   8         0.07876338
   9        -0.03337211
  10         0.00000307
Sym=    10a  
Ene=     0.2068
Spin= Alpha
Occup=    0.00000
   1        -0.00834607
   2        -0.16204047
   3        -0.00041650
   4        -0.00097716
   5        -0.32260998
   6         0.00387817
   7         0.07182100
   8        -0.00044124
   9        -0.00103619
  10        -1.00145989
Sym=    10a  
Ene=     0.2068
Spin= Beta
Occup=    0.00000
   1        -0.00834607
   2        -0.16204047
   3        -0.00041650
   4        -0.00097716
   5        -0.32260998
   6         0.00387817
   7         0.07182100
   8        -0.00044124
   9        -0.00103619
  10        -1.00145989
