[Molden Format]
[N_Atoms]
                     2
[Atoms] (AU)
C1          1      6           0.00000000      0.00000000      0.00000000
N2          2      7           0.00000000      0.00000000      4.53534270
[Charge] (Mulliken)
 -1.739696250527878E-002
  1.739696250521483E-002
[GTO] (AU)
   1
   s  14
  5.055750100E+04  1.128874000E-04
  7.524785600E+03  5.295373000E-04
  1.694327600E+03  2.450038300E-03
  4.728227900E+02  1.005398470E-02
  1.517107500E+02  3.545398060E-02
  5.391874600E+01  1.044071086E-01
  2.065931100E+01  2.412894918E-01
  8.383976000E+00  3.834225483E-01
  3.577015000E+00  3.078514393E-01
  1.547118000E+00  6.872442990E-02
  6.130130000E-01  2.224445000E-04
  2.460680000E-01  1.976748900E-03
  9.908700000E-02  2.057859400E-03
  3.468000000E-02  4.182020000E-04
   s  14
  5.055750100E+04 -2.507420000E-05
  7.524785600E+03 -1.175945000E-04
  1.694327600E+03 -5.456275000E-04
  4.728227900E+02 -2.245077100E-03
  1.517107500E+02 -8.043471800E-03
  5.391874600E+01 -2.442588710E-02
  2.065931100E+01 -6.136791180E-02
  8.383976000E+00 -1.177767835E-01
  3.577015000E+00 -1.550487783E-01
  1.547118000E+00 -1.933316860E-02
  6.130130000E-01  3.996930678E-01
  2.460680000E-01  5.589420949E-01
  9.908700000E-02  1.711195023E-01
  3.468000000E-02  7.456244600E-03
   p   9
  8.333315500E+01  1.344656000E-03
  1.955761100E+01  1.023555500E-02
  6.080365000E+00  4.520067100E-02
  2.179317000E+00  1.410756198E-01
  8.651500000E-01  3.047388085E-01
  3.619440000E-01  3.995281011E-01
  1.547400000E-01  2.719163432E-01
  6.542900000E-02  5.857669330E-02
  2.290000000E-02 -1.263813000E-04
 
   2
   s  14
  7.476171500E+04  1.182599996E-04
  1.112365400E+04  5.172899983E-04
  2.512685700E+03  2.266659992E-03
  7.037772900E+02  9.145289970E-03
  2.254787900E+02  3.239342989E-02
  7.961581000E+01  9.770792967E-02
  3.023728300E+01  2.317036792E-01
  1.226362200E+01  3.768898887E-01
  5.265086000E+00  3.177420689E-01
  2.333471000E+00  8.211308973E-02
  9.018560000E-01  3.312089989E-03
  3.583360000E-01  3.720819988E-03
  1.410930000E-01  3.165419989E-03
  4.938300000E-02  4.595799985E-04
   s  14
  7.476171500E+04 -2.707000010E-05
  1.112365400E+04 -1.183700004E-04
  2.512685700E+03 -5.203800020E-04
  7.037772900E+02 -2.102930008E-03
  2.254787900E+02 -7.568200028E-03
  7.961581000E+01 -2.346767009E-02
  3.023728300E+01 -6.042901023E-02
  1.226362200E+01 -1.170549104E-01
  5.265086000E+00 -1.555321506E-01
  2.333471000E+00 -2.468935009E-02
  9.018560000E-01  3.625054514E-01
  3.583360000E-01  5.550845021E-01
  1.410930000E-01  2.148376908E-01
  4.938300000E-02  8.983850034E-03
   p   9
  1.266665700E+02  1.233630000E-03
  2.983738900E+01  9.493409996E-03
  9.394038000E+00  4.293961998E-02
  3.405104000E+00  1.362925399E-01
  1.350000000E+00  2.921362499E-01
  5.576960000E-01  3.887887598E-01
  2.324490000E-01  2.946801399E-01
  9.426400000E-02  8.012875997E-02
  3.299200000E-02  5.405199998E-04
 
[MO]
Sym=     1a  
Ene=   -15.6260
Spin= Alpha
Occup=    1.00000
   1        -0.00004627
   2        -0.00055493
   3        -0.00000000
   4         0.00000000
   5        -0.00060374
   6         1.00000580
   7        -0.00225557
   8         0.00000000
   9        -0.00000000
  10        -0.00015004
Sym=     1a  
Ene=   -15.5330
Spin= Beta
Occup=    1.00000
   1        -0.00002697
   2        -0.00022211
   3        -0.00000000
   4         0.00000000
   5        -0.00017979
   6         0.99996234
   7        -0.00896352
   8        -0.00000000
   9        -0.00000000
  10        -0.00006815
Sym=     2a  
Ene=   -11.2020
Spin= Alpha
Occup=    1.00000
   1         0.99998973
   2        -0.00484004
   3         0.00000000
   4        -0.00000000
   5         0.00013835
   6        -0.00002849
   7        -0.00023346
   8        -0.00000000
   9        -0.00000000
  10         0.00010356
Sym=     2a  
Ene=   -11.2490
Spin= Beta
Occup=    1.00000
   1         1.00000553
   2         0.00018650
   3         0.00000000
   4         0.00000000
   5         0.00040124
   6        -0.00005011
   7        -0.00054007
   8        -0.00000000
   9        -0.00000000
  10         0.00049259
Sym=     3a  
Ene=    -1.1487
Spin= Alpha
Occup=    1.00000
   1         0.00270893
   2        -0.01586807
   3        -0.00000000
   4        -0.00000000
   5        -0.00599854
   6        -0.00225285
   7        -0.99783687
   8         0.00000000
   9        -0.00000000
  10         0.00766760
Sym=     3a  
Ene=    -0.8035
Spin= Beta
Occup=    1.00000
   1        -0.00133866
   2         0.89137777
   3        -0.00000000
   4         0.00000000
   5         0.04839657
   6        -0.00018713
   7         0.37718736
   8        -0.00000000
   9         0.00000000
  10        -0.02251774
Sym=     4a  
Ene=    -0.6050
Spin= Alpha
Occup=    1.00000
   1        -0.00263721
   2         0.58256630
   3        -0.00000000
   4         0.00000000
   5         0.01369971
   6        -0.00243473
   7        -0.06321890
   8         0.00000000
   9         0.00000000
  10        -0.74874875
Sym=     4a  
Ene=    -0.7140
Spin= Beta
Occup=    1.00000
   1         0.00263180
   2         0.45414933
   3         0.00000000
   4         0.00000000
   5        -0.01974391
   6        -0.00971962
   7        -0.92325614
   8         0.00000000
   9        -0.00000000
  10         0.00573964
Sym=     5a  
Ene=    -0.5659
Spin= Alpha
Occup=    1.00000
   1         0.00000000
   2        -0.00000000
   3        -0.00003798
   4         0.01244860
   5        -0.00000000
   6         0.00000000
   7        -0.00000000
   8        -0.00304862
   9         0.99932618
  10         0.00000000
Sym=     5a  
Ene=    -0.4017
Spin= Beta
Occup=    1.00000
   1        -0.00000000
   2         0.00000000
   3         0.95805925
   4        -0.28037065
   5        -0.00000000
   6         0.00000000
   7         0.00000000
   8         0.02733577
   9        -0.00799966
  10         0.00000000
Sym=     6a  
Ene=    -0.5659
Spin= Alpha
Occup=    1.00000
   1         0.00000000
   2        -0.00000000
   3         0.01244860
   4         0.00003798
   5        -0.00000000
   6         0.00000000
   7         0.00000000
   8         0.99932618
   9         0.00304862
  10         0.00000000
Sym=     6a  
Ene=    -0.4017
Spin= Beta
Occup=    1.00000
   1         0.00000000
   2        -0.00000000
   3        -0.28037065
   4        -0.95805925
   5         0.00000000
   6        -0.00000000
   7        -0.00000000
   8        -0.00799966
   9        -0.02733577
  10        -0.00000000
Sym=     7a  
Ene=    -0.5106
Spin= Alpha
Occup=    1.00000
   1         0.00905688
   2         0.81853434
   3        -0.00000000
   4        -0.00000000
   5        -0.09948518
   6        -0.00216833
   7        -0.05508501
   8        -0.00000000
   9         0.00000000
  10         0.65131772
Sym=     7a  
Ene=     0.0910
Spin= Beta
Occup=    0.00000
   1         0.00291034
   2         0.07766993
   3        -0.00000000
   4        -0.00000000
   5        -0.86468088
   6         0.00924265
   7         0.15001957
   8        -0.00000000
   9         0.00000000
  10         0.40214663
Sym=     8a  
Ene=     0.1988
Spin= Alpha
Occup=    0.00000
   1         0.00249278
   2         0.09968164
   3         0.00000000
   4         0.00000000
   5         1.01494570
   6        -0.01075147
   7        -0.14517427
   8        -0.00000000
   9        -0.00000000
  10         0.22601045
Sym=     8a  
Ene=     0.2366
Spin= Beta
Occup=    0.00000
   1        -0.00000000
   2        -0.00000000
   3        -0.00151907
   4        -0.07601313
   5         0.00000000
   6        -0.00000000
   7        -0.00000000
   8         0.01999481
   9         1.00052711
  10        -0.00000000
Sym=     9a  
Ene=     0.2380
Spin= Alpha
Occup=    0.00000
   1        -0.00000000
   2        -0.00000000
   3         0.94629422
   4        -0.32655445
   5        -0.00000000
   6         0.00000000
   7         0.00000000
   8        -0.05674470
   9         0.01958189
  10        -0.00000000
Sym=     9a  
Ene=     0.2366
Spin= Beta
Occup=    0.00000
   1         0.00000000
   2         0.00000000
   3        -0.07601313
   4         0.00151907
   5         0.00000000
   6         0.00000000
   7         0.00000000
   8         1.00052711
   9        -0.01999481
  10         0.00000000
Sym=    10a  
Ene=     0.2380
Spin= Alpha
Occup=    0.00000
   1        -0.00000000
   2        -0.00000000
   3         0.32655445
   4         0.94629422
   5        -0.00000000
   6         0.00000000
   7         0.00000000
   8        -0.01958189
   9        -0.05674470
  10        -0.00000000
Sym=    10a  
Ene=     0.2912
Spin= Beta
Occup=    0.00000
   1        -0.00733157
   2        -0.11293924
   3        -0.00000000
   4        -0.00000000
   5        -0.53835941
   6         0.00618756
   7         0.08081710
   8         0.00000000
   9        -0.00000000
  10        -0.93472823
