[Molden Format]
[N_Atoms]
                     2
[Atoms] (AU)
F1          1      9           0.00000000      0.00000000      0.00000000
LI2         2      3           0.00000000      0.00000000      2.07869874
[Charge] (Mulliken)
  0.859046858656322     
   1.14095314134366     
[GTO] (AU)
   1
   s  14
  1.031094600E+05  1.713099991E-04
  1.528100700E+04  7.123999962E-04
  3.441539200E+03  2.990479984E-03
  9.670948300E+02  1.164036994E-02
  3.140353400E+02  3.968642979E-02
  1.134423000E+02  1.128546094E-01
  4.464472700E+01  2.473650687E-01
  1.894287400E+01  3.672702681E-01
  8.532743000E+00  2.896286985E-01
  3.919401000E+00  7.786681959E-02
  1.568157000E+00  4.562139976E-03
  6.232900000E-01  2.468879987E-03
  2.408610000E-01  1.106309994E-03
  8.430100000E-02  1.739699991E-04
   s  14
  1.031094600E+05 -4.044999995E-05
  1.528100700E+04 -1.682299998E-04
  3.441539200E+03 -7.084299991E-04
  9.670948300E+02 -2.767999996E-03
  3.140353400E+02 -9.611379987E-03
  1.134423000E+02 -2.833957996E-02
  4.464472700E+01 -6.839343991E-02
  1.894287400E+01 -1.237379298E-01
  8.532743000E+00 -1.512859698E-01
  3.919401000E+00 -9.099909988E-03
  1.568157000E+00  3.716257695E-01
  6.232900000E-01  5.500214393E-01
  2.408610000E-01  2.092318697E-01
  8.430100000E-02  8.074639989E-03
   p   9
  2.453302900E+02  1.024860004E-03
  5.691900500E+01  8.344290032E-03
  1.760456800E+01  4.078927016E-02
  6.274995000E+00  1.351370605E-01
  2.447030000E+00  2.798830811E-01
  9.950600000E-01  3.597966414E-01
  4.039730000E-01  3.055347412E-01
  1.548100000E-01  1.354703905E-01
  5.418400000E-02  2.804449011E-02
 
   2
   s  14
  9.497934400E+03  9.668999974E-05
  1.416811200E+03  6.087099984E-04
  3.214599400E+02  3.101519992E-03
  9.112416300E+01  1.266904997E-02
  2.999989100E+01  4.248012989E-02
  1.101763100E+01  1.150183297E-01
  4.372801000E+00  2.398650094E-01
  1.831256000E+00  3.584300090E-01
  8.022610000E-01  3.048527792E-01
  3.626480000E-01  8.824261976E-02
  1.139950000E-01 -8.445899977E-04
  5.123700000E-02 -7.943959979E-03
  2.246800000E-02 -3.764419990E-03
  7.860000000E-03 -8.868999976E-05
   s  14
  9.497934400E+03 -1.244999993E-05
  1.416811200E+03 -7.838999954E-05
  3.214599400E+02 -4.007099976E-04
  9.112416300E+01 -1.645249990E-03
  2.999989100E+01 -5.634599967E-03
  1.101763100E+01 -1.590780991E-02
  4.372801000E+00 -3.612581979E-02
  1.831256000E+00 -6.459927962E-02
  8.022610000E-01 -1.008321794E-01
  3.626480000E-01 -9.757613942E-02
  1.139950000E-01  2.301215886E-01
  5.123700000E-02  6.102389764E-01
  2.246800000E-02  2.849406083E-01
  7.860000000E-03  4.026899976E-03
   p   9
  1.311950400E+01  1.524940000E-03
  3.077424200E+00  8.314830000E-03
  1.098800500E+00  1.933203000E-02
  4.357784000E-01  4.934293000E-02
  1.802432000E-01  1.623554000E-01
  7.613330000E-02  3.847505400E-01
  3.254650000E-02  4.336100400E-01
  1.401820000E-02  1.287005900E-01
  4.906400000E-03 -1.018520000E-03
 
[MO]
Sym=     1a  
Ene=   -27.9820
Spin= Alpha
Occup=    2.00000
   1         0.99998604
   2        -0.00459403
   3        -0.00000000
   4        -0.00000000
   5         0.00024265
   6        -0.00005672
   7        -0.00000995
   8         0.00000000
   9         0.00000000
  10        -0.00008584
Sym=     2a  
Ene=    -3.4395
Spin= Alpha
Occup=    2.00000
   1        -0.00546965
   2         0.22750255
   3         0.00000000
   4         0.00000001
   5         0.07836340
   6         0.91784481
   7        -0.01281160
   8        -0.00000000
   9        -0.00000000
  10        -0.00130852
Sym=     3a  
Ene=    -2.7366
Spin= Alpha
Occup=    2.00000
   1        -0.01065083
   2        -1.01257702
   3        -0.00000003
   4        -0.00000015
   5        -0.05301132
   6         0.39189175
   7         0.05123552
   8         0.00000000
   9         0.00000001
  10        -0.02798392
Sym=     4a  
Ene=    -1.9143
Spin= Alpha
Occup=    2.00000
   1        -0.00000000
   2        -0.00000000
   3         1.00175881
   4        -0.19057480
   5         0.00000000
   6        -0.00000000
   7         0.00000000
   8        -0.08367376
   9         0.01591811
  10        -0.00000000
Sym=     5a  
Ene=    -1.8003
Spin= Alpha
Occup=    1.67576
   1        -0.00000000
   2        -0.00000015
   3         0.19062850
   4         1.00204113
   5         0.00000001
   6         0.00000004
   7         0.00000001
   8        -0.01619898
   9        -0.08515012
  10        -0.00000001
Sym=     6a  
Ene=     0.0103
Spin= Alpha
Occup=    0.32424
   1         0.00025957
   2         0.04064060
   3         0.00000000
   4         0.00000002
   5        -1.03638501
   6         0.32224759
   7         0.04149967
   8         0.00000000
   9         0.00000001
  10         0.07610443
Sym=     7a  
Ene=    -0.4249
Spin= Alpha
Occup=    0.00000
   1        -0.04129377
   2        -0.31312678
   3         0.00000000
   4         0.00000000
   5        -0.00162985
   6         0.04765872
   7         1.05860281
   8        -0.00000000
   9        -0.00000002
  10        -0.07035301
Sym=     8a  
Ene=    -0.3413
Spin= Alpha
Occup=    0.00000
   1         0.00000000
   2        -0.00000000
   3        -0.03686276
   4        -0.19376956
   5         0.00000001
   6        -0.00000000
   7         0.00000002
   8         0.19348303
   9         1.01704598
  10         0.00000002
Sym=     9a  
Ene=    -0.3406
Spin= Alpha
Occup=    0.00000
   1        -0.00000000
   2         0.00000000
   3         0.19522385
   4        -0.03713942
   5         0.00000000
   6        -0.00000000
   7        -0.00000000
   8        -1.01716850
   9         0.19350634
  10        -0.00000000
Sym=    10a  
Ene=    -0.3073
Spin= Alpha
Occup=    0.00000
   1         0.05691864
   2         0.39718134
   3         0.00000000
   4         0.00000000
   5        -0.01630411
   6        -0.05490411
   7        -0.06875608
   8        -0.00000000
   9        -0.00000002
  10         1.08460366
