[Molden Format]
[N_Atoms]
                     2
[Atoms] (AU)
F1          1      9           0.00000000      0.00000000      0.00000000
LI2         2      3           0.00000000      0.00000000      2.07869874
[Charge] (Mulliken)
 -0.708818168637748     
  0.708818168637726     
[GTO] (AU)
   1
   s  14
  1.031094600E+05  1.713099991E-04
  1.528100700E+04  7.123999962E-04
  3.441539200E+03  2.990479984E-03
  9.670948300E+02  1.164036994E-02
  3.140353400E+02  3.968642979E-02
  1.134423000E+02  1.128546094E-01
  4.464472700E+01  2.473650687E-01
  1.894287400E+01  3.672702681E-01
  8.532743000E+00  2.896286985E-01
  3.919401000E+00  7.786681959E-02
  1.568157000E+00  4.562139976E-03
  6.232900000E-01  2.468879987E-03
  2.408610000E-01  1.106309994E-03
  8.430100000E-02  1.739699991E-04
   s  14
  1.031094600E+05 -4.044999995E-05
  1.528100700E+04 -1.682299998E-04
  3.441539200E+03 -7.084299991E-04
  9.670948300E+02 -2.767999996E-03
  3.140353400E+02 -9.611379987E-03
  1.134423000E+02 -2.833957996E-02
  4.464472700E+01 -6.839343991E-02
  1.894287400E+01 -1.237379298E-01
  8.532743000E+00 -1.512859698E-01
  3.919401000E+00 -9.099909988E-03
  1.568157000E+00  3.716257695E-01
  6.232900000E-01  5.500214393E-01
  2.408610000E-01  2.092318697E-01
  8.430100000E-02  8.074639989E-03
   p   9
  2.453302900E+02  1.024860004E-03
  5.691900500E+01  8.344290032E-03
  1.760456800E+01  4.078927016E-02
  6.274995000E+00  1.351370605E-01
  2.447030000E+00  2.798830811E-01
  9.950600000E-01  3.597966414E-01
  4.039730000E-01  3.055347412E-01
  1.548100000E-01  1.354703905E-01
  5.418400000E-02  2.804449011E-02
 
   2
   s  14
  9.497934400E+03  9.668999974E-05
  1.416811200E+03  6.087099984E-04
  3.214599400E+02  3.101519992E-03
  9.112416300E+01  1.266904997E-02
  2.999989100E+01  4.248012989E-02
  1.101763100E+01  1.150183297E-01
  4.372801000E+00  2.398650094E-01
  1.831256000E+00  3.584300090E-01
  8.022610000E-01  3.048527792E-01
  3.626480000E-01  8.824261976E-02
  1.139950000E-01 -8.445899977E-04
  5.123700000E-02 -7.943959979E-03
  2.246800000E-02 -3.764419990E-03
  7.860000000E-03 -8.868999976E-05
   s  14
  9.497934400E+03 -1.244999993E-05
  1.416811200E+03 -7.838999954E-05
  3.214599400E+02 -4.007099976E-04
  9.112416300E+01 -1.645249990E-03
  2.999989100E+01 -5.634599967E-03
  1.101763100E+01 -1.590780991E-02
  4.372801000E+00 -3.612581979E-02
  1.831256000E+00 -6.459927962E-02
  8.022610000E-01 -1.008321794E-01
  3.626480000E-01 -9.757613942E-02
  1.139950000E-01  2.301215886E-01
  5.123700000E-02  6.102389764E-01
  2.246800000E-02  2.849406083E-01
  7.860000000E-03  4.026899976E-03
   p   9
  1.311950400E+01  1.524940000E-03
  3.077424200E+00  8.314830000E-03
  1.098800500E+00  1.933203000E-02
  4.357784000E-01  4.934293000E-02
  1.802432000E-01  1.623554000E-01
  7.613330000E-02  3.847505400E-01
  3.254650000E-02  4.336100400E-01
  1.401820000E-02  1.287005900E-01
  4.906400000E-03 -1.018520000E-03
 
[MO]
Sym=     1a  
Ene=   -25.9370
Spin= Alpha
Occup=    2.00000
   1         1.00003342
   2        -0.00183238
   3        -0.00000300
   4        -0.00000206
   5         0.00046071
   6        -0.00042771
   7        -0.00044261
   8        -0.00000043
   9        -0.00000029
  10         0.00033648
Sym=     2a  
Ene=    -2.4728
Spin= Alpha
Occup=    2.00000
   1        -0.00730294
   2         0.10533401
   3        -0.00000303
   4        -0.00000208
   5         0.06060078
   6         0.96112455
   7         0.00588819
   8        -0.00000039
   9        -0.00000027
  10        -0.00015729
Sym=     3a  
Ene=    -1.3680
Spin= Alpha
Occup=    2.00000
   1         0.00173924
   2         0.98646830
   3        -0.00003530
   4        -0.00002417
   5         0.07767676
   6        -0.27931216
   7         0.00973464
   8        -0.00000334
   9        -0.00000229
  10        -0.04390747
Sym=     4a  
Ene=    -0.4918
Spin= Alpha
Occup=    2.00000
   1         0.00000000
   2         0.00000000
   3         0.54086045
   4        -0.78979169
   5        -0.00000000
   6         0.00000000
   7        -0.00000000
   8         0.07296287
   9        -0.10654406
  10         0.00000000
Sym=     5a  
Ene=    -0.4657
Spin= Alpha
Occup=    2.00000
   1        -0.00306017
   2         0.02400147
   3         0.00004728
   4         0.00003238
   5        -1.03439818
   6         0.31207427
   7         0.09750102
   8         0.00000333
   9         0.00000228
  10         0.04599429
Sym=     6a  
Ene=    -0.4811
Spin= Alpha
Occup=    1.99374
   1        -0.00000410
   2        -0.00004295
   3        -0.77819343
   4        -0.53291780
   5        -0.00006385
   6         0.00002683
   7         0.00000762
   8        -0.13496467
   9        -0.09242570
  10         0.00000503
Sym=     7a  
Ene=    -0.0000
Spin= Alpha
Occup=    0.00626
   1        -0.00000288
   2        -0.00002143
   3         0.35940026
   4         0.24612235
   5         0.00000778
   6         0.00000123
   7         0.00000392
   8        -0.84648573
   9        -0.57968533
  10        -0.00005723
Sym=     8a  
Ene=     0.0201
Spin= Alpha
Occup=    0.00000
   1        -0.00274311
   2        -0.05525284
   3         0.00001190
   4         0.00000815
   5         0.01857470
   6        -0.00810366
   7         0.84154648
   8        -0.00002367
   9        -0.00001621
  10         0.54044475
Sym=     9a  
Ene=     0.1293
Spin= Alpha
Occup=    0.00000
   1         0.00000000
   2         0.00000000
   3         0.22813935
   4        -0.33314058
   5         0.00000000
   6        -0.00000000
   7         0.00000000
   8        -0.58245516
   9         0.85053038
  10         0.00000000
Sym=    10a  
Ene=     0.2243
Spin= Alpha
Occup=    0.00000
   1         0.07014507
   2         0.58880941
   3         0.00001517
   4         0.00001039
   5        -0.05729290
   6        -0.07691340
   7        -0.64190513
   8        -0.00003735
   9        -0.00002558
  10         0.94433433
