****************************************************************************************************
*** WorkDir at /lustre/isaac/scratch/gjones39/scpfiles/ANO-RCC-VTZP/ozone_107.25/3252664 cleaned ***
****************************************************************************************************
   This run of MOLCAS is using the pymolcas driver

                             OPE
                             OPE          NMOL  CASOP  ENMOLC A   SO
                 OPE        NMOLC        AS  OP EN  MO LC     AS  OP
                OPENM       OL CA        SO  PE NM  OL CA     SOP EN
                OP EN      MO   LC       AS  OP ENMOL  CASO   PENMOL
                OP  EN     MO   LC       AS  OP EN     MO     LC ASO
               OP   E  NMOL  C  AS       OP  EN MO     LC     AS  OP
               OP  E   NMO   LC AS        OPEN  MO     LCASOP EN   M
               O  PEN   MO  LCA  SO
            OPE   NMO   L   CAS    OP
        OPENMOL  CASOP     ENMOL   CASOPE
     OPENMOLCA   SOPENMOLCASOPEN   MOLCASOPE
    OPENMOLCAS   OP           EN   MOL    CAS
    OPENMOLCAS       OP  ENM        O     LCA
    OPENMOLCAS    OPEN  MOLCASO     P  E  NMO
    OPENMOLCAS     OP               E  N  MOL
    OPENMOLCA   SO           PENM   O  L  CAS    OPEN    MO    LCAS
    OPENMOLCA   SOP           ENM   O  L  CAS   OP  EN  MOLC  AS   O
    OPENMOLCA   SOPE           NM      O  LCA   S      OP  EN MO
    OPENMOLC                AS         O  PEN   M      OL  CA  SOPE
    OPENMO        LCASOPE  NMOL        C  ASO   P      ENMOLC     AS
    OPE     NMO      LCA  SO     P     E   NM   OL  CA SO  PE N   MO
          OPENMOLCA            SOPE   NMO        LCAS  O    P  ENMO
     OPENMOLCASOPENMOLCASOPENMOLCASOPENMOLCA
        OPENMOLCASOPENMOLCASOPENMOLCASOPE
            OPENMOLCASOPENMOLCASOPENM
               OPENMOLCASOPENMOLCA        version: f37762c57-dirty
                   OPENMOLCASO
                       OPE                tag:

 OpenMolcas is free software; you can redistribute it and/or modify it
 under the terms of the GNU Lesser General Public License version 2.1.
 OpenMolcas is distributed in the hope that it will be useful, but it
 is provided "as is" and without any express or implied warranties.
 For more details see the full text of the license in the file
 LICENSE or in <http://www.gnu.org/licenses/>.

                 Copyright (C) The OpenMolcas Authors
           For the author list and the recommended citation,
                   consult the file CONTRIBUTORS.md

           *************************************************
           * pymolcas version py2.05                       *
           *   build c53fbf9a0f911de0c7c16766b0715e61      *
           *   (after the EMIL interpreter by V. Veryazov) *
           *************************************************

configuration info
------------------
C Compiler ID: GNU
C flags: -std=gnu99
Fortran Compiler ID: Intel
Fortran flags: -fpp -i8 -r8 -heap-arrays
Definitions: _MOLCAS_;_I8_;_LINUX_
Parallel: OFF (GA=OFF)


   ------------------------------------------------------------------------------------------------
  |
  |              Project: ozone_107.25
  |       Submitted from: /lustre/isaac/scratch/gjones39/scpfiles/ANO-RCC-VTZP/ozone_107.25
  |         Scratch area: /lustre/isaac/scratch/gjones39/scpfiles/ANO-RCC-VTZP/ozone_107.25/3252664
  |      Save outputs to: /lustre/isaac/scratch/gjones39/scpfiles/ANO-RCC-VTZP/ozone_107.25
  |               Molcas: /lustre/isaac/proj/UTK0022/Grier2025/Test/build
  |
  | Scratch area is empty
  |
  |       MOLCAS_DRIVER = /nfs/home/gjones39/bin/pymolcas
  | MOLCAS_KEEP_WORKDIR = NO
  |      MOLCAS_MAXITER = 100
  |  MOLCAS_NEW_WORKDIR = YES
  |       MOLCAS_NPROCS = 1
  |       MOLCAS_SOURCE = /lustre/isaac/proj/UTK0022/Grier2025/Test
  |    MOLCAS_STRUCTURE = 0
  |
   ------------------------------------------------------------------------------------------------

++ ---------   Input file   ---------

&GATEWAY
coord=ozone_107.25.xyz
Basis = ANO-RCC-VTZP
Group = nosymm
End of Input

&SEWARD
End of Input

&SCF
FileOrb
/lustre/isaac/scratch/gjones39/scpfiles/ANO-RCC-VTZP/ozone_107.00/ozone_107.00.ScfOrb

>>> COPY $WorkDir/ozone_107.25.scf.h5 $CurrDir/

&RASSCF
Title= RASSCF
ITERation
200 100
CIMX
200
SDAV
500
FileOrb
/lustre/isaac/scratch/gjones39/scpfiles/ANO-RCC-VTZP/ozone_107.00/ozone_107.00.RasOrb
CIROOT
3 3 1
NACTEL
12 0 0
Inactive
6
RAS2
9
Symmetry
1
Spin
1
orblisting
all

>>> COPY $WorkDir/ozone_107.25.rasscf.h5 $CurrDir/

>>> COPY $WorkDir/GMJ_Fock_MO.csv $CurrDir/ozone_107.25.GMJ_Fock_MO.csv

&MOTRA
Frozen=0
LUMORB

>>> COPY $WorkDir/GMJ_one_int_indx.csv $CurrDir/ozone_107.25.GMJ_one_int_indx.csv

>>> COPY $WorkDir/GMJ_one_int.csv $CurrDir/ozone_107.25.GMJ_one_int.csv

>>> COPY $WorkDir/GMJ_two_int_indx.csv $CurrDir/ozone_107.25.GMJ_two_int_indx.csv

>>> COPY $WorkDir/GMJ_two_int.csv $CurrDir/ozone_107.25.GMJ_two_int.csv

&CASPT2

Multistate
ALL

Frozen
0

MAXITER
50

>>> FOREACH k IN (1,2,3)

  >>> FOREACH i IN (B,E,F,G,H)

    >>> FOREACH j IN (P,M)

      >>> IF (-FILE GMJ_e2_${i}_${j}_${k}_.csv)

        >>> COPY $WorkDir/GMJ_RHS_${i}_${j}_${k}_.csv $CurrDir/GMJ_RHS_${i}_${j}_${k}_.csv

        >>> COPY $WorkDir/GMJ_IVECW_${i}_${j}_${k}_.csv $CurrDir/GMJ_IVECW_${i}_${j}_${k}_.csv

        >>> COPY $WorkDir/GMJ_IVECX_${i}_${j}_${k}_.csv $CurrDir/GMJ_IVECX_${i}_${j}_${k}_.csv

        >>> COPY $WorkDir/GMJ_IVECC2_${i}_${j}_${k}_.csv $CurrDir/GMJ_IVECC2_${i}_${j}_${k}_.csv

        >>> COPY $WorkDir/GMJ_e2_${i}_${j}_${k}_.csv $CurrDir/GMJ_e2_${i}_${j}_${k}_.csv

      >>> END IF

    >>> END FOREACH

  >>> END FOREACH

>>> END FOREACH

>>> FOREACH j IN (1,2,3)

  >>> FOREACH i IN (A,C,D)

    >>> IF (-FILE GMJ_e2_${i}_${j}_.csv)

      >>> COPY $WorkDir/GMJ_RHS_${i}_${j}_.csv $CurrDir/GMJ_RHS_${i}_${j}_.csv

      >>> COPY $WorkDir/GMJ_IVECW_${i}_${j}_.csv $CurrDir/GMJ_IVECW_${i}_${j}_.csv

      >>> COPY $WorkDir/GMJ_IVECX_${i}_${j}_.csv $CurrDir/GMJ_IVECX_${i}_${j}_.csv

      >>> COPY $WorkDir/GMJ_IVECC2_${i}_${j}_.csv $CurrDir/GMJ_IVECC2_${i}_${j}_.csv

      >>> COPY $WorkDir/GMJ_e2_${i}_${j}_.csv $CurrDir/GMJ_e2_${i}_${j}_.csv

    >>> END IF

  >>> END FOREACH

>>> END FOREACH

-- ----------------------------------

--- Start Module: gateway at Mon May 12 20:43:43 2025 ---
 
()()()()()()()()()()()()()()()()()()()()()()()()()()()()()()()()()()()()()()()()()()()()()()()()()()

                                              &GATEWAY

                                   only a single process is used
                       available to each process: 62 GB of memory, 1 thread?
()()()()()()()()()()()()()()()()()()()()()()()()()()()()()()()()()()()()()()()()()()()()()()()()()()
 
 
++    Symmetry information:
      ---------------------
 
                    Character Table for C1 
 
                             E  
                    a        1  x, y, xy, Rz, z, xz, Ry, yz, Rx, I
--
 
 
++    Basis set information:
      ----------------------
 
 
      Basis set label: O.ANO-RCC...4S3P2D1F.
 
      Electronic valence basis set:
      ------------------
      Associated Effective Charge   8.000000 au
      Associated Actual Charge      8.000000 au
      Nuclear Model: Point charge
 
      Shell  nPrim  nBasis  Cartesian Spherical Contaminant
         s      14       4        X                  
         p       9       3        X                  
         d       4       2                 X         
         f       3       1                 X         
--
 
 
++    Molecular structure info:
      -------------------------
 
                    ************************************************ 
                    **** Cartesian Coordinates / Bohr, Angstrom **** 
                    ************************************************ 
 
     Center  Label                x              y              z                     x              y              z
        1      O1               1.432299       1.944500       0.000000              0.757940       1.028985       0.000000
        2      O2               0.000000       0.000000       0.000000              0.000000       0.000000       0.000000
        3      O3               1.432299      -1.944500       0.000000              0.757940      -1.028985       0.000000
 
                    *************************************** 
                    *    InterNuclear Distances / Bohr    * 
                    *************************************** 
 
               1 O1            2 O2            3 O3    
    1 O1       0.000000
    2 O2       2.415069        0.000000
    3 O3       3.889000        2.415069        0.000000
 
                    ******************************************* 
                    *    InterNuclear Distances / Angstrom    * 
                    ******************************************* 
 
               1 O1            2 O2            3 O3    
    1 O1       0.000000
    2 O2       1.278000        0.000000
    3 O3       2.057970        1.278000        0.000000
 
                    ************************************** 
                    *    Valence Bond Angles / Degree    * 
                    ************************************** 
                          Atom centers                 Phi
                      1 O1       2 O2       3 O3       107.25
--
 
 
            Nuclear Potential Energy             69.45722185 au
 
--- Stop Module: gateway at Mon May 12 20:43:47 2025 /rc=_RC_ALL_IS_WELL_ ---
*** files: xmldump
    saved to directory /lustre/isaac/scratch/gjones39/scpfiles/ANO-RCC-VTZP/ozone_107.25
--- Module gateway spent 3 seconds ---

--- Start Module: seward at Mon May 12 20:43:47 2025 ---
 
()()()()()()()()()()()()()()()()()()()()()()()()()()()()()()()()()()()()()()()()()()()()()()()()()()

                                              &SEWARD

                                   only a single process is used
                       available to each process: 62 GB of memory, 1 thread?
()()()()()()()()()()()()()()()()()()()()()()()()()()()()()()()()()()()()()()()()()()()()()()()()()()
 
               SEWARD will generate:
                  Multipole Moment integrals up to order  2
                  Kinetic Energy integrals
                  Nuclear Attraction integrals (point charge)
                  One-Electron Hamiltonian integrals
                  Velocity integrals
                  Relativistic Douglas-Kroll-Hess integrals:
                    - Parametrization         : EXP
                    - DKH order of Hamiltonian: 2
                    - DKH order of Properties : 0
                         - multipole moment operators
                         - electric potential operators
                         - contact operators
                  Atomic mean-field integrals
                  Two-Electron Repulsion integrals
 
                   Integrals are discarded if absolute value <: 0.10E-13
                   Integral cutoff threshold is set to       <: 0.10E-15
 
            Nuclear Potential Energy             69.45722185 au
 
 
      Basis set specifications :
      Symmetry species         a  
      Basis functions           90
 
 
  Input file to MOLDEN was generated!
 
--- Stop Module: seward at Mon May 12 20:43:56 2025 /rc=_RC_ALL_IS_WELL_ ---
*** files: ozone_107.25.GssOrb ozone_107.25.guessorb.h5 ozone_107.25.guessorb.molden xmldump
    saved to directory /lustre/isaac/scratch/gjones39/scpfiles/ANO-RCC-VTZP/ozone_107.25
--- Module seward spent 9 seconds ---

*** symbolic link created: INPORB -> ozone_107.25.GssOrb
--- Start Module: scf at Mon May 12 20:43:56 2025 ---
 
()()()()()()()()()()()()()()()()()()()()()()()()()()()()()()()()()()()()()()()()()()()()()()()()()()

                                                &SCF

                                   only a single process is used
                       available to each process: 62 GB of memory, 1 thread?
()()()()()()()()()()()()()()()()()()()()()()()()()()()()()()()()()()()()()()()()()()()()()()()()()()
 
++    Input section:
      --------------
 
      Header of the integral files:
      
       Integrals generated by seward 4.2.0  , Mon May 12 20:43:47 2025
 
 
      Cartesian coordinates in Angstrom:
      -----------------------------------------------------
      No.  Label        X            Y            Z        
      -----------------------------------------------------
       1   O1         0.75794000   1.02898500   0.00000000
       2   O2         0.00000000   0.00000000   0.00000000
       3   O3         0.75794000  -1.02898500   0.00000000
      -----------------------------------------------------
      Nuclear repulsion energy =   69.45722185
--
 
++    Orbital specifications:
      -----------------------
 
      Symmetry species               1
                                     a
      Frozen orbitals                0
      Occupied orbitals             12
      Secondary orbitals            78
      Deleted orbitals               0
      Total number of orbitals      90
      Number of basis functions     90
--
 
      Molecular charge                           0.000
 
++    Optimization specifications:
      ----------------------------
 
      SCF Algorithm: Conventional
      Minimized density differences are used
      Number of density matrices in core                5
      Maximum number of NDDO SCF iterations           400
      Maximum number of HF SCF iterations             400
      Threshold for SCF energy change            0.10E-08
      Threshold for density matrix               0.10E-03
      Threshold for Fock matrix                  0.15E-03
      Threshold for linear dependence            0.10E-08
      Threshold at which DIIS is turned on       0.15E+00
      Threshold at which QNR/C2DIIS is turned on 0.75E-01
      Threshold for Norm(delta) (QNR/C2DIIS)     0.20E-04
      DIIS extrapolation of the SCF procedure
      All orbitals punched on: SCFORB
--
 
      Input vectors read from INPORB
      Orbital file label: * SCF orbitals
 
 
++ Convergence information
                                   SCF        iterations: Energy and convergence statistics
 
Iter     Tot. SCF        One-elec.       Two-elec.     Energy      Max Dij or  Max Fij      DNorm      TNorm      AccCon     Time
         Energy          Energy          Energy        Change      Delta Norm                                                in Sec.
   1  -224.505151568  -446.610348045   152.647974626   0.00E+00    0.10E-02*   0.51E-03*    0.75E+01   0.11E+03   None         0.
   2  -224.505157098  -446.610474957   152.648096008  -0.55E-05*   0.51E-03*   0.28E-03*    0.73E-02   0.11E+03   EDIIS        0.
   3  -224.505158200  -446.611036075   152.648656024  -0.11E-05*   0.55E-03*   0.23E-03*    0.16E-02   0.11E+03   c2DIIS       0.
   4  -224.505158456  -446.610026927   152.647646620  -0.26E-06*   0.44E-03*   0.20E-03*    0.14E-02   0.11E+03   QNRc2DIIS    0.
   5  -224.505158473  -446.611501946   152.649121623  -0.17E-07*   0.22E-03*   0.22E-03*    0.45E-03   0.11E+03   QNRc2DIIS    0.
   6  -224.505158711  -446.610753637   152.648373075  -0.24E-06*   0.11E-03*   0.25E-04     0.43E-04   0.11E+03   QNRc2DIIS    0.
   7  -224.505158721  -446.610755058   152.648374486  -0.10E-07*   0.14E-05    0.10E-05     0.20E-04   0.11E+03   QNRc2DIIS    0.
   8  -224.505158721  -446.610747967   152.648367394  -0.99E-11    0.35E-05    0.79E-06     0.12E-02   0.11E+03   QNRc2DIIS    0.
 
       Convergence after  8 Macro Iterations
--
 
 *****************************************************************************************************************************
 *                                                                                                                           *
 *                                             SCF/KS-DFT Program, Final results                                             *
 *                                                                                                                           *
 *                                                                                                                           *
 *                                                                                                                           *
 *                                                       Final Results                                                       *
 *                                                                                                                           *
 *****************************************************************************************************************************
 
::    Total SCF energy                               -224.5051587213
      One-electron energy                            -446.6107479668
      Two-electron energy                             152.6483673944
      Nuclear repulsion energy                         69.4572218511
      Kinetic energy (interpolated)                   225.1180819590
      Virial theorem                                    0.9972773256
      Total spin, S(S+1)                                0.0000000000
      Total spin, S                                     0.0000000000
      Max non-diagonal density matrix element           0.0000055400
      Max non-diagonal Fock matrix element              0.0000012266
 
 
      All orbitals with orbital energies smaller than  E(LUMO)+0.5 are printed
 
++    Molecular orbitals:
      -------------------
 
      Title: SCF orbitals

      Molecular orbitals for symmetry species 1: a  
 
          Orbital            1         2         3         4         5         6         7         8         9        10    
          Energy          -20.9382  -20.7184  -20.7183   -1.7568   -1.4137   -1.1080   -0.8301   -0.7937   -0.7819   -0.5705
          Occ. No.          2.0000    2.0000    2.0000    2.0000    2.0000    2.0000    2.0000    2.0000    2.0000    2.0000
 
        1 O1     1s         0.0022   -0.7064    0.7064   -0.0141    0.0112    0.0082   -0.0146   -0.0232   -0.0000    0.0051
        2 O1     2s         0.0040    0.0048   -0.0052    0.3318   -0.5814    0.5660   -0.3062   -0.4273   -0.0000    0.0359
        3 O1     3s         0.0023    0.0036   -0.0036   -0.0119    0.0180    0.0140   -0.0314   -0.0527   -0.0000    0.0150
        4 O1     4s         0.0004    0.0007   -0.0007   -0.0010    0.0040    0.0021   -0.0059   -0.0113   -0.0000    0.0039
        5 O1     2px       -0.0012   -0.0015    0.0014   -0.0628    0.0699    0.1101    0.0826   -0.3476   -0.0000    0.6152
        6 O1     3px       -0.0008   -0.0015    0.0014    0.0125   -0.0097   -0.0180   -0.0002    0.0324    0.0000   -0.0014
        7 O1     4px        0.0002    0.0008   -0.0009    0.0026   -0.0003    0.0009    0.0001    0.0025   -0.0000   -0.0062
        8 O1     2py       -0.0022   -0.0020    0.0021   -0.1043    0.0550    0.0560   -0.3760   -0.2168   -0.0000   -0.1988
        9 O1     3py       -0.0012   -0.0021    0.0020    0.0169   -0.0120   -0.0094    0.0390    0.0323    0.0000   -0.0124
       10 O1     4py        0.0006    0.0012   -0.0012    0.0003   -0.0035    0.0011    0.0028    0.0025    0.0000    0.0007
       11 O1     2pz        0.0000   -0.0000   -0.0000   -0.0000    0.0000    0.0000   -0.0000   -0.0000    0.3658   -0.0000
       12 O1     3pz        0.0000   -0.0000    0.0000   -0.0000    0.0000    0.0000   -0.0000    0.0000   -0.0200   -0.0000
       13 O1     4pz       -0.0000    0.0000    0.0000    0.0000   -0.0000   -0.0000    0.0000    0.0000   -0.0067   -0.0000
       14 O1     3d2-       0.0005    0.0011   -0.0011    0.0194   -0.0154   -0.0114    0.0134    0.0288    0.0000   -0.0152
       15 O1     4d2-       0.0002    0.0005   -0.0006    0.0024   -0.0019   -0.0009    0.0015    0.0026    0.0000   -0.0016
       16 O1     3d1-       0.0000    0.0000    0.0000    0.0000    0.0000    0.0000    0.0000    0.0000   -0.0248   -0.0000
       17 O1     4d1-       0.0000   -0.0000   -0.0000   -0.0000   -0.0000    0.0000    0.0000    0.0000   -0.0032   -0.0000
       18 O1     3d0       -0.0003   -0.0005    0.0005   -0.0104    0.0086    0.0027   -0.0100   -0.0147   -0.0000    0.0054
       19 O1     4d0       -0.0002   -0.0005    0.0004   -0.0001    0.0010   -0.0002   -0.0004   -0.0011   -0.0000    0.0002
       20 O1     3d1+      -0.0000   -0.0000   -0.0000    0.0000    0.0000    0.0000    0.0000    0.0000   -0.0198    0.0000
       21 O1     4d1+       0.0000    0.0000    0.0000    0.0000   -0.0000    0.0000    0.0000    0.0000   -0.0038   -0.0000
       22 O1     3d2+      -0.0004   -0.0004    0.0003   -0.0076    0.0011   -0.0023   -0.0219    0.0016   -0.0000   -0.0044
       23 O1     4d2+      -0.0002   -0.0002    0.0002   -0.0002    0.0005    0.0003   -0.0014    0.0006   -0.0000   -0.0016
       24 O1     4f3-       0.0001   -0.0001    0.0001   -0.0013    0.0028    0.0026    0.0039   -0.0050   -0.0000    0.0037
       25 O1     4f2-      -0.0000    0.0000   -0.0000   -0.0000    0.0000    0.0000   -0.0000   -0.0000    0.0068   -0.0000
       26 O1     4f1-       0.0000    0.0001   -0.0001    0.0029   -0.0023   -0.0003    0.0023    0.0028    0.0000   -0.0015
       27 O1     4f0        0.0000   -0.0000    0.0000   -0.0000   -0.0000   -0.0000    0.0000    0.0000   -0.0038    0.0000
       28 O1     4f1+       0.0000    0.0001   -0.0001    0.0020   -0.0020   -0.0008    0.0011    0.0023    0.0000   -0.0002
       29 O1     4f2+       0.0000    0.0000    0.0000    0.0000    0.0000    0.0000    0.0000    0.0000   -0.0020    0.0000
       30 O1     4f3+       0.0001    0.0002   -0.0002    0.0060   -0.0042   -0.0013    0.0060    0.0049    0.0000   -0.0020
       31 O2     1s         0.9989   -0.0000   -0.0007   -0.0267    0.0000   -0.0172   -0.0079    0.0000   -0.0000    0.0182
       32 O2     2s        -0.0077    0.0000    0.0105    0.6138   -0.0000   -0.6850   -0.0840    0.0000   -0.0000    0.2239
       33 O2     3s        -0.0054    0.0000    0.0060   -0.0640    0.0000   -0.0123   -0.0116    0.0000   -0.0000    0.0428
       34 O2     4s        -0.0012    0.0000    0.0010   -0.0111    0.0000   -0.0033   -0.0034    0.0000   -0.0000    0.0106
       35 O2     2px       -0.0023    0.0000    0.0040    0.1198   -0.0000    0.2693    0.6367    0.0000    0.0000   -0.4592
       36 O2     3px       -0.0028    0.0000    0.0025   -0.0395    0.0000   -0.0374   -0.0637   -0.0000   -0.0000    0.0040
       37 O2     4px        0.0018   -0.0000   -0.0009   -0.0022    0.0000    0.0008   -0.0091   -0.0000   -0.0000    0.0000
       38 O2     2py        0.0000   -0.0051    0.0000   -0.0000   -0.3276    0.0000   -0.0000    0.5774    0.0000   -0.0000
       39 O2     3py        0.0000   -0.0030    0.0000   -0.0000    0.0606   -0.0000    0.0000   -0.0557   -0.0000   -0.0000
       40 O2     4py       -0.0000    0.0012   -0.0000    0.0000   -0.0011   -0.0000    0.0000   -0.0096   -0.0000    0.0000
       41 O2     2pz        0.0000    0.0000   -0.0000    0.0000    0.0000   -0.0000   -0.0000   -0.0000    0.6956    0.0000
       42 O2     3pz        0.0000    0.0000    0.0000    0.0000   -0.0000   -0.0000    0.0000    0.0000   -0.0451    0.0000
       43 O2     4pz        0.0000   -0.0000   -0.0000    0.0000    0.0000   -0.0000    0.0000    0.0000   -0.0157    0.0000
       44 O2     3d2-       0.0000   -0.0015    0.0000   -0.0000   -0.0440    0.0000   -0.0000    0.0326    0.0000   -0.0000
       45 O2     4d2-       0.0000   -0.0007    0.0000   -0.0000   -0.0050    0.0000   -0.0000    0.0033    0.0000   -0.0000
       46 O2     3d1-      -0.0000    0.0000    0.0000    0.0000    0.0000    0.0000   -0.0000   -0.0000   -0.0000   -0.0000
       47 O2     4d1-      -0.0000    0.0000   -0.0000    0.0000    0.0000    0.0000    0.0000   -0.0000   -0.0000   -0.0000
       48 O2     3d0        0.0007   -0.0000   -0.0010   -0.0160    0.0000   -0.0077   -0.0156   -0.0000   -0.0000    0.0169
       49 O2     4d0        0.0007   -0.0000   -0.0005    0.0004    0.0000   -0.0006   -0.0013    0.0000    0.0000    0.0018
       50 O2     3d1+      -0.0000   -0.0000   -0.0000    0.0000    0.0000    0.0000   -0.0000   -0.0000    0.0359    0.0000
       51 O2     4d1+       0.0000   -0.0000   -0.0000    0.0000    0.0000    0.0000   -0.0000   -0.0000    0.0058    0.0000
       52 O2     3d2+       0.0001   -0.0000   -0.0005   -0.0047   -0.0000    0.0034    0.0243    0.0000    0.0000    0.0390
       53 O2     4d2+      -0.0001   -0.0000   -0.0003   -0.0001   -0.0000   -0.0001    0.0032    0.0000    0.0000    0.0086
       54 O2     4f3-       0.0000   -0.0001    0.0000   -0.0000   -0.0019   -0.0000   -0.0000   -0.0021   -0.0000   -0.0000
       55 O2     4f2-       0.0000   -0.0000    0.0000   -0.0000   -0.0000    0.0000   -0.0000   -0.0000   -0.0000   -0.0000
       56 O2     4f1-      -0.0000    0.0001   -0.0000    0.0000    0.0048   -0.0000    0.0000   -0.0040   -0.0000    0.0000
       57 O2     4f0       -0.0000    0.0000    0.0000    0.0000   -0.0000   -0.0000    0.0000    0.0000   -0.0065   -0.0000
       58 O2     4f1+       0.0002   -0.0000   -0.0001   -0.0039    0.0000   -0.0009   -0.0030   -0.0000   -0.0000   -0.0000
       59 O2     4f2+       0.0000   -0.0000    0.0000    0.0000    0.0000    0.0000    0.0000    0.0000   -0.0033   -0.0000
       60 O2     4f3+       0.0001   -0.0000   -0.0002   -0.0085   -0.0000   -0.0003   -0.0016    0.0000   -0.0000    0.0072
       61 O3     1s         0.0022    0.7065    0.7063   -0.0141   -0.0112    0.0082   -0.0146    0.0232    0.0000    0.0051
       62 O3     2s         0.0040   -0.0048   -0.0051    0.3318    0.5814    0.5660   -0.3062    0.4273    0.0000    0.0359
       63 O3     3s         0.0023   -0.0036   -0.0036   -0.0119   -0.0180    0.0140   -0.0314    0.0527    0.0000    0.0150
       64 O3     4s         0.0004   -0.0007   -0.0007   -0.0010   -0.0040    0.0021   -0.0059    0.0113    0.0000    0.0039
       65 O3     2px       -0.0012    0.0015    0.0014   -0.0628   -0.0699    0.1101    0.0826    0.3476    0.0000    0.6152
       66 O3     3px       -0.0008    0.0015    0.0014    0.0125    0.0097   -0.0180   -0.0002   -0.0324   -0.0000   -0.0014
       67 O3     4px        0.0002   -0.0008   -0.0009    0.0026    0.0003    0.0009    0.0001   -0.0025   -0.0000   -0.0062
       68 O3     2py        0.0022   -0.0020   -0.0021    0.1043    0.0550   -0.0560    0.3760   -0.2168   -0.0000    0.1988
       69 O3     3py        0.0012   -0.0021   -0.0020   -0.0169   -0.0120    0.0094   -0.0390    0.0323    0.0000    0.0124
       70 O3     4py       -0.0006    0.0012    0.0012   -0.0003   -0.0035   -0.0011   -0.0028    0.0025   -0.0000   -0.0007
       71 O3     2pz       -0.0000    0.0000    0.0000    0.0000    0.0000   -0.0000   -0.0000   -0.0000    0.3658    0.0000
       72 O3     3pz       -0.0000   -0.0000   -0.0000   -0.0000   -0.0000    0.0000    0.0000    0.0000   -0.0200    0.0000
       73 O3     4pz        0.0000   -0.0000    0.0000   -0.0000   -0.0000    0.0000   -0.0000    0.0000   -0.0067    0.0000
       74 O3     3d2-      -0.0005    0.0011    0.0011   -0.0194   -0.0154    0.0114   -0.0134    0.0288    0.0000    0.0152
       75 O3     4d2-      -0.0002    0.0005    0.0006   -0.0024   -0.0019    0.0009   -0.0015    0.0026    0.0000    0.0016
       76 O3     3d1-      -0.0000    0.0000    0.0000    0.0000    0.0000   -0.0000   -0.0000   -0.0000    0.0248    0.0000
       77 O3     4d1-      -0.0000   -0.0000    0.0000    0.0000    0.0000   -0.0000   -0.0000   -0.0000    0.0032    0.0000
       78 O3     3d0       -0.0003    0.0005    0.0005   -0.0104   -0.0086    0.0027   -0.0100    0.0147    0.0000    0.0054
       79 O3     4d0       -0.0002    0.0005    0.0004   -0.0001   -0.0010   -0.0002   -0.0004    0.0011   -0.0000    0.0002
       80 O3     3d1+       0.0000    0.0000    0.0000   -0.0000   -0.0000   -0.0000    0.0000    0.0000   -0.0198   -0.0000
       81 O3     4d1+      -0.0000    0.0000   -0.0000    0.0000   -0.0000   -0.0000    0.0000    0.0000   -0.0038   -0.0000
       82 O3     3d2+      -0.0004    0.0004    0.0003   -0.0076   -0.0011   -0.0023   -0.0219   -0.0016   -0.0000   -0.0044
       83 O3     4d2+      -0.0002    0.0002    0.0002   -0.0002   -0.0005    0.0003   -0.0014   -0.0006   -0.0000   -0.0016
       84 O3     4f3-      -0.0001   -0.0001   -0.0001    0.0013    0.0028   -0.0026   -0.0039   -0.0050   -0.0000   -0.0037
       85 O3     4f2-      -0.0000    0.0000   -0.0000    0.0000   -0.0000   -0.0000    0.0000    0.0000   -0.0068   -0.0000
       86 O3     4f1-      -0.0000    0.0001    0.0001   -0.0029   -0.0023    0.0003   -0.0023    0.0028    0.0000    0.0015
       87 O3     4f0        0.0000   -0.0000   -0.0000   -0.0000   -0.0000   -0.0000    0.0000    0.0000   -0.0038   -0.0000
       88 O3     4f1+       0.0000   -0.0001   -0.0001    0.0020    0.0020   -0.0008    0.0011   -0.0023   -0.0000   -0.0002
       89 O3     4f2+      -0.0000   -0.0000   -0.0000   -0.0000   -0.0000   -0.0000    0.0000    0.0000   -0.0020   -0.0000
       90 O3     4f3+       0.0001   -0.0002   -0.0002    0.0060    0.0042   -0.0013    0.0060   -0.0049   -0.0000   -0.0020
 
          Orbital           11        12        13        14        15        16        17        18        19        20    
          Energy           -0.5467   -0.4806   -0.0523    0.1713    0.1748    0.2369    0.3054    0.3408    0.3796    0.3915
          Occ. No.          2.0000    2.0000    0.0000    0.0000    0.0000    0.0000    0.0000    0.0000    0.0000    0.0000
 
        1 O1     1s         0.0044   -0.0000    0.0000   -0.1492   -0.1818   -0.0000   -0.0071   -0.0173    0.0723   -0.0000
        2 O1     2s         0.0210   -0.0000    0.0000   -1.0677   -1.3643   -0.0000    0.0552   -0.0079    0.4012   -0.0000
        3 O1     3s         0.0150    0.0000    0.0000   -0.6272   -0.7903   -0.0000   -0.1115   -0.0448    0.4574   -0.0000
        4 O1     4s         0.0038    0.0000    0.0000   -0.1331   -0.1796   -0.0000   -0.0391   -0.0064    0.1337   -0.0000
        5 O1     2px       -0.4856   -0.0000    0.0000    0.3191    0.5377    0.0000   -0.3227   -0.3165    0.2363    0.0000
        6 O1     3px       -0.0199    0.0000   -0.0000    0.3942    0.4464    0.0000    0.0462   -0.7237    0.7879   -0.0000
        7 O1     4px        0.0020    0.0000   -0.0000    0.0738    0.0356    0.0000    0.0807   -0.2826    0.2889   -0.0000
        8 O1     2py        0.5673    0.0000   -0.0000    0.6969    0.4882    0.0000   -0.4370   -0.3195   -0.1041   -0.0000
        9 O1     3py        0.0017   -0.0000   -0.0000    0.5769    0.6579    0.0000   -0.5441   -0.1773   -0.1102   -0.0000
       10 O1     4py       -0.0037   -0.0000    0.0000    0.0379    0.1173    0.0000   -0.2079   -0.0322    0.0201   -0.0000
       11 O1     2pz        0.0000   -0.7148    0.6585    0.0000    0.0000   -0.1767    0.0000   -0.0000    0.0000   -0.2005
       12 O1     3pz        0.0000   -0.0405    0.1592   -0.0000    0.0000    0.2726    0.0000   -0.0000   -0.0000   -0.9795
       13 O1     4pz       -0.0000    0.0061    0.0242   -0.0000    0.0000    0.1775    0.0000   -0.0000   -0.0000   -0.3879
       14 O1     3d2-      -0.0062   -0.0000    0.0000   -0.0626   -0.0790   -0.0000    0.0025   -0.0042   -0.0293    0.0000
       15 O1     4d2-      -0.0000    0.0000    0.0000   -0.0422   -0.0488   -0.0000    0.0114    0.0143   -0.0271    0.0000
       16 O1     3d1-       0.0000    0.0199    0.0058   -0.0000   -0.0000    0.0230   -0.0000    0.0000   -0.0000    0.0032
       17 O1     4d1-      -0.0000    0.0051   -0.0003   -0.0000   -0.0000    0.0119   -0.0000    0.0000   -0.0000    0.0114
       18 O1     3d0        0.0032    0.0000   -0.0000    0.0430    0.0555    0.0000    0.0130   -0.0008    0.0033   -0.0000
       19 O1     4d0       -0.0001    0.0000   -0.0000    0.0264    0.0369    0.0000    0.0020   -0.0084    0.0115   -0.0000
       20 O1     3d1+      -0.0000    0.0157    0.0054    0.0000   -0.0000    0.0070    0.0000    0.0000   -0.0000    0.0166
       21 O1     4d1+       0.0000    0.0038   -0.0004    0.0000    0.0000    0.0012   -0.0000   -0.0000   -0.0000    0.0149
       22 O1     3d2+       0.0164    0.0000   -0.0000    0.0427    0.0275    0.0000    0.0381   -0.0050   -0.0526    0.0000
       23 O1     4d2+       0.0031    0.0000    0.0000    0.0273    0.0170    0.0000    0.0129   -0.0015   -0.0328   -0.0000
       24 O1     4f3-      -0.0040    0.0000   -0.0000   -0.0002    0.0021    0.0000   -0.0011   -0.0054    0.0134   -0.0000
       25 O1     4f2-       0.0000   -0.0052    0.0004   -0.0000   -0.0000    0.0021    0.0000   -0.0000    0.0000   -0.0047
       26 O1     4f1-      -0.0003    0.0000   -0.0000   -0.0029   -0.0066   -0.0000    0.0015    0.0043   -0.0030    0.0000
       27 O1     4f0       -0.0000    0.0014    0.0014    0.0000    0.0000   -0.0008   -0.0000    0.0000    0.0000    0.0066
       28 O1     4f1+      -0.0014   -0.0000    0.0000   -0.0031   -0.0028   -0.0000    0.0007    0.0053   -0.0036    0.0000
       29 O1     4f2+      -0.0000    0.0013   -0.0005    0.0000    0.0000    0.0008   -0.0000   -0.0000   -0.0000    0.0018
       30 O1     4f3+      -0.0043   -0.0000   -0.0000   -0.0052   -0.0078   -0.0000    0.0055    0.0079   -0.0005    0.0000
       31 O2     1s        -0.0000    0.0000   -0.0000    0.3106    0.0000    0.0000   -0.0939   -0.0000   -0.0147   -0.0000
       32 O2     2s        -0.0000    0.0000   -0.0000    2.2501    0.0000    0.0000   -0.7329   -0.0000   -0.1775   -0.0000
       33 O2     3s        -0.0000    0.0000   -0.0000    1.2701    0.0000    0.0000   -0.2242   -0.0000   -0.0056   -0.0000
       34 O2     4s        -0.0000    0.0000   -0.0000    0.2722    0.0000    0.0000   -0.0449   -0.0000    0.0283   -0.0000
       35 O2     2px        0.0000    0.0000   -0.0000    0.8816    0.0000    0.0000   -0.3201   -0.0000   -0.7092   -0.0000
       36 O2     3px        0.0000    0.0000   -0.0000    0.9949    0.0000    0.0000    0.3062   -0.0000   -1.5517    0.0000
       37 O2     4px        0.0000    0.0000    0.0000    0.1512    0.0000    0.0000    0.1606   -0.0000   -0.4116    0.0000
       38 O2     2py       -0.1508   -0.0000   -0.0000   -0.0000    1.2532   -0.0000    0.0000   -0.2143    0.0000    0.0000
       39 O2     3py       -0.0106    0.0000   -0.0000   -0.0000    1.1710    0.0000   -0.0000    0.5151   -0.0000    0.0000
       40 O2     4py       -0.0016   -0.0000   -0.0000   -0.0000    0.1248    0.0000   -0.0000    0.2429   -0.0000    0.0000
       41 O2     2pz       -0.0000   -0.0000   -0.8472   -0.0000   -0.0000    0.0582   -0.0000    0.0000   -0.0000   -0.0000
       42 O2     3pz       -0.0000   -0.0000   -0.1813   -0.0000   -0.0000    0.4584   -0.0000    0.0000   -0.0000   -0.0000
       43 O2     4pz        0.0000    0.0000   -0.0218   -0.0000   -0.0000    0.2248   -0.0000    0.0000   -0.0000   -0.0000
       44 O2     3d2-      -0.0382   -0.0000    0.0000   -0.0000    0.1402    0.0000   -0.0000    0.0919   -0.0000   -0.0000
       45 O2     4d2-      -0.0069   -0.0000    0.0000   -0.0000    0.0891    0.0000   -0.0000    0.0664   -0.0000   -0.0000
       46 O2     3d1-       0.0000   -0.0553    0.0000    0.0000    0.0000    0.0000   -0.0000   -0.0000    0.0000    0.0870
       47 O2     4d1-       0.0000   -0.0132    0.0000    0.0000    0.0000    0.0000   -0.0000   -0.0000    0.0000    0.0524
       48 O2     3d0       -0.0000   -0.0000    0.0000   -0.0929   -0.0000   -0.0000   -0.0561    0.0000    0.0757   -0.0000
       49 O2     4d0       -0.0000   -0.0000    0.0000   -0.0608   -0.0000   -0.0000   -0.0327    0.0000    0.0571   -0.0000
       50 O2     3d1+      -0.0000   -0.0000    0.0102    0.0000    0.0000   -0.0262   -0.0000   -0.0000    0.0000   -0.0000
       51 O2     4d1+      -0.0000   -0.0000    0.0021    0.0000    0.0000   -0.0079   -0.0000    0.0000    0.0000   -0.0000
       52 O2     3d2+      -0.0000   -0.0000    0.0000   -0.0240   -0.0000   -0.0000   -0.0521   -0.0000   -0.0767   -0.0000
       53 O2     4d2+      -0.0000   -0.0000    0.0000   -0.0091   -0.0000   -0.0000   -0.0188   -0.0000   -0.0555   -0.0000
       54 O2     4f3-      -0.0097   -0.0000    0.0000    0.0000   -0.0011   -0.0000   -0.0000    0.0091   -0.0000   -0.0000
       55 O2     4f2-       0.0000   -0.0091    0.0000    0.0000    0.0000    0.0000   -0.0000   -0.0000    0.0000    0.0093
       56 O2     4f1-       0.0009    0.0000    0.0000    0.0000   -0.0067   -0.0000    0.0000   -0.0132    0.0000    0.0000
       57 O2     4f0       -0.0000   -0.0000   -0.0019    0.0000   -0.0000   -0.0042    0.0000   -0.0000    0.0000    0.0000
       58 O2     4f1+       0.0000    0.0000    0.0000   -0.0092   -0.0000    0.0000   -0.0086    0.0000    0.0157   -0.0000
       59 O2     4f2+       0.0000   -0.0000    0.0009    0.0000    0.0000   -0.0008    0.0000   -0.0000    0.0000    0.0000
       60 O2     4f3+      -0.0000    0.0000   -0.0000   -0.0120   -0.0000   -0.0000   -0.0076    0.0000    0.0124    0.0000
       61 O3     1s        -0.0044   -0.0000    0.0000   -0.1492    0.1818   -0.0000   -0.0071    0.0173    0.0723    0.0000
       62 O3     2s        -0.0210   -0.0000    0.0000   -1.0677    1.3643   -0.0000    0.0552    0.0079    0.4012    0.0000
       63 O3     3s        -0.0150   -0.0000    0.0000   -0.6272    0.7903   -0.0000   -0.1115    0.0448    0.4574   -0.0000
       64 O3     4s        -0.0038   -0.0000    0.0000   -0.1331    0.1796   -0.0000   -0.0391    0.0064    0.1337   -0.0000
       65 O3     2px        0.4856    0.0000    0.0000    0.3191   -0.5377    0.0000   -0.3227    0.3165    0.2363   -0.0000
       66 O3     3px        0.0199    0.0000   -0.0000    0.3942   -0.4464    0.0000    0.0462    0.7237    0.7879   -0.0000
       67 O3     4px       -0.0020    0.0000   -0.0000    0.0738   -0.0356    0.0000    0.0807    0.2826    0.2889    0.0000
       68 O3     2py        0.5673    0.0000    0.0000   -0.6969    0.4882   -0.0000    0.4370   -0.3195    0.1041    0.0000
       69 O3     3py        0.0017   -0.0000    0.0000   -0.5769    0.6579   -0.0000    0.5441   -0.1773    0.1102   -0.0000
       70 O3     4py       -0.0037   -0.0000    0.0000   -0.0379    0.1173   -0.0000    0.2079   -0.0322   -0.0201   -0.0000
       71 O3     2pz       -0.0000    0.7148    0.6585    0.0000    0.0000   -0.1767   -0.0000   -0.0000    0.0000    0.2005
       72 O3     3pz       -0.0000    0.0405    0.1592   -0.0000   -0.0000    0.2726   -0.0000   -0.0000    0.0000    0.9795
       73 O3     4pz       -0.0000   -0.0061    0.0242   -0.0000   -0.0000    0.1775   -0.0000   -0.0000    0.0000    0.3879
       74 O3     3d2-      -0.0062   -0.0000   -0.0000    0.0626   -0.0790    0.0000   -0.0025   -0.0042    0.0293    0.0000
       75 O3     4d2-      -0.0000   -0.0000   -0.0000    0.0422   -0.0488    0.0000   -0.0114    0.0143    0.0271    0.0000
       76 O3     3d1-      -0.0000    0.0199   -0.0058    0.0000    0.0000   -0.0230   -0.0000   -0.0000    0.0000    0.0032
       77 O3     4d1-      -0.0000    0.0051    0.0003    0.0000    0.0000   -0.0119   -0.0000   -0.0000    0.0000    0.0114
       78 O3     3d0       -0.0032    0.0000   -0.0000    0.0430   -0.0555    0.0000    0.0130    0.0008    0.0033    0.0000
       79 O3     4d0        0.0001    0.0000   -0.0000    0.0264   -0.0369    0.0000    0.0020    0.0084    0.0115    0.0000
       80 O3     3d1+       0.0000   -0.0157    0.0054   -0.0000    0.0000    0.0070   -0.0000    0.0000   -0.0000   -0.0166
       81 O3     4d1+       0.0000   -0.0038   -0.0004   -0.0000   -0.0000    0.0012    0.0000    0.0000   -0.0000   -0.0149
       82 O3     3d2+      -0.0164   -0.0000   -0.0000    0.0427   -0.0275    0.0000    0.0381    0.0050   -0.0526    0.0000
       83 O3     4d2+      -0.0031    0.0000   -0.0000    0.0273   -0.0170    0.0000    0.0129    0.0015   -0.0328    0.0000
       84 O3     4f3-      -0.0040   -0.0000   -0.0000    0.0002    0.0021   -0.0000    0.0011   -0.0054   -0.0134   -0.0000
       85 O3     4f2-       0.0000   -0.0052   -0.0004    0.0000    0.0000   -0.0021   -0.0000    0.0000   -0.0000   -0.0047
       86 O3     4f1-      -0.0003   -0.0000   -0.0000    0.0029   -0.0066    0.0000   -0.0015    0.0043    0.0030    0.0000
       87 O3     4f0        0.0000   -0.0014    0.0014    0.0000   -0.0000   -0.0008    0.0000    0.0000   -0.0000   -0.0066
       88 O3     4f1+       0.0014    0.0000    0.0000   -0.0031    0.0028   -0.0000    0.0007   -0.0053   -0.0036   -0.0000
       89 O3     4f2+       0.0000   -0.0013   -0.0005   -0.0000   -0.0000    0.0008    0.0000    0.0000   -0.0000   -0.0018
       90 O3     4f3+       0.0043    0.0000   -0.0000   -0.0052    0.0078   -0.0000    0.0055   -0.0079   -0.0005   -0.0000
 
          Orbital           21        22    
          Energy            0.4065    0.4343
          Occ. No.          0.0000    0.0000
 
        1 O1     1s         0.0007   -0.0530
        2 O1     2s         0.0559   -0.2624
        3 O1     3s        -0.1808   -0.2392
        4 O1     4s        -0.0577   -0.0340
        5 O1     2px       -0.3570    0.0284
        6 O1     3px        0.1859    0.2392
        7 O1     4px        0.0920    0.0163
        8 O1     2py       -0.0421   -0.0677
        9 O1     3py        0.5846    0.7728
       10 O1     4py        0.1913    0.2378
       11 O1     2pz       -0.0000   -0.0000
       12 O1     3pz       -0.0000   -0.0000
       13 O1     4pz       -0.0000   -0.0000
       14 O1     3d2-      -0.0812   -0.1549
       15 O1     4d2-      -0.0471   -0.0933
       16 O1     3d1-      -0.0000    0.0000
       17 O1     4d1-       0.0000    0.0000
       18 O1     3d0        0.0721    0.0495
       19 O1     4d0        0.0456    0.0276
       20 O1     3d1+       0.0000    0.0000
       21 O1     4d1+       0.0000    0.0000
       22 O1     3d2+       0.0092    0.0601
       23 O1     4d2+       0.0154    0.0322
       24 O1     4f3-       0.0032    0.0004
       25 O1     4f2-      -0.0000   -0.0000
       26 O1     4f1-      -0.0099   -0.0075
       27 O1     4f0        0.0000    0.0000
       28 O1     4f1+      -0.0066   -0.0055
       29 O1     4f2+      -0.0000    0.0000
       30 O1     4f3+      -0.0069   -0.0173
       31 O2     1s        -0.0000    0.1796
       32 O2     2s        -0.0000    0.9514
       33 O2     3s        -0.0000    0.9740
       34 O2     4s        -0.0000    0.2170
       35 O2     2px        0.0000   -0.1371
       36 O2     3px       -0.0000    0.2594
       37 O2     4px        0.0000   -0.0444
       38 O2     2py       -0.7996   -0.0000
       39 O2     3py       -0.3394   -0.0000
       40 O2     4py       -0.1434   -0.0000
       41 O2     2pz       -0.0000    0.0000
       42 O2     3pz       -0.0000    0.0000
       43 O2     4pz       -0.0000    0.0000
       44 O2     3d2-       0.1603    0.0000
       45 O2     4d2-       0.0547    0.0000
       46 O2     3d1-       0.0000   -0.0000
       47 O2     4d1-       0.0000   -0.0000
       48 O2     3d0        0.0000   -0.1629
       49 O2     4d0        0.0000   -0.0735
       50 O2     3d1+      -0.0000    0.0000
       51 O2     4d1+      -0.0000    0.0000
       52 O2     3d2+       0.0000   -0.0440
       53 O2     4d2+      -0.0000   -0.0103
       54 O2     4f3-       0.0038    0.0000
       55 O2     4f2-       0.0000   -0.0000
       56 O2     4f1-       0.0031    0.0000
       57 O2     4f0        0.0000   -0.0000
       58 O2     4f1+       0.0000   -0.0066
       59 O2     4f2+       0.0000   -0.0000
       60 O2     4f3+       0.0000   -0.0119
       61 O3     1s        -0.0007   -0.0530
       62 O3     2s        -0.0559   -0.2624
       63 O3     3s         0.1808   -0.2392
       64 O3     4s         0.0577   -0.0340
       65 O3     2px        0.3570    0.0284
       66 O3     3px       -0.1859    0.2392
       67 O3     4px       -0.0920    0.0163
       68 O3     2py       -0.0421    0.0677
       69 O3     3py        0.5846   -0.7728
       70 O3     4py        0.1913   -0.2378
       71 O3     2pz        0.0000   -0.0000
       72 O3     3pz        0.0000   -0.0000
       73 O3     4pz        0.0000   -0.0000
       74 O3     3d2-      -0.0812    0.1549
       75 O3     4d2-      -0.0471    0.0933
       76 O3     3d1-       0.0000   -0.0000
       77 O3     4d1-       0.0000   -0.0000
       78 O3     3d0       -0.0721    0.0495
       79 O3     4d0       -0.0456    0.0276
       80 O3     3d1+      -0.0000    0.0000
       81 O3     4d1+      -0.0000    0.0000
       82 O3     3d2+      -0.0092    0.0601
       83 O3     4d2+      -0.0154    0.0322
       84 O3     4f3-       0.0032   -0.0004
       85 O3     4f2-      -0.0000    0.0000
       86 O3     4f1-      -0.0099    0.0075
       87 O3     4f0       -0.0000    0.0000
       88 O3     4f1+       0.0066   -0.0055
       89 O3     4f2+      -0.0000    0.0000
       90 O3     4f3+       0.0069   -0.0173
--
 
 
++    Molecular charges:
      ------------------
 
      Mulliken charges per centre and basis function type
      ---------------------------------------------------
 
                O1      O2      O3    
      1s       1.9980  1.9978  1.9980
      2s       1.9421  1.7342  1.9421
      2px      1.5755  1.4733  1.5755
      2pz      1.3629  1.1991  1.3629
      2py      1.2600  1.0776  1.2600
      3s      -0.0011 -0.0196 -0.0011
      3px     -0.0105 -0.0084 -0.0105
      3pz     -0.0139 -0.0126 -0.0139
      3py      0.0030 -0.0017  0.0030
      4s       0.0045  0.0022  0.0045
      3d2+     0.0075  0.0380  0.0075
      3d1+     0.0059  0.0115  0.0059
      3d0      0.0055  0.0074  0.0055
      3d1-     0.0090  0.0413  0.0090
      3d2-     0.0202  0.0413  0.0202
      4px      0.0011  0.0022  0.0011
      4pz      0.0012  0.0016  0.0012
      4py      0.0018  0.0029  0.0018
      4d2+    -0.0005  0.0082 -0.0005
      4d1+     0.0011  0.0017  0.0011
      4d0     -0.0001 -0.0001 -0.0001
      4d1-     0.0005  0.0107  0.0005
      4d2-     0.0009  0.0034  0.0009
      4f3+     0.0030  0.0038  0.0030
      4f2+     0.0002  0.0003  0.0002
      4f1+     0.0005  0.0007  0.0005
      4f0      0.0009  0.0016  0.0009
      4f1-     0.0008  0.0011  0.0008
      4f2-     0.0020  0.0050  0.0020
      4f3-     0.0020  0.0072  0.0020
      Total    8.1840  7.6319  8.1840
 
      N-E     -0.1840  0.3681 -0.1840
 
      Total electronic charge=   24.000000
 
      Total            charge=   -0.000000
--
 
 
  Input file to MOLDEN was generated!
 
 
++    Static properties:
      ------------------
 
 
      LoProp Charges per center
 

                   O1       O2       O3    
      Nuclear      8.0000   8.0000   8.0000
      Electronic  -8.2089  -7.5822  -8.2089
 
      Total       -0.2089   0.4178  -0.2089
--
 
 
++    Natural Bond Order analysis
      ---------------------------
      Based on LoProp computed density
      -------------------------------------------------------------------------------------
      Atom A       Atom B       Bond Order | Atom A       Atom B       Bond Order
        O1           O2             1.998  |   O2           O3             1.998
      -------------------------------------------------------------------------------------
      NBO located      9.999 core electrons.
      NBO located      5.948 lone pair electrons.
      NBO located      7.992 electrons involved in    2 bonds.
      The remaining    0.061 electrons are to be considered as diffuse
--
 
 
++    Molecular properties:
      ---------------------
 
      Charge (e):
                      =   -0.0000
      Dipole Moment (Debye):
      Origin of the operator (Ang)=    0.0000    0.0000    0.0000
                   X= -9.6485E-01               Y=  2.6541E-07               Z=  2.1326E-14           Total=  9.6485E-01
      Quadrupole Moment (Debye*Ang):
      Origin of the operator (Ang)=    0.5053    0.0000    0.0000
                  XX= -1.5442E+01              XY=  7.6749E-08              XZ=  1.6776E-13              YY= -1.7499E+01
                  YZ= -8.0022E-14              ZZ= -1.4883E+01
      In traceless form (Debye*Ang)
                  XX=  7.4961E-01              XY=  1.1512E-07              XZ=  2.5164E-13              YY= -2.3367E+00
                  YZ= -1.2003E-13              ZZ=  1.5871E+00
--
 
 
  Input file to MOLDEN was generated!
 
 ###############################################################################
 ###############################################################################
 ###                                                                         ###
 ###                                                                         ###
 ###    RunFile label nBas                                                   ###
 ###    was used       78 times                                              ###
 ###                                                                         ###
 ###                                                                         ###
 ###############################################################################
 ###############################################################################
--- Stop Module: scf at Mon May 12 20:43:59 2025 /rc=_RC_ALL_IS_WELL_ ---
*** files: ozone_107.25.LprOrb ozone_107.25.LoProp.molden ozone_107.25.scf.molden ozone_107.25.ScfOrb ozone_107.25.scf.h5 xmldump
    saved to directory /lustre/isaac/scratch/gjones39/scpfiles/ANO-RCC-VTZP/ozone_107.25
--- Module scf spent 2 seconds ---

>>> COPY /lustre/isaac/scratch/gjones39/scpfiles/ANO-RCC-VTZP/ozone_107.25/3252664/ozone_107.25.scf.h5 /lustre/isaac/scratch/gjones39/scpfiles/ANO-RCC-VTZP/ozone_107.25/

*** symbolic link created: INPORB -> ozone_107.25.ScfOrb
--- Start Module: rasscf at Mon May 12 20:43:59 2025 ---
 
()()()()()()()()()()()()()()()()()()()()()()()()()()()()()()()()()()()()()()()()()()()()()()()()()()

                                              &RASSCF

                                   only a single process is used
                       available to each process: 62 GB of memory, 1 thread?
()()()()()()()()()()()()()()()()()()()()()()()()()()()()()()()()()()()()()()()()()()()()()()()()()()
 
 
      Header of the ONEINT file:
      --------------------------
      
      Integrals generated by seward 4.2.0  , Mon May 12 20:43:47 2025
 
 
      OrdInt status: non-squared
 
 
      Cartesian coordinates in Angstrom:
      -----------------------------------------------------
      No.  Label        X            Y            Z        
      -----------------------------------------------------
       1   O1         0.75794000   1.02898500   0.00000000
       2   O2         0.00000000   0.00000000   0.00000000
       3   O3         0.75794000  -1.02898500   0.00000000
      -----------------------------------------------------
      Nuclear repulsion energy =   69.45722185
 
++    Wave function specifications:
      -----------------------------
 
      Number of closed shell electrons          12
      Number of electrons in active shells      12
      Max number of holes in RAS1 space          0
      Max nr of electrons in RAS3 space          0
      Number of inactive orbitals                6
      Number of active orbitals                  9
      Number of secondary orbitals              75
      Spin quantum number                      0.0
      State symmetry                             1
--
 
++    Orbital specifications:
      -----------------------
 
      Symmetry species                           1
                                                 a
      Frozen orbitals                            0
      Inactive orbitals                          6
      Active orbitals                            9
      RAS1 orbitals                              0
      RAS2 orbitals                              9
      RAS3 orbitals                              0
      Secondary orbitals                        75
      Deleted orbitals                           0
      Number of basis functions                 90
--
 
++    CI expansion specifications:
      ----------------------------
 
      Number of CSFs                          2520
      Number of determinants                  3570
      Number of root(s) required                 3
      Root chosen for geometry opt.              3
      CI roots used                              1     2     3
      weights                                0.333 0.333 0.333
      highest root included in the CI            3
      max. size of the explicit Hamiltonian    500
--
 
++    Optimization specifications:
      ----------------------------
 
      RASSCF algorithm: Conventional
      Maximum number of macro iterations       200
      Maximum number of SX iterations          100
      Threshold for RASSCF energy            0.100E-07
      Threshold for max MO rotation          0.100E+00
      Threshold for max BLB element          0.100E-03
      Level shift parameter                  0.500E+00
      Make Quasi-Newton update
--
 
      The MO-coefficients are taken from the file:
      /lustre/isaac/scratch/gjones39/scpfiles/ANO-RCC-VTZP/ozone_107.00/ozone_107.00.RasOrb                                           
      Title: RASSCF average (pseudo-natural) orbitals                                      
 
      Total molecular charge    0.00
 
      ************************************************************************************************************************
      *                                                                                                                      *
      *                                            Wave function control section                                             *
      *                                                                                                                      *
      ************************************************************************************************************************
 
 
                                         RASSCF iterations: Energy and convergence statistics
                                         ----------------------------------------------------
 
      Iter CI   SX   CI       RASSCF       Energy    max ROT     max BLB   max BLB  Level Ln srch  Step   QN   Walltime
          iter iter root      energy       change     param      element    value   shift minimum  type update hh:mm:ss
 Nr of preliminary CI iterations:   5
        1   1    7    0  -224.67928519    0.00E+00  -0.53E-03    7  75 1 -0.10E-02*  0.00   0.00    SX    NO    0:00:01
        2   1    6    0  -224.67928752   -0.23E-05*  0.18E-03    4  14 1  0.16E-03*  0.00   0.00    SX    NO    0:00:00
        3   2    5    0  -224.67929344   -0.59E-05* -0.59E-04   10  38 1  0.68E-04   0.00   0.00    SX    NO    0:00:00
        4   6    5    0  -224.67929543   -0.20E-05* -0.11E-03   12  29 1 -0.14E-03*  0.00   0.00    SX    NO    0:00:00
        5   5    5    0  -224.67929554   -0.11E-06* -0.84E-04    6  26 1  0.65E-04   0.00   1.23    QN   YES    0:00:00
        6   3    5    0  -224.67929556   -0.24E-07*  0.15E-04   12  29 1  0.20E-04   0.00   0.89    QN   YES    0:00:00
        7   1    5    0  -224.67929557   -0.19E-08   0.26E-04    6  21 1  0.25E-04   0.00   0.95    QN   YES    0:00:00
      Convergence after  7 iterations
 
  Dmat in MO in SXCTL bf call to SXHAM                                                                                    
  mat. size =     9x    9
 
        1.9622268919362580
        0.0000000013789089      1.9519534734733366
        0.0000000000005362      0.0000000008512379      1.9751082659617487
        0.0006048427225646     -0.0000000025494276     -0.0000000000767207      1.6924993883572204
       -0.0000000010196065     -0.0005834304774690      0.0000000098447259     -0.0000000007400668      1.6262051654023180
       -0.0000000001020135     -0.0000000000124481      0.0000000024336688      0.0000000089975889     -0.0000000001135288
        1.7611518113739040
        0.0000000000159403      0.0000000057540975      0.0003155383876197     -0.0000000000151939     -0.0000000073928321
        0.0000000039029981      0.9286858244931019
        0.0010047309101574     -0.0000000023177686      0.0000000000392847      0.0029082424766269     -0.0000000013833700
        0.0000000010357274      0.0000000000427348      0.0532088463940777
       -0.0000000016855008     -0.0001096112139238     -0.0000000012285290     -0.0000000000164933     -0.0018370493919219
        0.0000000000038913      0.0000000021953814     -0.0000000017302133      0.0489603326080432
        8   1    5    0  -224.67929557   -0.14E-08   0.26E-04    6  50 1  0.90E-05   0.00   0.95    QN   YES    0:00:00
 
      ************************************************************************************************************************
                                                      Wave function printout:
                       occupation of active orbitals, and spin coupling of open shells (u,d: Spin up or down)
      ************************************************************************************************************************
 
      Note: transformation to natural orbitals
      has been made, which may change the order of the CSFs.
 
      printout of CI-coefficients larger than  0.05 for root  1
      energy=    -224.730286
      conf/sym  111111111     Coeff  Weight
             1  222222000  -0.89108 0.79403
             4  222220200   0.34625 0.11989
            72  222u2du0d  -0.05302 0.00281
            74  222u2ud0d  -0.05028 0.00253
           126  22u222d00  -0.06661 0.00444
           205  2u222dud0   0.06242 0.00390
           207  2u222udd0   0.05207 0.00271
           551  220222200   0.06715 0.00451
           611  2ud222u0d   0.06554 0.00430
           652  u2d222ud0  -0.05890 0.00347
           731  202222002   0.06651 0.00442
           764  ud22220ud  -0.07518 0.00565
           805  022222020   0.06310 0.00398
           992  2uu222d0d   0.06762 0.00457
          1031  u2u222dd0  -0.05512 0.00304
 
      printout of CI-coefficients larger than  0.05 for root  2
      energy=    -224.668833
      conf/sym  111111111     Coeff  Weight
             3  2222u2d00   0.88094 0.77605
            52  222u2d200  -0.38716 0.14989
           128  22u2d2200  -0.06501 0.00423
           277  u2222d200   0.05362 0.00287
           361  222022u0d   0.05530 0.00306
           613  2ud2u220d  -0.05227 0.00273
           654  u2d2u22d0   0.05362 0.00288
           733  2022u2d02  -0.06962 0.00485
           766  ud22u2dud   0.07967 0.00635
           807  0222u2d20  -0.06806 0.00463
           994  2uu2d220d  -0.06189 0.00383
          1033  u2u2d22d0   0.05286 0.00279
 
      printout of CI-coefficients larger than  0.05 for root  3
      energy=    -224.638768
      conf/sym  111111111     Coeff  Weight
             5  2222ud200  -0.50159 0.25159
            51  222u22d00   0.82662 0.68330
           202  2u222d200   0.05839 0.00341
           768  ud22ud2ud  -0.05437 0.00296
          1381  202u22d02  -0.06517 0.00425
          1406  ud2u22dud   0.07668 0.00588
          1442  022u22d20  -0.06382 0.00407
          1485  2uud2220d  -0.05752 0.00331
 
      Natural orbitals and occupation numbers for root  1
      sym 1:   1.956169   1.948506   1.964348   1.993413   1.992976   1.721527   0.313824   0.056744   0.052493
 
      Natural orbitals and occupation numbers for root  2
      sym 1:   1.960146   1.954728   1.983784   1.815732   1.171598   1.834137   1.179739   0.051903   0.048232
 
      Natural orbitals and occupation numbers for root  3
      sym 1:   1.964929   1.953594   1.985333   1.274779   1.714117   1.727792   1.284354   0.049991   0.045112
 
      ************************************************************************************************************************
      *                                                                                                                      *
      *                                                    Final results                                                     *
      *                                                                                                                      *
      ************************************************************************************************************************
 
 
++    Wave function specifications:
      -----------------------------
 
      Number of closed shell electrons          12
      Number of electrons in active shells      12
      Max number of holes in RAS1 space          0
      Max nr of electrons in RAS3 space          0
      Number of inactive orbitals                6
      Number of active orbitals                  9
      Number of secondary orbitals              75
      Spin quantum number                      0.0
      State symmetry                             1
--
 
++    Orbital specifications:
      -----------------------
 
      Symmetry species                           1
                                                 a
      Frozen orbitals                            0
      Inactive orbitals                          6
      Active orbitals                            9
      RAS1 orbitals                              0
      RAS2 orbitals                              9
      RAS3 orbitals                              0
      Secondary orbitals                        75
      Deleted orbitals                           0
      Number of basis functions                 90
--
 
++    CI expansion specifications:
      ----------------------------
 
      Number of CSFs                          2520
      Number of determinants                  3570
      Number of root(s) required                 3
      CI roots used                              1     2     3
      weights                                0.333 0.333 0.333
      highest root included in the CI            3
      Root passed to geometry opt.               3
--
 
++    Final optimization conditions:
      ------------------------------
 
      Average CI energy                            -224.67929557
      RASSCF energy for state  3                   -224.63876823
      Super-CI energy                                -0.00000000
      RASSCF energy change                            0.00000000
      Max change in MO coefficients              -0.190E-04
      Max non-diagonal density matrix element     0.259E-04
      Maximum BLB matrix element                  0.900E-05
      (orbital pair   6,  50 in symmetry   1)
      Norm of electronic gradient            0.670E-01
--
 
 
      Final state energy(ies):
      ------------------------
 
::    RASSCF root number  1 Total energy:   -224.73028554
::    RASSCF root number  2 Total energy:   -224.66883293
::    RASSCF root number  3 Total energy:   -224.63876823
 
++    Molecular orbitals:
      -------------------
 
      Pseudonatural active orbitals and approximate occupation numbers
 
 
 
 
      Molecular orbitals for symmetry species 1: a  
 
 
      Orbital                1         2         3         4         5         6         7         8         9        10
      Energy          -20.7992  -20.6938  -20.6938   -1.5132   -1.2822   -1.0712    0.0000    0.0000    0.0000    0.0000
      Occ. No.          2.0000    2.0000    2.0000    2.0000    2.0000    2.0000    1.9622    1.9520    1.9751    1.6925
 
    1 O1     1s         0.0036   -0.7065    0.7064   -0.0058   -0.0006    0.0098   -0.0187   -0.0239    0.0000    0.0001
    2 O1     2s         0.0045    0.0043   -0.0046    0.4744   -0.7116    0.5383   -0.1064   -0.1018    0.0000   -0.0418
    3 O1     3s         0.0026    0.0033   -0.0034    0.0037   -0.0083    0.0173   -0.0357   -0.0548    0.0000    0.0081
    4 O1     4s         0.0004    0.0006   -0.0005    0.0016   -0.0009    0.0018   -0.0060   -0.0113    0.0000    0.0028
    5 O1     2px       -0.0014   -0.0012    0.0012   -0.0075   -0.0634    0.0820   -0.0877   -0.3130   -0.0000    0.6429
    6 O1     3px       -0.0009   -0.0014    0.0013    0.0110    0.0051   -0.0202    0.0084    0.0359   -0.0000   -0.0030
    7 O1     4px        0.0002    0.0008   -0.0008    0.0013    0.0009    0.0009    0.0010    0.0018    0.0000   -0.0076
    8 O1     2py       -0.0025   -0.0016    0.0017    0.0638   -0.0771    0.0468   -0.3695   -0.3026    0.0000   -0.2382
    9 O1     3py       -0.0014   -0.0019    0.0019   -0.0022    0.0032   -0.0100    0.0453    0.0377   -0.0000   -0.0059
   10 O1     4py        0.0007    0.0011   -0.0011   -0.0018   -0.0017    0.0022    0.0026    0.0034   -0.0000    0.0024
   11 O1     2pz       -0.0000    0.0000    0.0000    0.0000    0.0000    0.0000   -0.0000    0.0000    0.3297    0.0000
   12 O1     3pz       -0.0000   -0.0000    0.0000    0.0000   -0.0000   -0.0000   -0.0000   -0.0000   -0.0276   -0.0000
   13 O1     4pz        0.0000    0.0000   -0.0000    0.0000   -0.0000    0.0000    0.0000   -0.0000   -0.0048   -0.0000
   14 O1     3d2-       0.0006    0.0009   -0.0009    0.0089   -0.0015   -0.0108    0.0203    0.0308   -0.0000   -0.0122
   15 O1     4d2-       0.0003    0.0005   -0.0006    0.0011   -0.0006   -0.0008    0.0018    0.0026   -0.0000   -0.0013
   16 O1     3d1-       0.0000    0.0000   -0.0000   -0.0000   -0.0000    0.0000    0.0000   -0.0000   -0.0219   -0.0000
   17 O1     4d1-       0.0000    0.0000   -0.0000   -0.0000    0.0000    0.0000    0.0000   -0.0000   -0.0024   -0.0000
   18 O1     3d0       -0.0004   -0.0006    0.0005   -0.0042    0.0013    0.0036   -0.0143   -0.0167    0.0000    0.0022
   19 O1     4d0       -0.0002   -0.0004    0.0003   -0.0000    0.0007   -0.0001   -0.0004   -0.0013    0.0000   -0.0006
   20 O1     3d1+       0.0000   -0.0000    0.0000    0.0000   -0.0000   -0.0000    0.0000   -0.0000   -0.0155   -0.0000
   21 O1     4d1+       0.0000    0.0000   -0.0000    0.0000   -0.0000    0.0000    0.0000   -0.0000   -0.0020   -0.0000
   22 O1     3d2+      -0.0005   -0.0003    0.0003    0.0024    0.0010   -0.0034   -0.0220   -0.0008    0.0000   -0.0102
   23 O1     4d2+      -0.0003   -0.0002    0.0002    0.0004    0.0006   -0.0002   -0.0013    0.0001    0.0000   -0.0022
   24 O1     4f3-       0.0001   -0.0001    0.0001   -0.0020    0.0006    0.0025    0.0023   -0.0046   -0.0000    0.0034
   25 O1     4f2-      -0.0000   -0.0000    0.0000   -0.0000    0.0000    0.0000   -0.0000    0.0000    0.0055    0.0000
   26 O1     4f1-       0.0001    0.0001   -0.0001    0.0015   -0.0010   -0.0003    0.0041    0.0037   -0.0000   -0.0004
   27 O1     4f0        0.0000   -0.0000   -0.0000    0.0000   -0.0000    0.0000    0.0000   -0.0000   -0.0044   -0.0000
   28 O1     4f1+       0.0000    0.0001   -0.0001    0.0015   -0.0008   -0.0010    0.0017    0.0034   -0.0000   -0.0012
   29 O1     4f2+      -0.0000    0.0000   -0.0000   -0.0000    0.0000   -0.0000    0.0000   -0.0000   -0.0020   -0.0000
   30 O1     4f3+       0.0001    0.0002   -0.0002    0.0023   -0.0015   -0.0012    0.0071    0.0057   -0.0000   -0.0010
   31 O2     1s         0.9987    0.0000   -0.0027   -0.0179   -0.0000   -0.0188   -0.0256   -0.0000   -0.0000    0.0200
   32 O2     2s        -0.0084   -0.0000    0.0096    0.5623   -0.0000   -0.7629    0.1379    0.0000   -0.0000    0.2101
   33 O2     3s        -0.0062   -0.0000    0.0054   -0.0328   -0.0000   -0.0313   -0.0570   -0.0000   -0.0000    0.0542
   34 O2     4s        -0.0011   -0.0000    0.0009   -0.0059   -0.0000   -0.0056   -0.0111   -0.0000   -0.0000    0.0120
   35 O2     2px       -0.0027   -0.0000    0.0039   -0.1975    0.0000    0.2905    0.6522    0.0000    0.0000   -0.2691
   36 O2     3px       -0.0031   -0.0000    0.0022   -0.0133   -0.0000   -0.0294   -0.0641   -0.0000   -0.0000   -0.0151
   37 O2     4px        0.0021    0.0000   -0.0008    0.0024   -0.0000    0.0000   -0.0084   -0.0000   -0.0000   -0.0021
   38 O2     2py        0.0000   -0.0048   -0.0000    0.0000   -0.0291   -0.0000   -0.0000    0.6243   -0.0000   -0.0000
   39 O2     3py        0.0000   -0.0026   -0.0000   -0.0000    0.0304    0.0000    0.0000   -0.0746    0.0000    0.0000
   40 O2     4py       -0.0000    0.0011    0.0000    0.0000   -0.0051    0.0000    0.0000   -0.0049    0.0000    0.0000
   41 O2     2pz       -0.0000    0.0000   -0.0000    0.0000   -0.0000   -0.0000   -0.0000    0.0000    0.7465   -0.0000
   42 O2     3pz        0.0000   -0.0000    0.0000   -0.0000    0.0000    0.0000    0.0000   -0.0000   -0.0479    0.0000
   43 O2     4pz        0.0000   -0.0000    0.0000   -0.0000   -0.0000    0.0000    0.0000   -0.0000   -0.0123    0.0000
   44 O2     3d2-       0.0000   -0.0014   -0.0000    0.0000   -0.0209   -0.0000   -0.0000    0.0504   -0.0000   -0.0000
   45 O2     4d2-       0.0000   -0.0006   -0.0000    0.0000   -0.0019   -0.0000   -0.0000    0.0047   -0.0000   -0.0000
   46 O2     3d1-       0.0000    0.0000   -0.0000    0.0000   -0.0000   -0.0000   -0.0000   -0.0000    0.0000    0.0000
   47 O2     4d1-      -0.0000    0.0000   -0.0000   -0.0000   -0.0000   -0.0000   -0.0000    0.0000    0.0000    0.0000
   48 O2     3d0        0.0011    0.0000   -0.0009   -0.0053   -0.0000   -0.0104   -0.0254   -0.0000   -0.0000    0.0143
   49 O2     4d0        0.0007    0.0000   -0.0005    0.0008    0.0000   -0.0011   -0.0016   -0.0000   -0.0000    0.0016
   50 O2     3d1+       0.0000    0.0000   -0.0000    0.0000   -0.0000   -0.0000   -0.0000    0.0000    0.0312   -0.0000
   51 O2     4d1+       0.0000    0.0000    0.0000    0.0000   -0.0000   -0.0000   -0.0000    0.0000    0.0038   -0.0000
   52 O2     3d2+       0.0001    0.0000   -0.0005   -0.0112    0.0000    0.0058    0.0167    0.0000    0.0000    0.0382
   53 O2     4d2+      -0.0000    0.0000   -0.0002   -0.0009    0.0000    0.0007    0.0025    0.0000    0.0000    0.0069
   54 O2     4f3-       0.0000   -0.0001   -0.0000    0.0000   -0.0020    0.0000   -0.0000    0.0002   -0.0000   -0.0000
   55 O2     4f2-       0.0000    0.0000   -0.0000    0.0000    0.0000   -0.0000   -0.0000   -0.0000    0.0000    0.0000
   56 O2     4f1-      -0.0000    0.0001    0.0000   -0.0000    0.0031    0.0000    0.0000   -0.0077    0.0000    0.0000
   57 O2     4f0       -0.0000   -0.0000    0.0000   -0.0000   -0.0000    0.0000    0.0000   -0.0000   -0.0081    0.0000
   58 O2     4f1+       0.0002    0.0000   -0.0001   -0.0020   -0.0000   -0.0017   -0.0066   -0.0000   -0.0000    0.0004
   59 O2     4f2+       0.0000   -0.0000    0.0000   -0.0000   -0.0000    0.0000    0.0000   -0.0000   -0.0025    0.0000
   60 O2     4f3+       0.0002    0.0000   -0.0002   -0.0055   -0.0000   -0.0002   -0.0060   -0.0000    0.0000    0.0072
   61 O3     1s         0.0036    0.7065    0.7064   -0.0058    0.0006    0.0098   -0.0187    0.0239   -0.0000    0.0001
   62 O3     2s         0.0045   -0.0043   -0.0046    0.4744    0.7116    0.5383   -0.1064    0.1018   -0.0000   -0.0418
   63 O3     3s         0.0026   -0.0033   -0.0034    0.0037    0.0083    0.0173   -0.0357    0.0548   -0.0000    0.0081
   64 O3     4s         0.0004   -0.0006   -0.0005    0.0016    0.0009    0.0018   -0.0060    0.0113   -0.0000    0.0028
   65 O3     2px       -0.0014    0.0012    0.0012   -0.0075    0.0634    0.0820   -0.0877    0.3130    0.0000    0.6429
   66 O3     3px       -0.0009    0.0014    0.0013    0.0110   -0.0051   -0.0202    0.0084   -0.0359    0.0000   -0.0030
   67 O3     4px        0.0002   -0.0008   -0.0008    0.0013   -0.0009    0.0009    0.0010   -0.0018   -0.0000   -0.0076
   68 O3     2py        0.0025   -0.0016   -0.0017   -0.0638   -0.0771   -0.0468    0.3695   -0.3026    0.0000    0.2382
   69 O3     3py        0.0014   -0.0019   -0.0019    0.0022    0.0032    0.0100   -0.0453    0.0377   -0.0000    0.0059
   70 O3     4py       -0.0007    0.0011    0.0011    0.0018   -0.0017   -0.0022   -0.0026    0.0034   -0.0000   -0.0024
   71 O3     2pz        0.0000    0.0000   -0.0000   -0.0000    0.0000   -0.0000    0.0000    0.0000    0.3297   -0.0000
   72 O3     3pz        0.0000   -0.0000   -0.0000   -0.0000   -0.0000    0.0000    0.0000   -0.0000   -0.0276    0.0000
   73 O3     4pz       -0.0000    0.0000    0.0000   -0.0000   -0.0000   -0.0000   -0.0000   -0.0000   -0.0048    0.0000
   74 O3     3d2-      -0.0006    0.0009    0.0009   -0.0089   -0.0015    0.0108   -0.0203    0.0308   -0.0000    0.0122
   75 O3     4d2-      -0.0003    0.0005    0.0006   -0.0011   -0.0006    0.0008   -0.0018    0.0026   -0.0000    0.0013
   76 O3     3d1-       0.0000   -0.0000   -0.0000   -0.0000    0.0000    0.0000    0.0000    0.0000    0.0219   -0.0000
   77 O3     4d1-       0.0000   -0.0000   -0.0000   -0.0000   -0.0000    0.0000    0.0000    0.0000    0.0024   -0.0000
   78 O3     3d0       -0.0004    0.0006    0.0005   -0.0042   -0.0013    0.0036   -0.0143    0.0167   -0.0000    0.0022
   79 O3     4d0       -0.0002    0.0004    0.0003   -0.0000   -0.0007   -0.0001   -0.0004    0.0013   -0.0000   -0.0006
   80 O3     3d1+      -0.0000   -0.0000   -0.0000   -0.0000   -0.0000    0.0000   -0.0000   -0.0000   -0.0155    0.0000
   81 O3     4d1+      -0.0000    0.0000    0.0000   -0.0000   -0.0000   -0.0000   -0.0000   -0.0000   -0.0020    0.0000
   82 O3     3d2+      -0.0005    0.0003    0.0003    0.0024   -0.0010   -0.0034   -0.0220    0.0008   -0.0000   -0.0102
   83 O3     4d2+      -0.0003    0.0002    0.0002    0.0004   -0.0006   -0.0002   -0.0013   -0.0001   -0.0000   -0.0022
   84 O3     4f3-      -0.0001   -0.0001   -0.0001    0.0020    0.0006   -0.0025   -0.0023   -0.0046   -0.0000   -0.0034
   85 O3     4f2-      -0.0000    0.0000    0.0000   -0.0000   -0.0000    0.0000   -0.0000   -0.0000   -0.0055    0.0000
   86 O3     4f1-      -0.0001    0.0001    0.0001   -0.0015   -0.0010    0.0003   -0.0041    0.0037   -0.0000    0.0004
   87 O3     4f0       -0.0000   -0.0000    0.0000   -0.0000   -0.0000   -0.0000   -0.0000   -0.0000   -0.0044    0.0000
   88 O3     4f1+       0.0000   -0.0001   -0.0001    0.0015    0.0008   -0.0010    0.0017   -0.0034    0.0000   -0.0012
   89 O3     4f2+       0.0000    0.0000    0.0000    0.0000    0.0000    0.0000   -0.0000   -0.0000   -0.0020    0.0000
   90 O3     4f3+       0.0001   -0.0002   -0.0002    0.0023    0.0015   -0.0012    0.0071   -0.0057    0.0000   -0.0010
 
 
      Orbital               11        12        13        14        15        16        17        18        19        20
      Energy            0.0000    0.0000    0.0000    0.0000    0.0000    0.1924    0.1949    0.2385    0.3454    0.3527
      Occ. No.          1.6262    1.7612    0.9287    0.0532    0.0490    0.0000    0.0000    0.0000    0.0000    0.0000
 
    1 O1     1s        -0.0000    0.0000    0.0000   -0.0339   -0.0393   -0.1809   -0.1521    0.0000    0.0557   -0.0055
    2 O1     2s        -0.0473   -0.0000    0.0000   -0.3776   -0.4114   -1.3216   -1.0438    0.0000    0.3910    0.0420
    3 O1     3s         0.0044    0.0000    0.0000   -0.0564   -0.0788   -0.8208   -0.6642    0.0000    0.2197    0.0586
    4 O1     4s         0.0015    0.0000    0.0000   -0.0060   -0.0118   -0.1886   -0.1417    0.0000    0.0350    0.0207
    5 O1     2px       -0.5076    0.0000   -0.0000    0.3217    0.4736    0.4079    0.2320   -0.0000   -0.2375   -0.2127
    6 O1     3px       -0.0127    0.0000    0.0000   -0.0022   -0.0733    0.4378    0.4431   -0.0000    0.0607   -0.8116
    7 O1     4px        0.0042   -0.0000    0.0000   -0.0080   -0.0008    0.0348    0.0982   -0.0000    0.1213   -0.3138
    8 O1     2py        0.5521   -0.0000    0.0000    0.6113    0.4675    0.4018    0.5381   -0.0000   -0.4010   -0.2643
    9 O1     3py        0.0038   -0.0000   -0.0000   -0.0786   -0.0027    0.7220    0.5521   -0.0000   -0.9417   -0.3315
   10 O1     4py       -0.0053    0.0000    0.0000   -0.0049   -0.0116    0.1429    0.0246   -0.0000   -0.2936   -0.0775
   11 O1     2pz       -0.0000   -0.7165    0.6499   -0.0000    0.0000    0.0000    0.0000   -0.0826    0.0000    0.0000
   12 O1     3pz        0.0000   -0.0040    0.0090   -0.0000   -0.0000    0.0000    0.0000    0.3454    0.0000    0.0000
   13 O1     4pz        0.0000    0.0086   -0.0049    0.0000    0.0000    0.0000    0.0000    0.1955    0.0000    0.0000
   14 O1     3d2-      -0.0012   -0.0000    0.0000   -0.0251   -0.0170   -0.0975   -0.0819    0.0000    0.0784    0.0285
   15 O1     4d2-       0.0006   -0.0000    0.0000   -0.0091   -0.0078   -0.0574   -0.0515    0.0000    0.0533    0.0319
   16 O1     3d1-       0.0000    0.0139    0.0027    0.0000   -0.0000    0.0000   -0.0000    0.0172    0.0000   -0.0000
   17 O1     4d1-       0.0000    0.0026    0.0004    0.0000    0.0000    0.0000   -0.0000    0.0080   -0.0000   -0.0000
   18 O1     3d0        0.0019    0.0000   -0.0000    0.0100    0.0144    0.0691    0.0541   -0.0000   -0.0213   -0.0275
   19 O1     4d0       -0.0002   -0.0000    0.0000    0.0020    0.0066    0.0441    0.0314   -0.0000   -0.0142   -0.0241
   20 O1     3d1+       0.0000    0.0107    0.0033    0.0000   -0.0000    0.0000   -0.0000    0.0051   -0.0000    0.0000
   21 O1     4d1+       0.0000    0.0016    0.0004    0.0000   -0.0000    0.0000   -0.0000   -0.0003   -0.0000    0.0000
   22 O1     3d2+       0.0168   -0.0000   -0.0000    0.0073    0.0183    0.0287    0.0577   -0.0000   -0.0165   -0.0069
   23 O1     4d2+       0.0031   -0.0000   -0.0000    0.0035    0.0061    0.0196    0.0330   -0.0000   -0.0162   -0.0051
   24 O1     4f3-      -0.0035    0.0000   -0.0000    0.0014   -0.0014    0.0027   -0.0001   -0.0000    0.0027   -0.0072
   25 O1     4f2-      -0.0000   -0.0034   -0.0007   -0.0000    0.0000    0.0000    0.0000    0.0031    0.0000   -0.0000
   26 O1     4f1-      -0.0013   -0.0000   -0.0000   -0.0024   -0.0043   -0.0078   -0.0039    0.0000    0.0048    0.0073
   27 O1     4f0        0.0000    0.0022    0.0015    0.0000    0.0000   -0.0000   -0.0000   -0.0012    0.0000   -0.0000
   28 O1     4f1+      -0.0001   -0.0000    0.0000   -0.0023   -0.0018   -0.0038   -0.0037    0.0000    0.0032    0.0074
   29 O1     4f2+       0.0000    0.0009   -0.0002    0.0000   -0.0000    0.0000   -0.0000    0.0003   -0.0000   -0.0000
   30 O1     4f3+      -0.0028   -0.0000    0.0000   -0.0036   -0.0053   -0.0085   -0.0064    0.0000    0.0142    0.0098
   31 O2     1s        -0.0000    0.0000   -0.0000    0.0852   -0.0000    0.0000    0.3037    0.0000   -0.2055   -0.0000
   32 O2     2s        -0.0000    0.0000    0.0000    0.8456   -0.0000    0.0000    2.1311    0.0000   -1.3599   -0.0000
   33 O2     3s        -0.0000    0.0000   -0.0000    0.0956   -0.0000    0.0000    1.3338    0.0000   -0.8372   -0.0000
   34 O2     4s        -0.0000    0.0000   -0.0000    0.0302   -0.0000    0.0000    0.2884    0.0000   -0.1739   -0.0000
   35 O2     2px        0.0000   -0.0000   -0.0000    0.7495   -0.0000    0.0000    0.7157    0.0000   -0.4435   -0.0000
   36 O2     3px        0.0000   -0.0000    0.0000   -0.1440    0.0000    0.0000    1.0465    0.0000   -0.3961   -0.0000
   37 O2     4px        0.0000   -0.0000    0.0000    0.0266   -0.0000    0.0000    0.1699    0.0000    0.0339   -0.0000
   38 O2     2py       -0.0457   -0.0000   -0.0000    0.0000    0.9982    1.0178   -0.0000   -0.0000    0.0000   -0.0137
   39 O2     3py       -0.0166   -0.0000   -0.0000   -0.0000   -0.1292    1.1875   -0.0000   -0.0000    0.0000    0.4479
   40 O2     4py       -0.0035   -0.0000   -0.0000   -0.0000    0.0065    0.1305   -0.0000   -0.0000    0.0000    0.2499
   41 O2     2pz       -0.0000    0.0000   -0.7233    0.0000   -0.0000   -0.0000   -0.0000   -0.0673    0.0000   -0.0000
   42 O2     3pz        0.0000    0.0000   -0.0277    0.0000    0.0000    0.0000   -0.0000    0.3305    0.0000   -0.0000
   43 O2     4pz        0.0000   -0.0000    0.0031   -0.0000    0.0000    0.0000   -0.0000    0.1913    0.0000   -0.0000
[...]

>>> EXPORT i = B

>>> EXPORT j = P

>>> IF (-FILE GMJ_e2_${i}_${j}_${k}_.csv)

>>> COPY /lustre/isaac/scratch/gjones39/scpfiles/ANO-RCC-VTZP/ozone_107.25/3252664/GMJ_RHS_B_P_3_.csv /lustre/isaac/scratch/gjones39/scpfiles/ANO-RCC-VTZP/ozone_107.25/GMJ_RHS_B_P_3_.csv

>>> COPY /lustre/isaac/scratch/gjones39/scpfiles/ANO-RCC-VTZP/ozone_107.25/3252664/GMJ_IVECW_B_P_3_.csv /lustre/isaac/scratch/gjones39/scpfiles/ANO-RCC-VTZP/ozone_107.25/GMJ_IVECW_B_P_3_.csv

>>> COPY /lustre/isaac/scratch/gjones39/scpfiles/ANO-RCC-VTZP/ozone_107.25/3252664/GMJ_IVECX_B_P_3_.csv /lustre/isaac/scratch/gjones39/scpfiles/ANO-RCC-VTZP/ozone_107.25/GMJ_IVECX_B_P_3_.csv

>>> COPY /lustre/isaac/scratch/gjones39/scpfiles/ANO-RCC-VTZP/ozone_107.25/3252664/GMJ_IVECC2_B_P_3_.csv /lustre/isaac/scratch/gjones39/scpfiles/ANO-RCC-VTZP/ozone_107.25/GMJ_IVECC2_B_P_3_.csv

>>> COPY /lustre/isaac/scratch/gjones39/scpfiles/ANO-RCC-VTZP/ozone_107.25/3252664/GMJ_e2_B_P_3_.csv /lustre/isaac/scratch/gjones39/scpfiles/ANO-RCC-VTZP/ozone_107.25/GMJ_e2_B_P_3_.csv

>>> END FOREACH

>>> EXPORT j = M

>>> IF (-FILE GMJ_e2_${i}_${j}_${k}_.csv)

>>> COPY /lustre/isaac/scratch/gjones39/scpfiles/ANO-RCC-VTZP/ozone_107.25/3252664/GMJ_RHS_B_M_3_.csv /lustre/isaac/scratch/gjones39/scpfiles/ANO-RCC-VTZP/ozone_107.25/GMJ_RHS_B_M_3_.csv

>>> COPY /lustre/isaac/scratch/gjones39/scpfiles/ANO-RCC-VTZP/ozone_107.25/3252664/GMJ_IVECW_B_M_3_.csv /lustre/isaac/scratch/gjones39/scpfiles/ANO-RCC-VTZP/ozone_107.25/GMJ_IVECW_B_M_3_.csv

>>> COPY /lustre/isaac/scratch/gjones39/scpfiles/ANO-RCC-VTZP/ozone_107.25/3252664/GMJ_IVECX_B_M_3_.csv /lustre/isaac/scratch/gjones39/scpfiles/ANO-RCC-VTZP/ozone_107.25/GMJ_IVECX_B_M_3_.csv

>>> COPY /lustre/isaac/scratch/gjones39/scpfiles/ANO-RCC-VTZP/ozone_107.25/3252664/GMJ_IVECC2_B_M_3_.csv /lustre/isaac/scratch/gjones39/scpfiles/ANO-RCC-VTZP/ozone_107.25/GMJ_IVECC2_B_M_3_.csv

>>> COPY /lustre/isaac/scratch/gjones39/scpfiles/ANO-RCC-VTZP/ozone_107.25/3252664/GMJ_e2_B_M_3_.csv /lustre/isaac/scratch/gjones39/scpfiles/ANO-RCC-VTZP/ozone_107.25/GMJ_e2_B_M_3_.csv

>>> END FOREACH

>>> END FOREACH

>>> EXPORT i = E

>>> EXPORT j = P

>>> IF (-FILE GMJ_e2_${i}_${j}_${k}_.csv)

>>> COPY /lustre/isaac/scratch/gjones39/scpfiles/ANO-RCC-VTZP/ozone_107.25/3252664/GMJ_RHS_E_P_3_.csv /lustre/isaac/scratch/gjones39/scpfiles/ANO-RCC-VTZP/ozone_107.25/GMJ_RHS_E_P_3_.csv

>>> COPY /lustre/isaac/scratch/gjones39/scpfiles/ANO-RCC-VTZP/ozone_107.25/3252664/GMJ_IVECW_E_P_3_.csv /lustre/isaac/scratch/gjones39/scpfiles/ANO-RCC-VTZP/ozone_107.25/GMJ_IVECW_E_P_3_.csv

>>> COPY /lustre/isaac/scratch/gjones39/scpfiles/ANO-RCC-VTZP/ozone_107.25/3252664/GMJ_IVECX_E_P_3_.csv /lustre/isaac/scratch/gjones39/scpfiles/ANO-RCC-VTZP/ozone_107.25/GMJ_IVECX_E_P_3_.csv

>>> COPY /lustre/isaac/scratch/gjones39/scpfiles/ANO-RCC-VTZP/ozone_107.25/3252664/GMJ_IVECC2_E_P_3_.csv /lustre/isaac/scratch/gjones39/scpfiles/ANO-RCC-VTZP/ozone_107.25/GMJ_IVECC2_E_P_3_.csv

>>> COPY /lustre/isaac/scratch/gjones39/scpfiles/ANO-RCC-VTZP/ozone_107.25/3252664/GMJ_e2_E_P_3_.csv /lustre/isaac/scratch/gjones39/scpfiles/ANO-RCC-VTZP/ozone_107.25/GMJ_e2_E_P_3_.csv

>>> END FOREACH

>>> EXPORT j = M

>>> IF (-FILE GMJ_e2_${i}_${j}_${k}_.csv)

>>> COPY /lustre/isaac/scratch/gjones39/scpfiles/ANO-RCC-VTZP/ozone_107.25/3252664/GMJ_RHS_E_M_3_.csv /lustre/isaac/scratch/gjones39/scpfiles/ANO-RCC-VTZP/ozone_107.25/GMJ_RHS_E_M_3_.csv

>>> COPY /lustre/isaac/scratch/gjones39/scpfiles/ANO-RCC-VTZP/ozone_107.25/3252664/GMJ_IVECW_E_M_3_.csv /lustre/isaac/scratch/gjones39/scpfiles/ANO-RCC-VTZP/ozone_107.25/GMJ_IVECW_E_M_3_.csv

>>> COPY /lustre/isaac/scratch/gjones39/scpfiles/ANO-RCC-VTZP/ozone_107.25/3252664/GMJ_IVECX_E_M_3_.csv /lustre/isaac/scratch/gjones39/scpfiles/ANO-RCC-VTZP/ozone_107.25/GMJ_IVECX_E_M_3_.csv

>>> COPY /lustre/isaac/scratch/gjones39/scpfiles/ANO-RCC-VTZP/ozone_107.25/3252664/GMJ_IVECC2_E_M_3_.csv /lustre/isaac/scratch/gjones39/scpfiles/ANO-RCC-VTZP/ozone_107.25/GMJ_IVECC2_E_M_3_.csv

>>> COPY /lustre/isaac/scratch/gjones39/scpfiles/ANO-RCC-VTZP/ozone_107.25/3252664/GMJ_e2_E_M_3_.csv /lustre/isaac/scratch/gjones39/scpfiles/ANO-RCC-VTZP/ozone_107.25/GMJ_e2_E_M_3_.csv

>>> END FOREACH

>>> END FOREACH

>>> EXPORT i = F

>>> EXPORT j = P

>>> IF (-FILE GMJ_e2_${i}_${j}_${k}_.csv)

>>> COPY /lustre/isaac/scratch/gjones39/scpfiles/ANO-RCC-VTZP/ozone_107.25/3252664/GMJ_RHS_F_P_3_.csv /lustre/isaac/scratch/gjones39/scpfiles/ANO-RCC-VTZP/ozone_107.25/GMJ_RHS_F_P_3_.csv

>>> COPY /lustre/isaac/scratch/gjones39/scpfiles/ANO-RCC-VTZP/ozone_107.25/3252664/GMJ_IVECW_F_P_3_.csv /lustre/isaac/scratch/gjones39/scpfiles/ANO-RCC-VTZP/ozone_107.25/GMJ_IVECW_F_P_3_.csv

>>> COPY /lustre/isaac/scratch/gjones39/scpfiles/ANO-RCC-VTZP/ozone_107.25/3252664/GMJ_IVECX_F_P_3_.csv /lustre/isaac/scratch/gjones39/scpfiles/ANO-RCC-VTZP/ozone_107.25/GMJ_IVECX_F_P_3_.csv

>>> COPY /lustre/isaac/scratch/gjones39/scpfiles/ANO-RCC-VTZP/ozone_107.25/3252664/GMJ_IVECC2_F_P_3_.csv /lustre/isaac/scratch/gjones39/scpfiles/ANO-RCC-VTZP/ozone_107.25/GMJ_IVECC2_F_P_3_.csv

>>> COPY /lustre/isaac/scratch/gjones39/scpfiles/ANO-RCC-VTZP/ozone_107.25/3252664/GMJ_e2_F_P_3_.csv /lustre/isaac/scratch/gjones39/scpfiles/ANO-RCC-VTZP/ozone_107.25/GMJ_e2_F_P_3_.csv

>>> END FOREACH

>>> EXPORT j = M

>>> IF (-FILE GMJ_e2_${i}_${j}_${k}_.csv)

>>> COPY /lustre/isaac/scratch/gjones39/scpfiles/ANO-RCC-VTZP/ozone_107.25/3252664/GMJ_RHS_F_M_3_.csv /lustre/isaac/scratch/gjones39/scpfiles/ANO-RCC-VTZP/ozone_107.25/GMJ_RHS_F_M_3_.csv

>>> COPY /lustre/isaac/scratch/gjones39/scpfiles/ANO-RCC-VTZP/ozone_107.25/3252664/GMJ_IVECW_F_M_3_.csv /lustre/isaac/scratch/gjones39/scpfiles/ANO-RCC-VTZP/ozone_107.25/GMJ_IVECW_F_M_3_.csv

>>> COPY /lustre/isaac/scratch/gjones39/scpfiles/ANO-RCC-VTZP/ozone_107.25/3252664/GMJ_IVECX_F_M_3_.csv /lustre/isaac/scratch/gjones39/scpfiles/ANO-RCC-VTZP/ozone_107.25/GMJ_IVECX_F_M_3_.csv

>>> COPY /lustre/isaac/scratch/gjones39/scpfiles/ANO-RCC-VTZP/ozone_107.25/3252664/GMJ_IVECC2_F_M_3_.csv /lustre/isaac/scratch/gjones39/scpfiles/ANO-RCC-VTZP/ozone_107.25/GMJ_IVECC2_F_M_3_.csv

>>> COPY /lustre/isaac/scratch/gjones39/scpfiles/ANO-RCC-VTZP/ozone_107.25/3252664/GMJ_e2_F_M_3_.csv /lustre/isaac/scratch/gjones39/scpfiles/ANO-RCC-VTZP/ozone_107.25/GMJ_e2_F_M_3_.csv

>>> END FOREACH

>>> END FOREACH

>>> EXPORT i = G

>>> EXPORT j = P

>>> IF (-FILE GMJ_e2_${i}_${j}_${k}_.csv)

>>> COPY /lustre/isaac/scratch/gjones39/scpfiles/ANO-RCC-VTZP/ozone_107.25/3252664/GMJ_RHS_G_P_3_.csv /lustre/isaac/scratch/gjones39/scpfiles/ANO-RCC-VTZP/ozone_107.25/GMJ_RHS_G_P_3_.csv

>>> COPY /lustre/isaac/scratch/gjones39/scpfiles/ANO-RCC-VTZP/ozone_107.25/3252664/GMJ_IVECW_G_P_3_.csv /lustre/isaac/scratch/gjones39/scpfiles/ANO-RCC-VTZP/ozone_107.25/GMJ_IVECW_G_P_3_.csv

>>> COPY /lustre/isaac/scratch/gjones39/scpfiles/ANO-RCC-VTZP/ozone_107.25/3252664/GMJ_IVECX_G_P_3_.csv /lustre/isaac/scratch/gjones39/scpfiles/ANO-RCC-VTZP/ozone_107.25/GMJ_IVECX_G_P_3_.csv

>>> COPY /lustre/isaac/scratch/gjones39/scpfiles/ANO-RCC-VTZP/ozone_107.25/3252664/GMJ_IVECC2_G_P_3_.csv /lustre/isaac/scratch/gjones39/scpfiles/ANO-RCC-VTZP/ozone_107.25/GMJ_IVECC2_G_P_3_.csv

>>> COPY /lustre/isaac/scratch/gjones39/scpfiles/ANO-RCC-VTZP/ozone_107.25/3252664/GMJ_e2_G_P_3_.csv /lustre/isaac/scratch/gjones39/scpfiles/ANO-RCC-VTZP/ozone_107.25/GMJ_e2_G_P_3_.csv

>>> END FOREACH

>>> EXPORT j = M

>>> IF (-FILE GMJ_e2_${i}_${j}_${k}_.csv)

>>> COPY /lustre/isaac/scratch/gjones39/scpfiles/ANO-RCC-VTZP/ozone_107.25/3252664/GMJ_RHS_G_M_3_.csv /lustre/isaac/scratch/gjones39/scpfiles/ANO-RCC-VTZP/ozone_107.25/GMJ_RHS_G_M_3_.csv

>>> COPY /lustre/isaac/scratch/gjones39/scpfiles/ANO-RCC-VTZP/ozone_107.25/3252664/GMJ_IVECW_G_M_3_.csv /lustre/isaac/scratch/gjones39/scpfiles/ANO-RCC-VTZP/ozone_107.25/GMJ_IVECW_G_M_3_.csv

>>> COPY /lustre/isaac/scratch/gjones39/scpfiles/ANO-RCC-VTZP/ozone_107.25/3252664/GMJ_IVECX_G_M_3_.csv /lustre/isaac/scratch/gjones39/scpfiles/ANO-RCC-VTZP/ozone_107.25/GMJ_IVECX_G_M_3_.csv

>>> COPY /lustre/isaac/scratch/gjones39/scpfiles/ANO-RCC-VTZP/ozone_107.25/3252664/GMJ_IVECC2_G_M_3_.csv /lustre/isaac/scratch/gjones39/scpfiles/ANO-RCC-VTZP/ozone_107.25/GMJ_IVECC2_G_M_3_.csv

>>> COPY /lustre/isaac/scratch/gjones39/scpfiles/ANO-RCC-VTZP/ozone_107.25/3252664/GMJ_e2_G_M_3_.csv /lustre/isaac/scratch/gjones39/scpfiles/ANO-RCC-VTZP/ozone_107.25/GMJ_e2_G_M_3_.csv

>>> END FOREACH

>>> END FOREACH

>>> EXPORT i = H

>>> EXPORT j = P

>>> IF (-FILE GMJ_e2_${i}_${j}_${k}_.csv)

>>> COPY /lustre/isaac/scratch/gjones39/scpfiles/ANO-RCC-VTZP/ozone_107.25/3252664/GMJ_RHS_H_P_3_.csv /lustre/isaac/scratch/gjones39/scpfiles/ANO-RCC-VTZP/ozone_107.25/GMJ_RHS_H_P_3_.csv

>>> COPY /lustre/isaac/scratch/gjones39/scpfiles/ANO-RCC-VTZP/ozone_107.25/3252664/GMJ_IVECW_H_P_3_.csv /lustre/isaac/scratch/gjones39/scpfiles/ANO-RCC-VTZP/ozone_107.25/GMJ_IVECW_H_P_3_.csv

>>> COPY /lustre/isaac/scratch/gjones39/scpfiles/ANO-RCC-VTZP/ozone_107.25/3252664/GMJ_IVECX_H_P_3_.csv /lustre/isaac/scratch/gjones39/scpfiles/ANO-RCC-VTZP/ozone_107.25/GMJ_IVECX_H_P_3_.csv

>>> COPY /lustre/isaac/scratch/gjones39/scpfiles/ANO-RCC-VTZP/ozone_107.25/3252664/GMJ_IVECC2_H_P_3_.csv /lustre/isaac/scratch/gjones39/scpfiles/ANO-RCC-VTZP/ozone_107.25/GMJ_IVECC2_H_P_3_.csv

>>> COPY /lustre/isaac/scratch/gjones39/scpfiles/ANO-RCC-VTZP/ozone_107.25/3252664/GMJ_e2_H_P_3_.csv /lustre/isaac/scratch/gjones39/scpfiles/ANO-RCC-VTZP/ozone_107.25/GMJ_e2_H_P_3_.csv

>>> END FOREACH

>>> EXPORT j = M

>>> IF (-FILE GMJ_e2_${i}_${j}_${k}_.csv)

>>> COPY /lustre/isaac/scratch/gjones39/scpfiles/ANO-RCC-VTZP/ozone_107.25/3252664/GMJ_RHS_H_M_3_.csv /lustre/isaac/scratch/gjones39/scpfiles/ANO-RCC-VTZP/ozone_107.25/GMJ_RHS_H_M_3_.csv

>>> COPY /lustre/isaac/scratch/gjones39/scpfiles/ANO-RCC-VTZP/ozone_107.25/3252664/GMJ_IVECW_H_M_3_.csv /lustre/isaac/scratch/gjones39/scpfiles/ANO-RCC-VTZP/ozone_107.25/GMJ_IVECW_H_M_3_.csv

>>> COPY /lustre/isaac/scratch/gjones39/scpfiles/ANO-RCC-VTZP/ozone_107.25/3252664/GMJ_IVECX_H_M_3_.csv /lustre/isaac/scratch/gjones39/scpfiles/ANO-RCC-VTZP/ozone_107.25/GMJ_IVECX_H_M_3_.csv

>>> COPY /lustre/isaac/scratch/gjones39/scpfiles/ANO-RCC-VTZP/ozone_107.25/3252664/GMJ_IVECC2_H_M_3_.csv /lustre/isaac/scratch/gjones39/scpfiles/ANO-RCC-VTZP/ozone_107.25/GMJ_IVECC2_H_M_3_.csv

>>> COPY /lustre/isaac/scratch/gjones39/scpfiles/ANO-RCC-VTZP/ozone_107.25/3252664/GMJ_e2_H_M_3_.csv /lustre/isaac/scratch/gjones39/scpfiles/ANO-RCC-VTZP/ozone_107.25/GMJ_e2_H_M_3_.csv

>>> END FOREACH

>>> END FOREACH

>>> END FOREACH

>>> EXPORT j = 1

>>> EXPORT i = A

>>> IF (-FILE GMJ_e2_${i}_${j}_.csv)

>>> COPY /lustre/isaac/scratch/gjones39/scpfiles/ANO-RCC-VTZP/ozone_107.25/3252664/GMJ_RHS_A_1_.csv /lustre/isaac/scratch/gjones39/scpfiles/ANO-RCC-VTZP/ozone_107.25/GMJ_RHS_A_1_.csv

>>> COPY /lustre/isaac/scratch/gjones39/scpfiles/ANO-RCC-VTZP/ozone_107.25/3252664/GMJ_IVECW_A_1_.csv /lustre/isaac/scratch/gjones39/scpfiles/ANO-RCC-VTZP/ozone_107.25/GMJ_IVECW_A_1_.csv

>>> COPY /lustre/isaac/scratch/gjones39/scpfiles/ANO-RCC-VTZP/ozone_107.25/3252664/GMJ_IVECX_A_1_.csv /lustre/isaac/scratch/gjones39/scpfiles/ANO-RCC-VTZP/ozone_107.25/GMJ_IVECX_A_1_.csv

>>> COPY /lustre/isaac/scratch/gjones39/scpfiles/ANO-RCC-VTZP/ozone_107.25/3252664/GMJ_IVECC2_A_1_.csv /lustre/isaac/scratch/gjones39/scpfiles/ANO-RCC-VTZP/ozone_107.25/GMJ_IVECC2_A_1_.csv

>>> COPY /lustre/isaac/scratch/gjones39/scpfiles/ANO-RCC-VTZP/ozone_107.25/3252664/GMJ_e2_A_1_.csv /lustre/isaac/scratch/gjones39/scpfiles/ANO-RCC-VTZP/ozone_107.25/GMJ_e2_A_1_.csv

>>> END FOREACH

>>> EXPORT i = C

>>> IF (-FILE GMJ_e2_${i}_${j}_.csv)

>>> COPY /lustre/isaac/scratch/gjones39/scpfiles/ANO-RCC-VTZP/ozone_107.25/3252664/GMJ_RHS_C_1_.csv /lustre/isaac/scratch/gjones39/scpfiles/ANO-RCC-VTZP/ozone_107.25/GMJ_RHS_C_1_.csv

>>> COPY /lustre/isaac/scratch/gjones39/scpfiles/ANO-RCC-VTZP/ozone_107.25/3252664/GMJ_IVECW_C_1_.csv /lustre/isaac/scratch/gjones39/scpfiles/ANO-RCC-VTZP/ozone_107.25/GMJ_IVECW_C_1_.csv

>>> COPY /lustre/isaac/scratch/gjones39/scpfiles/ANO-RCC-VTZP/ozone_107.25/3252664/GMJ_IVECX_C_1_.csv /lustre/isaac/scratch/gjones39/scpfiles/ANO-RCC-VTZP/ozone_107.25/GMJ_IVECX_C_1_.csv

>>> COPY /lustre/isaac/scratch/gjones39/scpfiles/ANO-RCC-VTZP/ozone_107.25/3252664/GMJ_IVECC2_C_1_.csv /lustre/isaac/scratch/gjones39/scpfiles/ANO-RCC-VTZP/ozone_107.25/GMJ_IVECC2_C_1_.csv

>>> COPY /lustre/isaac/scratch/gjones39/scpfiles/ANO-RCC-VTZP/ozone_107.25/3252664/GMJ_e2_C_1_.csv /lustre/isaac/scratch/gjones39/scpfiles/ANO-RCC-VTZP/ozone_107.25/GMJ_e2_C_1_.csv

>>> END FOREACH

>>> EXPORT i = D

>>> IF (-FILE GMJ_e2_${i}_${j}_.csv)

>>> COPY /lustre/isaac/scratch/gjones39/scpfiles/ANO-RCC-VTZP/ozone_107.25/3252664/GMJ_RHS_D_1_.csv /lustre/isaac/scratch/gjones39/scpfiles/ANO-RCC-VTZP/ozone_107.25/GMJ_RHS_D_1_.csv

>>> COPY /lustre/isaac/scratch/gjones39/scpfiles/ANO-RCC-VTZP/ozone_107.25/3252664/GMJ_IVECW_D_1_.csv /lustre/isaac/scratch/gjones39/scpfiles/ANO-RCC-VTZP/ozone_107.25/GMJ_IVECW_D_1_.csv

>>> COPY /lustre/isaac/scratch/gjones39/scpfiles/ANO-RCC-VTZP/ozone_107.25/3252664/GMJ_IVECX_D_1_.csv /lustre/isaac/scratch/gjones39/scpfiles/ANO-RCC-VTZP/ozone_107.25/GMJ_IVECX_D_1_.csv

>>> COPY /lustre/isaac/scratch/gjones39/scpfiles/ANO-RCC-VTZP/ozone_107.25/3252664/GMJ_IVECC2_D_1_.csv /lustre/isaac/scratch/gjones39/scpfiles/ANO-RCC-VTZP/ozone_107.25/GMJ_IVECC2_D_1_.csv

>>> COPY /lustre/isaac/scratch/gjones39/scpfiles/ANO-RCC-VTZP/ozone_107.25/3252664/GMJ_e2_D_1_.csv /lustre/isaac/scratch/gjones39/scpfiles/ANO-RCC-VTZP/ozone_107.25/GMJ_e2_D_1_.csv

>>> END FOREACH

>>> END FOREACH

>>> EXPORT j = 2

>>> EXPORT i = A

>>> IF (-FILE GMJ_e2_${i}_${j}_.csv)

>>> COPY /lustre/isaac/scratch/gjones39/scpfiles/ANO-RCC-VTZP/ozone_107.25/3252664/GMJ_RHS_A_2_.csv /lustre/isaac/scratch/gjones39/scpfiles/ANO-RCC-VTZP/ozone_107.25/GMJ_RHS_A_2_.csv

>>> COPY /lustre/isaac/scratch/gjones39/scpfiles/ANO-RCC-VTZP/ozone_107.25/3252664/GMJ_IVECW_A_2_.csv /lustre/isaac/scratch/gjones39/scpfiles/ANO-RCC-VTZP/ozone_107.25/GMJ_IVECW_A_2_.csv

>>> COPY /lustre/isaac/scratch/gjones39/scpfiles/ANO-RCC-VTZP/ozone_107.25/3252664/GMJ_IVECX_A_2_.csv /lustre/isaac/scratch/gjones39/scpfiles/ANO-RCC-VTZP/ozone_107.25/GMJ_IVECX_A_2_.csv

>>> COPY /lustre/isaac/scratch/gjones39/scpfiles/ANO-RCC-VTZP/ozone_107.25/3252664/GMJ_IVECC2_A_2_.csv /lustre/isaac/scratch/gjones39/scpfiles/ANO-RCC-VTZP/ozone_107.25/GMJ_IVECC2_A_2_.csv

>>> COPY /lustre/isaac/scratch/gjones39/scpfiles/ANO-RCC-VTZP/ozone_107.25/3252664/GMJ_e2_A_2_.csv /lustre/isaac/scratch/gjones39/scpfiles/ANO-RCC-VTZP/ozone_107.25/GMJ_e2_A_2_.csv

>>> END FOREACH

>>> EXPORT i = C

>>> IF (-FILE GMJ_e2_${i}_${j}_.csv)

>>> COPY /lustre/isaac/scratch/gjones39/scpfiles/ANO-RCC-VTZP/ozone_107.25/3252664/GMJ_RHS_C_2_.csv /lustre/isaac/scratch/gjones39/scpfiles/ANO-RCC-VTZP/ozone_107.25/GMJ_RHS_C_2_.csv

>>> COPY /lustre/isaac/scratch/gjones39/scpfiles/ANO-RCC-VTZP/ozone_107.25/3252664/GMJ_IVECW_C_2_.csv /lustre/isaac/scratch/gjones39/scpfiles/ANO-RCC-VTZP/ozone_107.25/GMJ_IVECW_C_2_.csv

>>> COPY /lustre/isaac/scratch/gjones39/scpfiles/ANO-RCC-VTZP/ozone_107.25/3252664/GMJ_IVECX_C_2_.csv /lustre/isaac/scratch/gjones39/scpfiles/ANO-RCC-VTZP/ozone_107.25/GMJ_IVECX_C_2_.csv

>>> COPY /lustre/isaac/scratch/gjones39/scpfiles/ANO-RCC-VTZP/ozone_107.25/3252664/GMJ_IVECC2_C_2_.csv /lustre/isaac/scratch/gjones39/scpfiles/ANO-RCC-VTZP/ozone_107.25/GMJ_IVECC2_C_2_.csv

>>> COPY /lustre/isaac/scratch/gjones39/scpfiles/ANO-RCC-VTZP/ozone_107.25/3252664/GMJ_e2_C_2_.csv /lustre/isaac/scratch/gjones39/scpfiles/ANO-RCC-VTZP/ozone_107.25/GMJ_e2_C_2_.csv

>>> END FOREACH

>>> EXPORT i = D

>>> IF (-FILE GMJ_e2_${i}_${j}_.csv)

>>> COPY /lustre/isaac/scratch/gjones39/scpfiles/ANO-RCC-VTZP/ozone_107.25/3252664/GMJ_RHS_D_2_.csv /lustre/isaac/scratch/gjones39/scpfiles/ANO-RCC-VTZP/ozone_107.25/GMJ_RHS_D_2_.csv

>>> COPY /lustre/isaac/scratch/gjones39/scpfiles/ANO-RCC-VTZP/ozone_107.25/3252664/GMJ_IVECW_D_2_.csv /lustre/isaac/scratch/gjones39/scpfiles/ANO-RCC-VTZP/ozone_107.25/GMJ_IVECW_D_2_.csv

>>> COPY /lustre/isaac/scratch/gjones39/scpfiles/ANO-RCC-VTZP/ozone_107.25/3252664/GMJ_IVECX_D_2_.csv /lustre/isaac/scratch/gjones39/scpfiles/ANO-RCC-VTZP/ozone_107.25/GMJ_IVECX_D_2_.csv

>>> COPY /lustre/isaac/scratch/gjones39/scpfiles/ANO-RCC-VTZP/ozone_107.25/3252664/GMJ_IVECC2_D_2_.csv /lustre/isaac/scratch/gjones39/scpfiles/ANO-RCC-VTZP/ozone_107.25/GMJ_IVECC2_D_2_.csv

>>> COPY /lustre/isaac/scratch/gjones39/scpfiles/ANO-RCC-VTZP/ozone_107.25/3252664/GMJ_e2_D_2_.csv /lustre/isaac/scratch/gjones39/scpfiles/ANO-RCC-VTZP/ozone_107.25/GMJ_e2_D_2_.csv

>>> END FOREACH

>>> END FOREACH

>>> EXPORT j = 3

>>> EXPORT i = A

>>> IF (-FILE GMJ_e2_${i}_${j}_.csv)

>>> COPY /lustre/isaac/scratch/gjones39/scpfiles/ANO-RCC-VTZP/ozone_107.25/3252664/GMJ_RHS_A_3_.csv /lustre/isaac/scratch/gjones39/scpfiles/ANO-RCC-VTZP/ozone_107.25/GMJ_RHS_A_3_.csv

>>> COPY /lustre/isaac/scratch/gjones39/scpfiles/ANO-RCC-VTZP/ozone_107.25/3252664/GMJ_IVECW_A_3_.csv /lustre/isaac/scratch/gjones39/scpfiles/ANO-RCC-VTZP/ozone_107.25/GMJ_IVECW_A_3_.csv

>>> COPY /lustre/isaac/scratch/gjones39/scpfiles/ANO-RCC-VTZP/ozone_107.25/3252664/GMJ_IVECX_A_3_.csv /lustre/isaac/scratch/gjones39/scpfiles/ANO-RCC-VTZP/ozone_107.25/GMJ_IVECX_A_3_.csv

>>> COPY /lustre/isaac/scratch/gjones39/scpfiles/ANO-RCC-VTZP/ozone_107.25/3252664/GMJ_IVECC2_A_3_.csv /lustre/isaac/scratch/gjones39/scpfiles/ANO-RCC-VTZP/ozone_107.25/GMJ_IVECC2_A_3_.csv

>>> COPY /lustre/isaac/scratch/gjones39/scpfiles/ANO-RCC-VTZP/ozone_107.25/3252664/GMJ_e2_A_3_.csv /lustre/isaac/scratch/gjones39/scpfiles/ANO-RCC-VTZP/ozone_107.25/GMJ_e2_A_3_.csv

>>> END FOREACH

>>> EXPORT i = C

>>> IF (-FILE GMJ_e2_${i}_${j}_.csv)

>>> COPY /lustre/isaac/scratch/gjones39/scpfiles/ANO-RCC-VTZP/ozone_107.25/3252664/GMJ_RHS_C_3_.csv /lustre/isaac/scratch/gjones39/scpfiles/ANO-RCC-VTZP/ozone_107.25/GMJ_RHS_C_3_.csv

>>> COPY /lustre/isaac/scratch/gjones39/scpfiles/ANO-RCC-VTZP/ozone_107.25/3252664/GMJ_IVECW_C_3_.csv /lustre/isaac/scratch/gjones39/scpfiles/ANO-RCC-VTZP/ozone_107.25/GMJ_IVECW_C_3_.csv

>>> COPY /lustre/isaac/scratch/gjones39/scpfiles/ANO-RCC-VTZP/ozone_107.25/3252664/GMJ_IVECX_C_3_.csv /lustre/isaac/scratch/gjones39/scpfiles/ANO-RCC-VTZP/ozone_107.25/GMJ_IVECX_C_3_.csv

>>> COPY /lustre/isaac/scratch/gjones39/scpfiles/ANO-RCC-VTZP/ozone_107.25/3252664/GMJ_IVECC2_C_3_.csv /lustre/isaac/scratch/gjones39/scpfiles/ANO-RCC-VTZP/ozone_107.25/GMJ_IVECC2_C_3_.csv

>>> COPY /lustre/isaac/scratch/gjones39/scpfiles/ANO-RCC-VTZP/ozone_107.25/3252664/GMJ_e2_C_3_.csv /lustre/isaac/scratch/gjones39/scpfiles/ANO-RCC-VTZP/ozone_107.25/GMJ_e2_C_3_.csv

>>> END FOREACH

>>> EXPORT i = D

>>> IF (-FILE GMJ_e2_${i}_${j}_.csv)

>>> COPY /lustre/isaac/scratch/gjones39/scpfiles/ANO-RCC-VTZP/ozone_107.25/3252664/GMJ_RHS_D_3_.csv /lustre/isaac/scratch/gjones39/scpfiles/ANO-RCC-VTZP/ozone_107.25/GMJ_RHS_D_3_.csv

>>> COPY /lustre/isaac/scratch/gjones39/scpfiles/ANO-RCC-VTZP/ozone_107.25/3252664/GMJ_IVECW_D_3_.csv /lustre/isaac/scratch/gjones39/scpfiles/ANO-RCC-VTZP/ozone_107.25/GMJ_IVECW_D_3_.csv

>>> COPY /lustre/isaac/scratch/gjones39/scpfiles/ANO-RCC-VTZP/ozone_107.25/3252664/GMJ_IVECX_D_3_.csv /lustre/isaac/scratch/gjones39/scpfiles/ANO-RCC-VTZP/ozone_107.25/GMJ_IVECX_D_3_.csv

>>> COPY /lustre/isaac/scratch/gjones39/scpfiles/ANO-RCC-VTZP/ozone_107.25/3252664/GMJ_IVECC2_D_3_.csv /lustre/isaac/scratch/gjones39/scpfiles/ANO-RCC-VTZP/ozone_107.25/GMJ_IVECC2_D_3_.csv

>>> COPY /lustre/isaac/scratch/gjones39/scpfiles/ANO-RCC-VTZP/ozone_107.25/3252664/GMJ_e2_D_3_.csv /lustre/isaac/scratch/gjones39/scpfiles/ANO-RCC-VTZP/ozone_107.25/GMJ_e2_D_3_.csv

>>> END FOREACH

>>> END FOREACH

    Timing: Wall=65.75 User=42.44 System=20.22
****************************************************************************************************
*** WorkDir at /lustre/isaac/scratch/gjones39/scpfiles/ANO-RCC-VTZP/ozone_107.25/3252664 cleaned ***
****************************************************************************************************
