[Molden Format]
[N_Atoms]
                     2
[Atoms] (AU)
LI1         1      3           0.00000000      0.00000000      0.00000000
O2          2      8           0.00000000      0.00000000      3.59047964
[Charge] (Mulliken)
  0.629341446300038     
 -0.629341446300060     
[GTO] (AU)
   1
   s  14
  9.497934400E+03  9.668999974E-05
  1.416811200E+03  6.087099984E-04
  3.214599400E+02  3.101519992E-03
  9.112416300E+01  1.266904997E-02
  2.999989100E+01  4.248012989E-02
  1.101763100E+01  1.150183297E-01
  4.372801000E+00  2.398650094E-01
  1.831256000E+00  3.584300090E-01
  8.022610000E-01  3.048527792E-01
  3.626480000E-01  8.824261976E-02
  1.139950000E-01 -8.445899977E-04
  5.123700000E-02 -7.943959979E-03
  2.246800000E-02 -3.764419990E-03
  7.860000000E-03 -8.868999976E-05
   s  14
  9.497934400E+03 -1.244999993E-05
  1.416811200E+03 -7.838999954E-05
  3.214599400E+02 -4.007099976E-04
  9.112416300E+01 -1.645249990E-03
  2.999989100E+01 -5.634599967E-03
  1.101763100E+01 -1.590780991E-02
  4.372801000E+00 -3.612581979E-02
  1.831256000E+00 -6.459927962E-02
  8.022610000E-01 -1.008321794E-01
  3.626480000E-01 -9.757613942E-02
  1.139950000E-01  2.301215886E-01
  5.123700000E-02  6.102389764E-01
  2.246800000E-02  2.849406083E-01
  7.860000000E-03  4.026899976E-03
   p   9
  1.311950400E+01  1.524940000E-03
  3.077424200E+00  8.314830000E-03
  1.098800500E+00  1.933203000E-02
  4.357784000E-01  4.934293000E-02
  1.802432000E-01  1.623554000E-01
  7.613330000E-02  3.847505400E-01
  3.254650000E-02  4.336100400E-01
  1.401820000E-02  1.287005900E-01
  4.906400000E-03 -1.018520000E-03
 
   2
   s  14
  1.053749500E+05  1.238600013E-04
  1.567924000E+04  5.120100053E-04
  3.534544700E+03  2.152910022E-03
  9.873651600E+02  8.528440089E-03
  3.159787500E+02  3.018049031E-02
  1.116542800E+02  9.099702095E-02
  4.269945100E+01  2.177936423E-01
  1.739559600E+01  3.686245738E-01
  7.438309000E+00  3.366707335E-01
  3.222862000E+00  9.657630101E-02
  1.253877000E+00  2.144520022E-03
  4.951550000E-01  1.194350012E-03
  1.916650000E-01  5.390200056E-04
  6.708300000E-02  2.103400022E-04
   s  14
  1.053749500E+05 -2.815000008E-05
  1.567924000E+04 -1.163000003E-04
  3.534544700E+03 -4.909200013E-04
  9.873651600E+02 -1.946160005E-03
  3.159787500E+02 -7.005300019E-03
  1.116542800E+02 -2.167814006E-02
  4.269945100E+01 -5.641213015E-02
  1.739559600E+01 -1.127053003E-01
  7.438309000E+00 -1.589119704E-01
  3.222862000E+00 -3.355083009E-02
  1.253877000E+00  3.531902810E-01
  4.951550000E-01  5.534199315E-01
  1.916650000E-01  2.301839106E-01
  6.708300000E-02  1.127267003E-02
   p   9
  2.000000000E+02  9.173000030E-04
  4.653336700E+01  7.377140024E-03
  1.462180900E+01  3.483515011E-02
  5.313064000E+00  1.144397004E-01
  2.102525000E+00  2.554966408E-01
  8.502230000E-01  3.722557412E-01
  3.375970000E-01  3.323314911E-01
  1.288920000E-01  1.400847905E-01
  4.511200000E-02  2.395784008E-02
 
[MO]
Sym=     1a  
Ene=   -20.2970
Spin= Alpha
Occup=    1.00000
   1        -0.00015341
   2        -0.00067591
   3        -0.00000000
   4        -0.00000000
   5        -0.00075860
   6         1.00005055
   7         0.00220563
   8        -0.00000000
   9        -0.00000000
  10        -0.00064581
Sym=     1a  
Ene=   -20.2550
Spin= Beta
Occup=    1.00000
   1        -0.00009364
   2        -0.00033246
   3        -0.00000000
   4        -0.00000000
   5        -0.00034072
   6         1.00002415
   7        -0.00019293
   8        -0.00000000
   9        -0.00000000
  10        -0.00053545
Sym=     2a  
Ene=    -2.4926
Spin= Alpha
Occup=    1.00000
   1         0.99952823
   2         0.01257966
   3        -0.00000000
   4         0.00000000
   5        -0.00261646
   6        -0.00018805
   7         0.00575939
   8         0.00000000
   9        -0.00000000
  10        -0.00324180
Sym=     2a  
Ene=    -2.4941
Spin= Beta
Occup=    1.00000
   1         0.99958405
   2         0.01273094
   3        -0.00000000
   4         0.00000000
   5        -0.00250853
   6        -0.00018019
   7         0.00470700
   8         0.00000000
   9        -0.00000000
  10        -0.00287908
Sym=     3a  
Ene=    -1.1172
Spin= Alpha
Occup=    1.00000
   1        -0.03444259
   2         0.02215615
   3        -0.00000000
   4        -0.00000000
   5         0.02921224
   6        -0.00363763
   7         0.98067618
   8         0.00000000
   9        -0.00000000
  10        -0.05450968
Sym=     3a  
Ene=    -0.9368
Spin= Beta
Occup=    1.00000
   1        -0.03236398
   2         0.05240007
   3        -0.00000000
   4        -0.00000000
   5         0.05806464
   6        -0.00362428
   7         0.95975937
   8        -0.00000000
   9        -0.00000000
  10        -0.04203531
Sym=     4a  
Ene=    -0.4305
Spin= Alpha
Occup=    1.00000
   1        -0.00000000
   2        -0.00000000
   3         0.07013349
   4         0.02745563
   5        -0.00000000
   6         0.00000000
   7         0.00000000
   8         0.91540163
   9         0.35835841
  10        -0.00000000
Sym=     4a  
Ene=    -0.3072
Spin= Beta
Occup=    1.00000
   1         0.06567771
   2        -0.20740996
   3        -0.00000000
   4         0.00000000
   5        -0.10725959
   6         0.01102762
   7         0.16244889
   8        -0.00000000
   9         0.00000000
  10         0.94183751
Sym=     5a  
Ene=    -0.3704
Spin= Alpha
Occup=    1.00000
   1         0.06773004
   2        -0.11283334
   3         0.00000000
   4         0.00000000
   5        -0.08710991
   6         0.00731981
   7         0.12609459
   8         0.00000000
   9        -0.00000000
  10         0.97073121
Sym=     5a  
Ene=    -0.2575
Spin= Beta
Occup=    1.00000
   1        -0.00000000
   2         0.00000000
   3        -0.11086094
   4         0.28318657
   5        -0.00000000
   6         0.00000000
   7         0.00000000
   8        -0.32697962
   9         0.83524669
  10        -0.00000000
Sym=     6a  
Ene=    -0.3543
Spin= Alpha
Occup=    1.00000
   1         0.00000000
   2         0.00000000
   3        -0.04761186
   4         0.12162119
   5        -0.00000000
   6         0.00000000
   7         0.00000000
   8        -0.35254188
   9         0.90054371
  10         0.00000000
Sym=     6a  
Ene=    -0.0000
Spin= Beta
Occup=    0.00000
   1         0.00164077
   2         0.82186285
   3        -0.00000000
   4        -0.00000000
   5        -0.56439188
   6         0.00137438
   7        -0.01533027
   8         0.00000000
   9        -0.00000000
  10         0.18588880
Sym=     7a  
Ene=     0.0021
Spin= Alpha
Occup=    0.00000
   1        -0.00269109
   2         0.83995014
   3        -0.00000000
   4         0.00000000
   5        -0.54714416
   6         0.00013006
   7        -0.02282759
   8         0.00000000
   9        -0.00000000
  10         0.12483362
Sym=     7a  
Ene=     0.0556
Spin= Beta
Occup=    0.00000
   1         0.00000000
   2         0.00000000
   3         0.90663741
   4         0.35492743
   5        -0.00000000
   6         0.00000000
   7        -0.00000000
   8         0.10165234
   9         0.03979452
  10         0.00000000
Sym=     8a  
Ene=     0.0789
Spin= Alpha
Occup=    0.00000
   1         0.00000000
   2         0.00000000
   3         0.94563139
   4         0.37019266
   5         0.00000000
   6        -0.00000000
   7        -0.00000000
   8        -0.24734043
   9        -0.09682802
  10         0.00000000
Sym=     8a  
Ene=     0.0967
Spin= Beta
Occup=    0.00000
   1        -0.00000000
   2         0.00000000
   3        -0.35426864
   4         0.90495458
   5         0.00000000
   6        -0.00000000
   7        -0.00000000
   8         0.17572917
   9        -0.44888794
  10        -0.00000000
Sym=     9a  
Ene=     0.0887
Spin= Alpha
Occup=    0.00000
   1        -0.00000000
   2         0.00000000
   3        -0.36814335
   4         0.94039657
   5         0.00000000
   6        -0.00000000
   7        -0.00000000
   8         0.11623527
   9        -0.29691490
  10        -0.00000000
Sym=     9a  
Ene=     0.2203
Spin= Beta
Occup=    0.00000
   1         0.03290181
   2         0.63758371
   3         0.00000000
   4        -0.00000000
   5         0.93229778
   6        -0.05861531
   7        -0.59130749
   8        -0.00000000
   9         0.00000000
  10         0.33417733
Sym=    10a  
Ene=     0.2037
Spin= Alpha
Occup=    0.00000
   1         0.02787290
   2         0.63953199
   3        -0.00000000
   4        -0.00000000
   5         0.94593035
   6        -0.05876008
   7        -0.56501744
   8         0.00000000
   9         0.00000000
  10         0.27235606
Sym=    10a  
Ene=     0.3916
Spin= Beta
Occup=    0.00000
   1         0.00000000
   2         0.00000000
   3        -0.27775173
   4        -0.10873333
   5         0.00000000
   6        -0.00000000
   7        -0.00000000
   8         0.94276414
   9         0.36907020
  10         0.00000000
