[Molden Format]
[N_Atoms]
                     2
[Atoms] (AU)
BE1         1      4           0.00000000      0.00000000      0.00000000
F2          2      9           0.00000000      0.00000000      3.77945225
[Charge] (Mulliken)
  0.531656764188207     
 -0.531656764188240     
[GTO] (AU)
   1
   s  14
  2.262859900E+04  8.443999941E-05
  3.372318100E+03  4.601499968E-04
  7.603504000E+02  2.285389984E-03
  2.117404800E+02  9.648129932E-03
  6.722346800E+01  3.494469975E-02
  2.337217700E+01  1.061099893E-01
  8.721373000E+00  2.458240383E-01
  3.468091000E+00  3.862428773E-01
  1.452144000E+00  3.105526078E-01
  6.086150000E-01  6.415933955E-02
  2.576860000E-01 -2.265049984E-03
  1.041760000E-01 -5.217499963E-04
  4.242700000E-02 -8.757499938E-04
  1.484900000E-02  1.242199991E-04
   s  14
  2.262859900E+04 -1.586999994E-05
  3.372318100E+03 -8.656999968E-05
  7.603504000E+02 -4.302199984E-04
  2.117404800E+02 -1.825079993E-03
  6.722346800E+01 -6.682749976E-03
  2.337217700E+01 -2.095119992E-02
  8.721373000E+00 -5.200308981E-02
  3.468091000E+00 -9.849176964E-02
  1.452144000E+00 -1.355800695E-01
  6.086150000E-01 -6.429875976E-02
  2.576860000E-01  3.125414989E-01
  1.041760000E-01  6.270468577E-01
  4.242700000E-02  2.110231492E-01
  1.484900000E-02 -4.104669985E-03
   p   9
  3.371018400E+01  1.069960000E-03
  8.057649500E+00  6.828550001E-03
  2.836471400E+00  2.119065000E-02
  1.099965700E+00  5.843696001E-02
  4.433964000E-01  2.020920800E-01
  1.822264000E-01  4.582953101E-01
  7.572410000E-02  3.691239601E-01
  3.168540000E-02  6.611471001E-02
  1.108990000E-02  1.405160000E-03
 
   2
   s  14
  1.031094600E+05  1.713099991E-04
  1.528100700E+04  7.123999962E-04
  3.441539200E+03  2.990479984E-03
  9.670948300E+02  1.164036994E-02
  3.140353400E+02  3.968642979E-02
  1.134423000E+02  1.128546094E-01
  4.464472700E+01  2.473650687E-01
  1.894287400E+01  3.672702681E-01
  8.532743000E+00  2.896286985E-01
  3.919401000E+00  7.786681959E-02
  1.568157000E+00  4.562139976E-03
  6.232900000E-01  2.468879987E-03
  2.408610000E-01  1.106309994E-03
  8.430100000E-02  1.739699991E-04
   s  14
  1.031094600E+05 -4.044999995E-05
  1.528100700E+04 -1.682299998E-04
  3.441539200E+03 -7.084299991E-04
  9.670948300E+02 -2.767999996E-03
  3.140353400E+02 -9.611379987E-03
  1.134423000E+02 -2.833957996E-02
  4.464472700E+01 -6.839343991E-02
  1.894287400E+01 -1.237379298E-01
  8.532743000E+00 -1.512859698E-01
  3.919401000E+00 -9.099909988E-03
  1.568157000E+00  3.716257695E-01
  6.232900000E-01  5.500214393E-01
  2.408610000E-01  2.092318697E-01
  8.430100000E-02  8.074639989E-03
   p   9
  2.453302900E+02  1.024860004E-03
  5.691900500E+01  8.344290032E-03
  1.760456800E+01  4.078927016E-02
  6.274995000E+00  1.351370605E-01
  2.447030000E+00  2.798830811E-01
  9.950600000E-01  3.597966414E-01
  4.039730000E-01  3.055347412E-01
  1.548100000E-01  1.354703905E-01
  5.418400000E-02  2.804449011E-02
 
[MO]
Sym=     1a  
Ene=   -26.0510
Spin= Alpha
Occup=    1.00000
   1        -0.00003668
   2        -0.00031005
   3        -0.00000000
   4         0.00000000
   5        -0.00036137
   6         1.00001359
   7        -0.00232459
   8         0.00000000
   9         0.00000000
  10        -0.00061023
Sym=     1a  
Ene=   -26.0410
Spin= Beta
Occup=    1.00000
   1        -0.00003341
   2        -0.00023392
   3        -0.00000000
   4         0.00000000
   5        -0.00028673
   6         1.00000881
   7        -0.00277932
   8         0.00000000
   9         0.00000000
  10        -0.00055787
Sym=     2a  
Ene=    -4.8373
Spin= Alpha
Occup=    1.00000
   1         0.99997615
   2         0.00202739
   3        -0.00000000
   4         0.00000000
   5        -0.00048899
   6         0.00000798
   7         0.00061707
   8        -0.00000000
   9         0.00000000
  10        -0.00067608
Sym=     2a  
Ene=    -4.8190
Spin= Beta
Occup=    1.00000
   1         0.99998113
   2         0.00249716
   3        -0.00000000
   4        -0.00000000
   5         0.00063303
   6        -0.00003466
   7         0.00024380
   8        -0.00000000
   9         0.00000000
  10        -0.00052364
Sym=     3a  
Ene=    -1.4108
Spin= Alpha
Occup=    1.00000
   1        -0.00733529
   2         0.02828732
   3        -0.00000000
   4         0.00000000
   5         0.03436080
   6         0.00088877
   7         0.98259255
   8        -0.00000000
   9         0.00000000
  10        -0.04025946
Sym=     3a  
Ene=    -1.3728
Spin= Beta
Occup=    1.00000
   1        -0.00670982
   2         0.04097758
   3        -0.00000000
   4         0.00000000
   5         0.04369789
   6         0.00080227
   7         0.97778209
   8        -0.00000000
   9         0.00000000
  10        -0.01336581
Sym=     4a  
Ene=    -0.5370
Spin= Alpha
Occup=    1.00000
   1         0.02389134
   2        -0.26907046
   3        -0.00000000
   4         0.00000000
   5        -0.09273151
   6         0.00814713
   7         0.13504239
   8         0.00000000
   9         0.00000000
  10         0.89706431
Sym=     4a  
Ene=    -0.4945
Spin= Beta
Occup=    1.00000
   1         0.00000000
   2        -0.00000000
   3         0.01719992
   4         0.07330575
   5        -0.00000000
   6         0.00000000
   7         0.00000000
   8         0.22554980
   9         0.96128928
  10         0.00000000
Sym=     5a  
Ene=    -0.5028
Spin= Alpha
Occup=    1.00000
   1        -0.00000000
   2         0.00000000
   3         0.04464511
   4         0.06726150
   5         0.00000000
   6        -0.00000000
   7        -0.00000000
   8         0.54542586
   9         0.82172863
  10        -0.00000000
Sym=     5a  
Ene=    -0.4945
Spin= Beta
Occup=    1.00000
   1         0.00000000
   2         0.00000000
   3         0.07330575
   4        -0.01719992
   5         0.00000000
   6         0.00000000
   7         0.00000000
   8         0.96128928
   9        -0.22554980
  10         0.00000000
Sym=     6a  
Ene=    -0.5028
Spin= Alpha
Occup=    1.00000
   1        -0.00000000
   2        -0.00000000
   3         0.06726150
   4        -0.04464511
   5         0.00000000
   6        -0.00000000
   7         0.00000000
   8         0.82172863
   9        -0.54542586
  10        -0.00000000
Sym=     6a  
Ene=    -0.4344
Spin= Beta
Occup=    1.00000
   1         0.02122461
   2        -0.39506209
   3        -0.00000000
   4         0.00000000
   5        -0.25376586
   6         0.01536818
   7         0.19524718
   8        -0.00000000
   9        -0.00000000
  10         0.78415782
Sym=     7a  
Ene=    -0.3784
Spin= Alpha
Occup=    1.00000
   1         0.00515787
   2         0.86922935
   3        -0.00000000
   4         0.00000000
   5        -0.46176616
   6        -0.00021109
   7        -0.02073563
   8         0.00000000
   9        -0.00000000
  10         0.26288232
Sym=     7a  
Ene=     0.0126
Spin= Beta
Occup=    0.00000
   1         0.00843537
   2         0.90267317
   3        -0.00000000
   4         0.00000000
   5        -0.35074674
   6        -0.00432846
   7        -0.07289778
   8        -0.00000000
   9        -0.00000000
  10         0.37214372
Sym=     8a  
Ene=     0.0514
Spin= Alpha
Occup=    0.00000
   1         0.00000000
   2         0.00000000
   3        -0.16844369
   4         0.99115643
   5         0.00000000
   6        -0.00000000
   7        -0.00000000
   8         0.03536509
   9        -0.20809528
  10         0.00000000
Sym=     8a  
Ene=     0.1016
Spin= Beta
Occup=    0.00000
   1         0.00000000
   2         0.00000000
   3        -0.16744272
   4         0.99175350
   5         0.00000000
   6        -0.00000000
   7        -0.00000000
   8         0.03425255
   9        -0.20287585
  10         0.00000000
Sym=     9a  
Ene=     0.0514
Spin= Alpha
Occup=    0.00000
   1         0.00000000
   2        -0.00000000
   3         0.99115643
   4         0.16844369
   5        -0.00000000
   6         0.00000000
   7         0.00000000
   8        -0.20809528
   9        -0.03536509
  10        -0.00000000
Sym=     9a  
Ene=     0.1016
Spin= Beta
Occup=    0.00000
   1         0.00000000
   2        -0.00000000
   3         0.99175350
   4         0.16744272
   5        -0.00000000
   6         0.00000000
   7         0.00000000
   8        -0.20287585
   9        -0.03425255
  10        -0.00000000
Sym=    10a  
Ene=     0.1913
Spin= Alpha
Occup=    0.00000
   1         0.01381278
   2         0.50191275
   3         0.00000000
   4        -0.00000000
   5         0.96228519
   6        -0.03893461
   7        -0.40378918
   8        -0.00000000
   9         0.00000000
  10         0.45409818
Sym=    10a  
Ene=     0.2488
Spin= Beta
Occup=    0.00000
   1         0.01629042
   2         0.32878715
   3         0.00000000
   4        -0.00000000
   5         0.97962777
   6        -0.03656657
   7        -0.38432390
   8        -0.00000000
   9         0.00000000
  10         0.57278673
