[Molden Format]
[N_Atoms]
                     2
[Atoms] (AU)
LI1         1      3           0.00000000      0.00000000      0.00000000
LI2         2      3           0.00000000      0.00000000      5.10226054
[Charge] (Mulliken)
  4.423128530106624E-013
 -4.414246745909622E-013
[GTO] (AU)
   1
   s  14
  9.497934400E+03  9.668999974E-05
  1.416811200E+03  6.087099984E-04
  3.214599400E+02  3.101519992E-03
  9.112416300E+01  1.266904997E-02
  2.999989100E+01  4.248012989E-02
  1.101763100E+01  1.150183297E-01
  4.372801000E+00  2.398650094E-01
  1.831256000E+00  3.584300090E-01
  8.022610000E-01  3.048527792E-01
  3.626480000E-01  8.824261976E-02
  1.139950000E-01 -8.445899977E-04
  5.123700000E-02 -7.943959979E-03
  2.246800000E-02 -3.764419990E-03
  7.860000000E-03 -8.868999976E-05
   s  14
  9.497934400E+03 -1.244999993E-05
  1.416811200E+03 -7.838999954E-05
  3.214599400E+02 -4.007099976E-04
  9.112416300E+01 -1.645249990E-03
  2.999989100E+01 -5.634599967E-03
  1.101763100E+01 -1.590780991E-02
  4.372801000E+00 -3.612581979E-02
  1.831256000E+00 -6.459927962E-02
  8.022610000E-01 -1.008321794E-01
  3.626480000E-01 -9.757613942E-02
  1.139950000E-01  2.301215886E-01
  5.123700000E-02  6.102389764E-01
  2.246800000E-02  2.849406083E-01
  7.860000000E-03  4.026899976E-03
   p   9
  1.311950400E+01  1.524940000E-03
  3.077424200E+00  8.314830000E-03
  1.098800500E+00  1.933203000E-02
  4.357784000E-01  4.934293000E-02
  1.802432000E-01  1.623554000E-01
  7.613330000E-02  3.847505400E-01
  3.254650000E-02  4.336100400E-01
  1.401820000E-02  1.287005900E-01
  4.906400000E-03 -1.018520000E-03
 
   2
   s  14
  9.497934400E+03  9.668999974E-05
  1.416811200E+03  6.087099984E-04
  3.214599400E+02  3.101519992E-03
  9.112416300E+01  1.266904997E-02
  2.999989100E+01  4.248012989E-02
  1.101763100E+01  1.150183297E-01
  4.372801000E+00  2.398650094E-01
  1.831256000E+00  3.584300090E-01
  8.022610000E-01  3.048527792E-01
  3.626480000E-01  8.824261976E-02
  1.139950000E-01 -8.445899977E-04
  5.123700000E-02 -7.943959979E-03
  2.246800000E-02 -3.764419990E-03
  7.860000000E-03 -8.868999976E-05
   s  14
  9.497934400E+03 -1.244999993E-05
  1.416811200E+03 -7.838999954E-05
  3.214599400E+02 -4.007099976E-04
  9.112416300E+01 -1.645249990E-03
  2.999989100E+01 -5.634599967E-03
  1.101763100E+01 -1.590780991E-02
  4.372801000E+00 -3.612581979E-02
  1.831256000E+00 -6.459927962E-02
  8.022610000E-01 -1.008321794E-01
  3.626480000E-01 -9.757613942E-02
  1.139950000E-01  2.301215886E-01
  5.123700000E-02  6.102389764E-01
  2.246800000E-02  2.849406083E-01
  7.860000000E-03  4.026899976E-03
   p   9
  1.311950400E+01  1.524940000E-03
  3.077424200E+00  8.314830000E-03
  1.098800500E+00  1.933203000E-02
  4.357784000E-01  4.934293000E-02
  1.802432000E-01  1.623554000E-01
  7.613330000E-02  3.847505400E-01
  3.254650000E-02  4.336100400E-01
  1.401820000E-02  1.287005900E-01
  4.906400000E-03 -1.018520000E-03
 
[MO]
Sym=     1a  
Ene=    -2.4573
Spin= Alpha
Occup=    2.00000
   1         0.70733271
   2         0.00674928
   3        -0.00000000
   4         0.00000000
   5        -0.00143350
   6         0.70733272
   7         0.00674928
   8         0.00000000
   9        -0.00000000
  10         0.00143350
Sym=     2a  
Ene=    -2.4571
Spin= Alpha
Occup=    2.00000
   1        -0.70656467
   2        -0.00542818
   3        -0.00000000
   4         0.00000000
   5         0.00276071
   6         0.70656466
   7         0.00542818
   8         0.00000000
   9        -0.00000000
  10         0.00276071
Sym=     3a  
Ene=    -0.1748
Spin= Alpha
Occup=    1.90741
   1        -0.05655504
   2         0.51215846
   3        -0.00000000
   4        -0.00000000
   5         0.13095818
   6        -0.05655504
   7         0.51215846
   8         0.00000000
   9        -0.00000000
  10        -0.13095818
Sym=     4a  
Ene=    -0.0000
Spin= Alpha
Occup=    0.09259
   1         0.00000000
   2        -0.00000000
   3         0.53080368
   4        -0.22043733
   5        -0.00000000
   6         0.00000000
   7         0.00000000
   8         0.53080368
   9        -0.22043733
  10         0.00000000
Sym=     5a  
Ene=     0.0203
Spin= Alpha
Occup=    0.00000
   1         0.02977714
   2        -0.46470151
   3         0.00000000
   4         0.00000000
   5         0.44213007
   6        -0.02977714
   7         0.46470151
   8         0.00000000
   9         0.00000000
  10         0.44213007
Sym=     6a  
Ene=     0.0443
Spin= Alpha
Occup=    0.00000
   1        -0.00000000
   2         0.00000000
   3         0.22043733
   4         0.53080368
   5         0.00000000
   6        -0.00000000
   7        -0.00000000
   8         0.22043733
   9         0.53080368
  10        -0.00000000
Sym=     7a  
Ene=     0.0756
Spin= Alpha
Occup=    0.00000
   1         0.06459802
   2         0.35818626
   3         0.00000000
   4         0.00000000
   5        -0.74199397
   6         0.06459802
   7         0.35818626
   8         0.00000000
   9         0.00000000
  10         0.74199397
Sym=     8a  
Ene=     0.1274
Spin= Alpha
Occup=    0.00000
   1         0.00000000
   2        -0.00000000
   3        -0.93631950
   4         0.38884389
   5        -0.00000000
   6         0.00000000
   7         0.00000000
   8         0.93631950
   9        -0.38884389
  10         0.00000000
Sym=     9a  
Ene=     0.1280
Spin= Alpha
Occup=    0.00000
   1        -0.00000000
   2        -0.00000000
   3        -0.38884389
   4        -0.93631950
   5        -0.00000000
   6         0.00000000
   7         0.00000000
   8         0.38884389
   9         0.93631950
  10        -0.00000000
Sym=    10a  
Ene=     0.2902
Spin= Alpha
Occup=    0.00000
   1        -0.35172617
   2        -2.38579944
   3         0.00000000
   4         0.00000000
   5        -1.63104779
   6         0.35172617
   7         2.38579944
   8        -0.00000000
   9        -0.00000000
  10        -1.63104779
