[Molden Format]
[N_Atoms]
                     2
[Atoms] (AU)
LI1         1      3           0.00000000      0.00000000      0.00000000
LI2         2      3           0.00000000      0.00000000      5.10226054
[Charge] (Mulliken)
  0.999946566500081     
   1.00005343349991     
[GTO] (AU)
   1
   s  14
  9.497934400E+03  9.668999974E-05
  1.416811200E+03  6.087099984E-04
  3.214599400E+02  3.101519992E-03
  9.112416300E+01  1.266904997E-02
  2.999989100E+01  4.248012989E-02
  1.101763100E+01  1.150183297E-01
  4.372801000E+00  2.398650094E-01
  1.831256000E+00  3.584300090E-01
  8.022610000E-01  3.048527792E-01
  3.626480000E-01  8.824261976E-02
  1.139950000E-01 -8.445899977E-04
  5.123700000E-02 -7.943959979E-03
  2.246800000E-02 -3.764419990E-03
  7.860000000E-03 -8.868999976E-05
   s  14
  9.497934400E+03 -1.244999993E-05
  1.416811200E+03 -7.838999954E-05
  3.214599400E+02 -4.007099976E-04
  9.112416300E+01 -1.645249990E-03
  2.999989100E+01 -5.634599967E-03
  1.101763100E+01 -1.590780991E-02
  4.372801000E+00 -3.612581979E-02
  1.831256000E+00 -6.459927962E-02
  8.022610000E-01 -1.008321794E-01
  3.626480000E-01 -9.757613942E-02
  1.139950000E-01  2.301215886E-01
  5.123700000E-02  6.102389764E-01
  2.246800000E-02  2.849406083E-01
  7.860000000E-03  4.026899976E-03
   p   9
  1.311950400E+01  1.524940000E-03
  3.077424200E+00  8.314830000E-03
  1.098800500E+00  1.933203000E-02
  4.357784000E-01  4.934293000E-02
  1.802432000E-01  1.623554000E-01
  7.613330000E-02  3.847505400E-01
  3.254650000E-02  4.336100400E-01
  1.401820000E-02  1.287005900E-01
  4.906400000E-03 -1.018520000E-03
 
   2
   s  14
  9.497934400E+03  9.668999974E-05
  1.416811200E+03  6.087099984E-04
  3.214599400E+02  3.101519992E-03
  9.112416300E+01  1.266904997E-02
  2.999989100E+01  4.248012989E-02
  1.101763100E+01  1.150183297E-01
  4.372801000E+00  2.398650094E-01
  1.831256000E+00  3.584300090E-01
  8.022610000E-01  3.048527792E-01
  3.626480000E-01  8.824261976E-02
  1.139950000E-01 -8.445899977E-04
  5.123700000E-02 -7.943959979E-03
  2.246800000E-02 -3.764419990E-03
  7.860000000E-03 -8.868999976E-05
   s  14
  9.497934400E+03 -1.244999993E-05
  1.416811200E+03 -7.838999954E-05
  3.214599400E+02 -4.007099976E-04
  9.112416300E+01 -1.645249990E-03
  2.999989100E+01 -5.634599967E-03
  1.101763100E+01 -1.590780991E-02
  4.372801000E+00 -3.612581979E-02
  1.831256000E+00 -6.459927962E-02
  8.022610000E-01 -1.008321794E-01
  3.626480000E-01 -9.757613942E-02
  1.139950000E-01  2.301215886E-01
  5.123700000E-02  6.102389764E-01
  2.246800000E-02  2.849406083E-01
  7.860000000E-03  4.026899976E-03
   p   9
  1.311950400E+01  1.524940000E-03
  3.077424200E+00  8.314830000E-03
  1.098800500E+00  1.933203000E-02
  4.357784000E-01  4.934293000E-02
  1.802432000E-01  1.623554000E-01
  7.613330000E-02  3.847505400E-01
  3.254650000E-02  4.336100400E-01
  1.401820000E-02  1.287005900E-01
  4.906400000E-03 -1.018520000E-03
 
[MO]
Sym=     1a  
Ene=    -2.9894
Spin= Alpha
Occup=    2.00000
   1        -0.00107411
   2        -0.00193446
   3        -0.00000000
   4         0.00000000
   5        -0.00073922
   6         1.00014073
   7         0.01344280
   8         0.00000000
   9         0.00000000
  10        -0.00293131
Sym=     2a  
Ene=    -2.9895
Spin= Alpha
Occup=    1.99998
   1        -1.00015751
   2        -0.01371088
   3        -0.00000000
   4        -0.00000000
   5        -0.00306113
   6         0.00000022
   7         0.00208648
   8        -0.00000000
   9         0.00000000
  10        -0.00080470
Sym=     3a  
Ene=    -0.0008
Spin= Alpha
Occup=    0.00002
   1         0.12525740
   2         1.80946454
   3        -0.00000000
   4         0.00000000
   5         0.86339210
   6        -0.22636740
   7        -1.15808373
   8        -0.00000000
   9        -0.00000000
  10         0.50845202
Sym=     4a  
Ene=    -0.3488
Spin= Alpha
Occup=    0.00000
   1        -0.12085169
   2        -0.72389057
   3         0.00000000
   4        -0.00000000
   5         0.11486717
   6         0.02219633
   7         1.20548432
   8         0.00000000
   9         0.00000000
  10        -0.33147519
Sym=     5a  
Ene=    -0.3070
Spin= Alpha
Occup=    0.00000
   1        -0.00000000
   2        -0.00000000
   3        -0.54846410
   4         0.17197457
   5        -0.00000000
   6         0.00000000
   7         0.00000000
   8        -0.54839278
   9         0.17195221
  10         0.00000000
Sym=     6a  
Ene=    -0.3070
Spin= Alpha
Occup=    0.00000
   1         0.00000000
   2        -0.00000000
   3         0.17197457
   4         0.54846410
   5         0.00000000
   6        -0.00000000
   7        -0.00000000
   8         0.17195221
   9         0.54839278
  10         0.00000000
Sym=     7a  
Ene=    -0.2707
Spin= Alpha
Occup=    0.00000
   1        -0.05435398
   2        -0.41033565
   3        -0.00000000
   4        -0.00000000
   5         0.66109643
   6        -0.05094451
   7        -0.50044268
   8        -0.00000000
   9        -0.00000000
  10        -0.73049501
Sym=     8a  
Ene=    -0.2364
Spin= Alpha
Occup=    0.00000
   1         0.00000000
   2        -0.00000000
   3        -0.85506315
   4         0.54471811
   5         0.00000000
   6        -0.00000000
   7        -0.00000000
   8         0.85509889
   9        -0.54474088
  10         0.00000000
Sym=     9a  
Ene=    -0.2364
Spin= Alpha
Occup=    0.00000
   1        -0.00000000
   2        -0.00000000
   3        -0.54471811
   4        -0.85506315
   5        -0.00000000
   6         0.00000000
   7         0.00000000
   8         0.54474088
   9         0.85509889
  10        -0.00000000
Sym=    10a  
Ene=    -0.1572
Spin= Alpha
Occup=    0.00000
   1        -0.31298154
   2        -1.52706209
   3         0.00000000
   4         0.00000000
   5        -1.49258562
   6         0.27732803
   7         1.80379790
   8        -0.00000000
   9        -0.00000000
  10        -1.58791662
