[Molden Format]
[N_Atoms]
                     2
[Atoms] (AU)
LI1         1      3           0.00000000      0.00000000      0.00000000
LI2         2      3           0.00000000      0.00000000      5.10226054
[Charge] (Mulliken)
  5.502265310042276E-013
 -5.528910662633280E-013
[GTO] (AU)
   1
   s  14
  9.497934400E+03  9.668999974E-05
  1.416811200E+03  6.087099984E-04
  3.214599400E+02  3.101519992E-03
  9.112416300E+01  1.266904997E-02
  2.999989100E+01  4.248012989E-02
  1.101763100E+01  1.150183297E-01
  4.372801000E+00  2.398650094E-01
  1.831256000E+00  3.584300090E-01
  8.022610000E-01  3.048527792E-01
  3.626480000E-01  8.824261976E-02
  1.139950000E-01 -8.445899977E-04
  5.123700000E-02 -7.943959979E-03
  2.246800000E-02 -3.764419990E-03
  7.860000000E-03 -8.868999976E-05
   s  14
  9.497934400E+03 -1.244999993E-05
  1.416811200E+03 -7.838999954E-05
  3.214599400E+02 -4.007099976E-04
  9.112416300E+01 -1.645249990E-03
  2.999989100E+01 -5.634599967E-03
  1.101763100E+01 -1.590780991E-02
  4.372801000E+00 -3.612581979E-02
  1.831256000E+00 -6.459927962E-02
  8.022610000E-01 -1.008321794E-01
  3.626480000E-01 -9.757613942E-02
  1.139950000E-01  2.301215886E-01
  5.123700000E-02  6.102389764E-01
  2.246800000E-02  2.849406083E-01
  7.860000000E-03  4.026899976E-03
   p   9
  1.311950400E+01  1.524940000E-03
  3.077424200E+00  8.314830000E-03
  1.098800500E+00  1.933203000E-02
  4.357784000E-01  4.934293000E-02
  1.802432000E-01  1.623554000E-01
  7.613330000E-02  3.847505400E-01
  3.254650000E-02  4.336100400E-01
  1.401820000E-02  1.287005900E-01
  4.906400000E-03 -1.018520000E-03
 
   2
   s  14
  9.497934400E+03  9.668999974E-05
  1.416811200E+03  6.087099984E-04
  3.214599400E+02  3.101519992E-03
  9.112416300E+01  1.266904997E-02
  2.999989100E+01  4.248012989E-02
  1.101763100E+01  1.150183297E-01
  4.372801000E+00  2.398650094E-01
  1.831256000E+00  3.584300090E-01
  8.022610000E-01  3.048527792E-01
  3.626480000E-01  8.824261976E-02
  1.139950000E-01 -8.445899977E-04
  5.123700000E-02 -7.943959979E-03
  2.246800000E-02 -3.764419990E-03
  7.860000000E-03 -8.868999976E-05
   s  14
  9.497934400E+03 -1.244999993E-05
  1.416811200E+03 -7.838999954E-05
  3.214599400E+02 -4.007099976E-04
  9.112416300E+01 -1.645249990E-03
  2.999989100E+01 -5.634599967E-03
  1.101763100E+01 -1.590780991E-02
  4.372801000E+00 -3.612581979E-02
  1.831256000E+00 -6.459927962E-02
  8.022610000E-01 -1.008321794E-01
  3.626480000E-01 -9.757613942E-02
  1.139950000E-01  2.301215886E-01
  5.123700000E-02  6.102389764E-01
  2.246800000E-02  2.849406083E-01
  7.860000000E-03  4.026899976E-03
   p   9
  1.311950400E+01  1.524940000E-03
  3.077424200E+00  8.314830000E-03
  1.098800500E+00  1.933203000E-02
  4.357784000E-01  4.934293000E-02
  1.802432000E-01  1.623554000E-01
  7.613330000E-02  3.847505400E-01
  3.254650000E-02  4.336100400E-01
  1.401820000E-02  1.287005900E-01
  4.906400000E-03 -1.018520000E-03
 
[MO]
Sym=     1a  
Ene=    -2.4529
Spin= Alpha
Occup=    1.00000
   1         0.70704028
   2         0.00937553
   3         0.00000000
   4        -0.00000000
   5        -0.00081569
   6         0.70704028
   7         0.00937553
   8        -0.00000000
   9         0.00000000
  10         0.00081569
Sym=     1a  
Ene=    -2.4529
Spin= Beta
Occup=    1.00000
   1         0.70704028
   2         0.00937553
   3         0.00000000
   4        -0.00000000
   5        -0.00081569
   6         0.70704028
   7         0.00937553
   8        -0.00000000
   9         0.00000000
  10         0.00081569
Sym=     2a  
Ene=    -2.4526
Spin= Alpha
Occup=    1.00000
   1        -0.70653272
   2        -0.00522080
   3         0.00000000
   4         0.00000000
   5         0.00291307
   6         0.70653272
   7         0.00522080
   8        -0.00000000
   9         0.00000000
  10         0.00291307
Sym=     2a  
Ene=    -2.4526
Spin= Beta
Occup=    1.00000
   1        -0.70653272
   2        -0.00522080
   3         0.00000000
   4         0.00000000
   5         0.00291307
   6         0.70653272
   7         0.00522080
   8        -0.00000000
   9         0.00000000
  10         0.00291307
Sym=     3a  
Ene=    -0.1806
Spin= Alpha
Occup=    1.00000
   1        -0.05991053
   2         0.51343821
   3         0.00000000
   4         0.00000000
   5         0.12821980
   6        -0.05991053
   7         0.51343821
   8         0.00000000
   9        -0.00000000
  10        -0.12821980
Sym=     3a  
Ene=    -0.1806
Spin= Beta
Occup=    1.00000
   1        -0.05991053
   2         0.51343821
   3         0.00000000
   4         0.00000000
   5         0.12821980
   6        -0.05991053
   7         0.51343821
   8         0.00000000
   9        -0.00000000
  10        -0.12821980
Sym=     4a  
Ene=     0.0207
Spin= Alpha
Occup=    0.00000
   1         0.02976601
   2        -0.46484365
   3         0.00000000
   4         0.00000000
   5         0.44203280
   6        -0.02976601
   7         0.46484365
   8         0.00000000
   9         0.00000000
  10         0.44203280
Sym=     4a  
Ene=     0.0207
Spin= Beta
Occup=    0.00000
   1         0.02976601
   2        -0.46484365
   3         0.00000000
   4         0.00000000
   5         0.44203280
   6        -0.02976601
   7         0.46484365
   8         0.00000000
   9         0.00000000
  10         0.44203280
Sym=     5a  
Ene=     0.0454
Spin= Alpha
Occup=    0.00000
   1        -0.00000000
   2         0.00000000
   3         0.54704904
   4        -0.17630233
   5         0.00000000
   6        -0.00000000
   7        -0.00000000
   8         0.54704904
   9        -0.17630233
  10        -0.00000000
Sym=     5a  
Ene=     0.0454
Spin= Beta
Occup=    0.00000
   1        -0.00000000
   2         0.00000000
   3         0.54704904
   4        -0.17630233
   5         0.00000000
   6        -0.00000000
   7        -0.00000000
   8         0.54704904
   9        -0.17630233
  10        -0.00000000
Sym=     6a  
Ene=     0.0454
Spin= Alpha
Occup=    0.00000
   1        -0.00000000
   2         0.00000000
   3         0.17630233
   4         0.54704904
   5         0.00000000
   6        -0.00000000
   7        -0.00000000
   8         0.17630233
   9         0.54704904
  10        -0.00000000
Sym=     6a  
Ene=     0.0454
Spin= Beta
Occup=    0.00000
   1        -0.00000000
   2         0.00000000
   3         0.17630233
   4         0.54704904
   5         0.00000000
   6        -0.00000000
   7        -0.00000000
   8         0.17630233
   9         0.54704904
  10        -0.00000000
Sym=     7a  
Ene=     0.0770
Spin= Alpha
Occup=    0.00000
   1         0.06477435
   2         0.35628996
   3         0.00000000
   4         0.00000000
   5        -0.74247301
   6         0.06477435
   7         0.35628996
   8         0.00000000
   9         0.00000000
  10         0.74247301
Sym=     7a  
Ene=     0.0770
Spin= Beta
Occup=    0.00000
   1         0.06477435
   2         0.35628996
   3         0.00000000
   4         0.00000000
   5        -0.74247301
   6         0.06477435
   7         0.35628996
   8         0.00000000
   9         0.00000000
  10         0.74247301
Sym=     8a  
Ene=     0.1297
Spin= Alpha
Occup=    0.00000
   1        -0.00000000
   2        -0.00000000
   3        -0.89032506
   4         0.48498975
   5        -0.00000000
   6         0.00000000
   7         0.00000000
   8         0.89032506
   9        -0.48498975
  10        -0.00000000
Sym=     8a  
Ene=     0.1297
Spin= Beta
Occup=    0.00000
   1        -0.00000000
   2        -0.00000000
   3        -0.89032506
   4         0.48498975
   5        -0.00000000
   6         0.00000000
   7         0.00000000
   8         0.89032506
   9        -0.48498975
  10        -0.00000000
Sym=     9a  
Ene=     0.1297
Spin= Alpha
Occup=    0.00000
   1        -0.00000000
   2        -0.00000000
   3        -0.48498975
   4        -0.89032506
   5         0.00000000
   6         0.00000000
   7         0.00000000
   8         0.48498975
   9         0.89032506
  10        -0.00000000
Sym=     9a  
Ene=     0.1297
Spin= Beta
Occup=    0.00000
   1        -0.00000000
   2        -0.00000000
   3        -0.48498975
   4        -0.89032506
   5         0.00000000
   6         0.00000000
   7         0.00000000
   8         0.48498975
   9         0.89032506
  10        -0.00000000
Sym=    10a  
Ene=     0.2923
Spin= Alpha
Occup=    0.00000
   1         0.35179128
   2         2.38577222
   3        -0.00000000
   4        -0.00000000
   5         1.63107388
   6        -0.35179128
   7        -2.38577222
   8         0.00000000
   9         0.00000000
  10         1.63107388
Sym=    10a  
Ene=     0.2923
Spin= Beta
Occup=    0.00000
   1         0.35179128
   2         2.38577222
   3        -0.00000000
   4        -0.00000000
   5         1.63107388
   6        -0.35179128
   7        -2.38577222
   8         0.00000000
   9         0.00000000
  10         1.63107388
