[Molden Format]
[N_Atoms]
                     2
[Atoms] (AU)
C1          1      6           0.00000000      0.00000000      0.00000000
LI2         2      3           0.00000000      0.00000000      4.91328792
[Charge] (Mulliken)
  4.213554325284363E-002
 -4.213554325289337E-002
[GTO] (AU)
   1
   s  14
  5.055750100E+04  1.128874000E-04
  7.524785600E+03  5.295373000E-04
  1.694327600E+03  2.450038300E-03
  4.728227900E+02  1.005398470E-02
  1.517107500E+02  3.545398060E-02
  5.391874600E+01  1.044071086E-01
  2.065931100E+01  2.412894918E-01
  8.383976000E+00  3.834225483E-01
  3.577015000E+00  3.078514393E-01
  1.547118000E+00  6.872442990E-02
  6.130130000E-01  2.224445000E-04
  2.460680000E-01  1.976748900E-03
  9.908700000E-02  2.057859400E-03
  3.468000000E-02  4.182020000E-04
   s  14
  5.055750100E+04 -2.507420000E-05
  7.524785600E+03 -1.175945000E-04
  1.694327600E+03 -5.456275000E-04
  4.728227900E+02 -2.245077100E-03
  1.517107500E+02 -8.043471800E-03
  5.391874600E+01 -2.442588710E-02
  2.065931100E+01 -6.136791180E-02
  8.383976000E+00 -1.177767835E-01
  3.577015000E+00 -1.550487783E-01
  1.547118000E+00 -1.933316860E-02
  6.130130000E-01  3.996930678E-01
  2.460680000E-01  5.589420949E-01
  9.908700000E-02  1.711195023E-01
  3.468000000E-02  7.456244600E-03
   p   9
  8.333315500E+01  1.344656000E-03
  1.955761100E+01  1.023555500E-02
  6.080365000E+00  4.520067100E-02
  2.179317000E+00  1.410756198E-01
  8.651500000E-01  3.047388085E-01
  3.619440000E-01  3.995281011E-01
  1.547400000E-01  2.719163432E-01
  6.542900000E-02  5.857669330E-02
  2.290000000E-02 -1.263813000E-04
 
   2
   s  14
  9.497934400E+03  9.668999974E-05
  1.416811200E+03  6.087099984E-04
  3.214599400E+02  3.101519992E-03
  9.112416300E+01  1.266904997E-02
  2.999989100E+01  4.248012989E-02
  1.101763100E+01  1.150183297E-01
  4.372801000E+00  2.398650094E-01
  1.831256000E+00  3.584300090E-01
  8.022610000E-01  3.048527792E-01
  3.626480000E-01  8.824261976E-02
  1.139950000E-01 -8.445899977E-04
  5.123700000E-02 -7.943959979E-03
  2.246800000E-02 -3.764419990E-03
  7.860000000E-03 -8.868999976E-05
   s  14
  9.497934400E+03 -1.244999993E-05
  1.416811200E+03 -7.838999954E-05
  3.214599400E+02 -4.007099976E-04
  9.112416300E+01 -1.645249990E-03
  2.999989100E+01 -5.634599967E-03
  1.101763100E+01 -1.590780991E-02
  4.372801000E+00 -3.612581979E-02
  1.831256000E+00 -6.459927962E-02
  8.022610000E-01 -1.008321794E-01
  3.626480000E-01 -9.757613942E-02
  1.139950000E-01  2.301215886E-01
  5.123700000E-02  6.102389764E-01
  2.246800000E-02  2.849406083E-01
  7.860000000E-03  4.026899976E-03
   p   9
  1.311950400E+01  1.524940000E-03
  3.077424200E+00  8.314830000E-03
  1.098800500E+00  1.933203000E-02
  4.357784000E-01  4.934293000E-02
  1.802432000E-01  1.623554000E-01
  7.613330000E-02  3.847505400E-01
  3.254650000E-02  4.336100400E-01
  1.401820000E-02  1.287005900E-01
  4.906400000E-03 -1.018520000E-03
 
[MO]
Sym=     1a  
Ene=   -11.3230
Spin= Alpha
Occup=    1.00000
   1         1.00010028
   2         0.00081417
   3        -0.00000000
   4         0.00000000
   5         0.00054129
   6        -0.00014172
   7        -0.00123222
   8         0.00000000
   9        -0.00000000
  10         0.00147319
Sym=     1a  
Ene=   -11.2760
Spin= Beta
Occup=    1.00000
   1         1.00002958
   2        -0.00453487
   3        -0.00000000
   4        -0.00000000
   5         0.00033036
   6        -0.00008710
   7        -0.00056051
   8         0.00000000
   9         0.00000000
  10         0.00057697
Sym=     2a  
Ene=    -2.4620
Spin= Alpha
Occup=    1.00000
   1        -0.00008773
   2         0.00040294
   3         0.00000000
   4        -0.00000000
   5         0.00088596
   6         0.99988045
   7         0.01318078
   8        -0.00000000
   9         0.00000000
  10        -0.00101590
Sym=     2a  
Ene=    -2.4744
Spin= Beta
Occup=    1.00000
   1        -0.00002482
   2         0.00049360
   3         0.00000000
   4        -0.00000000
   5         0.00011929
   6         0.99991683
   7         0.01212310
   8        -0.00000000
   9         0.00000000
  10        -0.00043940
Sym=     3a  
Ene=    -0.8407
Spin= Alpha
Occup=    1.00000
   1        -0.00071845
   2         0.99276140
   3         0.00000000
   4        -0.00000000
   5         0.01122396
   6        -0.01323205
   7         0.00838724
   8        -0.00000000
   9        -0.00000000
  10        -0.01260167
Sym=     3a  
Ene=    -0.6074
Spin= Beta
Occup=    1.00000
   1         0.00050995
   2         0.95651496
   3        -0.00000000
   4        -0.00000000
   5         0.03637646
   6        -0.01383213
   7         0.06538438
   8         0.00000000
   9         0.00000000
  10        -0.05725028
Sym=     4a  
Ene=    -0.4576
Spin= Alpha
Occup=    1.00000
   1        -0.00434790
   2        -0.05363157
   3         0.00000000
   4        -0.00000000
   5         0.97844071
   6        -0.03049706
   7         0.05691984
   8        -0.00000000
   9        -0.00000000
  10        -0.06084756
Sym=     4a  
Ene=    -0.1822
Spin= Beta
Occup=    1.00000
   1        -0.01510256
   2        -0.21458432
   3         0.00000000
   4         0.00000000
   5         0.11204648
   6        -0.01238377
   7         0.96508281
   8         0.00000000
   9         0.00000000
  10         0.22048870
Sym=     5a  
Ene=    -0.4535
Spin= Alpha
Occup=    1.00000
   1         0.00000000
   2         0.00000000
   3         0.33417320
   4        -0.93784617
   5        -0.00000000
   6         0.00000000
   7        -0.00000000
   8         0.00889507
   9        -0.02496374
  10         0.00000000
Sym=     5a  
Ene=     0.0300
Spin= Beta
Occup=    0.00000
   1        -0.00000000
   2        -0.00000000
   3         0.30117532
   4         0.10731474
   5         0.00000000
   6         0.00000000
   7        -0.00000000
   8         0.84766931
   9         0.30204139
  10        -0.00000000
Sym=     6a  
Ene=     0.0344
Spin= Alpha
Occup=    0.00000
   1        -0.00000000
   2        -0.00000000
   3         0.71015472
   4         0.25304222
   5         0.00000000
   6        -0.00000000
   7         0.00000000
   8         0.51973344
   9         0.18519134
  10        -0.00000000
Sym=     6a  
Ene=     0.0384
Spin= Beta
Occup=    0.00000
   1         0.00000000
   2         0.00000000
   3        -0.06507356
   4         0.18262682
   5        -0.00000000
   6         0.00000000
   7        -0.00000000
   8        -0.31947833
   9         0.89660549
  10         0.00000000
Sym=     7a  
Ene=     0.0642
Spin= Alpha
Occup=    0.00000
   1        -0.01766749
   2        -0.19211909
   3        -0.00000000
   4        -0.00000000
   5        -0.18465615
   6        -0.00517265
   7         1.01231492
   8        -0.00000000
   9        -0.00000000
  10         0.17673065
Sym=     7a  
Ene=     0.0731
Spin= Beta
Occup=    0.00000
   1         0.04618129
   2         0.46612110
   3        -0.00000000
   4        -0.00000000
   5        -0.41852828
   6         0.00906721
   7        -0.14195042
   8         0.00000000
   9         0.00000000
  10         0.90349409
Sym=     8a  
Ene=     0.0949
Spin= Alpha
Occup=    0.00000
   1        -0.00000000
   2        -0.00000000
   3         0.06071772
   4        -0.17040230
   5         0.00000000
   6        -0.00000000
   7         0.00000000
   8        -0.33952798
   9         0.95287418
  10         0.00000000
Sym=     8a  
Ene=     0.1461
Spin= Beta
Occup=    0.00000
   1        -0.00000000
   2        -0.00000000
   3        -0.90437040
   4        -0.32224512
   5        -0.00000000
   6         0.00000000
   7         0.00000000
   8         0.43594624
   9         0.15533630
  10        -0.00000000
Sym=     9a  
Ene=     0.1217
Spin= Alpha
Occup=    0.00000
   1         0.00000000
   2         0.00000000
   3        -0.63582439
   4        -0.22655685
   5        -0.00000000
   6         0.00000000
   7         0.00000000
   8         0.79904289
   9         0.28471484
  10         0.00000000
Sym=     9a  
Ene=     0.2026
Spin= Beta
Occup=    0.00000
   1        -0.00000000
   2        -0.00000000
   3        -0.33335237
   4         0.93554253
   5        -0.00000000
   6         0.00000000
   7         0.00000000
   8         0.11529080
   9        -0.32355986
  10        -0.00000000
Sym=    10a  
Ene=     0.1455
Spin= Alpha
Occup=    0.00000
   1         0.05864167
   2         0.52465520
   3         0.00000000
   4         0.00000000
   5         0.28702104
   6        -0.00991998
   7        -0.31932613
   8        -0.00000000
   9        -0.00000000
  10         1.10100992
Sym=    10a  
Ene=     0.2311
Spin= Beta
Occup=    0.00000
   1         0.03937968
   2         0.34981165
   3        -0.00000000
   4         0.00000000
   5         0.94069578
   6        -0.02703108
   7        -0.41746735
   8         0.00000000
   9         0.00000000
  10         0.61573213
