[Molden Format]
[N_Atoms]
                     2
[Atoms] (AU)
C1          1      6           0.00000000      0.00000000      0.00000000
C2          2      6           0.00000000      0.00000000      4.15739747
[Charge] (Mulliken)
  3.422151451104583E-012
 -3.429256878462184E-012
[GTO] (AU)
   1
   s  14
  5.055750100E+04  1.128874000E-04
  7.524785600E+03  5.295373000E-04
  1.694327600E+03  2.450038300E-03
  4.728227900E+02  1.005398470E-02
  1.517107500E+02  3.545398060E-02
  5.391874600E+01  1.044071086E-01
  2.065931100E+01  2.412894918E-01
  8.383976000E+00  3.834225483E-01
  3.577015000E+00  3.078514393E-01
  1.547118000E+00  6.872442990E-02
  6.130130000E-01  2.224445000E-04
  2.460680000E-01  1.976748900E-03
  9.908700000E-02  2.057859400E-03
  3.468000000E-02  4.182020000E-04
   s  14
  5.055750100E+04 -2.507420000E-05
  7.524785600E+03 -1.175945000E-04
  1.694327600E+03 -5.456275000E-04
  4.728227900E+02 -2.245077100E-03
  1.517107500E+02 -8.043471800E-03
  5.391874600E+01 -2.442588710E-02
  2.065931100E+01 -6.136791180E-02
  8.383976000E+00 -1.177767835E-01
  3.577015000E+00 -1.550487783E-01
  1.547118000E+00 -1.933316860E-02
  6.130130000E-01  3.996930678E-01
  2.460680000E-01  5.589420949E-01
  9.908700000E-02  1.711195023E-01
  3.468000000E-02  7.456244600E-03
   p   9
  8.333315500E+01  1.344656000E-03
  1.955761100E+01  1.023555500E-02
  6.080365000E+00  4.520067100E-02
  2.179317000E+00  1.410756198E-01
  8.651500000E-01  3.047388085E-01
  3.619440000E-01  3.995281011E-01
  1.547400000E-01  2.719163432E-01
  6.542900000E-02  5.857669330E-02
  2.290000000E-02 -1.263813000E-04
 
   2
   s  14
  5.055750100E+04  1.128874000E-04
  7.524785600E+03  5.295373000E-04
  1.694327600E+03  2.450038300E-03
  4.728227900E+02  1.005398470E-02
  1.517107500E+02  3.545398060E-02
  5.391874600E+01  1.044071086E-01
  2.065931100E+01  2.412894918E-01
  8.383976000E+00  3.834225483E-01
  3.577015000E+00  3.078514393E-01
  1.547118000E+00  6.872442990E-02
  6.130130000E-01  2.224445000E-04
  2.460680000E-01  1.976748900E-03
  9.908700000E-02  2.057859400E-03
  3.468000000E-02  4.182020000E-04
   s  14
  5.055750100E+04 -2.507420000E-05
  7.524785600E+03 -1.175945000E-04
  1.694327600E+03 -5.456275000E-04
  4.728227900E+02 -2.245077100E-03
  1.517107500E+02 -8.043471800E-03
  5.391874600E+01 -2.442588710E-02
  2.065931100E+01 -6.136791180E-02
  8.383976000E+00 -1.177767835E-01
  3.577015000E+00 -1.550487783E-01
  1.547118000E+00 -1.933316860E-02
  6.130130000E-01  3.996930678E-01
  2.460680000E-01  5.589420949E-01
  9.908700000E-02  1.711195023E-01
  3.468000000E-02  7.456244600E-03
   p   9
  8.333315500E+01  1.344656000E-03
  1.955761100E+01  1.023555500E-02
  6.080365000E+00  4.520067100E-02
  2.179317000E+00  1.410756198E-01
  8.651500000E-01  3.047388085E-01
  3.619440000E-01  3.995281011E-01
  1.547400000E-01  2.719163432E-01
  6.542900000E-02  5.857669330E-02
  2.290000000E-02 -1.263813000E-04
 
[MO]
Sym=     1a  
Ene=   -11.2950
Spin= Alpha
Occup=    1.00000
   1         0.70705506
   2        -0.00219972
   3         0.00000000
   4        -0.00000000
   5         0.00055523
   6         0.70705511
   7        -0.00219972
   8        -0.00000000
   9        -0.00000000
  10        -0.00055523
Sym=     1a  
Ene=   -11.2950
Spin= Beta
Occup=    1.00000
   1         0.70705506
   2        -0.00219972
   3         0.00000000
   4        -0.00000000
   5         0.00055523
   6         0.70705511
   7        -0.00219972
   8        -0.00000000
   9        -0.00000000
  10        -0.00055523
Sym=     2a  
Ene=   -11.2950
Spin= Alpha
Occup=    1.00000
   1        -0.70716604
   2         0.00144614
   3         0.00000000
   4         0.00000000
   5        -0.00094709
   6         0.70716598
   7        -0.00144614
   8        -0.00000000
   9        -0.00000000
  10        -0.00094709
Sym=     2a  
Ene=   -11.2950
Spin= Beta
Occup=    1.00000
   1        -0.70716604
   2         0.00144614
   3         0.00000000
   4         0.00000000
   5        -0.00094709
   6         0.70716598
   7        -0.00144614
   8        -0.00000000
   9        -0.00000000
  10        -0.00094709
Sym=     3a  
Ene=    -0.7740
Spin= Alpha
Occup=    1.00000
   1        -0.00472337
   2         0.64199824
   3        -0.00000000
   4         0.00000000
   5         0.08862670
   6        -0.00472337
   7         0.64199824
   8         0.00000000
   9        -0.00000000
  10        -0.08862670
Sym=     3a  
Ene=    -0.7740
Spin= Beta
Occup=    1.00000
   1        -0.00472337
   2         0.64199824
   3        -0.00000000
   4         0.00000000
   5         0.08862670
   6        -0.00472337
   7         0.64199824
   8         0.00000000
   9        -0.00000000
  10        -0.08862670
Sym=     4a  
Ene=    -0.6424
Spin= Alpha
Occup=    1.00000
   1        -0.00553898
   2        -0.72963041
   3        -0.00000000
   4         0.00000000
   5         0.10595972
   6         0.00553898
   7         0.72963041
   8        -0.00000000
   9         0.00000000
  10         0.10595972
Sym=     4a  
Ene=    -0.6424
Spin= Beta
Occup=    1.00000
   1        -0.00553898
   2        -0.72963041
   3        -0.00000000
   4         0.00000000
   5         0.10595972
   6         0.00553898
   7         0.72963041
   8        -0.00000000
   9         0.00000000
  10         0.10595972
Sym=     5a  
Ene=    -0.3122
Spin= Alpha
Occup=    1.00000
   1         0.01143576
   2         0.20335486
   3         0.00000000
   4        -0.00000000
   5        -0.64552006
   6         0.01143576
   7         0.20335486
   8        -0.00000000
   9         0.00000000
  10         0.64552006
Sym=     5a  
Ene=    -0.3122
Spin= Beta
Occup=    1.00000
   1         0.01143576
   2         0.20335486
   3         0.00000000
   4        -0.00000000
   5        -0.64552006
   6         0.01143576
   7         0.20335486
   8        -0.00000000
   9         0.00000000
  10         0.64552006
Sym=     6a  
Ene=    -0.2565
Spin= Alpha
Occup=    1.00000
   1         0.00000000
   2         0.00000000
   3        -0.50008921
   4         0.45741962
   5         0.00000000
   6        -0.00000000
   7        -0.00000000
   8        -0.50008921
   9         0.45741962
  10         0.00000000
Sym=     6a  
Ene=    -0.2565
Spin= Beta
Occup=    1.00000
   1         0.00000000
   2         0.00000000
   3        -0.50008921
   4         0.45741962
   5         0.00000000
   6        -0.00000000
   7        -0.00000000
   8        -0.50008921
   9         0.45741962
  10         0.00000000
Sym=     7a  
Ene=     0.0421
Spin= Alpha
Occup=    0.00000
   1         0.00000000
   2         0.00000000
   3        -0.54652512
   4         0.49989343
   5        -0.00000000
   6         0.00000000
   7         0.00000000
   8         0.54652512
   9        -0.49989343
  10         0.00000000
Sym=     7a  
Ene=     0.0421
Spin= Beta
Occup=    0.00000
   1         0.00000000
   2         0.00000000
   3        -0.54652512
   4         0.49989343
   5        -0.00000000
   6         0.00000000
   7         0.00000000
   8         0.54652512
   9        -0.49989343
  10         0.00000000
Sym=     8a  
Ene=     0.0749
Spin= Alpha
Occup=    0.00000
   1        -0.00000000
   2        -0.00000000
   3         0.45741962
   4         0.50008921
   5         0.00000000
   6         0.00000000
   7        -0.00000000
   8         0.45741962
   9         0.50008921
  10        -0.00000000
Sym=     8a  
Ene=     0.0749
Spin= Beta
Occup=    0.00000
   1        -0.00000000
   2        -0.00000000
   3         0.45741962
   4         0.50008921
   5         0.00000000
   6         0.00000000
   7        -0.00000000
   8         0.45741962
   9         0.50008921
  10        -0.00000000
Sym=     9a  
Ene=     0.1565
Spin= Alpha
Occup=    0.00000
   1         0.00000000
   2         0.00000000
   3        -0.49989343
   4        -0.54652512
   5         0.00000000
   6        -0.00000000
   7        -0.00000000
   8         0.49989343
   9         0.54652512
  10         0.00000000
Sym=     9a  
Ene=     0.1565
Spin= Beta
Occup=    0.00000
   1         0.00000000
   2         0.00000000
   3        -0.49989343
   4        -0.54652512
   5         0.00000000
   6        -0.00000000
   7        -0.00000000
   8         0.49989343
   9         0.54652512
  10         0.00000000
Sym=    10a  
Ene=     0.1759
Spin= Alpha
Occup=    0.00000
   1         0.01707373
   2         0.28568452
   3         0.00000000
   4         0.00000000
   5         0.81464562
   6        -0.01707373
   7        -0.28568452
   8        -0.00000000
   9        -0.00000000
  10         0.81464562
Sym=    10a  
Ene=     0.1759
Spin= Beta
Occup=    0.00000
   1         0.01707373
   2         0.28568452
   3         0.00000000
   4         0.00000000
   5         0.81464562
   6        -0.01707373
   7        -0.28568452
   8        -0.00000000
   9        -0.00000000
  10         0.81464562
