[Molden Format]
[N_Atoms]
                     2
[Atoms] (AU)
C1          1      6           0.00000000      0.00000000      0.00000000
C2          2      6           0.00000000      0.00000000      4.15739747
[Charge] (Mulliken)
 -3.363531675404374E-012
  3.344879928590672E-012
[GTO] (AU)
   1
   s  14
  5.055750100E+04  1.128874000E-04
  7.524785600E+03  5.295373000E-04
  1.694327600E+03  2.450038300E-03
  4.728227900E+02  1.005398470E-02
  1.517107500E+02  3.545398060E-02
  5.391874600E+01  1.044071086E-01
  2.065931100E+01  2.412894918E-01
  8.383976000E+00  3.834225483E-01
  3.577015000E+00  3.078514393E-01
  1.547118000E+00  6.872442990E-02
  6.130130000E-01  2.224445000E-04
  2.460680000E-01  1.976748900E-03
  9.908700000E-02  2.057859400E-03
  3.468000000E-02  4.182020000E-04
   s  14
  5.055750100E+04 -2.507420000E-05
  7.524785600E+03 -1.175945000E-04
  1.694327600E+03 -5.456275000E-04
  4.728227900E+02 -2.245077100E-03
  1.517107500E+02 -8.043471800E-03
  5.391874600E+01 -2.442588710E-02
  2.065931100E+01 -6.136791180E-02
  8.383976000E+00 -1.177767835E-01
  3.577015000E+00 -1.550487783E-01
  1.547118000E+00 -1.933316860E-02
  6.130130000E-01  3.996930678E-01
  2.460680000E-01  5.589420949E-01
  9.908700000E-02  1.711195023E-01
  3.468000000E-02  7.456244600E-03
   p   9
  8.333315500E+01  1.344656000E-03
  1.955761100E+01  1.023555500E-02
  6.080365000E+00  4.520067100E-02
  2.179317000E+00  1.410756198E-01
  8.651500000E-01  3.047388085E-01
  3.619440000E-01  3.995281011E-01
  1.547400000E-01  2.719163432E-01
  6.542900000E-02  5.857669330E-02
  2.290000000E-02 -1.263813000E-04
 
   2
   s  14
  5.055750100E+04  1.128874000E-04
  7.524785600E+03  5.295373000E-04
  1.694327600E+03  2.450038300E-03
  4.728227900E+02  1.005398470E-02
  1.517107500E+02  3.545398060E-02
  5.391874600E+01  1.044071086E-01
  2.065931100E+01  2.412894918E-01
  8.383976000E+00  3.834225483E-01
  3.577015000E+00  3.078514393E-01
  1.547118000E+00  6.872442990E-02
  6.130130000E-01  2.224445000E-04
  2.460680000E-01  1.976748900E-03
  9.908700000E-02  2.057859400E-03
  3.468000000E-02  4.182020000E-04
   s  14
  5.055750100E+04 -2.507420000E-05
  7.524785600E+03 -1.175945000E-04
  1.694327600E+03 -5.456275000E-04
  4.728227900E+02 -2.245077100E-03
  1.517107500E+02 -8.043471800E-03
  5.391874600E+01 -2.442588710E-02
  2.065931100E+01 -6.136791180E-02
  8.383976000E+00 -1.177767835E-01
  3.577015000E+00 -1.550487783E-01
  1.547118000E+00 -1.933316860E-02
  6.130130000E-01  3.996930678E-01
  2.460680000E-01  5.589420949E-01
  9.908700000E-02  1.711195023E-01
  3.468000000E-02  7.456244600E-03
   p   9
  8.333315500E+01  1.344656000E-03
  1.955761100E+01  1.023555500E-02
  6.080365000E+00  4.520067100E-02
  2.179317000E+00  1.410756198E-01
  8.651500000E-01  3.047388085E-01
  3.619440000E-01  3.995281011E-01
  1.547400000E-01  2.719163432E-01
  6.542900000E-02  5.857669330E-02
  2.290000000E-02 -1.263813000E-04
 
[MO]
Sym=     1a  
Ene=   -11.3010
Spin= Alpha
Occup=    2.00000
   1         0.70706624
   2        -0.00209220
   3         0.00000000
   4         0.00000000
   5        -0.00006928
   6         0.70706624
   7        -0.00209220
   8        -0.00000000
   9        -0.00000000
  10         0.00006928
Sym=     2a  
Ene=   -11.3010
Spin= Alpha
Occup=    2.00000
   1        -0.70707683
   2         0.00780684
   3         0.00000000
   4         0.00000000
   5        -0.00094239
   6         0.70707682
   7        -0.00780684
   8        -0.00000000
   9        -0.00000000
  10        -0.00094239
Sym=     3a  
Ene=    -0.7729
Spin= Alpha
Occup=    2.00000
   1        -0.00402906
   2         0.65222746
   3         0.00000000
   4         0.00000000
   5         0.05292458
   6        -0.00402906
   7         0.65222746
   8        -0.00000000
   9        -0.00000000
  10        -0.05292458
Sym=     4a  
Ene=    -0.2621
Spin= Alpha
Occup=    2.00000
   1        -0.00000000
   2         0.00000000
   3         0.66195440
   4        -0.14539019
   5        -0.00000000
   6        -0.00000000
   7        -0.00000000
   8         0.66195440
   9        -0.14539019
  10        -0.00000000
Sym=     5a  
Ene=    -0.2621
Spin= Alpha
Occup=    2.00000
   1         0.00000000
   2        -0.00000000
   3         0.14539019
   4         0.66195440
   5         0.00000000
   6         0.00000000
   7         0.00000000
   8         0.14539019
   9         0.66195440
  10         0.00000000
Sym=     6a  
Ene=    -0.6354
Spin= Alpha
Occup=    1.97638
   1        -0.01233934
   2        -0.74380009
   3        -0.00000000
   4        -0.00000000
   5         0.06231938
   6         0.01233934
   7         0.74380010
   8         0.00000000
   9        -0.00000000
  10         0.06231938
Sym=     7a  
Ene=     0.0000
Spin= Alpha
Occup=    0.02362
   1         0.01100334
   2         0.16767453
   3        -0.00000000
   4        -0.00000000
   5        -0.64942292
   6         0.01100334
   7         0.16767453
   8         0.00000000
   9        -0.00000000
  10         0.64942293
Sym=     8a  
Ene=     0.0346
Spin= Alpha
Occup=    0.00000
   1        -0.00000000
   2         0.00000000
   3        -0.61831805
   4         0.40775719
   5        -0.00000000
   6         0.00000000
   7        -0.00000000
   8         0.61831805
   9        -0.40775719
  10        -0.00000000
Sym=     9a  
Ene=     0.0346
Spin= Alpha
Occup=    0.00000
   1         0.00000000
   2        -0.00000000
   3         0.40775719
   4         0.61831805
   5        -0.00000000
   6        -0.00000000
   7        -0.00000000
   8        -0.40775719
   9        -0.61831805
  10        -0.00000000
Sym=    10a  
Ene=     0.2661
Spin= Alpha
Occup=    0.00000
   1        -0.01720647
   2        -0.24633056
   3        -0.00000000
   4         0.00000000
   5        -0.81914056
   6         0.01720647
   7         0.24633056
   8        -0.00000000
   9         0.00000000
  10        -0.81914056
