[Molden Format]
[N_Atoms]
                     2
[Atoms] (AU)
C1          1      6           0.00000000      0.00000000      0.00000000
C2          2      6           0.00000000      0.00000000      4.15739747
[Charge] (Mulliken)
   1.00548437170882     
  0.994515628291173     
[GTO] (AU)
   1
   s  14
  5.055750100E+04  1.128874000E-04
  7.524785600E+03  5.295373000E-04
  1.694327600E+03  2.450038300E-03
  4.728227900E+02  1.005398470E-02
  1.517107500E+02  3.545398060E-02
  5.391874600E+01  1.044071086E-01
  2.065931100E+01  2.412894918E-01
  8.383976000E+00  3.834225483E-01
  3.577015000E+00  3.078514393E-01
  1.547118000E+00  6.872442990E-02
  6.130130000E-01  2.224445000E-04
  2.460680000E-01  1.976748900E-03
  9.908700000E-02  2.057859400E-03
  3.468000000E-02  4.182020000E-04
   s  14
  5.055750100E+04 -2.507420000E-05
  7.524785600E+03 -1.175945000E-04
  1.694327600E+03 -5.456275000E-04
  4.728227900E+02 -2.245077100E-03
  1.517107500E+02 -8.043471800E-03
  5.391874600E+01 -2.442588710E-02
  2.065931100E+01 -6.136791180E-02
  8.383976000E+00 -1.177767835E-01
  3.577015000E+00 -1.550487783E-01
  1.547118000E+00 -1.933316860E-02
  6.130130000E-01  3.996930678E-01
  2.460680000E-01  5.589420949E-01
  9.908700000E-02  1.711195023E-01
  3.468000000E-02  7.456244600E-03
   p   9
  8.333315500E+01  1.344656000E-03
  1.955761100E+01  1.023555500E-02
  6.080365000E+00  4.520067100E-02
  2.179317000E+00  1.410756198E-01
  8.651500000E-01  3.047388085E-01
  3.619440000E-01  3.995281011E-01
  1.547400000E-01  2.719163432E-01
  6.542900000E-02  5.857669330E-02
  2.290000000E-02 -1.263813000E-04
 
   2
   s  14
  5.055750100E+04  1.128874000E-04
  7.524785600E+03  5.295373000E-04
  1.694327600E+03  2.450038300E-03
  4.728227900E+02  1.005398470E-02
  1.517107500E+02  3.545398060E-02
  5.391874600E+01  1.044071086E-01
  2.065931100E+01  2.412894918E-01
  8.383976000E+00  3.834225483E-01
  3.577015000E+00  3.078514393E-01
  1.547118000E+00  6.872442990E-02
  6.130130000E-01  2.224445000E-04
  2.460680000E-01  1.976748900E-03
  9.908700000E-02  2.057859400E-03
  3.468000000E-02  4.182020000E-04
   s  14
  5.055750100E+04 -2.507420000E-05
  7.524785600E+03 -1.175945000E-04
  1.694327600E+03 -5.456275000E-04
  4.728227900E+02 -2.245077100E-03
  1.517107500E+02 -8.043471800E-03
  5.391874600E+01 -2.442588710E-02
  2.065931100E+01 -6.136791180E-02
  8.383976000E+00 -1.177767835E-01
  3.577015000E+00 -1.550487783E-01
  1.547118000E+00 -1.933316860E-02
  6.130130000E-01  3.996930678E-01
  2.460680000E-01  5.589420949E-01
  9.908700000E-02  1.711195023E-01
  3.468000000E-02  7.456244600E-03
   p   9
  8.333315500E+01  1.344656000E-03
  1.955761100E+01  1.023555500E-02
  6.080365000E+00  4.520067100E-02
  2.179317000E+00  1.410756198E-01
  8.651500000E-01  3.047388085E-01
  3.619440000E-01  3.995281011E-01
  1.547400000E-01  2.719163432E-01
  6.542900000E-02  5.857669330E-02
  2.290000000E-02 -1.263813000E-04
 
[MO]
Sym=     1a  
Ene=   -12.2870
Spin= Alpha
Occup=    2.00000
   1         0.99980983
   2        -0.01662777
   3        -0.00000000
   4         0.00000000
   5        -0.00089682
   6         0.00985319
   7         0.00166122
   8        -0.00000000
   9         0.00000000
  10         0.00051984
Sym=     2a  
Ene=   -12.2830
Spin= Alpha
Occup=    2.00000
   1        -0.00982507
   2        -0.00006617
   3        -0.00000000
   4         0.00000000
   5        -0.00006394
   6         0.99994395
   7        -0.00459573
   8        -0.00000000
   9         0.00000000
  10         0.00011159
Sym=     3a  
Ene=    -1.4423
Spin= Alpha
Occup=    2.00000
   1        -0.00849844
   2        -0.00566338
   3        -0.00000000
   4         0.00000000
   5         0.05417863
   6         0.00364165
   7         0.98451601
   8        -0.00000000
   9         0.00000000
  10        -0.08023306
Sym=     4a  
Ene=    -0.9848
Spin= Alpha
Occup=    2.00000
   1        -0.00000000
   2         0.00000000
   3        -0.25618488
   4         0.62335452
   5         0.00000000
   6        -0.00000000
   7        -0.00000000
   8        -0.25905815
   9         0.63034581
  10        -0.00000000
Sym=     5a  
Ene=    -0.6361
Spin= Alpha
Occup=    0.04846
   1        -0.00000000
   2         0.00000000
   3         0.92657222
   4         0.38080063
   5        -0.00000000
   6        -0.00000000
   7         0.00000000
   8        -0.02122547
   9        -0.00872320
  10         0.00000000
Sym=     6a  
Ene=    -0.0011
Spin= Alpha
Occup=    1.95154
   1        -0.01724929
   2        -1.00033770
   3        -0.00000000
   4         0.00000000
   5        -0.06834871
   6         0.00919693
   7         0.16580083
   8        -0.00000000
   9         0.00000000
  10         0.03528876
Sym=     7a  
Ene=    -0.7078
Spin= Alpha
Occup=    0.00000
   1         0.01079568
   2         0.19402469
   3        -0.00000000
   4         0.00000000
   5        -0.64976259
   6         0.01103758
   7         0.20501020
   8        -0.00000000
   9         0.00000000
  10         0.64227502
Sym=     8a  
Ene=    -0.7067
Spin= Alpha
Occup=    0.00000
   1        -0.00000000
   2        -0.00000000
   3         0.28285759
   4        -0.68825512
   5        -0.00000000
   6         0.00000000
   7         0.00000000
   8        -0.28022845
   9         0.68185785
  10        -0.00000000
Sym=     9a  
Ene=    -0.6206
Spin= Alpha
Occup=    0.00000
   1         0.00000000
   2         0.00000000
   3        -0.06107278
   4        -0.02509956
   5        -0.00000000
   6         0.00000000
   7         0.00000000
   8         0.92834015
   9         0.38152721
  10         0.00000000
Sym=    10a  
Ene=    -0.5129
Spin= Alpha
Occup=    0.00000
   1        -0.01683469
   2        -0.16990702
   3        -0.00000000
   4         0.00000000
   5        -0.81830794
   6         0.01677126
   7         0.16936144
   8         0.00000000
   9        -0.00000000
  10        -0.82415222
