[Molden Format]
[N_Atoms]
                     2
[Atoms] (AU)
F1          1      9           0.00000000      0.00000000      0.00000000
F2          2      9           0.00000000      0.00000000      4.53534270
[Charge] (Mulliken)
  9.645617637943360E-013
 -9.769962616701378E-013
[GTO] (AU)
   1
   s  14
  1.031094600E+05  1.713099991E-04
  1.528100700E+04  7.123999962E-04
  3.441539200E+03  2.990479984E-03
  9.670948300E+02  1.164036994E-02
  3.140353400E+02  3.968642979E-02
  1.134423000E+02  1.128546094E-01
  4.464472700E+01  2.473650687E-01
  1.894287400E+01  3.672702681E-01
  8.532743000E+00  2.896286985E-01
  3.919401000E+00  7.786681959E-02
  1.568157000E+00  4.562139976E-03
  6.232900000E-01  2.468879987E-03
  2.408610000E-01  1.106309994E-03
  8.430100000E-02  1.739699991E-04
   s  14
  1.031094600E+05 -4.044999995E-05
  1.528100700E+04 -1.682299998E-04
  3.441539200E+03 -7.084299991E-04
  9.670948300E+02 -2.767999996E-03
  3.140353400E+02 -9.611379987E-03
  1.134423000E+02 -2.833957996E-02
  4.464472700E+01 -6.839343991E-02
  1.894287400E+01 -1.237379298E-01
  8.532743000E+00 -1.512859698E-01
  3.919401000E+00 -9.099909988E-03
  1.568157000E+00  3.716257695E-01
  6.232900000E-01  5.500214393E-01
  2.408610000E-01  2.092318697E-01
  8.430100000E-02  8.074639989E-03
   p   9
  2.453302900E+02  1.024860004E-03
  5.691900500E+01  8.344290032E-03
  1.760456800E+01  4.078927016E-02
  6.274995000E+00  1.351370605E-01
  2.447030000E+00  2.798830811E-01
  9.950600000E-01  3.597966414E-01
  4.039730000E-01  3.055347412E-01
  1.548100000E-01  1.354703905E-01
  5.418400000E-02  2.804449011E-02
 
   2
   s  14
  1.031094600E+05  1.713099991E-04
  1.528100700E+04  7.123999962E-04
  3.441539200E+03  2.990479984E-03
  9.670948300E+02  1.164036994E-02
  3.140353400E+02  3.968642979E-02
  1.134423000E+02  1.128546094E-01
  4.464472700E+01  2.473650687E-01
  1.894287400E+01  3.672702681E-01
  8.532743000E+00  2.896286985E-01
  3.919401000E+00  7.786681959E-02
  1.568157000E+00  4.562139976E-03
  6.232900000E-01  2.468879987E-03
  2.408610000E-01  1.106309994E-03
  8.430100000E-02  1.739699991E-04
   s  14
  1.031094600E+05 -4.044999995E-05
  1.528100700E+04 -1.682299998E-04
  3.441539200E+03 -7.084299991E-04
  9.670948300E+02 -2.767999996E-03
  3.140353400E+02 -9.611379987E-03
  1.134423000E+02 -2.833957996E-02
  4.464472700E+01 -6.839343991E-02
  1.894287400E+01 -1.237379298E-01
  8.532743000E+00 -1.512859698E-01
  3.919401000E+00 -9.099909988E-03
  1.568157000E+00  3.716257695E-01
  6.232900000E-01  5.500214393E-01
  2.408610000E-01  2.092318697E-01
  8.430100000E-02  8.074639989E-03
   p   9
  2.453302900E+02  1.024860004E-03
  5.691900500E+01  8.344290032E-03
  1.760456800E+01  4.078927016E-02
  6.274995000E+00  1.351370605E-01
  2.447030000E+00  2.798830811E-01
  9.950600000E-01  3.597966414E-01
  4.039730000E-01  3.055347412E-01
  1.548100000E-01  1.354703905E-01
  5.418400000E-02  2.804449011E-02
 
[MO]
Sym=     1a  
Ene=   -26.4860
Spin= Alpha
Occup=    1.00000
   1         0.70710074
   2        -0.00244370
   3        -0.00000000
   4        -0.00000000
   5         0.00009187
   6         0.70710074
   7        -0.00244370
   8         0.00000000
   9        -0.00000000
  10        -0.00009187
Sym=     1a  
Ene=   -26.4860
Spin= Beta
Occup=    1.00000
   1         0.70710074
   2        -0.00244370
   3        -0.00000000
   4        -0.00000000
   5         0.00009187
   6         0.70710074
   7        -0.00244370
   8         0.00000000
   9        -0.00000000
  10        -0.00009187
Sym=     2a  
Ene=   -26.4860
Spin= Alpha
Occup=    1.00000
   1        -0.70710446
   2         0.00241224
   3        -0.00000000
   4        -0.00000000
   5        -0.00008557
   6         0.70710447
   7        -0.00241224
   8        -0.00000000
   9        -0.00000000
  10        -0.00008557
Sym=     2a  
Ene=   -26.4860
Spin= Beta
Occup=    1.00000
   1        -0.70710446
   2         0.00241224
   3        -0.00000000
   4        -0.00000000
   5        -0.00008557
   6         0.70710447
   7        -0.00241224
   8        -0.00000000
   9        -0.00000000
  10        -0.00008557
Sym=     3a  
Ene=    -1.6317
Spin= Alpha
Occup=    1.00000
   1         0.00213203
   2         0.70206644
   3        -0.00000000
   4         0.00000000
   5         0.01054323
   6         0.00213203
   7         0.70206644
   8         0.00000000
   9        -0.00000000
  10        -0.01054323
Sym=     3a  
Ene=    -1.6317
Spin= Beta
Occup=    1.00000
   1         0.00213203
   2         0.70206644
   3        -0.00000000
   4         0.00000000
   5         0.01054323
   6         0.00213203
   7         0.70206644
   8         0.00000000
   9        -0.00000000
  10        -0.01054323
Sym=     4a  
Ene=    -1.6122
Spin= Alpha
Occup=    1.00000
   1        -0.00264855
   2        -0.71096513
   3         0.00000000
   4         0.00000000
   5         0.01289930
   6         0.00264855
   7         0.71096513
   8         0.00000000
   9        -0.00000000
  10         0.01289930
Sym=     4a  
Ene=    -1.6122
Spin= Beta
Occup=    1.00000
   1        -0.00264855
   2        -0.71096513
   3         0.00000000
   4         0.00000000
   5         0.01289930
   6         0.00264855
   7         0.71096513
   8         0.00000000
   9        -0.00000000
  10         0.01289930
Sym=     5a  
Ene=    -0.7530
Spin= Alpha
Occup=    1.00000
   1         0.00000000
   2         0.00000000
   3         0.65292408
   4        -0.25155718
   5        -0.00000000
   6         0.00000000
   7         0.00000000
   8         0.65292408
   9        -0.25155718
  10         0.00000000
Sym=     5a  
Ene=    -0.7530
Spin= Beta
Occup=    1.00000
   1         0.00000000
   2         0.00000000
   3         0.65292408
   4        -0.25155718
   5        -0.00000000
   6         0.00000000
   7         0.00000000
   8         0.65292408
   9        -0.25155718
  10         0.00000000
Sym=     6a  
Ene=    -0.7530
Spin= Alpha
Occup=    1.00000
   1         0.00000000
   2         0.00000000
   3         0.25155718
   4         0.65292408
   5         0.00000000
   6        -0.00000000
   7        -0.00000000
   8         0.25155718
   9         0.65292408
  10         0.00000000
Sym=     6a  
Ene=    -0.7530
Spin= Beta
Occup=    1.00000
   1         0.00000000
   2         0.00000000
   3         0.25155718
   4         0.65292408
   5         0.00000000
   6        -0.00000000
   7        -0.00000000
   8         0.25155718
   9         0.65292408
  10         0.00000000
Sym=     7a  
Ene=    -0.7426
Spin= Alpha
Occup=    1.00000
   1        -0.00000000
   2        -0.00000000
   3        -0.61375363
   4         0.36628929
   5         0.00000000
   6        -0.00000000
   7        -0.00000000
   8         0.61375363
   9        -0.36628929
  10        -0.00000000
Sym=     7a  
Ene=    -0.7426
Spin= Beta
Occup=    1.00000
   1        -0.00000000
   2        -0.00000000
   3        -0.61375363
   4         0.36628929
   5         0.00000000
   6        -0.00000000
   7        -0.00000000
   8         0.61375363
   9        -0.36628929
  10        -0.00000000
Sym=     8a  
Ene=    -0.7426
Spin= Alpha
Occup=    1.00000
   1        -0.00000000
   2        -0.00000000
   3        -0.36628929
   4        -0.61375363
   5        -0.00000000
   6         0.00000000
   7         0.00000000
   8         0.36628929
   9         0.61375363
  10        -0.00000000
Sym=     8a  
Ene=    -0.7426
Spin= Beta
Occup=    1.00000
   1        -0.00000000
   2        -0.00000000
   3        -0.36628929
   4        -0.61375363
   5        -0.00000000
   6         0.00000000
   7         0.00000000
   8         0.36628929
   9         0.61375363
  10        -0.00000000
Sym=     9a  
Ene=    -0.5499
Spin= Alpha
Occup=    1.00000
   1         0.00240100
   2         0.04156226
   3        -0.00000000
   4         0.00000000
   5        -0.68523763
   6         0.00240100
   7         0.04156226
   8         0.00000000
   9         0.00000000
  10         0.68523763
Sym=     9a  
Ene=    -0.5499
Spin= Beta
Occup=    1.00000
   1         0.00240100
   2         0.04156226
   3        -0.00000000
   4         0.00000000
   5        -0.68523763
   6         0.00240100
   7         0.04156226
   8         0.00000000
   9         0.00000000
  10         0.68523763
Sym=    10a  
Ene=    -0.2502
Spin= Alpha
Occup=    0.00000
   1         0.00242204
   2         0.04626283
   3         0.00000000
   4        -0.00000000
   5         0.73263020
   6        -0.00242204
   7        -0.04626283
   8         0.00000000
   9         0.00000000
  10         0.73263020
Sym=    10a  
Ene=    -0.2502
Spin= Beta
Occup=    0.00000
   1         0.00242204
   2         0.04626283
   3         0.00000000
   4        -0.00000000
   5         0.73263020
   6        -0.00242204
   7        -0.04626283
   8         0.00000000
   9         0.00000000
  10         0.73263020
