[Molden Format]
[N_Atoms]
                     2
[Atoms] (AU)
F1          1      9           0.00000000      0.00000000      0.00000000
F2          2      9           0.00000000      0.00000000      4.53534270
[Charge] (Mulliken)
   1.00091458764022     
  0.999085412359744     
[GTO] (AU)
   1
   s  14
  1.031094600E+05  1.713099991E-04
  1.528100700E+04  7.123999962E-04
  3.441539200E+03  2.990479984E-03
  9.670948300E+02  1.164036994E-02
  3.140353400E+02  3.968642979E-02
  1.134423000E+02  1.128546094E-01
  4.464472700E+01  2.473650687E-01
  1.894287400E+01  3.672702681E-01
  8.532743000E+00  2.896286985E-01
  3.919401000E+00  7.786681959E-02
  1.568157000E+00  4.562139976E-03
  6.232900000E-01  2.468879987E-03
  2.408610000E-01  1.106309994E-03
  8.430100000E-02  1.739699991E-04
   s  14
  1.031094600E+05 -4.044999995E-05
  1.528100700E+04 -1.682299998E-04
  3.441539200E+03 -7.084299991E-04
  9.670948300E+02 -2.767999996E-03
  3.140353400E+02 -9.611379987E-03
  1.134423000E+02 -2.833957996E-02
  4.464472700E+01 -6.839343991E-02
  1.894287400E+01 -1.237379298E-01
  8.532743000E+00 -1.512859698E-01
  3.919401000E+00 -9.099909988E-03
  1.568157000E+00  3.716257695E-01
  6.232900000E-01  5.500214393E-01
  2.408610000E-01  2.092318697E-01
  8.430100000E-02  8.074639989E-03
   p   9
  2.453302900E+02  1.024860004E-03
  5.691900500E+01  8.344290032E-03
  1.760456800E+01  4.078927016E-02
  6.274995000E+00  1.351370605E-01
  2.447030000E+00  2.798830811E-01
  9.950600000E-01  3.597966414E-01
  4.039730000E-01  3.055347412E-01
  1.548100000E-01  1.354703905E-01
  5.418400000E-02  2.804449011E-02
 
   2
   s  14
  1.031094600E+05  1.713099991E-04
  1.528100700E+04  7.123999962E-04
  3.441539200E+03  2.990479984E-03
  9.670948300E+02  1.164036994E-02
  3.140353400E+02  3.968642979E-02
  1.134423000E+02  1.128546094E-01
  4.464472700E+01  2.473650687E-01
  1.894287400E+01  3.672702681E-01
  8.532743000E+00  2.896286985E-01
  3.919401000E+00  7.786681959E-02
  1.568157000E+00  4.562139976E-03
  6.232900000E-01  2.468879987E-03
  2.408610000E-01  1.106309994E-03
  8.430100000E-02  1.739699991E-04
   s  14
  1.031094600E+05 -4.044999995E-05
  1.528100700E+04 -1.682299998E-04
  3.441539200E+03 -7.084299991E-04
  9.670948300E+02 -2.767999996E-03
  3.140353400E+02 -9.611379987E-03
  1.134423000E+02 -2.833957996E-02
  4.464472700E+01 -6.839343991E-02
  1.894287400E+01 -1.237379298E-01
  8.532743000E+00 -1.512859698E-01
  3.919401000E+00 -9.099909988E-03
  1.568157000E+00  3.716257695E-01
  6.232900000E-01  5.500214393E-01
  2.408610000E-01  2.092318697E-01
  8.430100000E-02  8.074639989E-03
   p   9
  2.453302900E+02  1.024860004E-03
  5.691900500E+01  8.344290032E-03
  1.760456800E+01  4.078927016E-02
  6.274995000E+00  1.351370605E-01
  2.447030000E+00  2.798830811E-01
  9.950600000E-01  3.597966414E-01
  4.039730000E-01  3.055347412E-01
  1.548100000E-01  1.354703905E-01
  5.418400000E-02  2.804449011E-02
 
[MO]
Sym=     1a  
Ene=   -27.9020
Spin= Alpha
Occup=    2.00000
   1        -0.99998812
   2         0.00487320
   3        -0.00000000
   4         0.00000000
   5        -0.00011760
   6         0.00000090
   7         0.00001898
   8         0.00000000
   9        -0.00000000
  10         0.00000025
Sym=     2a  
Ene=   -27.8850
Spin= Alpha
Occup=    2.00000
   1        -0.00000284
   2        -0.00001594
   3         0.00000000
   4         0.00000000
   5        -0.00000362
   6         0.99998814
   7        -0.00487353
   8         0.00000000
   9        -0.00000000
  10         0.00002818
Sym=     3a  
Ene=    -2.6224
Spin= Alpha
Occup=    2.00000
   1         0.00470559
   2         0.97918052
   3        -0.00000000
   4         0.00000000
   5         0.03816144
   6         0.00046441
   7         0.18552730
   8         0.00000000
   9        -0.00000000
  10        -0.00014637
Sym=     4a  
Ene=    -2.6031
Spin= Alpha
Occup=    2.00000
   1        -0.00137517
   2        -0.20059289
   3        -0.00000000
   4         0.00000000
   5        -0.01137197
   6         0.00489119
   7         0.98264123
   8         0.00000000
   9        -0.00000000
  10        -0.02338472
Sym=     5a  
Ene=    -1.7630
Spin= Alpha
Occup=    2.00000
   1         0.00031292
   2         0.03900724
   3         0.00000000
   4         0.00000000
   5        -0.99980793
   6         0.00330470
   7         0.04310883
   8        -0.00000000
   9         0.00000000
  10         0.00653428
Sym=     6a  
Ene=    -1.7345
Spin= Alpha
Occup=    2.00000
   1         0.00000000
   2         0.00000000
   3         0.00750920
   4         0.00024904
   5         0.00000000
   6        -0.00000000
   7         0.00000000
   8        -0.99958197
   9        -0.03315060
  10         0.00000000
Sym=     7a  
Ene=    -1.7345
Spin= Alpha
Occup=    2.00000
   1         0.00000000
   2         0.00000000
   3         0.00024904
   4        -0.00750920
   5         0.00000000
   6        -0.00000000
   7         0.00000000
   8        -0.03315060
   9         0.99958197
  10         0.00000000
Sym=     8a  
Ene=    -1.4078
Spin= Alpha
Occup=    1.00000
   1         0.00000000
   2         0.00000000
   3        -0.66300088
   4        -0.74888291
   5        -0.00000000
   6         0.00000000
   7         0.00000000
   8         0.00911676
   9         0.01029770
  10        -0.00000000
Sym=     9a  
Ene=     0.0000
Spin= Alpha
Occup=    1.00000
   1         0.00000000
   2         0.00000000
   3        -0.74888291
   4         0.66300088
   5        -0.00000000
   6         0.00000000
   7         0.00000000
   8         0.01029770
   9        -0.00911676
  10        -0.00000000
Sym=    10a  
Ene=    -1.0570
Spin= Alpha
Occup=    0.00000
   1         0.00331546
   2         0.04087607
   3        -0.00000000
   4         0.00000000
   5         0.07330526
   6        -0.00017778
   7         0.01902336
   8         0.00000000
   9        -0.00000000
  10         1.00298835
