[Molden Format]
[N_Atoms]
                     2
[Atoms] (AU)
N1          1      7           0.00000000      0.00000000      0.00000000
O2          2      8           0.00000000      0.00000000      2.07869874
[Charge] (Mulliken)
  0.223657840475653     
 -0.223657840475688     
[GTO] (AU)
   1
   s  14
  7.476171500E+04  1.182599996E-04
  1.112365400E+04  5.172899983E-04
  2.512685700E+03  2.266659992E-03
  7.037772900E+02  9.145289970E-03
  2.254787900E+02  3.239342989E-02
  7.961581000E+01  9.770792967E-02
  3.023728300E+01  2.317036792E-01
  1.226362200E+01  3.768898887E-01
  5.265086000E+00  3.177420689E-01
  2.333471000E+00  8.211308973E-02
  9.018560000E-01  3.312089989E-03
  3.583360000E-01  3.720819988E-03
  1.410930000E-01  3.165419989E-03
  4.938300000E-02  4.595799985E-04
   s  14
  7.476171500E+04 -2.707000010E-05
  1.112365400E+04 -1.183700004E-04
  2.512685700E+03 -5.203800020E-04
  7.037772900E+02 -2.102930008E-03
  2.254787900E+02 -7.568200028E-03
  7.961581000E+01 -2.346767009E-02
  3.023728300E+01 -6.042901023E-02
  1.226362200E+01 -1.170549104E-01
  5.265086000E+00 -1.555321506E-01
  2.333471000E+00 -2.468935009E-02
  9.018560000E-01  3.625054514E-01
  3.583360000E-01  5.550845021E-01
  1.410930000E-01  2.148376908E-01
  4.938300000E-02  8.983850034E-03
   p   9
  1.266665700E+02  1.233630000E-03
  2.983738900E+01  9.493409996E-03
  9.394038000E+00  4.293961998E-02
  3.405104000E+00  1.362925399E-01
  1.350000000E+00  2.921362499E-01
  5.576960000E-01  3.887887598E-01
  2.324490000E-01  2.946801399E-01
  9.426400000E-02  8.012875997E-02
  3.299200000E-02  5.405199998E-04
 
   2
   s  14
  1.053749500E+05  1.238600013E-04
  1.567924000E+04  5.120100053E-04
  3.534544700E+03  2.152910022E-03
  9.873651600E+02  8.528440089E-03
  3.159787500E+02  3.018049031E-02
  1.116542800E+02  9.099702095E-02
  4.269945100E+01  2.177936423E-01
  1.739559600E+01  3.686245738E-01
  7.438309000E+00  3.366707335E-01
  3.222862000E+00  9.657630101E-02
  1.253877000E+00  2.144520022E-03
  4.951550000E-01  1.194350012E-03
  1.916650000E-01  5.390200056E-04
  6.708300000E-02  2.103400022E-04
   s  14
  1.053749500E+05 -2.815000008E-05
  1.567924000E+04 -1.163000003E-04
  3.534544700E+03 -4.909200013E-04
  9.873651600E+02 -1.946160005E-03
  3.159787500E+02 -7.005300019E-03
  1.116542800E+02 -2.167814006E-02
  4.269945100E+01 -5.641213015E-02
  1.739559600E+01 -1.127053003E-01
  7.438309000E+00 -1.589119704E-01
  3.222862000E+00 -3.355083009E-02
  1.253877000E+00  3.531902810E-01
  4.951550000E-01  5.534199315E-01
  1.916650000E-01  2.301839106E-01
  6.708300000E-02  1.127267003E-02
   p   9
  2.000000000E+02  9.173000030E-04
  4.653336700E+01  7.377140024E-03
  1.462180900E+01  3.483515011E-02
  5.313064000E+00  1.144397004E-01
  2.102525000E+00  2.554966408E-01
  8.502230000E-01  3.722557412E-01
  3.375970000E-01  3.323314911E-01
  1.288920000E-01  1.400847905E-01
  4.511200000E-02  2.395784008E-02
 
[MO]
Sym=     1a  
Ene=   -20.8440
Spin= Alpha
Occup=    1.00000
   1        -0.00031128
   2        -0.00185927
   3         0.00000000
   4        -0.00000000
   5        -0.00088751
   6         1.00015325
   7         0.00163174
   8         0.00000000
   9         0.00000000
  10        -0.00294681
Sym=     1a  
Ene=   -20.8310
Spin= Beta
Occup=    1.00000
   1        -0.00021133
   2        -0.00150723
   3         0.00000000
   4        -0.00000000
   5        -0.00065354
   6         1.00011869
   7         0.00090713
   8         0.00000000
   9         0.00000000
  10        -0.00282424
Sym=     2a  
Ene=   -15.8680
Spin= Alpha
Occup=    1.00000
   1         1.00019071
   2        -0.00319606
   3        -0.00000000
   4        -0.00000000
   5         0.00416553
   6        -0.00082195
   7        -0.00281391
   8         0.00000000
   9        -0.00000000
  10         0.00077479
Sym=     2a  
Ene=   -15.8370
Spin= Beta
Occup=    1.00000
   1         1.00007655
   2        -0.00578674
   3        -0.00000000
   4        -0.00000000
   5         0.00363872
   6        -0.00071589
   7        -0.00177130
   8         0.00000000
   9        -0.00000000
  10         0.00018252
Sym=     3a  
Ene=    -1.7415
Spin= Alpha
Occup=    1.00000
   1        -0.04968630
   2         0.34638794
   3        -0.00000000
   4        -0.00000000
   5         0.22080689
   6        -0.03431999
   7         0.61379467
   8        -0.00000000
   9         0.00000000
  10        -0.24908749
Sym=     3a  
Ene=    -1.7013
Spin= Beta
Occup=    1.00000
   1        -0.05128726
   2         0.30390319
   3        -0.00000000
   4        -0.00000000
   5         0.22722148
   6        -0.03260319
   7         0.63672691
   8        -0.00000000
   9         0.00000000
  10        -0.26269105
Sym=     4a  
Ene=    -0.9907
Spin= Alpha
Occup=    1.00000
   1        -0.00437134
   2        -0.70701862
   3        -0.00000000
   4        -0.00000000
   5         0.08331030
   6         0.02632454
   7         0.71849138
   8        -0.00000000
   9        -0.00000000
  10         0.36715515
Sym=     4a  
Ene=    -0.9144
Spin= Beta
Occup=    1.00000
   1         0.00644773
   2        -0.60060401
   3        -0.00000000
   4         0.00000000
   5         0.02890155
   6         0.02636854
   7         0.69925278
   8        -0.00000000
   9         0.00000000
  10         0.48576253
Sym=     5a  
Ene=    -0.8647
Spin= Alpha
Occup=    1.00000
   1         0.00000000
   2         0.00000000
   3         0.15196016
   4         0.52456574
   5        -0.00000000
   6         0.00000000
   7         0.00000000
   8         0.19145296
   9         0.66089469
  10         0.00000000
Sym=     5a  
Ene=    -0.7331
Spin= Beta
Occup=    1.00000
   1         0.00000000
   2        -0.00000000
   3         0.42182113
   4        -0.12219632
   5         0.00000000
   6         0.00000000
   7         0.00000000
   8         0.74425143
   9        -0.21560037
  10         0.00000000
Sym=     6a  
Ene=    -0.7361
Spin= Alpha
Occup=    1.00000
   1        -0.00000000
   2        -0.00000000
   3         0.50422303
   4        -0.14606713
   5         0.00000000
   6        -0.00000000
   7        -0.00000000
   8         0.67857382
   9        -0.19657438
  10        -0.00000000
Sym=     6a  
Ene=    -0.6953
Spin= Beta
Occup=    1.00000
   1         0.00000000
   2         0.00000000
   3         0.11736339
   4         0.40513786
   5        -0.00000000
   6         0.00000000
   7         0.00000000
   8         0.21913926
   9         0.75646766
  10         0.00000000
Sym=     7a  
Ene=    -0.7198
Spin= Alpha
Occup=    1.00000
   1         0.04804237
   2         0.56866329
   3         0.00000000
   4        -0.00000000
   5        -0.61120718
   6         0.02364250
   7         0.25141901
   8         0.00000000
   9        -0.00000000
  10         0.62357719
Sym=     7a  
Ene=    -0.6792
Spin= Beta
Occup=    1.00000
   1         0.04642049
   2         0.65804353
   3        -0.00000000
   4        -0.00000000
   5        -0.62196113
   6         0.02032788
   7         0.17898716
   8        -0.00000000
   9        -0.00000000
  10         0.55101079
Sym=     8a  
Ene=    -0.4749
Spin= Alpha
Occup=    1.00000
   1        -0.00000000
   2        -0.00000000
   3        -0.24940044
   4        -0.86092910
   5        -0.00000000
   6         0.00000000
   7         0.00000000
   8         0.22054077
   9         0.76130569
  10        -0.00000000
Sym=     8a  
Ene=     0.1140
Spin= Beta
Occup=    0.00000
   1        -0.00000000
   2        -0.00000000
   3        -0.91566100
   4         0.26525559
   5        -0.00000000
   6         0.00000000
   7         0.00000000
   8         0.68004260
   9        -0.19699987
  10        -0.00000000
Sym=     9a  
Ene=     0.0803
Spin= Alpha
Occup=    0.00000
   1        -0.00000000
   2        -0.00000000
   3        -0.87299901
   4         0.25289694
   5        -0.00000000
   6         0.00000000
   7         0.00000000
   8         0.74559084
   9        -0.21598838
  10        -0.00000000
Sym=     9a  
Ene=     0.1657
Spin= Beta
Occup=    0.00000
   1        -0.00000000
   2         0.00000000
   3        -0.26742906
   4        -0.92316382
   5        -0.00000000
   6         0.00000000
   7         0.00000000
   8         0.19305557
   9         0.66642690
  10         0.00000000
Sym=    10a  
Ene=     0.7775
Spin= Alpha
Occup=    0.00000
   1         0.13766569
   2         0.97153649
   3        -0.00000000
   4        -0.00000000
   5         1.10950117
   6        -0.13106782
   7        -0.99773131
   8         0.00000000
   9         0.00000000
  10         1.00710516
Sym=    10a  
Ene=     0.8250
Spin= Beta
Occup=    0.00000
   1         0.13838116
   2         1.00049754
   3        -0.00000000
   4        -0.00000000
   5         1.10497388
   6        -0.13231172
   7        -1.01254514
   8         0.00000000
   9         0.00000000
  10         0.99567734
