[Molden Format]
[N_Atoms]
                     2
[Atoms] (AU)
BE1         1      4           0.00000000      0.00000000      0.00000000
LI2         2      3           0.00000000      0.00000000      2.83458919
[Charge] (Mulliken)
 -0.211286809466650     
  0.211286809466626     
[GTO] (AU)
   1
   s  14
  2.262859900E+04  8.443999941E-05
  3.372318100E+03  4.601499968E-04
  7.603504000E+02  2.285389984E-03
  2.117404800E+02  9.648129932E-03
  6.722346800E+01  3.494469975E-02
  2.337217700E+01  1.061099893E-01
  8.721373000E+00  2.458240383E-01
  3.468091000E+00  3.862428773E-01
  1.452144000E+00  3.105526078E-01
  6.086150000E-01  6.415933955E-02
  2.576860000E-01 -2.265049984E-03
  1.041760000E-01 -5.217499963E-04
  4.242700000E-02 -8.757499938E-04
  1.484900000E-02  1.242199991E-04
   s  14
  2.262859900E+04 -1.586999994E-05
  3.372318100E+03 -8.656999968E-05
  7.603504000E+02 -4.302199984E-04
  2.117404800E+02 -1.825079993E-03
  6.722346800E+01 -6.682749976E-03
  2.337217700E+01 -2.095119992E-02
  8.721373000E+00 -5.200308981E-02
  3.468091000E+00 -9.849176964E-02
  1.452144000E+00 -1.355800695E-01
  6.086150000E-01 -6.429875976E-02
  2.576860000E-01  3.125414989E-01
  1.041760000E-01  6.270468577E-01
  4.242700000E-02  2.110231492E-01
  1.484900000E-02 -4.104669985E-03
   p   9
  3.371018400E+01  1.069960000E-03
  8.057649500E+00  6.828550001E-03
  2.836471400E+00  2.119065000E-02
  1.099965700E+00  5.843696001E-02
  4.433964000E-01  2.020920800E-01
  1.822264000E-01  4.582953101E-01
  7.572410000E-02  3.691239601E-01
  3.168540000E-02  6.611471001E-02
  1.108990000E-02  1.405160000E-03
 
   2
   s  14
  9.497934400E+03  9.668999974E-05
  1.416811200E+03  6.087099984E-04
  3.214599400E+02  3.101519992E-03
  9.112416300E+01  1.266904997E-02
  2.999989100E+01  4.248012989E-02
  1.101763100E+01  1.150183297E-01
  4.372801000E+00  2.398650094E-01
  1.831256000E+00  3.584300090E-01
  8.022610000E-01  3.048527792E-01
  3.626480000E-01  8.824261976E-02
  1.139950000E-01 -8.445899977E-04
  5.123700000E-02 -7.943959979E-03
  2.246800000E-02 -3.764419990E-03
  7.860000000E-03 -8.868999976E-05
   s  14
  9.497934400E+03 -1.244999993E-05
  1.416811200E+03 -7.838999954E-05
  3.214599400E+02 -4.007099976E-04
  9.112416300E+01 -1.645249990E-03
  2.999989100E+01 -5.634599967E-03
  1.101763100E+01 -1.590780991E-02
  4.372801000E+00 -3.612581979E-02
  1.831256000E+00 -6.459927962E-02
  8.022610000E-01 -1.008321794E-01
  3.626480000E-01 -9.757613942E-02
  1.139950000E-01  2.301215886E-01
  5.123700000E-02  6.102389764E-01
  2.246800000E-02  2.849406083E-01
  7.860000000E-03  4.026899976E-03
   p   9
  1.311950400E+01  1.524940000E-03
  3.077424200E+00  8.314830000E-03
  1.098800500E+00  1.933203000E-02
  4.357784000E-01  4.934293000E-02
  1.802432000E-01  1.623554000E-01
  7.613330000E-02  3.847505400E-01
  3.254650000E-02  4.336100400E-01
  1.401820000E-02  1.287005900E-01
  4.906400000E-03 -1.018520000E-03
 
[MO]
Sym=     1a  
Ene=    -4.7812
Spin= Alpha
Occup=    1.00000
   1         1.00022431
   2         0.00482721
   3        -0.00000000
   4        -0.00000000
   5         0.00227125
   6         0.00062987
   7        -0.00164954
   8        -0.00000000
   9        -0.00000000
  10         0.00045773
Sym=     1a  
Ene=    -4.7787
Spin= Beta
Occup=    1.00000
   1         1.00011193
   2         0.00361428
   3        -0.00000000
   4         0.00000000
   5         0.00322290
   6         0.00068801
   7        -0.00148451
   8        -0.00000000
   9        -0.00000000
  10        -0.00018998
Sym=     2a  
Ene=    -2.5170
Spin= Alpha
Occup=    1.00000
   1        -0.00942011
   2         0.00927078
   3         0.00000000
   4         0.00000000
   5         0.00856640
   6         0.99593778
   7         0.00537357
   8        -0.00000000
   9         0.00000000
  10        -0.00170400
Sym=     2a  
Ene=    -2.5124
Spin= Beta
Occup=    1.00000
   1        -0.00914589
   2         0.01350674
   3         0.00000000
   4         0.00000000
   5         0.01117913
   6         0.99444599
   7         0.00308392
   8        -0.00000000
   9         0.00000000
  10        -0.00068510
Sym=     3a  
Ene=    -0.3718
Spin= Alpha
Occup=    1.00000
   1        -0.01671250
   2         0.91724297
   3        -0.00000000
   4        -0.00000000
   5        -0.08766794
   6        -0.14520347
   7         0.11428146
   8         0.00000000
   9         0.00000000
  10        -0.01875284
Sym=     3a  
Ene=    -0.3542
Spin= Beta
Occup=    1.00000
   1        -0.02536947
   2         0.88073049
   3         0.00000000
   4        -0.00000000
   5         0.30141279
   6        -0.25104942
   7         0.03303200
   8        -0.00000000
   9        -0.00000000
  10        -0.13971347
Sym=     4a  
Ene=    -0.1838
Spin= Alpha
Occup=    1.00000
   1        -0.03601809
   2        -0.31361393
   3         0.00000000
   4         0.00000000
   5         0.52969736
   6        -0.10158637
   7         0.70769064
   8         0.00000000
   9         0.00000000
  10         0.25565221
Sym=     4a  
Ene=     0.0098
Spin= Beta
Occup=    0.00000
   1         0.00000000
   2         0.00000000
   3         0.15845449
   4         0.51194620
   5        -0.00000000
   6        -0.00000000
   7        -0.00000000
   8         0.17356168
   9         0.56075559
  10        -0.00000000
Sym=     5a  
Ene=    -0.0056
Spin= Alpha
Occup=    0.00000
   1        -0.00000000
   2         0.00000000
   3         0.16982573
   4         0.45007465
   5        -0.00000000
   6        -0.00000000
   7        -0.00000000
   8         0.22567432
   9         0.59808540
  10        -0.00000000
Sym=     5a  
Ene=     0.0098
Spin= Beta
Occup=    0.00000
   1         0.00000000
   2         0.00000000
   3         0.51194620
   4        -0.15845449
   5        -0.00000000
   6        -0.00000000
   7        -0.00000000
   8         0.56075559
   9        -0.17356168
  10        -0.00000000
Sym=     6a  
Ene=    -0.0056
Spin= Alpha
Occup=    0.00000
   1        -0.00000000
   2         0.00000000
   3         0.45007465
   4        -0.16982573
   5        -0.00000000
   6         0.00000000
   7        -0.00000000
   8         0.59808540
   9        -0.22567432
  10        -0.00000000
Sym=     6a  
Ene=     0.0634
Spin= Beta
Occup=    0.00000
   1         0.00089160
   2        -0.28211302
   3         0.00000000
   4         0.00000000
   5         0.13785586
   6         0.00421265
   7         0.78291133
   8         0.00000000
   9         0.00000000
  10         0.56076112
Sym=     7a  
Ene=     0.0599
Spin= Alpha
Occup=    0.00000
   1         0.09264739
   2         0.17343063
   3        -0.00000000
   4        -0.00000000
   5        -0.85800162
   6         0.21193181
   7         0.30457233
   8         0.00000000
   9         0.00000000
  10         0.84658723
Sym=     7a  
Ene=     0.1359
Spin= Beta
Occup=    0.00000
   1        -0.03956269
   2        -0.10724739
   3         0.00000000
   4         0.00000000
   5        -1.10760613
   6         0.32888468
   7         0.62276744
   8        -0.00000000
   9        -0.00000000
  10         0.17126523
Sym=     8a  
Ene=     0.1626
Spin= Alpha
Occup=    0.00000
   1         0.00000000
   2         0.00000000
   3        -1.12929742
   4         0.11963953
   5         0.00000000
   6        -0.00000000
   7        -0.00000000
   8         1.04883394
   9        -0.11111511
  10        -0.00000000
Sym=     8a  
Ene=     0.1912
Spin= Beta
Occup=    0.00000
   1         0.00000000
   2         0.00000000
   3        -1.10919967
   4         0.05927573
   5        -0.00000000
   6         0.00000000
   7         0.00000000
   8         1.08310366
   9        -0.05788116
  10         0.00000000
Sym=     9a  
Ene=     0.1626
Spin= Alpha
Occup=    0.00000
   1         0.00000000
   2        -0.00000000
   3        -0.11963953
   4        -1.12929742
   5         0.00000000
   6        -0.00000000
   7        -0.00000000
   8         0.11111511
   9         1.04883394
  10        -0.00000000
Sym=     9a  
Ene=     0.1912
Spin= Beta
Occup=    0.00000
   1         0.00000000
   2         0.00000000
   3        -0.05927573
   4        -1.10919967
   5        -0.00000000
   6         0.00000000
   7         0.00000000
   8         0.05788116
   9         1.08310366
  10         0.00000000
Sym=    10a  
Ene=     0.2254
Spin= Alpha
Occup=    0.00000
   1         0.43302094
   2         2.35661245
   3         0.00000000
   4         0.00000000
   5         0.65060930
   6        -0.58482347
   7        -2.02278596
   8        -0.00000000
   9        -0.00000000
  10         1.50947261
Sym=    10a  
Ene=     0.2284
Spin= Beta
Occup=    0.00000
   1         0.44236587
   2         2.37834535
   3         0.00000000
   4         0.00000000
   5         0.33319985
   6        -0.50009788
   7        -1.92261618
   8        -0.00000000
   9        -0.00000000
  10         1.64244488
