[Molden Format]
[N_Atoms]
                     2
[Atoms] (AU)
BE1         1      4           0.00000000      0.00000000      0.00000000
BE2         2      4           0.00000000      0.00000000      3.77945225
[Charge] (Mulliken)
 -7.602807272633072E-013
  7.513989430663059E-013
[GTO] (AU)
   1
   s  14
  2.262859900E+04  8.443999941E-05
  3.372318100E+03  4.601499968E-04
  7.603504000E+02  2.285389984E-03
  2.117404800E+02  9.648129932E-03
  6.722346800E+01  3.494469975E-02
  2.337217700E+01  1.061099893E-01
  8.721373000E+00  2.458240383E-01
  3.468091000E+00  3.862428773E-01
  1.452144000E+00  3.105526078E-01
  6.086150000E-01  6.415933955E-02
  2.576860000E-01 -2.265049984E-03
  1.041760000E-01 -5.217499963E-04
  4.242700000E-02 -8.757499938E-04
  1.484900000E-02  1.242199991E-04
   s  14
  2.262859900E+04 -1.586999994E-05
  3.372318100E+03 -8.656999968E-05
  7.603504000E+02 -4.302199984E-04
  2.117404800E+02 -1.825079993E-03
  6.722346800E+01 -6.682749976E-03
  2.337217700E+01 -2.095119992E-02
  8.721373000E+00 -5.200308981E-02
  3.468091000E+00 -9.849176964E-02
  1.452144000E+00 -1.355800695E-01
  6.086150000E-01 -6.429875976E-02
  2.576860000E-01  3.125414989E-01
  1.041760000E-01  6.270468577E-01
  4.242700000E-02  2.110231492E-01
  1.484900000E-02 -4.104669985E-03
   p   9
  3.371018400E+01  1.069960000E-03
  8.057649500E+00  6.828550001E-03
  2.836471400E+00  2.119065000E-02
  1.099965700E+00  5.843696001E-02
  4.433964000E-01  2.020920800E-01
  1.822264000E-01  4.582953101E-01
  7.572410000E-02  3.691239601E-01
  3.168540000E-02  6.611471001E-02
  1.108990000E-02  1.405160000E-03
 
   2
   s  14
  2.262859900E+04  8.443999941E-05
  3.372318100E+03  4.601499968E-04
  7.603504000E+02  2.285389984E-03
  2.117404800E+02  9.648129932E-03
  6.722346800E+01  3.494469975E-02
  2.337217700E+01  1.061099893E-01
  8.721373000E+00  2.458240383E-01
  3.468091000E+00  3.862428773E-01
  1.452144000E+00  3.105526078E-01
  6.086150000E-01  6.415933955E-02
  2.576860000E-01 -2.265049984E-03
  1.041760000E-01 -5.217499963E-04
  4.242700000E-02 -8.757499938E-04
  1.484900000E-02  1.242199991E-04
   s  14
  2.262859900E+04 -1.586999994E-05
  3.372318100E+03 -8.656999968E-05
  7.603504000E+02 -4.302199984E-04
  2.117404800E+02 -1.825079993E-03
  6.722346800E+01 -6.682749976E-03
  2.337217700E+01 -2.095119992E-02
  8.721373000E+00 -5.200308981E-02
  3.468091000E+00 -9.849176964E-02
  1.452144000E+00 -1.355800695E-01
  6.086150000E-01 -6.429875976E-02
  2.576860000E-01  3.125414989E-01
  1.041760000E-01  6.270468577E-01
  4.242700000E-02  2.110231492E-01
  1.484900000E-02 -4.104669985E-03
   p   9
  3.371018400E+01  1.069960000E-03
  8.057649500E+00  6.828550001E-03
  2.836471400E+00  2.119065000E-02
  1.099965700E+00  5.843696001E-02
  4.433964000E-01  2.020920800E-01
  1.822264000E-01  4.582953101E-01
  7.572410000E-02  3.691239601E-01
  3.168540000E-02  6.611471001E-02
  1.108990000E-02  1.405160000E-03
 
[MO]
Sym=     1a  
Ene=    -4.7221
Spin= Alpha
Occup=    1.00000
   1         0.70693203
   2         0.00190684
   3         0.00000000
   4         0.00000000
   5         0.00088366
   6         0.70693203
   7         0.00190684
   8         0.00000000
   9        -0.00000000
  10        -0.00088366
Sym=     1a  
Ene=    -4.7221
Spin= Beta
Occup=    1.00000
   1         0.70693203
   2         0.00190684
   3         0.00000000
   4         0.00000000
   5         0.00088366
   6         0.70693203
   7         0.00190684
   8         0.00000000
   9        -0.00000000
  10        -0.00088366
Sym=     2a  
Ene=    -4.7218
Spin= Alpha
Occup=    1.00000
   1        -0.70736111
   2        -0.00259734
   3         0.00000000
   4         0.00000000
   5        -0.00130252
   6         0.70736111
   7         0.00259734
   8         0.00000000
   9        -0.00000000
  10        -0.00130252
Sym=     2a  
Ene=    -4.7218
Spin= Beta
Occup=    1.00000
   1        -0.70736111
   2        -0.00259734
   3         0.00000000
   4         0.00000000
   5        -0.00130252
   6         0.70736111
   7         0.00259734
   8         0.00000000
   9        -0.00000000
  10        -0.00130252
Sym=     3a  
Ene=    -0.4280
Spin= Alpha
Occup=    1.00000
   1        -0.05072894
   2         0.51135331
   3         0.00000000
   4        -0.00000000
   5         0.16210179
   6        -0.05072894
   7         0.51135331
   8        -0.00000000
   9        -0.00000000
  10        -0.16210179
Sym=     3a  
Ene=    -0.4280
Spin= Beta
Occup=    1.00000
   1        -0.05072894
   2         0.51135331
   3         0.00000000
   4        -0.00000000
   5         0.16210179
   6        -0.05072894
   7         0.51135331
   8        -0.00000000
   9        -0.00000000
  10        -0.16210179
Sym=     4a  
Ene=    -0.2170
Spin= Alpha
Occup=    1.00000
   1        -0.01950335
   2        -0.75510472
   3        -0.00000000
   4        -0.00000000
   5         0.22900261
   6         0.01950335
   7         0.75510472
   8        -0.00000000
   9        -0.00000000
  10         0.22900261
Sym=     4a  
Ene=    -0.2170
Spin= Beta
Occup=    1.00000
   1        -0.01950335
   2        -0.75510472
   3        -0.00000000
   4        -0.00000000
   5         0.22900261
   6         0.01950335
   7         0.75510472
   8        -0.00000000
   9        -0.00000000
  10         0.22900261
Sym=     5a  
Ene=     0.0319
Spin= Alpha
Occup=    0.00000
   1        -0.00000000
   2        -0.00000000
   3         0.25358209
   4         0.54834506
   5        -0.00000000
   6         0.00000000
   7         0.00000000
   8         0.25358209
   9         0.54834506
  10        -0.00000000
Sym=     5a  
Ene=     0.0319
Spin= Beta
Occup=    0.00000
   1        -0.00000000
   2        -0.00000000
   3         0.25358209
   4         0.54834506
   5        -0.00000000
   6         0.00000000
   7         0.00000000
   8         0.25358209
   9         0.54834506
  10        -0.00000000
Sym=     6a  
Ene=     0.0319
Spin= Alpha
Occup=    0.00000
   1        -0.00000000
   2        -0.00000000
   3         0.54834506
   4        -0.25358209
   5         0.00000000
   6        -0.00000000
   7        -0.00000000
   8         0.54834506
   9        -0.25358209
  10        -0.00000000
Sym=     6a  
Ene=     0.0319
Spin= Beta
Occup=    0.00000
   1        -0.00000000
   2        -0.00000000
   3         0.54834506
   4        -0.25358209
   5         0.00000000
   6        -0.00000000
   7        -0.00000000
   8         0.54834506
   9        -0.25358209
  10        -0.00000000
Sym=     7a  
Ene=     0.0427
Spin= Alpha
Occup=    0.00000
   1         0.05019284
   2         0.35220659
   3         0.00000000
   4        -0.00000000
   5        -0.65889828
   6         0.05019284
   7         0.35220659
   8         0.00000000
   9        -0.00000000
  10         0.65889828
Sym=     7a  
Ene=     0.0427
Spin= Beta
Occup=    0.00000
   1         0.05019284
   2         0.35220659
   3         0.00000000
   4        -0.00000000
   5        -0.65889828
   6         0.05019284
   7         0.35220659
   8         0.00000000
   9        -0.00000000
  10         0.65889828
Sym=     8a  
Ene=     0.1877
Spin= Alpha
Occup=    0.00000
   1         0.00000000
   2         0.00000000
   3        -0.85380903
   4        -0.25407424
   5         0.00000000
   6        -0.00000000
   7        -0.00000000
   8         0.85380903
   9         0.25407424
  10         0.00000000
Sym=     8a  
Ene=     0.1877
Spin= Beta
Occup=    0.00000
   1         0.00000000
   2         0.00000000
   3        -0.85380903
   4        -0.25407424
   5         0.00000000
   6        -0.00000000
   7        -0.00000000
   8         0.85380903
   9         0.25407424
  10         0.00000000
Sym=     9a  
Ene=     0.1877
Spin= Alpha
Occup=    0.00000
   1        -0.00000000
   2        -0.00000000
   3         0.25407424
   4        -0.85380903
   5        -0.00000000
   6         0.00000000
   7         0.00000000
   8        -0.25407424
   9         0.85380903
  10        -0.00000000
Sym=     9a  
Ene=     0.1877
Spin= Beta
Occup=    0.00000
   1        -0.00000000
   2        -0.00000000
   3         0.25407424
   4        -0.85380903
   5        -0.00000000
   6         0.00000000
   7         0.00000000
   8        -0.25407424
   9         0.85380903
  10        -0.00000000
Sym=    10a  
Ene=     0.4703
Spin= Alpha
Occup=    0.00000
   1         0.23561638
   2         1.48985955
   3         0.00000000
   4         0.00000000
   5         1.37230719
   6        -0.23561638
   7        -1.48985955
   8        -0.00000000
   9         0.00000000
  10         1.37230719
Sym=    10a  
Ene=     0.4703
Spin= Beta
Occup=    0.00000
   1         0.23561638
   2         1.48985955
   3         0.00000000
   4         0.00000000
   5         1.37230719
   6        -0.23561638
   7        -1.48985955
   8        -0.00000000
   9         0.00000000
  10         1.37230719
