[Molden Format]
[N_Atoms]
                     2
[Atoms] (AU)
H1          1      1           0.00000000      0.00000000      0.00000000
O2          2      8           0.00000000      0.00000000      1.51178090
[Charge] (Mulliken)
  0.460420337031067     
 -0.460420337031081     
[GTO] (AU)
   1
   s   8
  1.886144500E+02  9.638500027E-04
  2.827659600E+01  7.491960021E-03
  6.424830000E+00  3.759541011E-02
  1.815041000E+00  1.433949804E-01
  5.910630000E-01  3.486363010E-01
  2.121490000E-01  4.382973612E-01
  7.989100000E-02  1.651066105E-01
  2.796200000E-02  2.102287006E-02
 
   2
   s  14
  1.053749500E+05  1.238600013E-04
  1.567924000E+04  5.120100053E-04
  3.534544700E+03  2.152910022E-03
  9.873651600E+02  8.528440089E-03
  3.159787500E+02  3.018049031E-02
  1.116542800E+02  9.099702095E-02
  4.269945100E+01  2.177936423E-01
  1.739559600E+01  3.686245738E-01
  7.438309000E+00  3.366707335E-01
  3.222862000E+00  9.657630101E-02
  1.253877000E+00  2.144520022E-03
  4.951550000E-01  1.194350012E-03
  1.916650000E-01  5.390200056E-04
  6.708300000E-02  2.103400022E-04
   s  14
  1.053749500E+05 -2.815000008E-05
  1.567924000E+04 -1.163000003E-04
  3.534544700E+03 -4.909200013E-04
  9.873651600E+02 -1.946160005E-03
  3.159787500E+02 -7.005300019E-03
  1.116542800E+02 -2.167814006E-02
  4.269945100E+01 -5.641213015E-02
  1.739559600E+01 -1.127053003E-01
  7.438309000E+00 -1.589119704E-01
  3.222862000E+00 -3.355083009E-02
  1.253877000E+00  3.531902810E-01
  4.951550000E-01  5.534199315E-01
  1.916650000E-01  2.301839106E-01
  6.708300000E-02  1.127267003E-02
   p   9
  2.000000000E+02  9.173000030E-04
  4.653336700E+01  7.377140024E-03
  1.462180900E+01  3.483515011E-02
  5.313064000E+00  1.144397004E-01
  2.102525000E+00  2.554966408E-01
  8.502230000E-01  3.722557412E-01
  3.375970000E-01  3.323314911E-01
  1.288920000E-01  1.400847905E-01
  4.511200000E-02  2.395784008E-02
 
[MO]
Sym=     1a  
Ene=   -20.6680
Spin= Alpha
Occup=    1.00000
   1        -0.00240329
   2         1.00020188
   3         0.00281842
   4        -0.00000000
   5        -0.00000000
   6        -0.00274921
Sym=     1a  
Ene=   -20.6310
Spin= Beta
Occup=    1.00000
   1        -0.00141165
   2         1.00011880
   3         0.00032436
   4        -0.00000000
   5        -0.00000000
   6        -0.00224494
Sym=     2a  
Ene=    -1.4780
Spin= Alpha
Occup=    1.00000
   1         0.14366306
   2        -0.01387932
   3         0.87225741
   4        -0.00000000
   5        -0.00000000
   6        -0.20095073
Sym=     2a  
Ene=    -1.3324
Spin= Beta
Occup=    1.00000
   1         0.21470593
   2        -0.01821824
   3         0.81032700
   4        -0.00000000
   5        -0.00000000
   6        -0.21226881
Sym=     3a  
Ene=    -0.7141
Spin= Alpha
Occup=    1.00000
   1        -0.34231036
   2         0.03007246
   3         0.48833187
   4         0.00000000
   5        -0.00000000
   6         0.77800644
Sym=     3a  
Ene=    -0.6667
Spin= Beta
Occup=    1.00000
   1        -0.34175366
   2         0.03064930
   3         0.54185717
   4         0.00000000
   5         0.00000000
   6         0.76043045
Sym=     4a  
Ene=    -0.6847
Spin= Alpha
Occup=    1.00000
   1        -0.00000000
   2         0.00000000
   3         0.00000000
   4        -0.03353548
   5         0.99943753
   6         0.00000000
Sym=     4a  
Ene=    -0.5629
Spin= Beta
Occup=    1.00000
   1         0.00000000
   2        -0.00000000
   3        -0.00000000
   4         0.99943753
   5         0.03353548
   6        -0.00000000
Sym=     5a  
Ene=    -0.6055
Spin= Alpha
Occup=    1.00000
   1         0.00000000
   2        -0.00000000
   3        -0.00000000
   4         0.99943753
   5         0.03353548
   6        -0.00000000
Sym=     5a  
Ene=     0.1162
Spin= Beta
Occup=    0.00000
   1        -0.00000000
   2         0.00000000
   3         0.00000000
   4        -0.03353548
   5         0.99943753
   6        -0.00000000
Sym=     6a  
Ene=     0.6200
Spin= Alpha
Occup=    0.00000
   1         1.50274273
   2        -0.12648084
   3        -0.93910331
   4        -0.00000000
   5        -0.00000000
   6         0.92284994
Sym=     6a  
Ene=     0.6558
Spin= Beta
Occup=    0.00000
   1         1.49437638
   2        -0.12644881
   3        -0.96487555
   4        -0.00000000
   5         0.00000000
   6         0.93488889
