[Molden Format]
[N_Atoms]
                     2
[Atoms] (AU)
C1          1      6           0.00000000      0.00000000      0.00000000
N2          2      7           0.00000000      0.00000000      1.70075351
[Charge] (Mulliken)
  0.349764595734018     
 -0.349764595734065     
[GTO] (AU)
   1
   s  14
  5.055750100E+04  1.128874000E-04
  7.524785600E+03  5.295373000E-04
  1.694327600E+03  2.450038300E-03
  4.728227900E+02  1.005398470E-02
  1.517107500E+02  3.545398060E-02
  5.391874600E+01  1.044071086E-01
  2.065931100E+01  2.412894918E-01
  8.383976000E+00  3.834225483E-01
  3.577015000E+00  3.078514393E-01
  1.547118000E+00  6.872442990E-02
  6.130130000E-01  2.224445000E-04
  2.460680000E-01  1.976748900E-03
  9.908700000E-02  2.057859400E-03
  3.468000000E-02  4.182020000E-04
   s  14
  5.055750100E+04 -2.507420000E-05
  7.524785600E+03 -1.175945000E-04
  1.694327600E+03 -5.456275000E-04
  4.728227900E+02 -2.245077100E-03
  1.517107500E+02 -8.043471800E-03
  5.391874600E+01 -2.442588710E-02
  2.065931100E+01 -6.136791180E-02
  8.383976000E+00 -1.177767835E-01
  3.577015000E+00 -1.550487783E-01
  1.547118000E+00 -1.933316860E-02
  6.130130000E-01  3.996930678E-01
  2.460680000E-01  5.589420949E-01
  9.908700000E-02  1.711195023E-01
  3.468000000E-02  7.456244600E-03
   p   9
  8.333315500E+01  1.344656000E-03
  1.955761100E+01  1.023555500E-02
  6.080365000E+00  4.520067100E-02
  2.179317000E+00  1.410756198E-01
  8.651500000E-01  3.047388085E-01
  3.619440000E-01  3.995281011E-01
  1.547400000E-01  2.719163432E-01
  6.542900000E-02  5.857669330E-02
  2.290000000E-02 -1.263813000E-04
 
   2
   s  14
  7.476171500E+04  1.182599996E-04
  1.112365400E+04  5.172899983E-04
  2.512685700E+03  2.266659992E-03
  7.037772900E+02  9.145289970E-03
  2.254787900E+02  3.239342989E-02
  7.961581000E+01  9.770792967E-02
  3.023728300E+01  2.317036792E-01
  1.226362200E+01  3.768898887E-01
  5.265086000E+00  3.177420689E-01
  2.333471000E+00  8.211308973E-02
  9.018560000E-01  3.312089989E-03
  3.583360000E-01  3.720819988E-03
  1.410930000E-01  3.165419989E-03
  4.938300000E-02  4.595799985E-04
   s  14
  7.476171500E+04 -2.707000010E-05
  1.112365400E+04 -1.183700004E-04
  2.512685700E+03 -5.203800020E-04
  7.037772900E+02 -2.102930008E-03
  2.254787900E+02 -7.568200028E-03
  7.961581000E+01 -2.346767009E-02
  3.023728300E+01 -6.042901023E-02
  1.226362200E+01 -1.170549104E-01
  5.265086000E+00 -1.555321506E-01
  2.333471000E+00 -2.468935009E-02
  9.018560000E-01  3.625054514E-01
  3.583360000E-01  5.550845021E-01
  1.410930000E-01  2.148376908E-01
  4.938300000E-02  8.983850034E-03
   p   9
  1.266665700E+02  1.233630000E-03
  2.983738900E+01  9.493409996E-03
  9.394038000E+00  4.293961998E-02
  3.405104000E+00  1.362925399E-01
  1.350000000E+00  2.921362499E-01
  5.576960000E-01  3.887887598E-01
  2.324490000E-01  2.946801399E-01
  9.426400000E-02  8.012875997E-02
  3.299200000E-02  5.405199998E-04
 
[MO]
Sym=     1a  
Ene=   -15.7800
Spin= Alpha
Occup=    1.00000
   1        -0.00085223
   2        -0.00792959
   3        -0.00000000
   4         0.00000000
   5        -0.00290457
   6         1.00126896
   7         0.00200849
   8        -0.00000000
   9         0.00000000
  10        -0.00838125
Sym=     1a  
Ene=   -15.7850
Spin= Beta
Occup=    1.00000
   1        -0.00117175
   2        -0.00844091
   3        -0.00000000
   4         0.00000000
   5        -0.00342501
   6         1.00140832
   7         0.00305619
   8        -0.00000000
   9         0.00000000
  10        -0.00868837
Sym=     2a  
Ene=   -11.6200
Spin= Alpha
Occup=    1.00000
   1         0.99936407
   2        -0.00066981
   3         0.00000000
   4         0.00000000
   5         0.00403392
   6        -0.00502943
   7        -0.00029339
   8        -0.00000000
   9        -0.00000000
  10        -0.00360151
Sym=     2a  
Ene=   -11.5820
Spin= Beta
Occup=    1.00000
   1         0.99956559
   2        -0.00168662
   3        -0.00000000
   4         0.00000000
   5         0.00519840
   6        -0.00497369
   7        -0.00096773
   8        -0.00000000
   9         0.00000000
  10        -0.00292936
Sym=     3a  
Ene=    -1.4980
Spin= Alpha
Occup=    1.00000
   1        -0.13789904
   2         0.27408488
   3        -0.00000000
   4         0.00000000
   5         0.26628143
   6        -0.06895053
   7         0.53297177
   8        -0.00000000
   9         0.00000000
  10        -0.38901500
Sym=     3a  
Ene=    -1.4857
Spin= Beta
Occup=    1.00000
   1        -0.13901854
   2         0.23205472
   3        -0.00000000
   4         0.00000000
   5         0.27695730
   6        -0.06648920
   7         0.57115643
   8        -0.00000000
   9         0.00000000
  10        -0.37553350
Sym=     4a  
Ene=    -0.7645
Spin= Alpha
Occup=    1.00000
   1        -0.03969604
   2        -0.77663321
   3         0.00000000
   4         0.00000000
   5         0.65482223
   6        -0.02448565
   7         0.23204814
   8         0.00000000
   9         0.00000000
  10        -0.05264642
Sym=     4a  
Ene=    -0.7001
Spin= Beta
Occup=    1.00000
   1        -0.00000000
   2        -0.00000000
   3        -0.03678937
   4         0.51177216
   5         0.00000000
   6        -0.00000000
   7        -0.00000000
   8        -0.04620129
   9         0.64270015
  10        -0.00000000
Sym=     5a  
Ene=    -0.7198
Spin= Alpha
Occup=    1.00000
   1         0.00000000
   2         0.00000000
   3        -0.03047855
   4         0.62780213
   5        -0.00000000
   6        -0.00000000
   7        -0.00000000
   8        -0.02570179
   9         0.52940969
  10        -0.00000000
Sym=     5a  
Ene=    -0.7001
Spin= Beta
Occup=    1.00000
   1         0.00000000
   2        -0.00000000
   3         0.51177216
   4         0.03678937
   5        -0.00000000
   6         0.00000000
   7         0.00000000
   8         0.64270015
   9         0.04620129
  10         0.00000000
Sym=     6a  
Ene=    -0.7198
Spin= Alpha
Occup=    1.00000
   1         0.00000000
   2         0.00000000
   3         0.62780213
   4         0.03047855
   5        -0.00000000
   6         0.00000000
   7         0.00000000
   8         0.52940969
   9         0.02570179
  10         0.00000000
Sym=     6a  
Ene=    -0.6307
Spin= Beta
Occup=    1.00000
   1         0.05580425
   2        -0.21545518
   3        -0.00000000
   4         0.00000000
   5        -0.14657788
   6         0.05129899
   7         0.71510195
   8        -0.00000000
   9         0.00000000
  10         0.75199349
Sym=     7a  
Ene=    -0.6203
Spin= Alpha
Occup=    1.00000
   1         0.07034584
   2         0.03685959
   3        -0.00000000
   4         0.00000000
   5        -0.31902200
   6         0.05335043
   7         0.67499868
   8        -0.00000000
   9         0.00000000
  10         0.79809309
Sym=     7a  
Ene=    -0.0446
Spin= Beta
Occup=    0.00000
   1         0.07568208
   2         0.84964259
   3        -0.00000000
   4         0.00000000
   5        -0.64462051
   6         0.01691129
   7        -0.10587556
   8        -0.00000000
   9         0.00000000
  10         0.31642441
Sym=     8a  
Ene=     0.3188
Spin= Alpha
Occup=    0.00000
   1        -0.00000000
   2        -0.00000000
   3        -0.01552099
   4        -0.95623372
   5        -0.00000000
   6         0.00000000
   7         0.00000000
   8         0.01646091
   9         1.01414108
  10        -0.00000000
Sym=     8a  
Ene=     0.3604
Spin= Beta
Occup=    0.00000
   1        -0.00000000
   2        -0.00000000
   3        -0.04791643
   4        -1.02182586
   5        -0.00000000
   6         0.00000000
   7         0.00000000
   8         0.04430150
   9         0.94473680
  10        -0.00000000
Sym=     9a  
Ene=     0.3188
Spin= Alpha
Occup=    0.00000
   1        -0.00000000
   2        -0.00000000
   3        -0.95623372
   4         0.01552099
   5        -0.00000000
   6         0.00000000
   7         0.00000000
   8         1.01414108
   9        -0.01646091
  10         0.00000000
Sym=     9a  
Ene=     0.3604
Spin= Beta
Occup=    0.00000
   1         0.00000000
   2        -0.00000000
   3        -1.02182586
   4         0.04791643
   5        -0.00000000
   6         0.00000000
   7        -0.00000000
   8         0.94473680
   9        -0.04430150
  10         0.00000000
Sym=    10a  
Ene=     1.5993
Spin= Alpha
Occup=    0.00000
   1         0.54955685
   2         2.30784911
   3         0.00000000
   4        -0.00000000
   5         1.71459152
   6        -0.51449101
   7        -2.46591009
   8         0.00000000
   9        -0.00000000
  10         1.39018858
Sym=    10a  
Ene=     1.6455
Spin= Beta
Occup=    0.00000
   1         0.54679216
   2         2.27675958
   3         0.00000000
   4        -0.00000000
   5         1.73998764
   6        -0.51505733
   7        -2.45467611
   8         0.00000000
   9         0.00000000
  10         1.38457080
