[Molden Format]
[N_Atoms]
                     2
[Atoms] (AU)
B1          1      5           0.00000000      0.00000000      0.00000000
C2          2      6           0.00000000      0.00000000      3.59047964
[Charge] (Mulliken)
  8.543501253962038E-002
 -8.543501253969676E-002
[GTO] (AU)
   1
   s  14
  3.336021700E+04  1.039699991E-04
  4.972095200E+03  5.254399956E-04
  1.125641700E+03  2.509059979E-03
  3.164913600E+02  1.031887991E-02
  1.020072600E+02  3.636632969E-02
  3.629587300E+01  1.064607991E-01
  1.397141000E+01  2.403999880E-01
  5.741156000E+00  3.748581168E-01
  2.494268000E+00  3.100066974E-01
  1.114202000E+00  7.922455933E-02
  4.215490000E-01 -4.947589958E-03
  1.696330000E-01 -7.737119935E-03
  6.853500000E-02 -1.501079987E-03
  2.398700000E-02 -1.333299989E-04
   s  14
  3.336021700E+04 -2.030000008E-05
  4.972095200E+03 -1.025700004E-04
  1.125641700E+03 -4.911300020E-04
  3.164913600E+02 -2.026570008E-03
  1.020072600E+02 -7.261010030E-03
  3.629587300E+01 -2.197722009E-02
  1.397141000E+01 -5.408428022E-02
  5.741156000E+00 -1.022402604E-01
  2.494268000E+00 -1.423595206E-01
  1.114202000E+00 -4.658690019E-02
  4.215490000E-01  3.799402916E-01
  1.696330000E-01  5.890463624E-01
  6.853500000E-02  1.749075107E-01
  2.398700000E-02 -1.142030005E-03
   p   9
  5.500000000E+01  1.229800005E-03
  1.336610100E+01  8.827380035E-03
  4.135394000E+00  3.843340015E-02
  1.481256000E+00  1.150031805E-01
  6.021360000E-01  2.733674011E-01
  2.556360000E-01  4.061972116E-01
  1.111510000E-01  3.014967912E-01
  4.764800000E-02  7.684809030E-02
  1.667700000E-02 -8.170000032E-06
 
   2
   s  14
  5.055750100E+04  1.128874000E-04
  7.524785600E+03  5.295373000E-04
  1.694327600E+03  2.450038300E-03
  4.728227900E+02  1.005398470E-02
  1.517107500E+02  3.545398060E-02
  5.391874600E+01  1.044071086E-01
  2.065931100E+01  2.412894918E-01
  8.383976000E+00  3.834225483E-01
  3.577015000E+00  3.078514393E-01
  1.547118000E+00  6.872442990E-02
  6.130130000E-01  2.224445000E-04
  2.460680000E-01  1.976748900E-03
  9.908700000E-02  2.057859400E-03
  3.468000000E-02  4.182020000E-04
   s  14
  5.055750100E+04 -2.507420000E-05
  7.524785600E+03 -1.175945000E-04
  1.694327600E+03 -5.456275000E-04
  4.728227900E+02 -2.245077100E-03
  1.517107500E+02 -8.043471800E-03
  5.391874600E+01 -2.442588710E-02
  2.065931100E+01 -6.136791180E-02
  8.383976000E+00 -1.177767835E-01
  3.577015000E+00 -1.550487783E-01
  1.547118000E+00 -1.933316860E-02
  6.130130000E-01  3.996930678E-01
  2.460680000E-01  5.589420949E-01
  9.908700000E-02  1.711195023E-01
  3.468000000E-02  7.456244600E-03
   p   9
  8.333315500E+01  1.344656000E-03
  1.955761100E+01  1.023555500E-02
  6.080365000E+00  4.520067100E-02
  2.179317000E+00  1.410756198E-01
  8.651500000E-01  3.047388085E-01
  3.619440000E-01  3.995281011E-01
  1.547400000E-01  2.719163432E-01
  6.542900000E-02  5.857669330E-02
  2.290000000E-02 -1.263813000E-04
 
[MO]
Sym=     1a  
Ene=   -11.2490
Spin= Alpha
Occup=    1.00000
   1        -0.00013242
   2        -0.00097366
   3         0.00000000
   4        -0.00000000
   5        -0.00070374
   6         1.00005342
   7        -0.00220579
   8        -0.00000000
   9         0.00000000
  10        -0.00114698
Sym=     1a  
Ene=   -11.2630
Spin= Beta
Occup=    1.00000
   1        -0.00013144
   2        -0.00085174
   3         0.00000000
   4         0.00000000
   5        -0.00064819
   6         1.00005041
   7        -0.00118637
   8         0.00000000
   9        -0.00000000
  10        -0.00056565
Sym=     2a  
Ene=    -7.7213
Spin= Alpha
Occup=    1.00000
   1         0.99988505
   2         0.01607115
   3        -0.00000000
   4         0.00000000
   5        -0.00007618
   6        -0.00011925
   7        -0.00023392
   8         0.00000000
   9        -0.00000000
  10         0.00021743
Sym=     2a  
Ene=    -7.6879
Spin= Beta
Occup=    1.00000
   1         0.99990521
   2         0.01343036
   3        -0.00000000
   4         0.00000000
   5         0.00052376
   6        -0.00008487
   7        -0.00010941
   8         0.00000000
   9        -0.00000000
  10        -0.00015469
Sym=     3a  
Ene=    -0.7404
Spin= Alpha
Occup=    1.00000
   1         0.02905955
   2        -0.47354232
   3        -0.00000000
   4         0.00000000
   5        -0.03984738
   6         0.01096177
   7        -0.70294234
   8        -0.00000000
   9        -0.00000000
  10         0.16984765
Sym=     3a  
Ene=    -0.7604
Spin= Beta
Occup=    1.00000
   1         0.01779705
   2        -0.22842259
   3        -0.00000000
   4        -0.00000000
   5        -0.14100038
   6         0.01060646
   7        -0.86165885
   8        -0.00000000
   9         0.00000000
  10        -0.05577058
Sym=     4a  
Ene=    -0.5261
Spin= Alpha
Occup=    1.00000
   1        -0.00033465
   2         0.83609916
   3        -0.00000000
   4         0.00000000
   5        -0.34540039
   6        -0.00422180
   7        -0.54708526
   8        -0.00000000
   9        -0.00000000
  10         0.04727624
Sym=     4a  
Ene=    -0.4543
Spin= Beta
Occup=    1.00000
   1        -0.02412038
   2         0.61800995
   3        -0.00000000
   4         0.00000000
   5         0.24244208
   6        -0.02667942
   7        -0.42016255
   8        -0.00000000
   9         0.00000000
  10        -0.55770183
Sym=     5a  
Ene=    -0.3465
Spin= Alpha
Occup=    1.00000
   1         0.00000000
   2         0.00000000
   3         0.12168435
   4         0.31189057
   5        -0.00000000
   6         0.00000000
   7         0.00000000
   8         0.32058872
   9         0.82170470
  10         0.00000000
Sym=     5a  
Ene=    -0.3858
Spin= Beta
Occup=    1.00000
   1        -0.00000000
   2         0.00000000
   3         0.11664977
   4        -0.04551100
   5         0.00000000
   6        -0.00000000
   7        -0.00000000
   8         0.90281499
   9        -0.35223397
  10        -0.00000000
Sym=     6a  
Ene=    -0.3425
Spin= Alpha
Occup=    1.00000
   1         0.00000000
   2        -0.00000000
   3        -0.90116733
   4         0.35159113
   5        -0.00000000
   6         0.00000000
   7         0.00000000
   8        -0.12195166
   9         0.04757953
  10         0.00000000
Sym=     6a  
Ene=     0.0518
Spin= Beta
Occup=    0.00000
   1         0.01232506
   2         0.74959768
   3        -0.00000000
   4        -0.00000000
   5        -0.53241493
   6         0.00804650
   7        -0.07088349
   8        -0.00000000
   9        -0.00000000
  10         0.48157714
Sym=     7a  
Ene=     0.0477
Spin= Alpha
Occup=    0.00000
   1         0.01322673
   2        -0.09454166
   3        -0.00000000
   4        -0.00000000
   5        -0.68089225
   6         0.03644831
   7         0.56636611
   8        -0.00000000
   9         0.00000000
  10         0.53775439
Sym=     7a  
Ene=     0.0850
Spin= Beta
Occup=    0.00000
   1         0.00000000
   2         0.00000000
   3         0.27037661
   4         0.69300544
   5        -0.00000000
   6         0.00000000
   7         0.00000000
   8         0.19773658
   9         0.50682094
  10         0.00000000
Sym=     8a  
Ene=     0.0742
Spin= Alpha
Occup=    0.00000
   1        -0.00000000
   2         0.00000000
   3        -0.34934768
   4        -0.89541710
   5         0.00000000
   6        -0.00000000
   7        -0.00000000
   8         0.18459076
   9         0.47312673
  10        -0.00000000
Sym=     8a  
Ene=     0.1916
Spin= Beta
Occup=    0.00000
   1        -0.00000000
   2         0.00000000
   3        -0.94097840
   4         0.36712345
   5        -0.00000000
   6        -0.00000000
   7        -0.00000000
   8         0.28978028
   9        -0.11305800
  10         0.00000000
Sym=     9a  
Ene=     0.2205
Spin= Alpha
Occup=    0.00000
   1        -0.00000000
   2        -0.00000000
   3        -0.29486432
   4         0.11504154
   5        -0.00000000
   6         0.00000000
   7         0.00000000
   8         0.94030597
   9        -0.36686110
  10        -0.00000000
Sym=     9a  
Ene=     0.2413
Spin= Beta
Occup=    0.00000
   1        -0.00000000
   2        -0.00000000
   3        -0.25248241
   4        -0.64714062
   5        -0.00000000
   6         0.00000000
   7         0.00000000
   8         0.31265176
   9         0.80136138
  10         0.00000000
Sym=    10a  
Ene=     0.4094
Spin= Alpha
Occup=    0.00000
   1        -0.04272165
   2        -0.57747297
   3         0.00000000
   4        -0.00000000
   5        -0.87078638
   6         0.05529497
   7         0.46745337
   8         0.00000000
   9         0.00000000
  10        -0.97660155
Sym=    10a  
Ene=     0.4040
Spin= Beta
Occup=    0.00000
   1         0.04187967
   2         0.51940884
   3        -0.00000000
   4        -0.00000000
   5         0.99027637
   6        -0.06034049
   7        -0.63929644
   8         0.00000000
   9         0.00000000
  10         0.85320363
