[Molden Format]
[N_Atoms]
                     2
[Atoms] (AU)
B1          1      5           0.00000000      0.00000000      0.00000000
C2          2      6           0.00000000      0.00000000      3.59047964
[Charge] (Mulliken)
  0.124754419114034     
 -0.124754419114053     
[GTO] (AU)
   1
   s  14
  3.336021700E+04  1.039699991E-04
  4.972095200E+03  5.254399956E-04
  1.125641700E+03  2.509059979E-03
  3.164913600E+02  1.031887991E-02
  1.020072600E+02  3.636632969E-02
  3.629587300E+01  1.064607991E-01
  1.397141000E+01  2.403999880E-01
  5.741156000E+00  3.748581168E-01
  2.494268000E+00  3.100066974E-01
  1.114202000E+00  7.922455933E-02
  4.215490000E-01 -4.947589958E-03
  1.696330000E-01 -7.737119935E-03
  6.853500000E-02 -1.501079987E-03
  2.398700000E-02 -1.333299989E-04
   s  14
  3.336021700E+04 -2.030000008E-05
  4.972095200E+03 -1.025700004E-04
  1.125641700E+03 -4.911300020E-04
  3.164913600E+02 -2.026570008E-03
  1.020072600E+02 -7.261010030E-03
  3.629587300E+01 -2.197722009E-02
  1.397141000E+01 -5.408428022E-02
  5.741156000E+00 -1.022402604E-01
  2.494268000E+00 -1.423595206E-01
  1.114202000E+00 -4.658690019E-02
  4.215490000E-01  3.799402916E-01
  1.696330000E-01  5.890463624E-01
  6.853500000E-02  1.749075107E-01
  2.398700000E-02 -1.142030005E-03
   p   9
  5.500000000E+01  1.229800005E-03
  1.336610100E+01  8.827380035E-03
  4.135394000E+00  3.843340015E-02
  1.481256000E+00  1.150031805E-01
  6.021360000E-01  2.733674011E-01
  2.556360000E-01  4.061972116E-01
  1.111510000E-01  3.014967912E-01
  4.764800000E-02  7.684809030E-02
  1.667700000E-02 -8.170000032E-06
 
   2
   s  14
  5.055750100E+04  1.128874000E-04
  7.524785600E+03  5.295373000E-04
  1.694327600E+03  2.450038300E-03
  4.728227900E+02  1.005398470E-02
  1.517107500E+02  3.545398060E-02
  5.391874600E+01  1.044071086E-01
  2.065931100E+01  2.412894918E-01
  8.383976000E+00  3.834225483E-01
  3.577015000E+00  3.078514393E-01
  1.547118000E+00  6.872442990E-02
  6.130130000E-01  2.224445000E-04
  2.460680000E-01  1.976748900E-03
  9.908700000E-02  2.057859400E-03
  3.468000000E-02  4.182020000E-04
   s  14
  5.055750100E+04 -2.507420000E-05
  7.524785600E+03 -1.175945000E-04
  1.694327600E+03 -5.456275000E-04
  4.728227900E+02 -2.245077100E-03
  1.517107500E+02 -8.043471800E-03
  5.391874600E+01 -2.442588710E-02
  2.065931100E+01 -6.136791180E-02
  8.383976000E+00 -1.177767835E-01
  3.577015000E+00 -1.550487783E-01
  1.547118000E+00 -1.933316860E-02
  6.130130000E-01  3.996930678E-01
  2.460680000E-01  5.589420949E-01
  9.908700000E-02  1.711195023E-01
  3.468000000E-02  7.456244600E-03
   p   9
  8.333315500E+01  1.344656000E-03
  1.955761100E+01  1.023555500E-02
  6.080365000E+00  4.520067100E-02
  2.179317000E+00  1.410756198E-01
  8.651500000E-01  3.047388085E-01
  3.619440000E-01  3.995281011E-01
  1.547400000E-01  2.719163432E-01
  6.542900000E-02  5.857669330E-02
  2.290000000E-02 -1.263813000E-04
 
[MO]
Sym=     1a  
Ene=   -11.2450
Spin= Alpha
Occup=    2.00000
   1        -0.00013639
   2        -0.00105273
   3         0.00000018
   4        -0.00000051
   5        -0.00063059
   6         1.00005273
   7        -0.00175424
   8        -0.00000081
   9         0.00000230
  10        -0.00133563
Sym=     2a  
Ene=    -7.7114
Spin= Alpha
Occup=    2.00000
   1         0.99991135
   2         0.01410997
   3         0.00000062
   4        -0.00000173
   5         0.00129195
   6        -0.00015195
   7        -0.00037600
   8        -0.00000011
   9         0.00000032
  10         0.00009513
Sym=     3a  
Ene=    -0.7558
Spin= Alpha
Occup=    2.00000
   1        -0.02507346
   2         0.33858552
   3         0.00001148
   4        -0.00003220
   5         0.13693617
   6        -0.01268394
   7         0.77832511
   8         0.00001195
   9        -0.00003316
  10        -0.10715799
Sym=     4a  
Ene=    -0.4670
Spin= Alpha
Occup=    2.00000
   1         0.00893064
   2        -0.88427239
   3         0.00004062
   4        -0.00011590
   5         0.15251028
   6         0.01442270
   7         0.52751015
   8         0.00001033
   9        -0.00003364
  10         0.16866633
Sym=     5a  
Ene=    -0.3019
Spin= Alpha
Occup=    2.00000
   1         0.00000011
   2         0.00000304
   3        -0.37586814
   4        -0.13287298
   5        -0.00000369
   6         0.00000012
   7         0.00000124
   8        -0.79751588
   9        -0.28192931
  10         0.00000391
Sym=     6a  
Ene=     0.3193
Spin= Alpha
Occup=   -0.00000
   1        -0.03712078
   2        -0.50040451
   3         0.05976848
   4        -0.16897593
   5        -0.89444299
   6         0.05489256
   7         0.54186609
   8         0.11218258
   9        -0.31739779
  10        -0.79330061
Sym=     7a  
Ene=     0.0002
Spin= Alpha
Occup=    1.00000
   1         0.02067845
   2         0.26118967
   3        -0.00005551
   4         0.00016333
   5        -0.58251574
   6         0.02313659
   7         0.30942196
   8         0.00002845
   9        -0.00006458
  10         0.69119166
Sym=     8a  
Ene=     0.0818
Spin= Alpha
Occup=    0.00000
   1         0.01425628
   2         0.19230463
   3         0.27248796
   4        -0.77119627
   5         0.34338405
   6        -0.02107740
   7        -0.20816738
   8         0.10968259
   9        -0.31003316
  10         0.30471210
Sym=     9a  
Ene=     0.1088
Spin= Alpha
Occup=    0.00000
   1        -0.00000311
   2        -0.00004232
   3        -0.88295805
   4        -0.31201183
   5        -0.00007473
   6         0.00000460
   7         0.00004549
   8         0.53365252
   9         0.18867342
  10        -0.00006669
Sym=    10a  
Ene=     0.2007
Spin= Alpha
Occup=    0.00000
   1        -0.00865133
   2        -0.11658773
   3         0.19283322
   4        -0.54552286
   5        -0.20855330
   6         0.01279478
   7         0.12634771
   8        -0.30077666
   9         0.85085526
  10        -0.18482644
