*******************************************************************************************
*** WorkDir at /lustre/isaac/scratch/gjones39/ANO-RCC-VTZP/ozone_122.50/3189781 cleaned ***
*******************************************************************************************
   This run of MOLCAS is using the pymolcas driver

                             OPE
                             OPE          NMOL  CASOP  ENMOLC A   SO
                 OPE        NMOLC        AS  OP EN  MO LC     AS  OP
                OPENM       OL CA        SO  PE NM  OL CA     SOP EN
                OP EN      MO   LC       AS  OP ENMOL  CASO   PENMOL
                OP  EN     MO   LC       AS  OP EN     MO     LC ASO
               OP   E  NMOL  C  AS       OP  EN MO     LC     AS  OP
               OP  E   NMO   LC AS        OPEN  MO     LCASOP EN   M
               O  PEN   MO  LCA  SO
            OPE   NMO   L   CAS    OP
        OPENMOL  CASOP     ENMOL   CASOPE
     OPENMOLCA   SOPENMOLCASOPEN   MOLCASOPE
    OPENMOLCAS   OP           EN   MOL    CAS
    OPENMOLCAS       OP  ENM        O     LCA
    OPENMOLCAS    OPEN  MOLCASO     P  E  NMO
    OPENMOLCAS     OP               E  N  MOL
    OPENMOLCA   SO           PENM   O  L  CAS    OPEN    MO    LCAS
    OPENMOLCA   SOP           ENM   O  L  CAS   OP  EN  MOLC  AS   O
    OPENMOLCA   SOPE           NM      O  LCA   S      OP  EN MO
    OPENMOLC                AS         O  PEN   M      OL  CA  SOPE
    OPENMO        LCASOPE  NMOL        C  ASO   P      ENMOLC     AS
    OPE     NMO      LCA  SO     P     E   NM   OL  CA SO  PE N   MO
          OPENMOLCA            SOPE   NMO        LCAS  O    P  ENMO
     OPENMOLCASOPENMOLCASOPENMOLCASOPENMOLCA
        OPENMOLCASOPENMOLCASOPENMOLCASOPE
            OPENMOLCASOPENMOLCASOPENM
               OPENMOLCASOPENMOLCA        version: f37762c57-dirty
                   OPENMOLCASO
                       OPE                tag:

 OpenMolcas is free software; you can redistribute it and/or modify it
 under the terms of the GNU Lesser General Public License version 2.1.
 OpenMolcas is distributed in the hope that it will be useful, but it
 is provided "as is" and without any express or implied warranties.
 For more details see the full text of the license in the file
 LICENSE or in <http://www.gnu.org/licenses/>.

                 Copyright (C) The OpenMolcas Authors
           For the author list and the recommended citation,
                   consult the file CONTRIBUTORS.md

           *************************************************
           * pymolcas version py2.05                       *
           *   build c53fbf9a0f911de0c7c16766b0715e61      *
           *   (after the EMIL interpreter by V. Veryazov) *
           *************************************************

configuration info
------------------
C Compiler ID: GNU
C flags: -std=gnu99
Fortran Compiler ID: Intel
Fortran flags: -fpp -i8 -r8 -heap-arrays
Definitions: _MOLCAS_;_I8_;_LINUX_
Parallel: OFF (GA=OFF)


   ---------------------------------------------------------------------------------------
  |
  |              Project: ozone_122.50
  |       Submitted from: /lustre/isaac/scratch/gjones39/ANO-RCC-VTZP/ozone_122.50
  |         Scratch area: /lustre/isaac/scratch/gjones39/ANO-RCC-VTZP/ozone_122.50/3189781
  |      Save outputs to: /lustre/isaac/scratch/gjones39/ANO-RCC-VTZP/ozone_122.50
  |               Molcas: /lustre/isaac/proj/UTK0022/Grier2025/Test/build
  |
  | Scratch area is empty
  |
  |       MOLCAS_DRIVER = /nfs/home/gjones39/bin/pymolcas
  | MOLCAS_KEEP_WORKDIR = NO
  |      MOLCAS_MAXITER = 100
  |  MOLCAS_NEW_WORKDIR = YES
  |       MOLCAS_NPROCS = 1
  |       MOLCAS_SOURCE = /lustre/isaac/proj/UTK0022/Grier2025/Test
  |    MOLCAS_STRUCTURE = 0
  |
   ---------------------------------------------------------------------------------------

++ ---------   Input file   ---------

&GATEWAY
coord=ozone_122.50.xyz
Basis = ANO-RCC-VTZP
Group = nosymm
End of Input

&SEWARD
End of Input

&SCF
FileOrb
/lustre/isaac/scratch/gjones39/ANO-RCC-VTZP/ozone_122.25/ozone_122.25.ScfOrb

>>> COPY $WorkDir/ozone_122.50.scf.h5 $CurrDir/

&RASSCF
Title= RASSCF
ITERation
200 100
CIMX
200
SDAV
500
FileOrb
/lustre/isaac/scratch/gjones39/ANO-RCC-VTZP/ozone_122.25/ozone_122.25.RasOrb
CIROOT
3 3 1
NACTEL
12 0 0
Inactive
6
RAS2
9
Symmetry
1
Spin
1
orblisting
all

>>> COPY $WorkDir/ozone_122.50.rasscf.h5 $CurrDir/

>>> COPY $WorkDir/GMJ_Fock_MO.csv $CurrDir/ozone_122.50.GMJ_Fock_MO.csv

&MOTRA
Frozen=0
LUMORB

>>> COPY $WorkDir/GMJ_one_int_indx.csv $CurrDir/ozone_122.50.GMJ_one_int_indx.csv

>>> COPY $WorkDir/GMJ_one_int.csv $CurrDir/ozone_122.50.GMJ_one_int.csv

>>> COPY $WorkDir/GMJ_two_int_indx.csv $CurrDir/ozone_122.50.GMJ_two_int_indx.csv

>>> COPY $WorkDir/GMJ_two_int.csv $CurrDir/ozone_122.50.GMJ_two_int.csv

&CASPT2

Multistate
ALL

Frozen
0

MAXITER
50

>>> FOREACH k IN (1,2,3)

  >>> FOREACH i IN (B,E,F,G,H)

    >>> FOREACH j IN (P,M)

      >>> IF (-FILE GMJ_e2_${i}_${j}_${k}_.csv)

        >>> COPY $WorkDir/GMJ_RHS_${i}_${j}_${k}_.csv $CurrDir/GMJ_RHS_${i}_${j}_${k}_.csv

        >>> COPY $WorkDir/GMJ_IVECW_${i}_${j}_${k}_.csv $CurrDir/GMJ_IVECW_${i}_${j}_${k}_.csv

        >>> COPY $WorkDir/GMJ_IVECX_${i}_${j}_${k}_.csv $CurrDir/GMJ_IVECX_${i}_${j}_${k}_.csv

        >>> COPY $WorkDir/GMJ_IVECC2_${i}_${j}_${k}_.csv $CurrDir/GMJ_IVECC2_${i}_${j}_${k}_.csv

        >>> COPY $WorkDir/GMJ_e2_${i}_${j}_${k}_.csv $CurrDir/GMJ_e2_${i}_${j}_${k}_.csv

      >>> END IF

    >>> END FOREACH

  >>> END FOREACH

>>> END FOREACH

>>> FOREACH j IN (1,2,3)

  >>> FOREACH i IN (A,C,D)

    >>> IF (-FILE GMJ_e2_${i}_${j}_.csv)

      >>> COPY $WorkDir/GMJ_RHS_${i}_${j}_.csv $CurrDir/GMJ_RHS_${i}_${j}_.csv

      >>> COPY $WorkDir/GMJ_IVECW_${i}_${j}_.csv $CurrDir/GMJ_IVECW_${i}_${j}_.csv

      >>> COPY $WorkDir/GMJ_IVECX_${i}_${j}_.csv $CurrDir/GMJ_IVECX_${i}_${j}_.csv

      >>> COPY $WorkDir/GMJ_IVECC2_${i}_${j}_.csv $CurrDir/GMJ_IVECC2_${i}_${j}_.csv

      >>> COPY $WorkDir/GMJ_e2_${i}_${j}_.csv $CurrDir/GMJ_e2_${i}_${j}_.csv

    >>> END IF

  >>> END FOREACH

>>> END FOREACH

-- ----------------------------------

--- Start Module: gateway at Tue Apr 29 14:46:02 2025 ---
 
()()()()()()()()()()()()()()()()()()()()()()()()()()()()()()()()()()()()()()()()()()()()()()()()()()

                                              &GATEWAY

                                   only a single process is used
                       available to each process: 62 GB of memory, 1 thread?
()()()()()()()()()()()()()()()()()()()()()()()()()()()()()()()()()()()()()()()()()()()()()()()()()()
 
 
++    Symmetry information:
      ---------------------
 
                    Character Table for C1 
 
                             E  
                    a        1  x, y, xy, Rz, z, xz, Ry, yz, Rx, I
--
 
 
++    Basis set information:
      ----------------------
 
 
      Basis set label: O.ANO-RCC...4S3P2D1F.
 
      Electronic valence basis set:
      ------------------
      Associated Effective Charge   8.000000 au
      Associated Actual Charge      8.000000 au
      Nuclear Model: Point charge
 
      Shell  nPrim  nBasis  Cartesian Spherical Contaminant
         s      14       4        X                  
         p       9       3        X                  
         d       4       2                 X         
         f       3       1                 X         
--
 
 
++    Molecular structure info:
      -------------------------
 
                    ************************************************ 
                    **** Cartesian Coordinates / Bohr, Angstrom **** 
                    ************************************************ 
 
     Center  Label                x              y              z                     x              y              z
        1      O1               1.161622       2.117357       0.000000              0.614704       1.120457       0.000000
        2      O2               0.000000       0.000000       0.000000              0.000000       0.000000       0.000000
        3      O3               1.161622      -2.117357       0.000000              0.614704      -1.120457       0.000000
 
                    *************************************** 
                    *    InterNuclear Distances / Bohr    * 
                    *************************************** 
 
               1 O1            2 O2            3 O3    
    1 O1       0.000000
    2 O2       2.415071        0.000000
    3 O3       4.234714        2.415071        0.000000
 
                    ******************************************* 
                    *    InterNuclear Distances / Angstrom    * 
                    ******************************************* 
 
               1 O1            2 O2            3 O3    
    1 O1       0.000000
    2 O2       1.278000        0.000000
    3 O3       2.240914        1.278000        0.000000
 
                    ************************************** 
                    *    Valence Bond Angles / Degree    * 
                    ************************************** 
                          Atom centers                 Phi
                      1 O1       2 O2       3 O3       122.50
--
 
 
            Nuclear Potential Energy             68.11370201 au
 
--- Stop Module: gateway at Tue Apr 29 14:46:08 2025 /rc=_RC_ALL_IS_WELL_ ---
*** files: xmldump
    saved to directory /lustre/isaac/scratch/gjones39/ANO-RCC-VTZP/ozone_122.50
--- Module gateway spent 6 seconds ---

--- Start Module: seward at Tue Apr 29 14:46:08 2025 ---
 
()()()()()()()()()()()()()()()()()()()()()()()()()()()()()()()()()()()()()()()()()()()()()()()()()()

                                              &SEWARD

                                   only a single process is used
                       available to each process: 62 GB of memory, 1 thread?
()()()()()()()()()()()()()()()()()()()()()()()()()()()()()()()()()()()()()()()()()()()()()()()()()()
 
               SEWARD will generate:
                  Multipole Moment integrals up to order  2
                  Kinetic Energy integrals
                  Nuclear Attraction integrals (point charge)
                  One-Electron Hamiltonian integrals
                  Velocity integrals
                  Relativistic Douglas-Kroll-Hess integrals:
                    - Parametrization         : EXP
                    - DKH order of Hamiltonian: 2
                    - DKH order of Properties : 0
                         - multipole moment operators
                         - electric potential operators
                         - contact operators
                  Atomic mean-field integrals
                  Two-Electron Repulsion integrals
 
                   Integrals are discarded if absolute value <: 0.10E-13
                   Integral cutoff threshold is set to       <: 0.10E-15
 
            Nuclear Potential Energy             68.11370201 au
 
 
      Basis set specifications :
      Symmetry species         a  
      Basis functions           90
 
 
  Input file to MOLDEN was generated!
 
--- Stop Module: seward at Tue Apr 29 14:46:23 2025 /rc=_RC_ALL_IS_WELL_ ---
*** files: ozone_122.50.GssOrb ozone_122.50.guessorb.h5 ozone_122.50.guessorb.molden xmldump
    saved to directory /lustre/isaac/scratch/gjones39/ANO-RCC-VTZP/ozone_122.50
--- Module seward spent 14 seconds ---

*** symbolic link created: INPORB -> ozone_122.50.GssOrb
--- Start Module: scf at Tue Apr 29 14:46:24 2025 ---
 
()()()()()()()()()()()()()()()()()()()()()()()()()()()()()()()()()()()()()()()()()()()()()()()()()()

                                                &SCF

                                   only a single process is used
                       available to each process: 62 GB of memory, 1 thread?
()()()()()()()()()()()()()()()()()()()()()()()()()()()()()()()()()()()()()()()()()()()()()()()()()()
 
++    Input section:
      --------------
 
      Header of the integral files:
      
       Integrals generated by seward 4.2.0  , Tue Apr 29 14:46:09 2025
 
 
      Cartesian coordinates in Angstrom:
      -----------------------------------------------------
      No.  Label        X            Y            Z        
      -----------------------------------------------------
       1   O1         0.61470400   1.12045700   0.00000000
       2   O2         0.00000000   0.00000000   0.00000000
       3   O3         0.61470400  -1.12045700   0.00000000
      -----------------------------------------------------
      Nuclear repulsion energy =   68.11370201
--
 
++    Orbital specifications:
      -----------------------
 
      Symmetry species               1
                                     a
      Frozen orbitals                0
      Occupied orbitals             12
      Secondary orbitals            78
      Deleted orbitals               0
      Total number of orbitals      90
      Number of basis functions     90
--
 
      Molecular charge                           0.000
 
++    Optimization specifications:
      ----------------------------
 
      SCF Algorithm: Conventional
      Minimized density differences are used
      Number of density matrices in core                5
      Maximum number of NDDO SCF iterations           400
      Maximum number of HF SCF iterations             400
      Threshold for SCF energy change            0.10E-08
      Threshold for density matrix               0.10E-03
      Threshold for Fock matrix                  0.15E-03
      Threshold for linear dependence            0.10E-08
      Threshold at which DIIS is turned on       0.15E+00
      Threshold at which QNR/C2DIIS is turned on 0.75E-01
      Threshold for Norm(delta) (QNR/C2DIIS)     0.20E-04
      DIIS extrapolation of the SCF procedure
      All orbitals punched on: SCFORB
--
 
      Input vectors read from INPORB
      Orbital file label: * SCF orbitals
 
 
++ Convergence information
                                   SCF        iterations: Energy and convergence statistics
 
Iter     Tot. SCF        One-elec.       Two-elec.     Energy      Max Dij or  Max Fij      DNorm      TNorm      AccCon     Time
         Energy          Energy          Energy        Change      Delta Norm                                                in Sec.
   1  -224.511840578  -443.866240576   151.240697983   0.00E+00    0.11E-02*   0.54E-03*    0.75E+01   0.11E+03   None         0.
   2  -224.511845870  -443.865873779   151.240325894  -0.53E-05*   0.59E-03*   0.31E-03*    0.70E-02   0.11E+03   EDIIS        0.
   3  -224.511846945  -443.866589325   151.241040364  -0.11E-05*   0.48E-03*   0.30E-03*    0.12E-02   0.11E+03   c2DIIS       0.
   4  -224.511847266  -443.865590674   151.240041392  -0.32E-06*   0.34E-03*   0.16E-03*    0.14E-02   0.11E+03   QNRc2DIIS    0.
   5  -224.511847273  -443.867095020   151.241545732  -0.71E-08*   0.17E-03*   0.17E-03*    0.51E-03   0.11E+03   QNRc2DIIS    0.
   6  -224.511847420  -443.866354430   151.240804995  -0.15E-06*   0.73E-04*   0.15E-04     0.47E-04   0.11E+03   QNRc2DIIS    0.
   7  -224.511847424  -443.866320243   151.240770803  -0.47E-08*   0.18E-05    0.88E-06     0.47E-04   0.11E+03   QNRc2DIIS    0.
   8  -224.511847424  -443.866329917   151.240780478  -0.12E-10    0.20E-05    0.66E-06     0.33E-03   0.11E+03   QNRc2DIIS    0.
 
       Convergence after  8 Macro Iterations
--
 
 *****************************************************************************************************************************
 *                                                                                                                           *
 *                                             SCF/KS-DFT Program, Final results                                             *
 *                                                                                                                           *
 *                                                                                                                           *
 *                                                                                                                           *
 *                                                       Final Results                                                       *
 *                                                                                                                           *
 *****************************************************************************************************************************
 
::    Total SCF energy                               -224.5118474244
      One-electron energy                            -443.8663299172
      Two-electron energy                             151.2407804778
      Nuclear repulsion energy                         68.1137020149
      Kinetic energy (interpolated)                   225.0318878393
      Virial theorem                                    0.9976890368
      Total spin, S(S+1)                                0.0000000000
      Total spin, S                                     0.0000000000
      Max non-diagonal density matrix element           0.0000026318
      Max non-diagonal Fock matrix element              0.0000002967
 
 
      All orbitals with orbital energies smaller than  E(LUMO)+0.5 are printed
 
++    Molecular orbitals:
      -------------------
 
      Title: SCF orbitals

      Molecular orbitals for symmetry species 1: a  
 
          Orbital            1         2         3         4         5         6         7         8         9        10    
          Energy          -20.9317  -20.7295  -20.7295   -1.7442   -1.4400   -1.0929   -0.8319   -0.8022   -0.7784   -0.5740
          Occ. No.          2.0000    2.0000    2.0000    2.0000    2.0000    2.0000    2.0000    2.0000    2.0000    2.0000
 
        1 O1     1s         0.0023   -0.7181    0.6944   -0.0133    0.0119    0.0102   -0.0115   -0.0230   -0.0000    0.0067
        2 O1     2s         0.0034    0.0052   -0.0053    0.3361   -0.5702    0.5991   -0.2477   -0.4288   -0.0000    0.0578
        3 O1     3s         0.0020    0.0037   -0.0037   -0.0095    0.0193    0.0173   -0.0227   -0.0513    0.0000    0.0176
        4 O1     4s         0.0003    0.0008   -0.0007   -0.0006    0.0041    0.0028   -0.0045   -0.0109    0.0000    0.0041
        5 O1     2px       -0.0009   -0.0013    0.0012   -0.0496    0.0601    0.1024    0.1676   -0.3189   -0.0000   -0.5515
        6 O1     3px       -0.0006   -0.0014    0.0011    0.0120   -0.0083   -0.0171   -0.0083    0.0289   -0.0000   -0.0106
        7 O1     4px        0.0000    0.0006   -0.0007    0.0024   -0.0000    0.0008   -0.0003    0.0019   -0.0000    0.0037
        8 O1     2py       -0.0020   -0.0021    0.0023   -0.1104    0.0709    0.0955   -0.3357   -0.2709   -0.0000    0.4685
        9 O1     3py       -0.0012   -0.0022    0.0023    0.0146   -0.0151   -0.0161    0.0331    0.0381   -0.0000   -0.0038
       10 O1     4py        0.0005    0.0014   -0.0014    0.0010   -0.0036    0.0011    0.0038    0.0032    0.0000   -0.0033
       11 O1     2pz        0.0000    0.0000    0.0000   -0.0000    0.0000    0.0000    0.0000   -0.0000    0.3773    0.0000
       12 O1     3pz       -0.0000   -0.0000    0.0000    0.0000   -0.0000   -0.0000   -0.0000    0.0000   -0.0181   -0.0000
       13 O1     4pz       -0.0000    0.0000    0.0000   -0.0000   -0.0000    0.0000   -0.0000    0.0000   -0.0068    0.0000
       14 O1     3d2-       0.0003    0.0010   -0.0010    0.0157   -0.0146   -0.0120    0.0031    0.0275    0.0000    0.0001
       15 O1     4d2-       0.0001    0.0005   -0.0005    0.0017   -0.0018   -0.0008    0.0006    0.0024    0.0000    0.0007
       16 O1     3d1-      -0.0000   -0.0000   -0.0000   -0.0000   -0.0000   -0.0000   -0.0000    0.0000   -0.0279    0.0000
       17 O1     4d1-       0.0000   -0.0000   -0.0000   -0.0000   -0.0000   -0.0000   -0.0000    0.0000   -0.0042    0.0000
       18 O1     3d0       -0.0003   -0.0005    0.0005   -0.0104    0.0091    0.0040   -0.0090   -0.0146   -0.0000    0.0046
       19 O1     4d0       -0.0002   -0.0004    0.0004   -0.0003    0.0010   -0.0001   -0.0005   -0.0009   -0.0000    0.0004
       20 O1     3d1+      -0.0000   -0.0000   -0.0000    0.0000    0.0000   -0.0000   -0.0000    0.0000   -0.0158   -0.0000
       21 O1     4d1+       0.0000    0.0000    0.0000   -0.0000   -0.0000    0.0000    0.0000    0.0000   -0.0031    0.0000
       22 O1     3d2+      -0.0005   -0.0007    0.0007   -0.0131    0.0064    0.0031   -0.0258   -0.0088   -0.0000    0.0182
       23 O1     4d2+      -0.0003   -0.0003    0.0003   -0.0016    0.0009    0.0007   -0.0023   -0.0004   -0.0000    0.0030
       24 O1     4f3-       0.0001    0.0000   -0.0000    0.0014    0.0004    0.0014    0.0068   -0.0018   -0.0000   -0.0055
       25 O1     4f2-       0.0000    0.0000    0.0000    0.0000    0.0000   -0.0000   -0.0000   -0.0000    0.0058    0.0000
       26 O1     4f1-       0.0000    0.0002   -0.0001    0.0031   -0.0027   -0.0008    0.0022    0.0032    0.0000   -0.0008
       27 O1     4f0       -0.0000    0.0000    0.0000    0.0000    0.0000   -0.0000   -0.0000    0.0000   -0.0038    0.0000
       28 O1     4f1+       0.0000    0.0001   -0.0001    0.0015   -0.0016   -0.0008    0.0005    0.0018    0.0000   -0.0012
       29 O1     4f2+      -0.0000    0.0000    0.0000   -0.0000    0.0000   -0.0000   -0.0000    0.0000   -0.0041   -0.0000
       30 O1     4f3+       0.0000    0.0002   -0.0002    0.0056   -0.0053   -0.0025    0.0029    0.0068    0.0000   -0.0017
       31 O2     1s         0.9990    0.0000   -0.0008   -0.0274   -0.0000   -0.0169   -0.0080   -0.0000   -0.0000   -0.0000
       32 O2     2s        -0.0068   -0.0002    0.0110    0.6190    0.0000   -0.6643   -0.0855   -0.0000    0.0000   -0.0000
       33 O2     3s        -0.0048   -0.0001    0.0063   -0.0683   -0.0000   -0.0152   -0.0140   -0.0000   -0.0000   -0.0000
       34 O2     4s        -0.0011   -0.0000    0.0010   -0.0122   -0.0000   -0.0040   -0.0042    0.0000   -0.0000   -0.0000
       35 O2     2px       -0.0014   -0.0001    0.0035    0.0979    0.0000    0.2324    0.6672   -0.0000   -0.0000    0.0000
       36 O2     3px       -0.0021   -0.0000    0.0022   -0.0382   -0.0000   -0.0317   -0.0699    0.0000   -0.0000   -0.0000
       37 O2     4px        0.0017    0.0000   -0.0007   -0.0027   -0.0000    0.0011   -0.0091    0.0000    0.0000    0.0000
       38 O2     2py       -0.0000   -0.0058   -0.0001    0.0000   -0.3309   -0.0000    0.0000    0.5567    0.0000   -0.1447
       39 O2     3py       -0.0000   -0.0036   -0.0001   -0.0000    0.0631    0.0000   -0.0000   -0.0571   -0.0000   -0.0084
       40 O2     4py        0.0000    0.0012    0.0000   -0.0000   -0.0018    0.0000   -0.0000   -0.0091    0.0000   -0.0008
       41 O2     2pz       -0.0000   -0.0000    0.0000   -0.0000   -0.0000    0.0000    0.0000   -0.0000    0.6845   -0.0000
       42 O2     3pz        0.0000    0.0000    0.0000   -0.0000   -0.0000    0.0000    0.0000    0.0000   -0.0465    0.0000
       43 O2     4pz        0.0000    0.0000    0.0000    0.0000   -0.0000    0.0000    0.0000    0.0000   -0.0162    0.0000
       44 O2     3d2-      -0.0000   -0.0014   -0.0000    0.0000   -0.0397   -0.0000    0.0000    0.0282    0.0000   -0.0419
       45 O2     4d2-      -0.0000   -0.0007   -0.0000    0.0000   -0.0044   -0.0000    0.0000    0.0026   -0.0000   -0.0074
       46 O2     3d1-      -0.0000   -0.0000   -0.0000   -0.0000   -0.0000    0.0000    0.0000   -0.0000    0.0000    0.0000
       47 O2     4d1-      -0.0000   -0.0000   -0.0000   -0.0000   -0.0000    0.0000   -0.0000   -0.0000    0.0000    0.0000
       48 O2     3d0        0.0005    0.0000   -0.0010   -0.0151   -0.0000   -0.0064   -0.0145    0.0000    0.0000   -0.0000
       49 O2     4d0        0.0006    0.0000   -0.0006    0.0009    0.0000   -0.0004   -0.0008    0.0000    0.0000   -0.0000
       50 O2     3d1+      -0.0000   -0.0000   -0.0000   -0.0000   -0.0000    0.0000    0.0000   -0.0000    0.0311   -0.0000
       51 O2     4d1+       0.0000   -0.0000   -0.0000   -0.0000   -0.0000    0.0000    0.0000   -0.0000    0.0046   -0.0000
       52 O2     3d2+       0.0004    0.0000   -0.0009   -0.0128   -0.0000   -0.0004    0.0201   -0.0000    0.0000   -0.0000
       53 O2     4d2+       0.0002    0.0000   -0.0004   -0.0014    0.0000   -0.0005    0.0020   -0.0000    0.0000   -0.0000
       54 O2     4f3-       0.0000    0.0000    0.0000   -0.0000    0.0015    0.0000   -0.0000   -0.0046   -0.0000   -0.0091
       55 O2     4f2-       0.0000   -0.0000   -0.0000    0.0000    0.0000   -0.0000   -0.0000   -0.0000    0.0000    0.0000
       56 O2     4f1-       0.0000    0.0001    0.0000   -0.0000    0.0051    0.0000   -0.0000   -0.0043   -0.0000    0.0010
       57 O2     4f0       -0.0000    0.0000    0.0000   -0.0000   -0.0000    0.0000   -0.0000    0.0000   -0.0062   -0.0000
       58 O2     4f1+       0.0001    0.0000   -0.0001   -0.0029   -0.0000   -0.0004   -0.0021    0.0000    0.0000    0.0000
       59 O2     4f2+      -0.0000   -0.0000   -0.0000   -0.0000   -0.0000   -0.0000   -0.0000    0.0000   -0.0059    0.0000
       60 O2     4f3+       0.0001    0.0000   -0.0002   -0.0096   -0.0000   -0.0010   -0.0047    0.0000    0.0000   -0.0000
       61 O3     1s         0.0023    0.6944    0.7181   -0.0133   -0.0119    0.0102   -0.0115    0.0230    0.0000   -0.0067
       62 O3     2s         0.0034   -0.0050   -0.0055    0.3361    0.5702    0.5991   -0.2477    0.4288    0.0000   -0.0578
       63 O3     3s         0.0020   -0.0036   -0.0038   -0.0095   -0.0193    0.0173   -0.0227    0.0513    0.0000   -0.0176
       64 O3     4s         0.0003   -0.0008   -0.0007   -0.0006   -0.0041    0.0028   -0.0045    0.0109    0.0000   -0.0041
       65 O3     2px       -0.0009    0.0013    0.0012   -0.0496   -0.0601    0.1024    0.1676    0.3189    0.0000    0.5514
       66 O3     3px       -0.0006    0.0013    0.0011    0.0120    0.0083   -0.0171   -0.0083   -0.0289   -0.0000    0.0106
       67 O3     4px        0.0000   -0.0006   -0.0007    0.0024    0.0000    0.0008   -0.0003   -0.0019    0.0000   -0.0037
       68 O3     2py        0.0020   -0.0020   -0.0024    0.1104    0.0709   -0.0955    0.3357   -0.2709   -0.0000    0.4685
       69 O3     3py        0.0012   -0.0021   -0.0024   -0.0146   -0.0151    0.0161   -0.0331    0.0381    0.0000   -0.0038
       70 O3     4py       -0.0005    0.0013    0.0014   -0.0010   -0.0036   -0.0011   -0.0038    0.0032    0.0000   -0.0033
       71 O3     2pz        0.0000   -0.0000   -0.0000   -0.0000    0.0000    0.0000    0.0000   -0.0000    0.3773   -0.0000
       72 O3     3pz        0.0000   -0.0000   -0.0000   -0.0000    0.0000   -0.0000   -0.0000    0.0000   -0.0181   -0.0000
       73 O3     4pz        0.0000   -0.0000   -0.0000    0.0000    0.0000   -0.0000    0.0000    0.0000   -0.0068   -0.0000
       74 O3     3d2-      -0.0003    0.0010    0.0010   -0.0157   -0.0146    0.0120   -0.0031    0.0275    0.0000    0.0001
       75 O3     4d2-      -0.0001    0.0005    0.0005   -0.0017   -0.0018    0.0008   -0.0006    0.0024    0.0000    0.0007
       76 O3     3d1-       0.0000   -0.0000   -0.0000   -0.0000    0.0000    0.0000   -0.0000   -0.0000    0.0279   -0.0000
       77 O3     4d1-       0.0000    0.0000   -0.0000   -0.0000   -0.0000   -0.0000   -0.0000   -0.0000    0.0042   -0.0000
       78 O3     3d0       -0.0003    0.0005    0.0005   -0.0104   -0.0091    0.0040   -0.0090    0.0146    0.0000   -0.0046
       79 O3     4d0       -0.0002    0.0004    0.0004   -0.0003   -0.0010   -0.0001   -0.0005    0.0009    0.0000   -0.0004
       80 O3     3d1+       0.0000    0.0000    0.0000   -0.0000   -0.0000    0.0000   -0.0000    0.0000   -0.0158    0.0000
       81 O3     4d1+       0.0000    0.0000    0.0000    0.0000   -0.0000    0.0000   -0.0000    0.0000   -0.0031    0.0000
       82 O3     3d2+      -0.0005    0.0006    0.0007   -0.0131   -0.0064    0.0031   -0.0258    0.0088    0.0000   -0.0182
       83 O3     4d2+      -0.0003    0.0003    0.0004   -0.0016   -0.0009    0.0007   -0.0023    0.0004    0.0000   -0.0030
       84 O3     4f3-      -0.0001    0.0000    0.0000   -0.0014    0.0004   -0.0014   -0.0068   -0.0018    0.0000   -0.0055
       85 O3     4f2-       0.0000   -0.0000    0.0000    0.0000    0.0000   -0.0000   -0.0000    0.0000   -0.0058    0.0000
       86 O3     4f1-      -0.0000    0.0001    0.0001   -0.0031   -0.0027    0.0008   -0.0022    0.0032    0.0000   -0.0008
       87 O3     4f0       -0.0000   -0.0000    0.0000    0.0000    0.0000    0.0000   -0.0000    0.0000   -0.0038    0.0000
       88 O3     4f1+       0.0000   -0.0001   -0.0001    0.0015    0.0016   -0.0008    0.0005   -0.0018   -0.0000    0.0012
       89 O3     4f2+      -0.0000   -0.0000   -0.0000    0.0000    0.0000   -0.0000   -0.0000    0.0000   -0.0041    0.0000
       90 O3     4f3+       0.0000   -0.0002   -0.0002    0.0056    0.0053   -0.0025    0.0029   -0.0068   -0.0000    0.0017
 
          Orbital           11        12        13        14        15        16        17        18        19        20    
          Energy           -0.5457   -0.4923   -0.0476    0.1751    0.1811    0.2363    0.2682    0.3465    0.3733    0.3820
          Occ. No.          2.0000    2.0000    0.0000    0.0000    0.0000    0.0000    0.0000    0.0000    0.0000    0.0000
 
        1 O1     1s         0.0049    0.0000   -0.0000   -0.1955   -0.1362    0.0000   -0.0035   -0.0195    0.0746   -0.0000
        2 O1     2s         0.0304    0.0000   -0.0000   -1.4432   -1.0067    0.0000    0.0730   -0.0410    0.4095   -0.0000
        3 O1     3s         0.0173    0.0000   -0.0000   -0.8375   -0.5708    0.0000   -0.0944   -0.0368    0.5865   -0.0000
        4 O1     4s         0.0048    0.0000   -0.0000   -0.1888   -0.1204    0.0000   -0.0338   -0.0027    0.1685   -0.0000
        5 O1     2px        0.6526   -0.0000   -0.0000    0.4559    0.2310   -0.0000   -0.1916   -0.2455    0.0697   -0.0000
        6 O1     3px        0.0079   -0.0000    0.0000    0.4163    0.3277   -0.0000    0.2135   -0.7545    0.3746   -0.0000
        7 O1     4px       -0.0050    0.0000   -0.0000    0.0405    0.0760   -0.0000    0.1271   -0.2992    0.1725   -0.0000
        8 O1     2py       -0.0932    0.0000   -0.0000    0.5390    0.8176   -0.0000   -0.4372   -0.2838   -0.0644    0.0000
        9 O1     3py       -0.0153    0.0000   -0.0000    0.7009    0.6805   -0.0000   -0.3582   -0.1826   -0.6170   -0.0000
       10 O1     4py       -0.0006    0.0000   -0.0000    0.1134    0.0709    0.0000   -0.1330   -0.0371   -0.1392   -0.0000
       11 O1     2pz        0.0000   -0.7050    0.6669   -0.0000    0.0000   -0.1568    0.0000    0.0000   -0.0000   -0.1734
       12 O1     3pz       -0.0000   -0.0345    0.1645    0.0000    0.0000    0.3174   -0.0000    0.0000   -0.0000   -0.9305
       13 O1     4pz       -0.0000    0.0066    0.0255    0.0000    0.0000    0.1885   -0.0000    0.0000   -0.0000   -0.3734
       14 O1     3d2-      -0.0128   -0.0000    0.0000   -0.0777   -0.0487    0.0000   -0.0053   -0.0014    0.0273    0.0000
       15 O1     4d2-      -0.0013    0.0000    0.0000   -0.0495   -0.0328    0.0000    0.0003    0.0143    0.0144    0.0000
       16 O1     3d1-      -0.0000    0.0225    0.0081    0.0000   -0.0000    0.0144    0.0000   -0.0000    0.0000    0.0016
       17 O1     4d1-      -0.0000    0.0056    0.0001    0.0000   -0.0000    0.0056    0.0000   -0.0000    0.0000    0.0096
       18 O1     3d0        0.0053    0.0000    0.0000    0.0530    0.0447   -0.0000    0.0151   -0.0057   -0.0334   -0.0000
       19 O1     4d0        0.0003    0.0000    0.0000    0.0345    0.0293   -0.0000    0.0056   -0.0107   -0.0161   -0.0000
       20 O1     3d1+       0.0000    0.0122    0.0053   -0.0000   -0.0000    0.0041    0.0000   -0.0000    0.0000    0.0155
       21 O1     4d1+      -0.0000    0.0029   -0.0000    0.0000   -0.0000   -0.0002    0.0000    0.0000   -0.0000    0.0134
       22 O1     3d2+       0.0013    0.0000   -0.0000    0.0454    0.0516   -0.0000    0.0366    0.0013   -0.0963   -0.0000
       23 O1     4d2+      -0.0010    0.0000    0.0000    0.0267    0.0365   -0.0000    0.0123   -0.0007   -0.0576   -0.0000
       24 O1     4f3-       0.0021   -0.0000    0.0000   -0.0018   -0.0006   -0.0000    0.0021   -0.0041    0.0112   -0.0000
       25 O1     4f2-       0.0000   -0.0044    0.0001    0.0000    0.0000    0.0021    0.0000   -0.0000   -0.0000   -0.0055
       26 O1     4f1-      -0.0015   -0.0000    0.0000   -0.0059   -0.0044    0.0000    0.0001    0.0052    0.0060    0.0000
       27 O1     4f0       -0.0000    0.0015    0.0015   -0.0000   -0.0000   -0.0015   -0.0000   -0.0000   -0.0000    0.0060
       28 O1     4f1+       0.0002   -0.0000    0.0000   -0.0020   -0.0029    0.0000   -0.0004    0.0049    0.0012    0.0000
       29 O1     4f2+       0.0000    0.0029   -0.0006    0.0000   -0.0000   -0.0007   -0.0000   -0.0000    0.0000    0.0023
       30 O1     4f3+      -0.0031   -0.0000    0.0000   -0.0091   -0.0050    0.0000    0.0027    0.0089    0.0060    0.0000
       31 O2     1s         0.0207    0.0000   -0.0000    0.0000    0.3156   -0.0000   -0.0598    0.0000   -0.1598   -0.0000
       32 O2     2s         0.2519    0.0000   -0.0000    0.0000    2.2933   -0.0000   -0.5477    0.0000   -0.9287   -0.0000
       33 O2     3s         0.0498    0.0000   -0.0000    0.0000    1.2565   -0.0000   -0.1183    0.0000   -0.6116   -0.0000
       34 O2     4s         0.0124    0.0000   -0.0000    0.0000    0.2679   -0.0000   -0.0256    0.0000   -0.0928   -0.0000
       35 O2     2px       -0.4953   -0.0000    0.0000    0.0000    0.7793   -0.0000   -0.3630    0.0000   -0.3485    0.0000
       36 O2     3px       -0.0045    0.0000    0.0000    0.0000    0.8245   -0.0000    0.2229    0.0000   -1.0649    0.0000
       37 O2     4px       -0.0015   -0.0000    0.0000    0.0000    0.1365   -0.0000    0.1371    0.0000   -0.2015    0.0000
       38 O2     2py       -0.0000   -0.0000    0.0000    1.3694   -0.0000   -0.0000    0.0000   -0.1378    0.0000    0.0000
       39 O2     3py       -0.0000   -0.0000    0.0000    1.3325   -0.0000   -0.0000    0.0000    0.4733    0.0000    0.0000
       40 O2     4py       -0.0000   -0.0000    0.0000    0.1367   -0.0000   -0.0000    0.0000    0.2239    0.0000    0.0000
       41 O2     2pz       -0.0000    0.0000   -0.8608   -0.0000   -0.0000    0.0191   -0.0000   -0.0000    0.0000    0.0000
       42 O2     3pz       -0.0000   -0.0000   -0.1851    0.0000    0.0000    0.3825   -0.0000   -0.0000    0.0000    0.0000
       43 O2     4pz        0.0000   -0.0000   -0.0214    0.0000    0.0000    0.2045    0.0000   -0.0000    0.0000    0.0000
       44 O2     3d2-      -0.0000   -0.0000    0.0000    0.1385   -0.0000   -0.0000    0.0000    0.0855    0.0000    0.0000
       45 O2     4d2-      -0.0000   -0.0000    0.0000    0.0859   -0.0000   -0.0000    0.0000    0.0636    0.0000    0.0000
       46 O2     3d1-       0.0000   -0.0585   -0.0000   -0.0000   -0.0000   -0.0000    0.0000    0.0000   -0.0000    0.0970
       47 O2     4d1-       0.0000   -0.0138   -0.0000   -0.0000   -0.0000   -0.0000    0.0000    0.0000   -0.0000    0.0582
       48 O2     3d0        0.0185   -0.0000    0.0000   -0.0000   -0.0749    0.0000   -0.0554   -0.0000    0.1587    0.0000
       49 O2     4d0        0.0022   -0.0000    0.0000   -0.0000   -0.0496    0.0000   -0.0278   -0.0000    0.0841    0.0000
       50 O2     3d1+       0.0000    0.0000    0.0056   -0.0000   -0.0000   -0.0276   -0.0000    0.0000    0.0000    0.0000
       51 O2     4d1+       0.0000    0.0000    0.0013   -0.0000   -0.0000   -0.0109   -0.0000    0.0000    0.0000    0.0000
       52 O2     3d2+       0.0401    0.0000    0.0000   -0.0000   -0.0512    0.0000   -0.0798   -0.0000    0.0313    0.0000
       53 O2     4d2+       0.0085   -0.0000    0.0000   -0.0000   -0.0283    0.0000   -0.0328   -0.0000   -0.0066    0.0000
       54 O2     4f3-      -0.0000   -0.0000    0.0000   -0.0061    0.0000    0.0000   -0.0000    0.0032    0.0000   -0.0000
       55 O2     4f2-       0.0000   -0.0083   -0.0000   -0.0000   -0.0000   -0.0000    0.0000   -0.0000   -0.0000    0.0073
       56 O2     4f1-       0.0000    0.0000   -0.0000   -0.0084    0.0000    0.0000   -0.0000   -0.0119   -0.0000   -0.0000
       57 O2     4f0        0.0000   -0.0000   -0.0020   -0.0000    0.0000   -0.0024    0.0000   -0.0000   -0.0000   -0.0000
       58 O2     4f1+      -0.0004   -0.0000   -0.0000   -0.0000   -0.0060    0.0000   -0.0053   -0.0000    0.0125   -0.0000
       59 O2     4f2+      -0.0000   -0.0000    0.0009   -0.0000   -0.0000   -0.0017   -0.0000    0.0000   -0.0000   -0.0000
       60 O2     4f3+       0.0057    0.0000   -0.0000   -0.0000   -0.0115    0.0000   -0.0080   -0.0000    0.0164    0.0000
       61 O3     1s         0.0049   -0.0000    0.0000    0.1955   -0.1362   -0.0000   -0.0035    0.0195    0.0746    0.0000
       62 O3     2s         0.0304   -0.0000    0.0000    1.4432   -1.0068   -0.0000    0.0730    0.0410    0.4095    0.0000
       63 O3     3s         0.0173   -0.0000    0.0000    0.8375   -0.5708   -0.0000   -0.0944    0.0368    0.5865    0.0000
       64 O3     4s         0.0048   -0.0000    0.0000    0.1888   -0.1204   -0.0000   -0.0338    0.0027    0.1685   -0.0000
       65 O3     2px        0.6526    0.0000   -0.0000   -0.4559    0.2310    0.0000   -0.1916    0.2455    0.0697   -0.0000
       66 O3     3px        0.0079    0.0000   -0.0000   -0.4163    0.3277   -0.0000    0.2135    0.7545    0.3746   -0.0000
       67 O3     4px       -0.0050   -0.0000   -0.0000   -0.0405    0.0760   -0.0000    0.1271    0.2992    0.1725   -0.0000
       68 O3     2py        0.0933    0.0000   -0.0000    0.5390   -0.8176   -0.0000    0.4372   -0.2838    0.0644   -0.0000
       69 O3     3py        0.0153   -0.0000    0.0000    0.7009   -0.6805   -0.0000    0.3582   -0.1826    0.6170    0.0000
       70 O3     4py        0.0006   -0.0000    0.0000    0.1134   -0.0709   -0.0000    0.1330   -0.0371    0.1392    0.0000
       71 O3     2pz       -0.0000    0.7050    0.6669   -0.0000   -0.0000   -0.1568    0.0000    0.0000   -0.0000    0.1734
       72 O3     3pz        0.0000    0.0345    0.1645    0.0000    0.0000    0.3174    0.0000    0.0000   -0.0000    0.9305
       73 O3     4pz        0.0000   -0.0066    0.0255    0.0000    0.0000    0.1885    0.0000    0.0000   -0.0000    0.3734
       74 O3     3d2-       0.0128    0.0000   -0.0000   -0.0777    0.0487    0.0000    0.0053   -0.0014   -0.0273   -0.0000
       75 O3     4d2-       0.0013    0.0000   -0.0000   -0.0495    0.0328    0.0000   -0.0003    0.0143   -0.0144   -0.0000
       76 O3     3d1-       0.0000    0.0225   -0.0081   -0.0000   -0.0000   -0.0144    0.0000    0.0000   -0.0000    0.0016
       77 O3     4d1-       0.0000    0.0056   -0.0001   -0.0000   -0.0000   -0.0056    0.0000    0.0000   -0.0000    0.0096
       78 O3     3d0        0.0053   -0.0000    0.0000   -0.0530    0.0447    0.0000    0.0151    0.0057   -0.0334   -0.0000
       79 O3     4d0        0.0003   -0.0000    0.0000   -0.0345    0.0293    0.0000    0.0056    0.0107   -0.0161   -0.0000
       80 O3     3d1+       0.0000   -0.0122    0.0053    0.0000    0.0000    0.0041   -0.0000    0.0000    0.0000   -0.0155
       81 O3     4d1+       0.0000   -0.0029   -0.0000    0.0000    0.0000   -0.0002   -0.0000    0.0000    0.0000   -0.0134
       82 O3     3d2+       0.0013    0.0000   -0.0000   -0.0454    0.0516    0.0000    0.0366   -0.0013   -0.0963   -0.0000
       83 O3     4d2+      -0.0010    0.0000   -0.0000   -0.0267    0.0365    0.0000    0.0123    0.0007   -0.0576   -0.0000
       84 O3     4f3-      -0.0021   -0.0000    0.0000   -0.0018    0.0006    0.0000   -0.0021   -0.0041   -0.0112    0.0000
       85 O3     4f2-       0.0000   -0.0044   -0.0001   -0.0000    0.0000   -0.0021   -0.0000    0.0000    0.0000   -0.0055
       86 O3     4f1-       0.0015   -0.0000   -0.0000   -0.0059    0.0044    0.0000   -0.0001    0.0052   -0.0060   -0.0000
       87 O3     4f0        0.0000   -0.0015    0.0015   -0.0000   -0.0000   -0.0015   -0.0000    0.0000    0.0000   -0.0060
       88 O3     4f1+       0.0002   -0.0000    0.0000    0.0020   -0.0029   -0.0000   -0.0004   -0.0049    0.0012    0.0000
       89 O3     4f2+      -0.0000   -0.0029   -0.0006   -0.0000   -0.0000   -0.0007   -0.0000    0.0000    0.0000   -0.0023
       90 O3     4f3+      -0.0031   -0.0000    0.0000    0.0091   -0.0050   -0.0000    0.0027   -0.0089    0.0060    0.0000
 
          Orbital           21    
          Energy            0.4187
          Occ. No.          0.0000
 
        1 O1     1s        -0.0061
        2 O1     2s        -0.0187
        3 O1     3s         0.1114
        4 O1     4s         0.0703
        5 O1     2px        0.2966
        6 O1     3px        0.6982
        7 O1     4px        0.1828
        8 O1     2py       -0.0753
        9 O1     3py        0.5842
       10 O1     4py        0.2012
       11 O1     2pz        0.0000
       12 O1     3pz       -0.0000
       13 O1     4pz       -0.0000
       14 O1     3d2-      -0.1226
       15 O1     4d2-      -0.0835
       16 O1     3d1-       0.0000
       17 O1     4d1-       0.0000
       18 O1     3d0        0.0365
       19 O1     4d0        0.0254
       20 O1     3d1+       0.0000
       21 O1     4d1+       0.0000
       22 O1     3d2+       0.0350
       23 O1     4d2+       0.0189
       24 O1     4f3-       0.0036
       25 O1     4f2-      -0.0000
       26 O1     4f1-      -0.0070
       27 O1     4f0        0.0000
       28 O1     4f1+      -0.0057
       29 O1     4f2+       0.0000
       30 O1     4f3+      -0.0151
       31 O2     1s         0.1379
       32 O2     2s         0.7150
       33 O2     3s         0.8024
       34 O2     4s         0.2041
       35 O2     2px       -0.5515
       36 O2     3px       -0.9475
       37 O2     4px       -0.3425
       38 O2     2py       -0.0000
       39 O2     3py       -0.0000
       40 O2     4py       -0.0000
       41 O2     2pz       -0.0000
       42 O2     3pz       -0.0000
       43 O2     4pz       -0.0000
       44 O2     3d2-       0.0000
       45 O2     4d2-       0.0000
       46 O2     3d1-       0.0000
       47 O2     4d1-       0.0000
       48 O2     3d0       -0.0716
       49 O2     4d0       -0.0192
       50 O2     3d1+      -0.0000
       51 O2     4d1+      -0.0000
       52 O2     3d2+      -0.0902
       53 O2     4d2+      -0.0413
       54 O2     4f3-       0.0000
       55 O2     4f2-       0.0000
       56 O2     4f1-      -0.0000
       57 O2     4f0        0.0000
       58 O2     4f1+       0.0040
       59 O2     4f2+       0.0000
       60 O2     4f3+       0.0017
       61 O3     1s        -0.0061
       62 O3     2s        -0.0187
       63 O3     3s         0.1114
       64 O3     4s         0.0703
       65 O3     2px        0.2966
       66 O3     3px        0.6982
       67 O3     4px        0.1828
       68 O3     2py        0.0753
       69 O3     3py       -0.5842
       70 O3     4py       -0.2012
       71 O3     2pz        0.0000
       72 O3     3pz        0.0000
       73 O3     4pz        0.0000
       74 O3     3d2-       0.1226
       75 O3     4d2-       0.0835
       76 O3     3d1-       0.0000
       77 O3     4d1-       0.0000
       78 O3     3d0        0.0365
       79 O3     4d0        0.0254
       80 O3     3d1+      -0.0000
       81 O3     4d1+      -0.0000
       82 O3     3d2+       0.0350
       83 O3     4d2+       0.0189
       84 O3     4f3-      -0.0036
       85 O3     4f2-      -0.0000
       86 O3     4f1-       0.0070
       87 O3     4f0       -0.0000
       88 O3     4f1+      -0.0057
       89 O3     4f2+      -0.0000
       90 O3     4f3+      -0.0151
--
 
 
++    Molecular charges:
      ------------------
 
      Mulliken charges per centre and basis function type
      ---------------------------------------------------
 
                O1      O2      O3    
      1s       1.9979  1.9981  1.9979
      2s       1.9449  1.7105  1.9449
      2px      1.7533  1.5460  1.7533
      2pz      1.3711  1.1734  1.3711
      2py      1.0740  1.0450  1.0740
      3s      -0.0013 -0.0236 -0.0013
      3px     -0.0116 -0.0161 -0.0116
      3pz     -0.0107 -0.0137 -0.0107
      3py      0.0040  0.0025  0.0040
      4s       0.0045  0.0023  0.0045
      3d2+     0.0125  0.0384  0.0125
      3d1+     0.0037  0.0084  0.0037
      3d0      0.0056  0.0075  0.0056
      3d1-     0.0114  0.0468  0.0114
      3d2-     0.0157  0.0417  0.0157
      4px      0.0007  0.0017  0.0007
      4pz      0.0013  0.0017  0.0013
      4py      0.0026  0.0031  0.0026
      4d2+     0.0005  0.0072  0.0005
      4d1+     0.0007  0.0011  0.0007
      4d0     -0.0001 -0.0002 -0.0001
      4d1-     0.0012  0.0120  0.0012
      4d2-     0.0005  0.0045  0.0005
      4f3+     0.0028  0.0030  0.0028
      4f2+     0.0006  0.0011  0.0006
      4f1+     0.0003  0.0005  0.0003
      4f0      0.0009  0.0016  0.0009
      4f1-     0.0009  0.0012  0.0009
      4f2-     0.0015  0.0040  0.0015
      4f3-     0.0021  0.0070  0.0021
      Total    8.1917  7.6166  8.1917
 
      N-E     -0.1917  0.3834 -0.1917
 
      Total electronic charge=   24.000000
 
      Total            charge=   -0.000000
--
 
 
  Input file to MOLDEN was generated!
 
 
++    Static properties:
      ------------------
 
 
      LoProp Charges per center
 

                   O1       O2       O3    
      Nuclear      8.0000   8.0000   8.0000
      Electronic  -8.2073  -7.5854  -8.2073
 
      Total       -0.2073   0.4146  -0.2073
--
 
 
++    Natural Bond Order analysis
      ---------------------------
      Based on LoProp computed density
      -------------------------------------------------------------------------------------
      Atom A       Atom B       Bond Order | Atom A       Atom B       Bond Order
        O1           O2             1.997  |   O2           O3             1.997
      -------------------------------------------------------------------------------------
      NBO located     11.998 core electrons.
      NBO located      3.936 lone pair electrons.
      NBO located      7.988 electrons involved in    2 bonds.
      The remaining    0.077 electrons are to be considered as diffuse
--
 
 
++    Molecular properties:
      ---------------------
 
      Charge (e):
                      =   -0.0000
      Dipole Moment (Debye):
      Origin of the operator (Ang)=    0.0000    0.0000    0.0000
                   X= -6.9597E-01               Y= -6.5089E-06               Z= -4.7561E-14           Total=  6.9597E-01
      Quadrupole Moment (Debye*Ang):
      Origin of the operator (Ang)=    0.4098    0.0000    0.0000
                  XX= -1.5897E+01              XY= -1.4551E-06              XZ= -1.0759E-13              YY= -1.7261E+01
                  YZ= -1.2968E-13              ZZ= -1.4908E+01
      In traceless form (Debye*Ang)
                  XX=  1.8730E-01              XY= -2.1826E-06              XZ= -1.6138E-13              YY= -1.8581E+00
                  YZ= -1.9453E-13              ZZ=  1.6708E+00
--
 
 
  Input file to MOLDEN was generated!
 
 ###############################################################################
 ###############################################################################
 ###                                                                         ###
 ###                                                                         ###
 ###    RunFile label nBas                                                   ###
 ###    was used       78 times                                              ###
 ###                                                                         ###
 ###                                                                         ###
 ###############################################################################
 ###############################################################################
--- Stop Module: scf at Tue Apr 29 14:46:40 2025 /rc=_RC_ALL_IS_WELL_ ---
*** files: ozone_122.50.LprOrb ozone_122.50.LoProp.molden ozone_122.50.scf.molden ozone_122.50.ScfOrb ozone_122.50.scf.h5 xmldump
    saved to directory /lustre/isaac/scratch/gjones39/ANO-RCC-VTZP/ozone_122.50
--- Module scf spent 15 seconds ---

>>> COPY /lustre/isaac/scratch/gjones39/ANO-RCC-VTZP/ozone_122.50/3189781/ozone_122.50.scf.h5 /lustre/isaac/scratch/gjones39/ANO-RCC-VTZP/ozone_122.50/

*** symbolic link created: INPORB -> ozone_122.50.ScfOrb
--- Start Module: rasscf at Tue Apr 29 14:46:40 2025 ---
 
()()()()()()()()()()()()()()()()()()()()()()()()()()()()()()()()()()()()()()()()()()()()()()()()()()

                                              &RASSCF

                                   only a single process is used
                       available to each process: 62 GB of memory, 1 thread?
()()()()()()()()()()()()()()()()()()()()()()()()()()()()()()()()()()()()()()()()()()()()()()()()()()
 
 
      Header of the ONEINT file:
      --------------------------
      
      Integrals generated by seward 4.2.0  , Tue Apr 29 14:46:09 2025
 
 
      OrdInt status: non-squared
 
 
      Cartesian coordinates in Angstrom:
      -----------------------------------------------------
      No.  Label        X            Y            Z        
      -----------------------------------------------------
       1   O1         0.61470400   1.12045700   0.00000000
       2   O2         0.00000000   0.00000000   0.00000000
       3   O3         0.61470400  -1.12045700   0.00000000
      -----------------------------------------------------
      Nuclear repulsion energy =   68.11370201
 
++    Wave function specifications:
      -----------------------------
 
      Number of closed shell electrons          12
      Number of electrons in active shells      12
      Max number of holes in RAS1 space          0
      Max nr of electrons in RAS3 space          0
      Number of inactive orbitals                6
      Number of active orbitals                  9
      Number of secondary orbitals              75
      Spin quantum number                      0.0
      State symmetry                             1
--
 
++    Orbital specifications:
      -----------------------
 
      Symmetry species                           1
                                                 a
      Frozen orbitals                            0
      Inactive orbitals                          6
      Active orbitals                            9
      RAS1 orbitals                              0
      RAS2 orbitals                              9
      RAS3 orbitals                              0
      Secondary orbitals                        75
      Deleted orbitals                           0
      Number of basis functions                 90
--
 
++    CI expansion specifications:
      ----------------------------
 
      Number of CSFs                          2520
      Number of determinants                  3570
      Number of root(s) required                 3
      Root chosen for geometry opt.              3
      CI roots used                              1     2     3
      weights                                0.333 0.333 0.333
      highest root included in the CI            3
      max. size of the explicit Hamiltonian    500
--
 
++    Optimization specifications:
      ----------------------------
 
      RASSCF algorithm: Conventional
      Maximum number of macro iterations       200
      Maximum number of SX iterations          100
      Threshold for RASSCF energy            0.100E-07
      Threshold for max MO rotation          0.100E+00
      Threshold for max BLB element          0.100E-03
      Level shift parameter                  0.500E+00
      Make Quasi-Newton update
--
 
      The MO-coefficients are taken from the file:
      /lustre/isaac/scratch/gjones39/ANO-RCC-VTZP/ozone_122.25/ozone_122.25.RasOrb                                                    
      Title: RASSCF average (pseudo-natural) orbitals                                      
 
      Total molecular charge    0.00
 
      ************************************************************************************************************************
      *                                                                                                                      *
      *                                            Wave function control section                                             *
      *                                                                                                                      *
      ************************************************************************************************************************
 
 
                                         RASSCF iterations: Energy and convergence statistics
                                         ----------------------------------------------------
 
      Iter CI   SX   CI       RASSCF       Energy    max ROT     max BLB   max BLB  Level Ln srch  Step   QN   Walltime
          iter iter root      energy       change     param      element    value   shift minimum  type update hh:mm:ss
 Nr of preliminary CI iterations:   5
        1   1    6    0  -224.67718479    0.00E+00  -0.42E-03    8  79 1 -0.11E-02*  0.00   0.00    SX    NO    0:00:03
        2   2    6    0  -224.67719471   -0.99E-05* -0.15E-03    4  14 1  0.20E-03*  0.00   0.00    SX    NO    0:00:01
        3   1    5    0  -224.67719481   -0.10E-06* -0.84E-04    4  14 1  0.47E-04   0.00   0.00    SX    NO    0:00:01
        4   6    5    0  -224.67719752   -0.27E-05* -0.12E-03   12  29 1 -0.16E-03*  0.00   0.00    SX    NO    0:00:01
        5   3    5    0  -224.67719765   -0.13E-06* -0.79E-04    6  22 1  0.79E-04   0.00   1.22    QN   YES    0:00:01
        6   4    5    0  -224.67719768   -0.29E-07*  0.15E-04   10  65 1  0.19E-04   0.00   0.93    QN   YES    0:00:01
        7   1    5    0  -224.67719768   -0.27E-08   0.39E-04    6  22 1  0.32E-04   0.00   1.23    QN   YES    0:00:01
      Convergence after  7 iterations
 
  Dmat in MO in SXCTL bf call to SXHAM                                                                                    
  mat. size =     9x    9
 
        1.9617953085738478
        0.0000000000000257      1.9513276771344241
       -0.0000000000000008      0.0000000000000000      1.9744825766855807
        0.0006447397129520     -0.0000000000001786      0.0000000000000595      1.6477446118210670
       -0.0000000000003456     -0.0004744595078443     -0.0000000000000616     -0.0000000000000124      1.6664970883801840
       -0.0000000000000027      0.0000000000000113     -0.0000000000006745     -0.0000000000000580      0.0000000000000151
        1.7969730529182275
       -0.0000000000000038     -0.0000000000000208      0.0002637475111783     -0.0000000000000056      0.0000000000000399
       -0.0000000000020596      0.8935152024221734
        0.0011572424998684     -0.0000000000007360      0.0000000000000276      0.0026024169039283     -0.0000000000000942
       -0.0000000000000273      0.0000000000000285      0.0610967521857124
       -0.0000000000003624     -0.0000522477373810      0.0000000000000123     -0.0000000000005177     -0.0020768154983207
        0.0000000000000055     -0.0000000000000110      0.0000000000000055      0.0465677298787850
        8   1    5    0  -224.67719768   -0.54E-09   0.39E-04   10  65 1 -0.17E-04   0.00   1.23    QN   YES    0:00:00
 
      ************************************************************************************************************************
                                                      Wave function printout:
                       occupation of active orbitals, and spin coupling of open shells (u,d: Spin up or down)
      ************************************************************************************************************************
 
      Note: transformation to natural orbitals
      has been made, which may change the order of the CSFs.
 
      printout of CI-coefficients larger than  0.05 for root  1
      energy=    -224.735736
      conf/sym  111111111     Coeff  Weight
             1  222222000  -0.90028 0.81050
             4  222220200   0.31253 0.09768
            10  2222udud0   0.05488 0.00301
            12  2222uudd0   0.05505 0.00303
            72  222u2du0d  -0.05646 0.00319
            74  222u2ud0d  -0.05659 0.00320
           126  22u222d00  -0.06794 0.00462
           205  2u222dud0   0.06682 0.00447
           207  2u222udd0   0.06085 0.00370
           551  220222200   0.07251 0.00526
           611  2ud222u0d   0.06412 0.00411
           652  u2d222ud0  -0.06196 0.00384
           731  202222002   0.06259 0.00392
           764  ud22220ud  -0.07207 0.00519
           805  022222020   0.06601 0.00436
           992  2uu222d0d   0.06635 0.00440
          1031  u2u222dd0  -0.05517 0.00304
 
      printout of CI-coefficients larger than  0.05 for root  2
      energy=    -224.649237
      conf/sym  111111111     Coeff  Weight
             5  2222ud200  -0.39347 0.15482
            11  222202ud0  -0.05061 0.00256
            51  222u22d00   0.87847 0.77171
           202  2u222d200   0.06789 0.00461
          1285  2udu2220d  -0.05192 0.00270
          1381  202u22d02  -0.06370 0.00406
          1406  ud2u22dud   0.07606 0.00579
          1442  022u22d20  -0.07054 0.00498
          1485  2uud2220d  -0.05970 0.00356
          1521  u2ud222d0   0.05352 0.00286
 
      printout of CI-coefficients larger than  0.05 for root  3
      energy=    -224.646620
      conf/sym  111111111     Coeff  Weight
             3  2222u2d00   0.86408 0.74663
            52  222u2d200  -0.42215 0.17821
           277  u2222d200   0.05820 0.00339
           361  222022u0d   0.05749 0.00330
           654  u2d2u22d0   0.05418 0.00294
           733  2022u2d02  -0.06305 0.00398
           766  ud22u2dud   0.07501 0.00563
           807  0222u2d20  -0.07046 0.00496
           994  2uu2d220d  -0.05779 0.00334
          1033  u2u2d22d0   0.05276 0.00278
 
      Natural orbitals and occupation numbers for root  1
      sym 1:   1.955449   1.946854   1.962282   1.991046   1.991241   1.762510   0.275338   0.064932   0.050349
 
      Natural orbitals and occupation numbers for root  2
      sym 1:   1.964626   1.951638   1.984156   1.177356   1.806661   1.824781   1.188372   0.058955   0.043455
 
      Natural orbitals and occupation numbers for root  3
      sym 1:   1.959285   1.955325   1.983633   1.781776   1.202862   1.803628   1.210212   0.058486   0.044794
 
      ************************************************************************************************************************
      *                                                                                                                      *
      *                                                    Final results                                                     *
      *                                                                                                                      *
      ************************************************************************************************************************
 
 
++    Wave function specifications:
      -----------------------------
 
      Number of closed shell electrons          12
      Number of electrons in active shells      12
      Max number of holes in RAS1 space          0
      Max nr of electrons in RAS3 space          0
      Number of inactive orbitals                6
      Number of active orbitals                  9
      Number of secondary orbitals              75
      Spin quantum number                      0.0
      State symmetry                             1
--
 
++    Orbital specifications:
      -----------------------
 
      Symmetry species                           1
                                                 a
      Frozen orbitals                            0
      Inactive orbitals                          6
      Active orbitals                            9
      RAS1 orbitals                              0
      RAS2 orbitals                              9
      RAS3 orbitals                              0
      Secondary orbitals                        75
      Deleted orbitals                           0
      Number of basis functions                 90
--
 
++    CI expansion specifications:
      ----------------------------
 
      Number of CSFs                          2520
      Number of determinants                  3570
      Number of root(s) required                 3
      CI roots used                              1     2     3
      weights                                0.333 0.333 0.333
      highest root included in the CI            3
      Root passed to geometry opt.               3
--
 
++    Final optimization conditions:
      ------------------------------
 
      Average CI energy                            -224.67719768
      RASSCF energy for state  3                   -224.64662003
      Super-CI energy                                -0.00000000
      RASSCF energy change                            0.00000000
      Max change in MO coefficients              -0.284E-04
      Max non-diagonal density matrix element     0.388E-04
      Maximum BLB matrix element                 -0.173E-04
      (orbital pair  10,  65 in symmetry   1)
      Norm of electronic gradient            0.699E-01
--
 
 
      Final state energy(ies):
      ------------------------
 
::    RASSCF root number  1 Total energy:   -224.73573594
::    RASSCF root number  2 Total energy:   -224.64923706
::    RASSCF root number  3 Total energy:   -224.64662003
 
++    Molecular orbitals:
      -------------------
 
      Pseudonatural active orbitals and approximate occupation numbers
 
 
 
 
      Molecular orbitals for symmetry species 1: a  
 
 
      Orbital                1         2         3         4         5         6         7         8         9        10
      Energy          -20.7978  -20.7005  -20.7005   -1.5143   -1.3006   -1.0521    0.0000    0.0000    0.0000    0.0000
      Occ. No.          2.0000    2.0000    2.0000    2.0000    2.0000    2.0000    1.9618    1.9513    1.9745    1.6477
 
    1 O1     1s         0.0037   -0.7064    0.7064   -0.0060   -0.0001    0.0108   -0.0165   -0.0246    0.0000    0.0005
    2 O1     2s         0.0039    0.0044   -0.0048    0.4803   -0.7054    0.5429   -0.1045   -0.1125    0.0000   -0.0401
    3 O1     3s         0.0022    0.0034   -0.0035    0.0030   -0.0074    0.0185   -0.0287   -0.0549   -0.0000    0.0120
    4 O1     4s         0.0003    0.0006   -0.0006    0.0015   -0.0009    0.0020   -0.0049   -0.0111   -0.0000    0.0040
    5 O1     2px       -0.0009   -0.0010    0.0010   -0.0313   -0.0505    0.0876    0.0101   -0.2564    0.0000    0.6920
    6 O1     3px       -0.0007   -0.0012    0.0010    0.0136    0.0046   -0.0203    0.0003    0.0303    0.0000    0.0045
    7 O1     4px        0.0001    0.0005   -0.0007    0.0018    0.0008    0.0003   -0.0000    0.0010    0.0000   -0.0065
    8 O1     2py       -0.0023   -0.0016    0.0019    0.0551   -0.0847    0.0521   -0.3714   -0.3563    0.0000   -0.0982
    9 O1     3py       -0.0013   -0.0019    0.0021   -0.0020    0.0030   -0.0135    0.0409    0.0450    0.0000   -0.0109
   10 O1     4py        0.0006    0.0012   -0.0013   -0.0016   -0.0015    0.0026    0.0036    0.0038    0.0000    0.0004
   11 O1     2pz       -0.0000   -0.0000   -0.0000   -0.0000    0.0000    0.0000    0.0000    0.0000    0.3418   -0.0000
   12 O1     3pz       -0.0000   -0.0000   -0.0000   -0.0000   -0.0000    0.0000   -0.0000    0.0000   -0.0259    0.0000
   13 O1     4pz        0.0000   -0.0000    0.0000   -0.0000    0.0000   -0.0000    0.0000    0.0000   -0.0048   -0.0000
   14 O1     3d2-       0.0004    0.0008   -0.0008    0.0101   -0.0015   -0.0118    0.0097    0.0283   -0.0000   -0.0121
   15 O1     4d2-       0.0002    0.0005   -0.0005    0.0010   -0.0005   -0.0008    0.0006    0.0023   -0.0000   -0.0011
   16 O1     3d1-       0.0000    0.0000    0.0000   -0.0000   -0.0000   -0.0000   -0.0000    0.0000   -0.0239   -0.0000
   17 O1     4d1-       0.0000    0.0000    0.0000   -0.0000    0.0000    0.0000    0.0000   -0.0000   -0.0030    0.0000
   18 O1     3d0       -0.0004   -0.0005    0.0005   -0.0046    0.0015    0.0042   -0.0135   -0.0170   -0.0000    0.0028
   19 O1     4d0       -0.0002   -0.0003    0.0003   -0.0002    0.0007    0.0000   -0.0006   -0.0012   -0.0000   -0.0005
   20 O1     3d1+       0.0000    0.0000    0.0000    0.0000   -0.0000   -0.0000   -0.0000   -0.0000   -0.0122   -0.0000
   21 O1     4d1+       0.0000   -0.0000    0.0000   -0.0000   -0.0000    0.0000   -0.0000   -0.0000   -0.0016    0.0000
   22 O1     3d2+      -0.0005   -0.0005    0.0006   -0.0001    0.0013   -0.0006   -0.0282   -0.0119   -0.0000   -0.0043
   23 O1     4d2+      -0.0003   -0.0003    0.0003   -0.0003    0.0006    0.0001   -0.0026   -0.0008    0.0000   -0.0016
   24 O1     4f3-       0.0001    0.0000   -0.0000   -0.0011   -0.0001    0.0020    0.0056   -0.0009   -0.0000    0.0023
   25 O1     4f2-      -0.0000   -0.0000   -0.0000   -0.0000    0.0000    0.0000   -0.0000    0.0000    0.0047    0.0000
   26 O1     4f1-       0.0001    0.0001   -0.0001    0.0017   -0.0012   -0.0006    0.0041    0.0044    0.0000   -0.0009
   27 O1     4f0       -0.0000    0.0000    0.0000   -0.0000    0.0000    0.0000   -0.0000   -0.0000   -0.0043   -0.0000
   28 O1     4f1+       0.0000    0.0001   -0.0001    0.0014   -0.0006   -0.0010    0.0009    0.0027   -0.0000   -0.0011
   29 O1     4f2+       0.0000    0.0000    0.0000    0.0000   -0.0000    0.0000    0.0000   -0.0000   -0.0035   -0.0000
   30 O1     4f3+       0.0000    0.0002   -0.0002    0.0030   -0.0017   -0.0021    0.0047    0.0073   -0.0000   -0.0022
   31 O2     1s         0.9989   -0.0000   -0.0030   -0.0195    0.0000   -0.0191   -0.0237    0.0000   -0.0000    0.0248
   32 O2     2s        -0.0073    0.0000    0.0100    0.5384    0.0000   -0.7541    0.1865    0.0000   -0.0000    0.2589
   33 O2     3s        -0.0055    0.0000    0.0056   -0.0380   -0.0000   -0.0343   -0.0577    0.0000   -0.0000    0.0663
   34 O2     4s        -0.0009    0.0000    0.0009   -0.0070   -0.0000   -0.0065   -0.0117    0.0000   -0.0000    0.0146
   35 O2     2px       -0.0018    0.0000    0.0036   -0.2091   -0.0000    0.3187    0.6490    0.0000   -0.0000   -0.3200
   36 O2     3px       -0.0022    0.0000    0.0020   -0.0138   -0.0000   -0.0275   -0.0633    0.0000   -0.0000   -0.0232
   37 O2     4px        0.0018   -0.0000   -0.0007    0.0019   -0.0000   -0.0008   -0.0091   -0.0000    0.0000   -0.0032
   38 O2     2py       -0.0000   -0.0054    0.0000    0.0000   -0.0376    0.0000   -0.0000    0.6133    0.0000   -0.0000
   39 O2     3py       -0.0000   -0.0032    0.0000    0.0000    0.0326    0.0000   -0.0000   -0.0771    0.0000   -0.0000
   40 O2     4py        0.0000    0.0010   -0.0000    0.0000   -0.0054    0.0000   -0.0000   -0.0042   -0.0000   -0.0000
   41 O2     2pz        0.0000    0.0000    0.0000   -0.0000   -0.0000    0.0000    0.0000    0.0000    0.7351    0.0000
   42 O2     3pz        0.0000    0.0000    0.0000    0.0000   -0.0000    0.0000   -0.0000   -0.0000   -0.0499    0.0000
   43 O2     4pz       -0.0000    0.0000   -0.0000    0.0000    0.0000   -0.0000    0.0000   -0.0000   -0.0128   -0.0000
   44 O2     3d2-      -0.0000   -0.0013    0.0000    0.0000   -0.0187   -0.0000    0.0000    0.0452    0.0000   -0.0000
   45 O2     4d2-      -0.0000   -0.0006    0.0000   -0.0000   -0.0017   -0.0000    0.0000    0.0039    0.0000   -0.0000
   46 O2     3d1-       0.0000    0.0000    0.0000    0.0000    0.0000   -0.0000    0.0000   -0.0000    0.0000   -0.0000
   47 O2     4d1-       0.0000    0.0000   -0.0000    0.0000    0.0000   -0.0000   -0.0000   -0.0000    0.0000   -0.0000
   48 O2     3d0        0.0009   -0.0000   -0.0010   -0.0057   -0.0000   -0.0103   -0.0228   -0.0000    0.0000    0.0170
   49 O2     4d0        0.0006   -0.0000   -0.0005    0.0010   -0.0000   -0.0010   -0.0010   -0.0000    0.0000    0.0020
   50 O2     3d1+       0.0000    0.0000    0.0000   -0.0000   -0.0000    0.0000    0.0000   -0.0000    0.0279    0.0000
   51 O2     4d1+      -0.0000   -0.0000    0.0000   -0.0000   -0.0000   -0.0000    0.0000   -0.0000    0.0031    0.0000
   52 O2     3d2+       0.0005   -0.0000   -0.0008   -0.0164   -0.0000    0.0042    0.0110   -0.0000    0.0000    0.0396
   53 O2     4d2+       0.0003   -0.0000   -0.0004   -0.0016   -0.0000    0.0008    0.0014   -0.0000    0.0000    0.0069
   54 O2     4f3-      -0.0000    0.0000   -0.0000   -0.0000   -0.0002    0.0000    0.0000   -0.0032    0.0000    0.0000
   55 O2     4f2-       0.0000    0.0000    0.0000    0.0000   -0.0000   -0.0000   -0.0000   -0.0000    0.0000   -0.0000
   56 O2     4f1-       0.0000    0.0001   -0.0000   -0.0000    0.0033    0.0000   -0.0000   -0.0080   -0.0000    0.0000
   57 O2     4f0       -0.0000   -0.0000   -0.0000    0.0000    0.0000    0.0000    0.0000    0.0000   -0.0078    0.0000
   58 O2     4f1+       0.0001   -0.0000   -0.0001   -0.0015   -0.0000   -0.0015   -0.0053    0.0000   -0.0000    0.0005
   59 O2     4f2+      -0.0000    0.0000   -0.0000    0.0000   -0.0000    0.0000   -0.0000   -0.0000   -0.0048   -0.0000
   60 O2     4f3+       0.0002   -0.0000   -0.0002   -0.0055   -0.0000   -0.0013   -0.0085   -0.0000    0.0000    0.0056
   61 O3     1s         0.0037    0.7064    0.7064   -0.0060    0.0001    0.0108   -0.0165    0.0246    0.0000    0.0005
   62 O3     2s         0.0039   -0.0044   -0.0048    0.4803    0.7054    0.5429   -0.1045    0.1125    0.0000   -0.0401
   63 O3     3s         0.0022   -0.0034   -0.0035    0.0030    0.0074    0.0185   -0.0287    0.0549    0.0000    0.0120
   64 O3     4s         0.0003   -0.0006   -0.0006    0.0015    0.0009    0.0020   -0.0049    0.0111    0.0000    0.0040
   65 O3     2px       -0.0009    0.0010    0.0010   -0.0313    0.0505    0.0876    0.0101    0.2564   -0.0000    0.6920
   66 O3     3px       -0.0007    0.0012    0.0010    0.0136   -0.0046   -0.0203    0.0003   -0.0303   -0.0000    0.0045
   67 O3     4px        0.0001   -0.0005   -0.0007    0.0018   -0.0008    0.0003   -0.0000   -0.0010    0.0000   -0.0065
   68 O3     2py        0.0023   -0.0016   -0.0019   -0.0551   -0.0847   -0.0521    0.3714   -0.3563    0.0000    0.0982
   69 O3     3py        0.0013   -0.0019   -0.0021    0.0020    0.0030    0.0135   -0.0409    0.0450    0.0000    0.0109
   70 O3     4py       -0.0006    0.0012    0.0013    0.0016   -0.0015   -0.0026   -0.0036    0.0038   -0.0000   -0.0004
   71 O3     2pz       -0.0000    0.0000   -0.0000   -0.0000    0.0000   -0.0000    0.0000   -0.0000    0.3418    0.0000
   72 O3     3pz       -0.0000    0.0000   -0.0000   -0.0000    0.0000   -0.0000   -0.0000   -0.0000   -0.0259   -0.0000
   73 O3     4pz       -0.0000    0.0000    0.0000   -0.0000   -0.0000   -0.0000   -0.0000    0.0000   -0.0048    0.0000
   74 O3     3d2-      -0.0004    0.0008    0.0008   -0.0101   -0.0015    0.0118   -0.0097    0.0283   -0.0000    0.0121
   75 O3     4d2-      -0.0002    0.0005    0.0005   -0.0010   -0.0005    0.0008   -0.0006    0.0023   -0.0000    0.0011
   76 O3     3d1-       0.0000    0.0000   -0.0000    0.0000    0.0000    0.0000    0.0000   -0.0000    0.0239   -0.0000
   77 O3     4d1-       0.0000    0.0000    0.0000    0.0000    0.0000    0.0000   -0.0000   -0.0000    0.0030   -0.0000
   78 O3     3d0       -0.0004    0.0005    0.0005   -0.0046   -0.0015    0.0042   -0.0135    0.0170   -0.0000    0.0028
   79 O3     4d0       -0.0002    0.0003    0.0003   -0.0002   -0.0007    0.0000   -0.0006    0.0012   -0.0000   -0.0005
   80 O3     3d1+       0.0000   -0.0000   -0.0000   -0.0000   -0.0000    0.0000   -0.0000    0.0000   -0.0122    0.0000
   81 O3     4d1+       0.0000    0.0000    0.0000    0.0000   -0.0000    0.0000   -0.0000   -0.0000   -0.0016   -0.0000
   82 O3     3d2+      -0.0005    0.0005    0.0006   -0.0001   -0.0013   -0.0006   -0.0282    0.0119   -0.0000   -0.0043
   83 O3     4d2+      -0.0003    0.0003    0.0003   -0.0003   -0.0006    0.0001   -0.0026    0.0008   -0.0000   -0.0016
   84 O3     4f3-      -0.0001    0.0000    0.0000    0.0011   -0.0001   -0.0020   -0.0056   -0.0009   -0.0000   -0.0023
   85 O3     4f2-       0.0000   -0.0000    0.0000    0.0000   -0.0000    0.0000   -0.0000    0.0000   -0.0047    0.0000
   86 O3     4f1-      -0.0001    0.0001    0.0001   -0.0017   -0.0012    0.0006   -0.0041    0.0044   -0.0000    0.0009
   87 O3     4f0        0.0000    0.0000    0.0000   -0.0000   -0.0000    0.0000   -0.0000    0.0000   -0.0043    0.0000
   88 O3     4f1+       0.0000   -0.0001   -0.0001    0.0014    0.0006   -0.0010    0.0009   -0.0027    0.0000   -0.0011
   89 O3     4f2+      -0.0000   -0.0000    0.0000   -0.0000   -0.0000    0.0000    0.0000   -0.0000   -0.0035   -0.0000
   90 O3     4f3+       0.0000   -0.0002   -0.0002    0.0030    0.0017   -0.0021    0.0047   -0.0073    0.0000   -0.0022
 
 
      Orbital               11        12        13        14        15        16        17        18        19        20
      Energy            0.0000    0.0000    0.0000    0.0000    0.0000    0.1880    0.2070    0.2375    0.3171    0.3558
      Occ. No.          1.6665    1.7970    0.8935    0.0611    0.0466    0.0000    0.0000    0.0000    0.0000    0.0000
 
    1 O1     1s         0.0015    0.0000   -0.0000   -0.0292   -0.0422   -0.1949   -0.1363    0.0000    0.0765   -0.0079
    2 O1     2s        -0.0219    0.0000   -0.0000   -0.3485   -0.4310   -1.4099   -0.9471    0.0000    0.5328    0.0109
    3 O1     3s         0.0054    0.0000   -0.0000   -0.0528   -0.0860   -0.8606   -0.6121    0.0000    0.3730    0.0396
    4 O1     4s         0.0016    0.0000    0.0000   -0.0055   -0.0131   -0.1951   -0.1328    0.0000    0.0797    0.0155
    5 O1     2px       -0.5772   -0.0000    0.0000    0.1834    0.4027    0.3777    0.1542   -0.0000   -0.1850   -0.2022
    6 O1     3px       -0.0053   -0.0000    0.0000    0.0154   -0.0754    0.4248    0.4061   -0.0000    0.1779   -0.8341
    7 O1     4px        0.0056   -0.0000   -0.0000   -0.0058    0.0057    0.0438    0.1165   -0.0000    0.1506   -0.3264
    8 O1     2py        0.4434   -0.0000    0.0000    0.6662    0.5332    0.4504    0.5663   -0.0000   -0.4828   -0.2125
    9 O1     3py        0.0010   -0.0000    0.0000   -0.0799   -0.0132    0.7301    0.6229   -0.0000   -0.9346   -0.2343
   10 O1     4py       -0.0043    0.0000   -0.0000   -0.0058   -0.0130    0.1269    0.0499   -0.0000   -0.2469   -0.0489
   11 O1     2pz        0.0000   -0.7088    0.6517   -0.0000   -0.0000    0.0000   -0.0000   -0.0616   -0.0000    0.0000
   12 O1     3pz       -0.0000   -0.0016    0.0105   -0.0000   -0.0000    0.0000    0.0000    0.3814   -0.0000    0.0000
   13 O1     4pz       -0.0000    0.0086   -0.0042    0.0000    0.0000    0.0000    0.0000    0.2036   -0.0000    0.0000
   14 O1     3d2-       0.0057    0.0000   -0.0000   -0.0183   -0.0040   -0.0946   -0.0620    0.0000    0.0516    0.0232
   15 O1     4d2-       0.0015   -0.0000    0.0000   -0.0055   -0.0047   -0.0571   -0.0399    0.0000    0.0345    0.0265
   16 O1     3d1-       0.0000    0.0159    0.0043    0.0000    0.0000    0.0000   -0.0000    0.0095    0.0000   -0.0000
   17 O1     4d1-      -0.0000    0.0028    0.0007    0.0000    0.0000    0.0000   -0.0000    0.0021    0.0000   -0.0000
   18 O1     3d0        0.0026   -0.0000    0.0000    0.0099    0.0107    0.0632    0.0568   -0.0000   -0.0335   -0.0230
   19 O1     4d0        0.0003   -0.0000    0.0000    0.0021    0.0059    0.0393    0.0349   -0.0000   -0.0216   -0.0199
   20 O1     3d1+      -0.0000    0.0080    0.0031   -0.0000    0.0000   -0.0000   -0.0000    0.0036    0.0000   -0.0000
   21 O1     4d1+      -0.0000    0.0011    0.0003    0.0000    0.0000    0.0000    0.0000   -0.0007   -0.0000   -0.0000
   22 O1     3d2+       0.0167   -0.0000    0.0000    0.0140    0.0224    0.0497    0.0751   -0.0000   -0.0520   -0.0046
   23 O1     4d2+       0.0029   -0.0000    0.0000    0.0061    0.0087    0.0296    0.0460   -0.0000   -0.0385   -0.0042
   24 O1     4f3-      -0.0043    0.0000   -0.0000   -0.0004   -0.0042   -0.0016   -0.0006   -0.0000    0.0085   -0.0052
   25 O1     4f2-      -0.0000   -0.0028   -0.0006   -0.0000   -0.0000    0.0000    0.0000    0.0028   -0.0000    0.0000
   26 O1     4f1-      -0.0013    0.0000   -0.0000   -0.0026   -0.0038   -0.0067   -0.0056    0.0000    0.0065    0.0068
   27 O1     4f0        0.0000    0.0024    0.0017    0.0000    0.0000   -0.0000   -0.0000   -0.0018    0.0000   -0.0000
   28 O1     4f1+       0.0002   -0.0000   -0.0000   -0.0017   -0.0010   -0.0026   -0.0035    0.0000    0.0025    0.0058
   29 O1     4f2+       0.0000    0.0020   -0.0000    0.0000    0.0000   -0.0000   -0.0000   -0.0013    0.0000   -0.0000
   30 O1     4f3+      -0.0005    0.0000   -0.0000   -0.0034   -0.0030   -0.0101   -0.0057    0.0000    0.0099    0.0106
   31 O2     1s         0.0000    0.0000    0.0000    0.0820   -0.0000   -0.0000    0.2975   -0.0000   -0.2364    0.0000
   32 O2     2s         0.0000   -0.0000    0.0000    0.8328   -0.0000   -0.0000    2.0651   -0.0000   -1.5865    0.0000
   33 O2     3s         0.0000   -0.0000    0.0000    0.0871   -0.0000   -0.0000    1.2790    0.0000   -0.9510    0.0000
   34 O2     4s        -0.0000   -0.0000    0.0000    0.0289   -0.0000   -0.0000    0.2736    0.0000   -0.1931    0.0000
   35 O2     2px        0.0000   -0.0000    0.0000    0.6760   -0.0000   -0.0000    0.5451    0.0000   -0.5239   -0.0000
   36 O2     3px       -0.0000   -0.0000    0.0000   -0.1406   -0.0000   -0.0000    0.8777    0.0000   -0.5062   -0.0000
   37 O2     4px       -0.0000    0.0000   -0.0000    0.0233    0.0000   -0.0000    0.1699    0.0000    0.0129   -0.0000
   38 O2     2py       -0.0257   -0.0000    0.0000   -0.0000    1.0380    1.2019    0.0000   -0.0000    0.0000   -0.0556
   39 O2     3py       -0.0158   -0.0000   -0.0000    0.0000   -0.1096    1.3787    0.0000   -0.0000    0.0000    0.3287
   40 O2     4py       -0.0031    0.0000    0.0000   -0.0000    0.0045    0.1475    0.0000   -0.0000   -0.0000    0.2054
   41 O2     2pz        0.0000    0.0000   -0.7346    0.0000    0.0000   -0.0000   -0.0000   -0.1037   -0.0000   -0.0000
   42 O2     3pz        0.0000   -0.0000   -0.0271   -0.0000   -0.0000    0.0000   -0.0000    0.2715   -0.0000   -0.0000
   43 O2     4pz       -0.0000   -0.0000    0.0027    0.0000   -0.0000    0.0000   -0.0000    0.1760   -0.0000   -0.0000
   44 O2     3d2-      -0.0361   -0.0000    0.0000    0.0000    0.0288    0.1701    0.0000   -0.0000    0.0000    0.0454
   45 O2     4d2-      -0.0065   -0.0000   -0.0000    0.0000   -0.0006    0.0999    0.0000   -0.0000    0.0000    0.0455
   46 O2     3d1-       0.0000   -0.0401   -0.0000    0.0000    0.0000   -0.0000   -0.0000    0.0000    0.0000   -0.0000
   47 O2     4d1-       0.0000   -0.0070   -0.0000    0.0000    0.0000   -0.0000    0.0000    0.0000    0.0000   -0.0000
   48 O2     3d0       -0.0000   -0.0000   -0.0000   -0.0009    0.0000    0.0000   -0.1116    0.0000    0.0817   -0.0000
   49 O2     4d0        0.0000   -0.0000   -0.0000   -0.0026    0.0000    0.0000   -0.0652    0.0000    0.0414   -0.0000
   50 O2     3d1+       0.0000    0.0000   -0.0026    0.0000    0.0000   -0.0000   -0.0000   -0.0260   -0.0000    0.0000
   51 O2     4d1+      -0.0000   -0.0000    0.0006   -0.0000    0.0000   -0.0000    0.0000   -0.0111   -0.0000    0.0000
[...]

>>> COPY /lustre/isaac/scratch/gjones39/ANO-RCC-VTZP/ozone_122.50/3189781/GMJ_IVECW_H_P_2_.csv /lustre/isaac/scratch/gjones39/ANO-RCC-VTZP/ozone_122.50/GMJ_IVECW_H_P_2_.csv

>>> COPY /lustre/isaac/scratch/gjones39/ANO-RCC-VTZP/ozone_122.50/3189781/GMJ_IVECX_H_P_2_.csv /lustre/isaac/scratch/gjones39/ANO-RCC-VTZP/ozone_122.50/GMJ_IVECX_H_P_2_.csv

>>> COPY /lustre/isaac/scratch/gjones39/ANO-RCC-VTZP/ozone_122.50/3189781/GMJ_IVECC2_H_P_2_.csv /lustre/isaac/scratch/gjones39/ANO-RCC-VTZP/ozone_122.50/GMJ_IVECC2_H_P_2_.csv

>>> COPY /lustre/isaac/scratch/gjones39/ANO-RCC-VTZP/ozone_122.50/3189781/GMJ_e2_H_P_2_.csv /lustre/isaac/scratch/gjones39/ANO-RCC-VTZP/ozone_122.50/GMJ_e2_H_P_2_.csv

>>> END FOREACH

>>> EXPORT j = M

>>> IF (-FILE GMJ_e2_${i}_${j}_${k}_.csv)

>>> COPY /lustre/isaac/scratch/gjones39/ANO-RCC-VTZP/ozone_122.50/3189781/GMJ_RHS_H_M_2_.csv /lustre/isaac/scratch/gjones39/ANO-RCC-VTZP/ozone_122.50/GMJ_RHS_H_M_2_.csv

>>> COPY /lustre/isaac/scratch/gjones39/ANO-RCC-VTZP/ozone_122.50/3189781/GMJ_IVECW_H_M_2_.csv /lustre/isaac/scratch/gjones39/ANO-RCC-VTZP/ozone_122.50/GMJ_IVECW_H_M_2_.csv

>>> COPY /lustre/isaac/scratch/gjones39/ANO-RCC-VTZP/ozone_122.50/3189781/GMJ_IVECX_H_M_2_.csv /lustre/isaac/scratch/gjones39/ANO-RCC-VTZP/ozone_122.50/GMJ_IVECX_H_M_2_.csv

>>> COPY /lustre/isaac/scratch/gjones39/ANO-RCC-VTZP/ozone_122.50/3189781/GMJ_IVECC2_H_M_2_.csv /lustre/isaac/scratch/gjones39/ANO-RCC-VTZP/ozone_122.50/GMJ_IVECC2_H_M_2_.csv

>>> COPY /lustre/isaac/scratch/gjones39/ANO-RCC-VTZP/ozone_122.50/3189781/GMJ_e2_H_M_2_.csv /lustre/isaac/scratch/gjones39/ANO-RCC-VTZP/ozone_122.50/GMJ_e2_H_M_2_.csv

>>> END FOREACH

>>> END FOREACH

>>> END FOREACH

>>> EXPORT k = 3

>>> EXPORT i = B

>>> EXPORT j = P

>>> IF (-FILE GMJ_e2_${i}_${j}_${k}_.csv)

>>> COPY /lustre/isaac/scratch/gjones39/ANO-RCC-VTZP/ozone_122.50/3189781/GMJ_RHS_B_P_3_.csv /lustre/isaac/scratch/gjones39/ANO-RCC-VTZP/ozone_122.50/GMJ_RHS_B_P_3_.csv

>>> COPY /lustre/isaac/scratch/gjones39/ANO-RCC-VTZP/ozone_122.50/3189781/GMJ_IVECW_B_P_3_.csv /lustre/isaac/scratch/gjones39/ANO-RCC-VTZP/ozone_122.50/GMJ_IVECW_B_P_3_.csv

>>> COPY /lustre/isaac/scratch/gjones39/ANO-RCC-VTZP/ozone_122.50/3189781/GMJ_IVECX_B_P_3_.csv /lustre/isaac/scratch/gjones39/ANO-RCC-VTZP/ozone_122.50/GMJ_IVECX_B_P_3_.csv

>>> COPY /lustre/isaac/scratch/gjones39/ANO-RCC-VTZP/ozone_122.50/3189781/GMJ_IVECC2_B_P_3_.csv /lustre/isaac/scratch/gjones39/ANO-RCC-VTZP/ozone_122.50/GMJ_IVECC2_B_P_3_.csv

>>> COPY /lustre/isaac/scratch/gjones39/ANO-RCC-VTZP/ozone_122.50/3189781/GMJ_e2_B_P_3_.csv /lustre/isaac/scratch/gjones39/ANO-RCC-VTZP/ozone_122.50/GMJ_e2_B_P_3_.csv

>>> END FOREACH

>>> EXPORT j = M

>>> IF (-FILE GMJ_e2_${i}_${j}_${k}_.csv)

>>> COPY /lustre/isaac/scratch/gjones39/ANO-RCC-VTZP/ozone_122.50/3189781/GMJ_RHS_B_M_3_.csv /lustre/isaac/scratch/gjones39/ANO-RCC-VTZP/ozone_122.50/GMJ_RHS_B_M_3_.csv

>>> COPY /lustre/isaac/scratch/gjones39/ANO-RCC-VTZP/ozone_122.50/3189781/GMJ_IVECW_B_M_3_.csv /lustre/isaac/scratch/gjones39/ANO-RCC-VTZP/ozone_122.50/GMJ_IVECW_B_M_3_.csv

>>> COPY /lustre/isaac/scratch/gjones39/ANO-RCC-VTZP/ozone_122.50/3189781/GMJ_IVECX_B_M_3_.csv /lustre/isaac/scratch/gjones39/ANO-RCC-VTZP/ozone_122.50/GMJ_IVECX_B_M_3_.csv

>>> COPY /lustre/isaac/scratch/gjones39/ANO-RCC-VTZP/ozone_122.50/3189781/GMJ_IVECC2_B_M_3_.csv /lustre/isaac/scratch/gjones39/ANO-RCC-VTZP/ozone_122.50/GMJ_IVECC2_B_M_3_.csv

>>> COPY /lustre/isaac/scratch/gjones39/ANO-RCC-VTZP/ozone_122.50/3189781/GMJ_e2_B_M_3_.csv /lustre/isaac/scratch/gjones39/ANO-RCC-VTZP/ozone_122.50/GMJ_e2_B_M_3_.csv

>>> END FOREACH

>>> END FOREACH

>>> EXPORT i = E

>>> EXPORT j = P

>>> IF (-FILE GMJ_e2_${i}_${j}_${k}_.csv)

>>> COPY /lustre/isaac/scratch/gjones39/ANO-RCC-VTZP/ozone_122.50/3189781/GMJ_RHS_E_P_3_.csv /lustre/isaac/scratch/gjones39/ANO-RCC-VTZP/ozone_122.50/GMJ_RHS_E_P_3_.csv

>>> COPY /lustre/isaac/scratch/gjones39/ANO-RCC-VTZP/ozone_122.50/3189781/GMJ_IVECW_E_P_3_.csv /lustre/isaac/scratch/gjones39/ANO-RCC-VTZP/ozone_122.50/GMJ_IVECW_E_P_3_.csv

>>> COPY /lustre/isaac/scratch/gjones39/ANO-RCC-VTZP/ozone_122.50/3189781/GMJ_IVECX_E_P_3_.csv /lustre/isaac/scratch/gjones39/ANO-RCC-VTZP/ozone_122.50/GMJ_IVECX_E_P_3_.csv

>>> COPY /lustre/isaac/scratch/gjones39/ANO-RCC-VTZP/ozone_122.50/3189781/GMJ_IVECC2_E_P_3_.csv /lustre/isaac/scratch/gjones39/ANO-RCC-VTZP/ozone_122.50/GMJ_IVECC2_E_P_3_.csv

>>> COPY /lustre/isaac/scratch/gjones39/ANO-RCC-VTZP/ozone_122.50/3189781/GMJ_e2_E_P_3_.csv /lustre/isaac/scratch/gjones39/ANO-RCC-VTZP/ozone_122.50/GMJ_e2_E_P_3_.csv

>>> END FOREACH

>>> EXPORT j = M

>>> IF (-FILE GMJ_e2_${i}_${j}_${k}_.csv)

>>> COPY /lustre/isaac/scratch/gjones39/ANO-RCC-VTZP/ozone_122.50/3189781/GMJ_RHS_E_M_3_.csv /lustre/isaac/scratch/gjones39/ANO-RCC-VTZP/ozone_122.50/GMJ_RHS_E_M_3_.csv

>>> COPY /lustre/isaac/scratch/gjones39/ANO-RCC-VTZP/ozone_122.50/3189781/GMJ_IVECW_E_M_3_.csv /lustre/isaac/scratch/gjones39/ANO-RCC-VTZP/ozone_122.50/GMJ_IVECW_E_M_3_.csv

>>> COPY /lustre/isaac/scratch/gjones39/ANO-RCC-VTZP/ozone_122.50/3189781/GMJ_IVECX_E_M_3_.csv /lustre/isaac/scratch/gjones39/ANO-RCC-VTZP/ozone_122.50/GMJ_IVECX_E_M_3_.csv

>>> COPY /lustre/isaac/scratch/gjones39/ANO-RCC-VTZP/ozone_122.50/3189781/GMJ_IVECC2_E_M_3_.csv /lustre/isaac/scratch/gjones39/ANO-RCC-VTZP/ozone_122.50/GMJ_IVECC2_E_M_3_.csv

>>> COPY /lustre/isaac/scratch/gjones39/ANO-RCC-VTZP/ozone_122.50/3189781/GMJ_e2_E_M_3_.csv /lustre/isaac/scratch/gjones39/ANO-RCC-VTZP/ozone_122.50/GMJ_e2_E_M_3_.csv

>>> END FOREACH

>>> END FOREACH

>>> EXPORT i = F

>>> EXPORT j = P

>>> IF (-FILE GMJ_e2_${i}_${j}_${k}_.csv)

>>> COPY /lustre/isaac/scratch/gjones39/ANO-RCC-VTZP/ozone_122.50/3189781/GMJ_RHS_F_P_3_.csv /lustre/isaac/scratch/gjones39/ANO-RCC-VTZP/ozone_122.50/GMJ_RHS_F_P_3_.csv

>>> COPY /lustre/isaac/scratch/gjones39/ANO-RCC-VTZP/ozone_122.50/3189781/GMJ_IVECW_F_P_3_.csv /lustre/isaac/scratch/gjones39/ANO-RCC-VTZP/ozone_122.50/GMJ_IVECW_F_P_3_.csv

>>> COPY /lustre/isaac/scratch/gjones39/ANO-RCC-VTZP/ozone_122.50/3189781/GMJ_IVECX_F_P_3_.csv /lustre/isaac/scratch/gjones39/ANO-RCC-VTZP/ozone_122.50/GMJ_IVECX_F_P_3_.csv

>>> COPY /lustre/isaac/scratch/gjones39/ANO-RCC-VTZP/ozone_122.50/3189781/GMJ_IVECC2_F_P_3_.csv /lustre/isaac/scratch/gjones39/ANO-RCC-VTZP/ozone_122.50/GMJ_IVECC2_F_P_3_.csv

>>> COPY /lustre/isaac/scratch/gjones39/ANO-RCC-VTZP/ozone_122.50/3189781/GMJ_e2_F_P_3_.csv /lustre/isaac/scratch/gjones39/ANO-RCC-VTZP/ozone_122.50/GMJ_e2_F_P_3_.csv

>>> END FOREACH

>>> EXPORT j = M

>>> IF (-FILE GMJ_e2_${i}_${j}_${k}_.csv)

>>> COPY /lustre/isaac/scratch/gjones39/ANO-RCC-VTZP/ozone_122.50/3189781/GMJ_RHS_F_M_3_.csv /lustre/isaac/scratch/gjones39/ANO-RCC-VTZP/ozone_122.50/GMJ_RHS_F_M_3_.csv

>>> COPY /lustre/isaac/scratch/gjones39/ANO-RCC-VTZP/ozone_122.50/3189781/GMJ_IVECW_F_M_3_.csv /lustre/isaac/scratch/gjones39/ANO-RCC-VTZP/ozone_122.50/GMJ_IVECW_F_M_3_.csv

>>> COPY /lustre/isaac/scratch/gjones39/ANO-RCC-VTZP/ozone_122.50/3189781/GMJ_IVECX_F_M_3_.csv /lustre/isaac/scratch/gjones39/ANO-RCC-VTZP/ozone_122.50/GMJ_IVECX_F_M_3_.csv

>>> COPY /lustre/isaac/scratch/gjones39/ANO-RCC-VTZP/ozone_122.50/3189781/GMJ_IVECC2_F_M_3_.csv /lustre/isaac/scratch/gjones39/ANO-RCC-VTZP/ozone_122.50/GMJ_IVECC2_F_M_3_.csv

>>> COPY /lustre/isaac/scratch/gjones39/ANO-RCC-VTZP/ozone_122.50/3189781/GMJ_e2_F_M_3_.csv /lustre/isaac/scratch/gjones39/ANO-RCC-VTZP/ozone_122.50/GMJ_e2_F_M_3_.csv

>>> END FOREACH

>>> END FOREACH

>>> EXPORT i = G

>>> EXPORT j = P

>>> IF (-FILE GMJ_e2_${i}_${j}_${k}_.csv)

>>> COPY /lustre/isaac/scratch/gjones39/ANO-RCC-VTZP/ozone_122.50/3189781/GMJ_RHS_G_P_3_.csv /lustre/isaac/scratch/gjones39/ANO-RCC-VTZP/ozone_122.50/GMJ_RHS_G_P_3_.csv

>>> COPY /lustre/isaac/scratch/gjones39/ANO-RCC-VTZP/ozone_122.50/3189781/GMJ_IVECW_G_P_3_.csv /lustre/isaac/scratch/gjones39/ANO-RCC-VTZP/ozone_122.50/GMJ_IVECW_G_P_3_.csv

>>> COPY /lustre/isaac/scratch/gjones39/ANO-RCC-VTZP/ozone_122.50/3189781/GMJ_IVECX_G_P_3_.csv /lustre/isaac/scratch/gjones39/ANO-RCC-VTZP/ozone_122.50/GMJ_IVECX_G_P_3_.csv

>>> COPY /lustre/isaac/scratch/gjones39/ANO-RCC-VTZP/ozone_122.50/3189781/GMJ_IVECC2_G_P_3_.csv /lustre/isaac/scratch/gjones39/ANO-RCC-VTZP/ozone_122.50/GMJ_IVECC2_G_P_3_.csv

>>> COPY /lustre/isaac/scratch/gjones39/ANO-RCC-VTZP/ozone_122.50/3189781/GMJ_e2_G_P_3_.csv /lustre/isaac/scratch/gjones39/ANO-RCC-VTZP/ozone_122.50/GMJ_e2_G_P_3_.csv

>>> END FOREACH

>>> EXPORT j = M

>>> IF (-FILE GMJ_e2_${i}_${j}_${k}_.csv)

>>> COPY /lustre/isaac/scratch/gjones39/ANO-RCC-VTZP/ozone_122.50/3189781/GMJ_RHS_G_M_3_.csv /lustre/isaac/scratch/gjones39/ANO-RCC-VTZP/ozone_122.50/GMJ_RHS_G_M_3_.csv

>>> COPY /lustre/isaac/scratch/gjones39/ANO-RCC-VTZP/ozone_122.50/3189781/GMJ_IVECW_G_M_3_.csv /lustre/isaac/scratch/gjones39/ANO-RCC-VTZP/ozone_122.50/GMJ_IVECW_G_M_3_.csv

>>> COPY /lustre/isaac/scratch/gjones39/ANO-RCC-VTZP/ozone_122.50/3189781/GMJ_IVECX_G_M_3_.csv /lustre/isaac/scratch/gjones39/ANO-RCC-VTZP/ozone_122.50/GMJ_IVECX_G_M_3_.csv

>>> COPY /lustre/isaac/scratch/gjones39/ANO-RCC-VTZP/ozone_122.50/3189781/GMJ_IVECC2_G_M_3_.csv /lustre/isaac/scratch/gjones39/ANO-RCC-VTZP/ozone_122.50/GMJ_IVECC2_G_M_3_.csv

>>> COPY /lustre/isaac/scratch/gjones39/ANO-RCC-VTZP/ozone_122.50/3189781/GMJ_e2_G_M_3_.csv /lustre/isaac/scratch/gjones39/ANO-RCC-VTZP/ozone_122.50/GMJ_e2_G_M_3_.csv

>>> END FOREACH

>>> END FOREACH

>>> EXPORT i = H

>>> EXPORT j = P

>>> IF (-FILE GMJ_e2_${i}_${j}_${k}_.csv)

>>> COPY /lustre/isaac/scratch/gjones39/ANO-RCC-VTZP/ozone_122.50/3189781/GMJ_RHS_H_P_3_.csv /lustre/isaac/scratch/gjones39/ANO-RCC-VTZP/ozone_122.50/GMJ_RHS_H_P_3_.csv

>>> COPY /lustre/isaac/scratch/gjones39/ANO-RCC-VTZP/ozone_122.50/3189781/GMJ_IVECW_H_P_3_.csv /lustre/isaac/scratch/gjones39/ANO-RCC-VTZP/ozone_122.50/GMJ_IVECW_H_P_3_.csv

>>> COPY /lustre/isaac/scratch/gjones39/ANO-RCC-VTZP/ozone_122.50/3189781/GMJ_IVECX_H_P_3_.csv /lustre/isaac/scratch/gjones39/ANO-RCC-VTZP/ozone_122.50/GMJ_IVECX_H_P_3_.csv

>>> COPY /lustre/isaac/scratch/gjones39/ANO-RCC-VTZP/ozone_122.50/3189781/GMJ_IVECC2_H_P_3_.csv /lustre/isaac/scratch/gjones39/ANO-RCC-VTZP/ozone_122.50/GMJ_IVECC2_H_P_3_.csv

>>> COPY /lustre/isaac/scratch/gjones39/ANO-RCC-VTZP/ozone_122.50/3189781/GMJ_e2_H_P_3_.csv /lustre/isaac/scratch/gjones39/ANO-RCC-VTZP/ozone_122.50/GMJ_e2_H_P_3_.csv

>>> END FOREACH

>>> EXPORT j = M

>>> IF (-FILE GMJ_e2_${i}_${j}_${k}_.csv)

>>> COPY /lustre/isaac/scratch/gjones39/ANO-RCC-VTZP/ozone_122.50/3189781/GMJ_RHS_H_M_3_.csv /lustre/isaac/scratch/gjones39/ANO-RCC-VTZP/ozone_122.50/GMJ_RHS_H_M_3_.csv

>>> COPY /lustre/isaac/scratch/gjones39/ANO-RCC-VTZP/ozone_122.50/3189781/GMJ_IVECW_H_M_3_.csv /lustre/isaac/scratch/gjones39/ANO-RCC-VTZP/ozone_122.50/GMJ_IVECW_H_M_3_.csv

>>> COPY /lustre/isaac/scratch/gjones39/ANO-RCC-VTZP/ozone_122.50/3189781/GMJ_IVECX_H_M_3_.csv /lustre/isaac/scratch/gjones39/ANO-RCC-VTZP/ozone_122.50/GMJ_IVECX_H_M_3_.csv

>>> COPY /lustre/isaac/scratch/gjones39/ANO-RCC-VTZP/ozone_122.50/3189781/GMJ_IVECC2_H_M_3_.csv /lustre/isaac/scratch/gjones39/ANO-RCC-VTZP/ozone_122.50/GMJ_IVECC2_H_M_3_.csv

>>> COPY /lustre/isaac/scratch/gjones39/ANO-RCC-VTZP/ozone_122.50/3189781/GMJ_e2_H_M_3_.csv /lustre/isaac/scratch/gjones39/ANO-RCC-VTZP/ozone_122.50/GMJ_e2_H_M_3_.csv

>>> END FOREACH

>>> END FOREACH

>>> END FOREACH

>>> EXPORT j = 1

>>> EXPORT i = A

>>> IF (-FILE GMJ_e2_${i}_${j}_.csv)

>>> COPY /lustre/isaac/scratch/gjones39/ANO-RCC-VTZP/ozone_122.50/3189781/GMJ_RHS_A_1_.csv /lustre/isaac/scratch/gjones39/ANO-RCC-VTZP/ozone_122.50/GMJ_RHS_A_1_.csv

>>> COPY /lustre/isaac/scratch/gjones39/ANO-RCC-VTZP/ozone_122.50/3189781/GMJ_IVECW_A_1_.csv /lustre/isaac/scratch/gjones39/ANO-RCC-VTZP/ozone_122.50/GMJ_IVECW_A_1_.csv

>>> COPY /lustre/isaac/scratch/gjones39/ANO-RCC-VTZP/ozone_122.50/3189781/GMJ_IVECX_A_1_.csv /lustre/isaac/scratch/gjones39/ANO-RCC-VTZP/ozone_122.50/GMJ_IVECX_A_1_.csv

>>> COPY /lustre/isaac/scratch/gjones39/ANO-RCC-VTZP/ozone_122.50/3189781/GMJ_IVECC2_A_1_.csv /lustre/isaac/scratch/gjones39/ANO-RCC-VTZP/ozone_122.50/GMJ_IVECC2_A_1_.csv

>>> COPY /lustre/isaac/scratch/gjones39/ANO-RCC-VTZP/ozone_122.50/3189781/GMJ_e2_A_1_.csv /lustre/isaac/scratch/gjones39/ANO-RCC-VTZP/ozone_122.50/GMJ_e2_A_1_.csv

>>> END FOREACH

>>> EXPORT i = C

>>> IF (-FILE GMJ_e2_${i}_${j}_.csv)

>>> COPY /lustre/isaac/scratch/gjones39/ANO-RCC-VTZP/ozone_122.50/3189781/GMJ_RHS_C_1_.csv /lustre/isaac/scratch/gjones39/ANO-RCC-VTZP/ozone_122.50/GMJ_RHS_C_1_.csv

>>> COPY /lustre/isaac/scratch/gjones39/ANO-RCC-VTZP/ozone_122.50/3189781/GMJ_IVECW_C_1_.csv /lustre/isaac/scratch/gjones39/ANO-RCC-VTZP/ozone_122.50/GMJ_IVECW_C_1_.csv

>>> COPY /lustre/isaac/scratch/gjones39/ANO-RCC-VTZP/ozone_122.50/3189781/GMJ_IVECX_C_1_.csv /lustre/isaac/scratch/gjones39/ANO-RCC-VTZP/ozone_122.50/GMJ_IVECX_C_1_.csv

>>> COPY /lustre/isaac/scratch/gjones39/ANO-RCC-VTZP/ozone_122.50/3189781/GMJ_IVECC2_C_1_.csv /lustre/isaac/scratch/gjones39/ANO-RCC-VTZP/ozone_122.50/GMJ_IVECC2_C_1_.csv

>>> COPY /lustre/isaac/scratch/gjones39/ANO-RCC-VTZP/ozone_122.50/3189781/GMJ_e2_C_1_.csv /lustre/isaac/scratch/gjones39/ANO-RCC-VTZP/ozone_122.50/GMJ_e2_C_1_.csv

>>> END FOREACH

>>> EXPORT i = D

>>> IF (-FILE GMJ_e2_${i}_${j}_.csv)

>>> COPY /lustre/isaac/scratch/gjones39/ANO-RCC-VTZP/ozone_122.50/3189781/GMJ_RHS_D_1_.csv /lustre/isaac/scratch/gjones39/ANO-RCC-VTZP/ozone_122.50/GMJ_RHS_D_1_.csv

>>> COPY /lustre/isaac/scratch/gjones39/ANO-RCC-VTZP/ozone_122.50/3189781/GMJ_IVECW_D_1_.csv /lustre/isaac/scratch/gjones39/ANO-RCC-VTZP/ozone_122.50/GMJ_IVECW_D_1_.csv

>>> COPY /lustre/isaac/scratch/gjones39/ANO-RCC-VTZP/ozone_122.50/3189781/GMJ_IVECX_D_1_.csv /lustre/isaac/scratch/gjones39/ANO-RCC-VTZP/ozone_122.50/GMJ_IVECX_D_1_.csv

>>> COPY /lustre/isaac/scratch/gjones39/ANO-RCC-VTZP/ozone_122.50/3189781/GMJ_IVECC2_D_1_.csv /lustre/isaac/scratch/gjones39/ANO-RCC-VTZP/ozone_122.50/GMJ_IVECC2_D_1_.csv

>>> COPY /lustre/isaac/scratch/gjones39/ANO-RCC-VTZP/ozone_122.50/3189781/GMJ_e2_D_1_.csv /lustre/isaac/scratch/gjones39/ANO-RCC-VTZP/ozone_122.50/GMJ_e2_D_1_.csv

>>> END FOREACH

>>> END FOREACH

>>> EXPORT j = 2

>>> EXPORT i = A

>>> IF (-FILE GMJ_e2_${i}_${j}_.csv)

>>> COPY /lustre/isaac/scratch/gjones39/ANO-RCC-VTZP/ozone_122.50/3189781/GMJ_RHS_A_2_.csv /lustre/isaac/scratch/gjones39/ANO-RCC-VTZP/ozone_122.50/GMJ_RHS_A_2_.csv

>>> COPY /lustre/isaac/scratch/gjones39/ANO-RCC-VTZP/ozone_122.50/3189781/GMJ_IVECW_A_2_.csv /lustre/isaac/scratch/gjones39/ANO-RCC-VTZP/ozone_122.50/GMJ_IVECW_A_2_.csv

>>> COPY /lustre/isaac/scratch/gjones39/ANO-RCC-VTZP/ozone_122.50/3189781/GMJ_IVECX_A_2_.csv /lustre/isaac/scratch/gjones39/ANO-RCC-VTZP/ozone_122.50/GMJ_IVECX_A_2_.csv

>>> COPY /lustre/isaac/scratch/gjones39/ANO-RCC-VTZP/ozone_122.50/3189781/GMJ_IVECC2_A_2_.csv /lustre/isaac/scratch/gjones39/ANO-RCC-VTZP/ozone_122.50/GMJ_IVECC2_A_2_.csv

>>> COPY /lustre/isaac/scratch/gjones39/ANO-RCC-VTZP/ozone_122.50/3189781/GMJ_e2_A_2_.csv /lustre/isaac/scratch/gjones39/ANO-RCC-VTZP/ozone_122.50/GMJ_e2_A_2_.csv

>>> END FOREACH

>>> EXPORT i = C

>>> IF (-FILE GMJ_e2_${i}_${j}_.csv)

>>> COPY /lustre/isaac/scratch/gjones39/ANO-RCC-VTZP/ozone_122.50/3189781/GMJ_RHS_C_2_.csv /lustre/isaac/scratch/gjones39/ANO-RCC-VTZP/ozone_122.50/GMJ_RHS_C_2_.csv

>>> COPY /lustre/isaac/scratch/gjones39/ANO-RCC-VTZP/ozone_122.50/3189781/GMJ_IVECW_C_2_.csv /lustre/isaac/scratch/gjones39/ANO-RCC-VTZP/ozone_122.50/GMJ_IVECW_C_2_.csv

>>> COPY /lustre/isaac/scratch/gjones39/ANO-RCC-VTZP/ozone_122.50/3189781/GMJ_IVECX_C_2_.csv /lustre/isaac/scratch/gjones39/ANO-RCC-VTZP/ozone_122.50/GMJ_IVECX_C_2_.csv

>>> COPY /lustre/isaac/scratch/gjones39/ANO-RCC-VTZP/ozone_122.50/3189781/GMJ_IVECC2_C_2_.csv /lustre/isaac/scratch/gjones39/ANO-RCC-VTZP/ozone_122.50/GMJ_IVECC2_C_2_.csv

>>> COPY /lustre/isaac/scratch/gjones39/ANO-RCC-VTZP/ozone_122.50/3189781/GMJ_e2_C_2_.csv /lustre/isaac/scratch/gjones39/ANO-RCC-VTZP/ozone_122.50/GMJ_e2_C_2_.csv

>>> END FOREACH

>>> EXPORT i = D

>>> IF (-FILE GMJ_e2_${i}_${j}_.csv)

>>> COPY /lustre/isaac/scratch/gjones39/ANO-RCC-VTZP/ozone_122.50/3189781/GMJ_RHS_D_2_.csv /lustre/isaac/scratch/gjones39/ANO-RCC-VTZP/ozone_122.50/GMJ_RHS_D_2_.csv

>>> COPY /lustre/isaac/scratch/gjones39/ANO-RCC-VTZP/ozone_122.50/3189781/GMJ_IVECW_D_2_.csv /lustre/isaac/scratch/gjones39/ANO-RCC-VTZP/ozone_122.50/GMJ_IVECW_D_2_.csv

>>> COPY /lustre/isaac/scratch/gjones39/ANO-RCC-VTZP/ozone_122.50/3189781/GMJ_IVECX_D_2_.csv /lustre/isaac/scratch/gjones39/ANO-RCC-VTZP/ozone_122.50/GMJ_IVECX_D_2_.csv

>>> COPY /lustre/isaac/scratch/gjones39/ANO-RCC-VTZP/ozone_122.50/3189781/GMJ_IVECC2_D_2_.csv /lustre/isaac/scratch/gjones39/ANO-RCC-VTZP/ozone_122.50/GMJ_IVECC2_D_2_.csv

>>> COPY /lustre/isaac/scratch/gjones39/ANO-RCC-VTZP/ozone_122.50/3189781/GMJ_e2_D_2_.csv /lustre/isaac/scratch/gjones39/ANO-RCC-VTZP/ozone_122.50/GMJ_e2_D_2_.csv

>>> END FOREACH

>>> END FOREACH

>>> EXPORT j = 3

>>> EXPORT i = A

>>> IF (-FILE GMJ_e2_${i}_${j}_.csv)

>>> COPY /lustre/isaac/scratch/gjones39/ANO-RCC-VTZP/ozone_122.50/3189781/GMJ_RHS_A_3_.csv /lustre/isaac/scratch/gjones39/ANO-RCC-VTZP/ozone_122.50/GMJ_RHS_A_3_.csv

>>> COPY /lustre/isaac/scratch/gjones39/ANO-RCC-VTZP/ozone_122.50/3189781/GMJ_IVECW_A_3_.csv /lustre/isaac/scratch/gjones39/ANO-RCC-VTZP/ozone_122.50/GMJ_IVECW_A_3_.csv

>>> COPY /lustre/isaac/scratch/gjones39/ANO-RCC-VTZP/ozone_122.50/3189781/GMJ_IVECX_A_3_.csv /lustre/isaac/scratch/gjones39/ANO-RCC-VTZP/ozone_122.50/GMJ_IVECX_A_3_.csv

>>> COPY /lustre/isaac/scratch/gjones39/ANO-RCC-VTZP/ozone_122.50/3189781/GMJ_IVECC2_A_3_.csv /lustre/isaac/scratch/gjones39/ANO-RCC-VTZP/ozone_122.50/GMJ_IVECC2_A_3_.csv

>>> COPY /lustre/isaac/scratch/gjones39/ANO-RCC-VTZP/ozone_122.50/3189781/GMJ_e2_A_3_.csv /lustre/isaac/scratch/gjones39/ANO-RCC-VTZP/ozone_122.50/GMJ_e2_A_3_.csv

>>> END FOREACH

>>> EXPORT i = C

>>> IF (-FILE GMJ_e2_${i}_${j}_.csv)

>>> COPY /lustre/isaac/scratch/gjones39/ANO-RCC-VTZP/ozone_122.50/3189781/GMJ_RHS_C_3_.csv /lustre/isaac/scratch/gjones39/ANO-RCC-VTZP/ozone_122.50/GMJ_RHS_C_3_.csv

>>> COPY /lustre/isaac/scratch/gjones39/ANO-RCC-VTZP/ozone_122.50/3189781/GMJ_IVECW_C_3_.csv /lustre/isaac/scratch/gjones39/ANO-RCC-VTZP/ozone_122.50/GMJ_IVECW_C_3_.csv

>>> COPY /lustre/isaac/scratch/gjones39/ANO-RCC-VTZP/ozone_122.50/3189781/GMJ_IVECX_C_3_.csv /lustre/isaac/scratch/gjones39/ANO-RCC-VTZP/ozone_122.50/GMJ_IVECX_C_3_.csv

>>> COPY /lustre/isaac/scratch/gjones39/ANO-RCC-VTZP/ozone_122.50/3189781/GMJ_IVECC2_C_3_.csv /lustre/isaac/scratch/gjones39/ANO-RCC-VTZP/ozone_122.50/GMJ_IVECC2_C_3_.csv

>>> COPY /lustre/isaac/scratch/gjones39/ANO-RCC-VTZP/ozone_122.50/3189781/GMJ_e2_C_3_.csv /lustre/isaac/scratch/gjones39/ANO-RCC-VTZP/ozone_122.50/GMJ_e2_C_3_.csv

>>> END FOREACH

>>> EXPORT i = D

>>> IF (-FILE GMJ_e2_${i}_${j}_.csv)

>>> COPY /lustre/isaac/scratch/gjones39/ANO-RCC-VTZP/ozone_122.50/3189781/GMJ_RHS_D_3_.csv /lustre/isaac/scratch/gjones39/ANO-RCC-VTZP/ozone_122.50/GMJ_RHS_D_3_.csv

>>> COPY /lustre/isaac/scratch/gjones39/ANO-RCC-VTZP/ozone_122.50/3189781/GMJ_IVECW_D_3_.csv /lustre/isaac/scratch/gjones39/ANO-RCC-VTZP/ozone_122.50/GMJ_IVECW_D_3_.csv

>>> COPY /lustre/isaac/scratch/gjones39/ANO-RCC-VTZP/ozone_122.50/3189781/GMJ_IVECX_D_3_.csv /lustre/isaac/scratch/gjones39/ANO-RCC-VTZP/ozone_122.50/GMJ_IVECX_D_3_.csv

>>> COPY /lustre/isaac/scratch/gjones39/ANO-RCC-VTZP/ozone_122.50/3189781/GMJ_IVECC2_D_3_.csv /lustre/isaac/scratch/gjones39/ANO-RCC-VTZP/ozone_122.50/GMJ_IVECC2_D_3_.csv

>>> COPY /lustre/isaac/scratch/gjones39/ANO-RCC-VTZP/ozone_122.50/3189781/GMJ_e2_D_3_.csv /lustre/isaac/scratch/gjones39/ANO-RCC-VTZP/ozone_122.50/GMJ_e2_D_3_.csv

>>> END FOREACH

>>> END FOREACH

    Timing: Wall=122.06 User=43.92 System=20.94
*******************************************************************************************
*** WorkDir at /lustre/isaac/scratch/gjones39/ANO-RCC-VTZP/ozone_122.50/3189781 cleaned ***
*******************************************************************************************
