[Molden Format]
[N_Atoms]
                     2
[Atoms] (AU)
BE1         1      4           0.00000000      0.00000000      0.00000000
BE2         2      4           0.00000000      0.00000000      1.88972612
[Charge] (Mulliken)
 -3.117506253147440E-013
  3.033129303275928E-013
[GTO] (AU)
   1
   s  14
  2.262859900E+04  8.443999941E-05
  3.372318100E+03  4.601499968E-04
  7.603504000E+02  2.285389984E-03
  2.117404800E+02  9.648129932E-03
  6.722346800E+01  3.494469975E-02
  2.337217700E+01  1.061099893E-01
  8.721373000E+00  2.458240383E-01
  3.468091000E+00  3.862428773E-01
  1.452144000E+00  3.105526078E-01
  6.086150000E-01  6.415933955E-02
  2.576860000E-01 -2.265049984E-03
  1.041760000E-01 -5.217499963E-04
  4.242700000E-02 -8.757499938E-04
  1.484900000E-02  1.242199991E-04
   s  14
  2.262859900E+04 -1.586999994E-05
  3.372318100E+03 -8.656999968E-05
  7.603504000E+02 -4.302199984E-04
  2.117404800E+02 -1.825079993E-03
  6.722346800E+01 -6.682749976E-03
  2.337217700E+01 -2.095119992E-02
  8.721373000E+00 -5.200308981E-02
  3.468091000E+00 -9.849176964E-02
  1.452144000E+00 -1.355800695E-01
  6.086150000E-01 -6.429875976E-02
  2.576860000E-01  3.125414989E-01
  1.041760000E-01  6.270468577E-01
  4.242700000E-02  2.110231492E-01
  1.484900000E-02 -4.104669985E-03
   p   9
  3.371018400E+01  1.069960000E-03
  8.057649500E+00  6.828550001E-03
  2.836471400E+00  2.119065000E-02
  1.099965700E+00  5.843696001E-02
  4.433964000E-01  2.020920800E-01
  1.822264000E-01  4.582953101E-01
  7.572410000E-02  3.691239601E-01
  3.168540000E-02  6.611471001E-02
  1.108990000E-02  1.405160000E-03
 
   2
   s  14
  2.262859900E+04  8.443999941E-05
  3.372318100E+03  4.601499968E-04
  7.603504000E+02  2.285389984E-03
  2.117404800E+02  9.648129932E-03
  6.722346800E+01  3.494469975E-02
  2.337217700E+01  1.061099893E-01
  8.721373000E+00  2.458240383E-01
  3.468091000E+00  3.862428773E-01
  1.452144000E+00  3.105526078E-01
  6.086150000E-01  6.415933955E-02
  2.576860000E-01 -2.265049984E-03
  1.041760000E-01 -5.217499963E-04
  4.242700000E-02 -8.757499938E-04
  1.484900000E-02  1.242199991E-04
   s  14
  2.262859900E+04 -1.586999994E-05
  3.372318100E+03 -8.656999968E-05
  7.603504000E+02 -4.302199984E-04
  2.117404800E+02 -1.825079993E-03
  6.722346800E+01 -6.682749976E-03
  2.337217700E+01 -2.095119992E-02
  8.721373000E+00 -5.200308981E-02
  3.468091000E+00 -9.849176964E-02
  1.452144000E+00 -1.355800695E-01
  6.086150000E-01 -6.429875976E-02
  2.576860000E-01  3.125414989E-01
  1.041760000E-01  6.270468577E-01
  4.242700000E-02  2.110231492E-01
  1.484900000E-02 -4.104669985E-03
   p   9
  3.371018400E+01  1.069960000E-03
  8.057649500E+00  6.828550001E-03
  2.836471400E+00  2.119065000E-02
  1.099965700E+00  5.843696001E-02
  4.433964000E-01  2.020920800E-01
  1.822264000E-01  4.582953101E-01
  7.572410000E-02  3.691239601E-01
  3.168540000E-02  6.611471001E-02
  1.108990000E-02  1.405160000E-03
 
[MO]
Sym=     1a  
Ene=    -5.0718
Spin= Alpha
Occup=    1.00000
   1         0.69361638
   2        -0.00091490
   3         0.00000000
   4        -0.00000000
   5         0.01436976
   6         0.69361638
   7        -0.00091490
   8         0.00000000
   9         0.00000000
  10        -0.01436976
Sym=     1a  
Ene=    -5.0718
Spin= Beta
Occup=    1.00000
   1         0.69361638
   2        -0.00091490
   3         0.00000000
   4        -0.00000000
   5         0.01436976
   6         0.69361638
   7        -0.00091490
   8         0.00000000
   9         0.00000000
  10        -0.01436976
Sym=     2a  
Ene=    -4.9472
Spin= Alpha
Occup=    1.00000
   1        -0.72994203
   2        -0.04154194
   3         0.00000000
   4         0.00000000
   5        -0.01766978
   6         0.72994203
   7         0.04154194
   8         0.00000000
   9         0.00000000
  10        -0.01766978
Sym=     2a  
Ene=    -4.9472
Spin= Beta
Occup=    1.00000
   1        -0.72994203
   2        -0.04154194
   3         0.00000000
   4         0.00000000
   5        -0.01766978
   6         0.72994203
   7         0.04154194
   8         0.00000000
   9         0.00000000
  10        -0.01766978
Sym=     3a  
Ene=    -0.4935
Spin= Alpha
Occup=    1.00000
   1        -0.14289116
   2         0.47842523
   3        -0.00000000
   4        -0.00000000
   5         0.20579658
   6        -0.14289116
   7         0.47842523
   8         0.00000000
   9        -0.00000000
  10        -0.20579658
Sym=     3a  
Ene=    -0.4935
Spin= Beta
Occup=    1.00000
   1        -0.14289116
   2         0.47842523
   3        -0.00000000
   4        -0.00000000
   5         0.20579658
   6        -0.14289116
   7         0.47842523
   8         0.00000000
   9        -0.00000000
  10        -0.20579658
Sym=     4a  
Ene=    -0.2319
Spin= Alpha
Occup=    1.00000
   1        -0.00524434
   2        -0.61421472
   3         0.00000000
   4         0.00000000
   5         0.39913830
   6         0.00524434
   7         0.61421472
   8         0.00000000
   9         0.00000000
  10         0.39913830
Sym=     4a  
Ene=    -0.2319
Spin= Beta
Occup=    1.00000
   1        -0.00524434
   2        -0.61421472
   3         0.00000000
   4         0.00000000
   5         0.39913830
   6         0.00524434
   7         0.61421472
   8         0.00000000
   9         0.00000000
  10         0.39913830
Sym=     5a  
Ene=    -0.0918
Spin= Alpha
Occup=    0.00000
   1         0.00000000
   2         0.00000000
   3         0.52426155
   4        -0.10502391
   5        -0.00000000
   6        -0.00000000
   7        -0.00000000
   8         0.52426155
   9        -0.10502391
  10        -0.00000000
Sym=     5a  
Ene=    -0.0918
Spin= Beta
Occup=    0.00000
   1         0.00000000
   2         0.00000000
   3         0.52426155
   4        -0.10502391
   5        -0.00000000
   6        -0.00000000
   7        -0.00000000
   8         0.52426155
   9        -0.10502391
  10        -0.00000000
Sym=     6a  
Ene=    -0.0918
Spin= Alpha
Occup=    0.00000
   1         0.00000000
   2         0.00000000
   3         0.10502391
   4         0.52426155
   5        -0.00000000
   6        -0.00000000
   7        -0.00000000
   8         0.10502391
   9         0.52426155
  10        -0.00000000
Sym=     6a  
Ene=    -0.0918
Spin= Beta
Occup=    0.00000
   1         0.00000000
   2         0.00000000
   3         0.10502391
   4         0.52426155
   5        -0.00000000
   6        -0.00000000
   7        -0.00000000
   8         0.10502391
   9         0.52426155
  10        -0.00000000
Sym=     7a  
Ene=     0.0794
Spin= Alpha
Occup=    0.00000
   1         0.21054446
   2         0.31661230
   3        -0.00000000
   4        -0.00000000
   5        -0.97521984
   6         0.21054446
   7         0.31661230
   8        -0.00000000
   9        -0.00000000
  10         0.97521984
Sym=     7a  
Ene=     0.0794
Spin= Beta
Occup=    0.00000
   1         0.21054446
   2         0.31661230
   3        -0.00000000
   4        -0.00000000
   5        -0.97521984
   6         0.21054446
   7         0.31661230
   8        -0.00000000
   9        -0.00000000
  10         0.97521984
Sym=     8a  
Ene=     0.2781
Spin= Alpha
Occup=    0.00000
   1         0.00000000
   2        -0.00000000
   3        -1.38899340
   4        -0.25021096
   5        -0.00000000
   6         0.00000000
   7         0.00000000
   8         1.38899340
   9         0.25021096
  10         0.00000000
Sym=     8a  
Ene=     0.2781
Spin= Beta
Occup=    0.00000
   1         0.00000000
   2        -0.00000000
   3        -1.38899340
   4        -0.25021096
   5        -0.00000000
   6         0.00000000
   7         0.00000000
   8         1.38899340
   9         0.25021096
  10         0.00000000
Sym=     9a  
Ene=     0.2781
Spin= Alpha
Occup=    0.00000
   1         0.00000000
   2        -0.00000000
   3         0.25021096
   4        -1.38899340
   5        -0.00000000
   6         0.00000000
   7         0.00000000
   8        -0.25021096
   9         1.38899340
  10         0.00000000
Sym=     9a  
Ene=     0.2781
Spin= Beta
Occup=    0.00000
   1         0.00000000
   2        -0.00000000
   3         0.25021096
   4        -1.38899340
   5        -0.00000000
   6         0.00000000
   7         0.00000000
   8        -0.25021096
   9         1.38899340
  10         0.00000000
Sym=    10a  
Ene=     2.7509
Spin= Alpha
Occup=    0.00000
   1        -2.97936175
   2       -10.30134632
   3         0.00000000
   4         0.00000000
   5        -3.84241064
   6         2.97936175
   7        10.30134632
   8         0.00000000
   9         0.00000000
  10        -3.84241064
Sym=    10a  
Ene=     2.7509
Spin= Beta
Occup=    0.00000
   1        -2.97936175
   2       -10.30134632
   3         0.00000000
   4         0.00000000
   5        -3.84241064
   6         2.97936175
   7        10.30134632
   8         0.00000000
   9         0.00000000
  10        -3.84241064
