[Molden Format]
[N_Atoms]
                     2
[Atoms] (AU)
BE1         1      4           0.00000000      0.00000000      0.00000000
BE2         2      4           0.00000000      0.00000000      1.88972612
[Charge] (Mulliken)
  0.999999999999494     
   1.00000000000050     
[GTO] (AU)
   1
   s  14
  2.262859900E+04  8.443999941E-05
  3.372318100E+03  4.601499968E-04
  7.603504000E+02  2.285389984E-03
  2.117404800E+02  9.648129932E-03
  6.722346800E+01  3.494469975E-02
  2.337217700E+01  1.061099893E-01
  8.721373000E+00  2.458240383E-01
  3.468091000E+00  3.862428773E-01
  1.452144000E+00  3.105526078E-01
  6.086150000E-01  6.415933955E-02
  2.576860000E-01 -2.265049984E-03
  1.041760000E-01 -5.217499963E-04
  4.242700000E-02 -8.757499938E-04
  1.484900000E-02  1.242199991E-04
   s  14
  2.262859900E+04 -1.586999994E-05
  3.372318100E+03 -8.656999968E-05
  7.603504000E+02 -4.302199984E-04
  2.117404800E+02 -1.825079993E-03
  6.722346800E+01 -6.682749976E-03
  2.337217700E+01 -2.095119992E-02
  8.721373000E+00 -5.200308981E-02
  3.468091000E+00 -9.849176964E-02
  1.452144000E+00 -1.355800695E-01
  6.086150000E-01 -6.429875976E-02
  2.576860000E-01  3.125414989E-01
  1.041760000E-01  6.270468577E-01
  4.242700000E-02  2.110231492E-01
  1.484900000E-02 -4.104669985E-03
   p   9
  3.371018400E+01  1.069960000E-03
  8.057649500E+00  6.828550001E-03
  2.836471400E+00  2.119065000E-02
  1.099965700E+00  5.843696001E-02
  4.433964000E-01  2.020920800E-01
  1.822264000E-01  4.582953101E-01
  7.572410000E-02  3.691239601E-01
  3.168540000E-02  6.611471001E-02
  1.108990000E-02  1.405160000E-03
 
   2
   s  14
  2.262859900E+04  8.443999941E-05
  3.372318100E+03  4.601499968E-04
  7.603504000E+02  2.285389984E-03
  2.117404800E+02  9.648129932E-03
  6.722346800E+01  3.494469975E-02
  2.337217700E+01  1.061099893E-01
  8.721373000E+00  2.458240383E-01
  3.468091000E+00  3.862428773E-01
  1.452144000E+00  3.105526078E-01
  6.086150000E-01  6.415933955E-02
  2.576860000E-01 -2.265049984E-03
  1.041760000E-01 -5.217499963E-04
  4.242700000E-02 -8.757499938E-04
  1.484900000E-02  1.242199991E-04
   s  14
  2.262859900E+04 -1.586999994E-05
  3.372318100E+03 -8.656999968E-05
  7.603504000E+02 -4.302199984E-04
  2.117404800E+02 -1.825079993E-03
  6.722346800E+01 -6.682749976E-03
  2.337217700E+01 -2.095119992E-02
  8.721373000E+00 -5.200308981E-02
  3.468091000E+00 -9.849176964E-02
  1.452144000E+00 -1.355800695E-01
  6.086150000E-01 -6.429875976E-02
  2.576860000E-01  3.125414989E-01
  1.041760000E-01  6.270468577E-01
  4.242700000E-02  2.110231492E-01
  1.484900000E-02 -4.104669985E-03
   p   9
  3.371018400E+01  1.069960000E-03
  8.057649500E+00  6.828550001E-03
  2.836471400E+00  2.119065000E-02
  1.099965700E+00  5.843696001E-02
  4.433964000E-01  2.020920800E-01
  1.822264000E-01  4.582953101E-01
  7.572410000E-02  3.691239601E-01
  3.168540000E-02  6.611471001E-02
  1.108990000E-02  1.405160000E-03
 
[MO]
Sym=     1a  
Ene=    -5.7546
Spin= Alpha
Occup=    2.00000
   1         0.69467959
   2        -0.00127945
   3        -0.00000000
   4         0.00000000
   5         0.01071374
   6         0.69467959
   7        -0.00127945
   8         0.00000000
   9        -0.00000000
  10        -0.01071374
Sym=     2a  
Ene=    -5.6330
Spin= Alpha
Occup=    2.00000
   1        -0.72275621
   2        -0.01733259
   3        -0.00000000
   4         0.00000000
   5        -0.00797828
   6         0.72275621
   7         0.01733259
   8        -0.00000000
   9         0.00000000
  10        -0.00797828
Sym=     3a  
Ene=    -1.0494
Spin= Alpha
Occup=    1.99618
   1        -0.17385866
   2         0.41855776
   3         0.00000011
   4        -0.00000096
   5         0.36645057
   6        -0.17385866
   7         0.41855776
   8        -0.00000011
   9         0.00000096
  10        -0.36645057
Sym=     4a  
Ene=     0.0003
Spin= Alpha
Occup=    0.00382
   1        -0.25999300
   2        -1.49492169
   3        -0.00001643
   4         0.00013801
   5         0.06832323
   6         0.25999300
   7         1.49492169
   8        -0.00001643
   9         0.00013801
  10         0.06832323
Sym=     5a  
Ene=    -0.6213
Spin= Alpha
Occup=    0.00000
   1         0.00000000
   2        -0.00000000
   3         0.53092936
   4         0.06319970
   5         0.00000000
   6        -0.00000000
   7         0.00000000
   8         0.53092936
   9         0.06319970
  10         0.00000000
Sym=     6a  
Ene=    -0.6213
Spin= Alpha
Occup=    0.00000
   1        -0.00000038
   2         0.00015490
   3        -0.06319970
   4         0.53092935
   5        -0.00010616
   6         0.00000038
   7        -0.00015490
   8        -0.06319970
   9         0.53092935
  10        -0.00010616
Sym=     7a  
Ene=    -0.4567
Spin= Alpha
Occup=    0.00000
   1         0.18178001
   2         0.39235526
   3        -0.00000003
   4         0.00000029
   5        -0.92693671
   6         0.18178001
   7         0.39235526
   8         0.00000003
   9        -0.00000029
  10         0.92693671
Sym=     8a  
Ene=    -0.2706
Spin= Alpha
Occup=    0.00000
   1         0.00000016
   2        -0.00000021
   3         0.16517017
   4        -1.40165153
   5        -0.00000044
   6         0.00000016
   7        -0.00000021
   8        -0.16517017
   9         1.40165153
  10         0.00000044
Sym=     9a  
Ene=    -0.2706
Spin= Alpha
Occup=    0.00000
   1        -0.00000000
   2         0.00000000
   3        -1.40165153
   4        -0.16517017
   5         0.00000000
   6        -0.00000000
   7         0.00000000
   8         1.40165153
   9         0.16517017
  10        -0.00000000
Sym=    10a  
Ene=     2.1133
Spin= Alpha
Occup=    0.00000
   1        -2.96975865
   2       -10.21085844
   3         0.00000145
   4        -0.00001215
   5        -3.86251361
   6         2.96975865
   7        10.21085844
   8         0.00000145
   9        -0.00001215
  10        -3.86251361
