   This run of MOLCAS is using the pymolcas driver

                             OPE
                             OPE          NMOL  CASOP  ENMOLC A   SO
                 OPE        NMOLC        AS  OP EN  MO LC     AS  OP
                OPENM       OL CA        SO  PE NM  OL CA     SOP EN
                OP EN      MO   LC       AS  OP ENMOL  CASO   PENMOL
                OP  EN     MO   LC       AS  OP EN     MO     LC ASO
               OP   E  NMOL  C  AS       OP  EN MO     LC     AS  OP
               OP  E   NMO   LC AS        OPEN  MO     LCASOP EN   M
               O  PEN   MO  LCA  SO
            OPE   NMO   L   CAS    OP
        OPENMOL  CASOP     ENMOL   CASOPE
     OPENMOLCA   SOPENMOLCASOPEN   MOLCASOPE
    OPENMOLCAS   OP           EN   MOL    CAS
    OPENMOLCAS       OP  ENM        O     LCA
    OPENMOLCAS    OPEN  MOLCASO     P  E  NMO
    OPENMOLCAS     OP               E  N  MOL
    OPENMOLCA   SO           PENM   O  L  CAS    OPEN    MO    LCAS
    OPENMOLCA   SOP           ENM   O  L  CAS   OP  EN  MOLC  AS   O
    OPENMOLCA   SOPE           NM      O  LCA   S      OP  EN MO
    OPENMOLC                AS         O  PEN   M      OL  CA  SOPE
    OPENMO        LCASOPE  NMOL        C  ASO   P      ENMOLC     AS
    OPE     NMO      LCA  SO     P     E   NM   OL  CA SO  PE N   MO
          OPENMOLCA            SOPE   NMO        LCAS  O    P  ENMO
     OPENMOLCASOPENMOLCASOPENMOLCASOPENMOLCA
        OPENMOLCASOPENMOLCASOPENMOLCASOPE
            OPENMOLCASOPENMOLCASOPENM
               OPENMOLCASOPENMOLCA        version: f37762c57
                   OPENMOLCASO
                       OPE                tag:

 OpenMolcas is free software; you can redistribute it and/or modify it
 under the terms of the GNU Lesser General Public License version 2.1.
 OpenMolcas is distributed in the hope that it will be useful, but it
 is provided "as is" and without any express or implied warranties.
 For more details see the full text of the license in the file
 LICENSE or in <http://www.gnu.org/licenses/>.

                 Copyright (C) The OpenMolcas Authors
           For the author list and the recommended citation,
                   consult the file CONTRIBUTORS.md

           *************************************************
           * pymolcas version py2.28                       *
           *   build c4a6d18ded8cb6cad61d2372a9abd97c      *
           *   (after the EMIL interpreter by V. Veryazov) *
           *************************************************

configuration info
------------------
C Compiler ID: Intel
C flags: -std=gnu99 -gcc-sys
Fortran Compiler ID: IntelLLVM
Fortran flags: -standard-semantics -fltconsistency -fpp -i8 -heap-arrays
Definitions: _MOLCAS_;_I8_;_LINUX_
Parallel: OFF (GA=OFF)


   ------------------------------------------------------------------------------------
  |
  |              Project: 2.74
  |       Submitted from: /home/grierjones/DDCASPT2/iron_oxo_DDCASPT2/MScaspt2iron/2.74
  |         Scratch area: /tmp/2.74
  |      Save outputs to: /home/grierjones/DDCASPT2/iron_oxo_DDCASPT2/MScaspt2iron/2.74
  |               Molcas: /home/grierjones/Test/build
  |
  | Scratch area is empty
  |
  |       MOLCAS_DRIVER = /usr/local/pymolcas
  | MOLCAS_KEEP_WORKDIR = NO
  |  MOLCAS_NEW_WORKDIR = YES
  |       MOLCAS_NPROCS = 1
  |        MOLCAS_PRINT = NORMAL
  |       MOLCAS_SOURCE = /home/grierjones/Test
  |    MOLCAS_STRUCTURE = 0
  |
   ------------------------------------------------------------------------------------

++ ---------   Input file   ---------

&GATEWAY
coord=2.74.xyz
Basis = ANO-RCC-VTZP
Group = nosymm
End of Input

&SEWARD
End of Input

&SCF
UHF
charge
2
spin
5
FileOrb
/home/grierjones/DDCASPT2/iron_oxo_DDCASPT2/MScaspt2iron/2.72/2.72.UhfOrb

>>> COPY $WorkDir/2.74.scf.h5 $CurrDir/

&RASSCF
Title= RASSCF
FileOrb
/home/grierjones/DDCASPT2/iron_oxo_DDCASPT2/MScaspt2iron/2.72/2.72.RasOrb
CIROOT
3 3 1
NACTEL
10 0 0
RAS2
14
Symmetry
1
Spin
5
charge
2
orblisting
all

>>> COPY $WorkDir/2.74.rasscf.h5 $CurrDir/

>>> COPY $WorkDir/GMJ_Fock_MO.csv $CurrDir/2.74.GMJ_Fock_MO.csv

&MOTRA
Frozen=0
LUMORB

>>> COPY $WorkDir/GMJ_one_int_indx.csv $CurrDir/2.74.GMJ_one_int_indx.csv

>>> COPY $WorkDir/GMJ_one_int.csv $CurrDir/2.74.GMJ_one_int.csv

>>> COPY $WorkDir/GMJ_two_int_indx.csv $CurrDir/2.74.GMJ_two_int_indx.csv

>>> COPY $WorkDir/GMJ_two_int.csv $CurrDir/2.74.GMJ_two_int.csv

&CASPT2

Imaginary Shift
0.2
IPEA
0.25

Frozen
0

MAXITER
50

>>> FOREACH k IN (1,2,3)

  >>> FOREACH i IN (B,E,F,G,H)

    >>> FOREACH j IN (P,M)

      >>> IF (-FILE GMJ_e2_${i}_${j}_${k}_.csv)

        >>> COPY $WorkDir/GMJ_RHS_${i}_${j}_${k}_.csv $CurrDir/GMJ_RHS_${i}_${j}_${k}_.csv

        >>> COPY $WorkDir/GMJ_IVECW_${i}_${j}_${k}_.csv $CurrDir/GMJ_IVECW_${i}_${j}_${k}_.csv

        >>> COPY $WorkDir/GMJ_IVECX_${i}_${j}_${k}_.csv $CurrDir/GMJ_IVECX_${i}_${j}_${k}_.csv

        >>> COPY $WorkDir/GMJ_IVECC2_${i}_${j}_${k}_.csv $CurrDir/GMJ_IVECC2_${i}_${j}_${k}_.csv

        >>> COPY $WorkDir/GMJ_e2_${i}_${j}_${k}_.csv $CurrDir/GMJ_e2_${i}_${j}_${k}_.csv

      >>> END IF

    >>> END FOREACH

  >>> END FOREACH

>>> END FOREACH

>>> FOREACH j IN (1,2,3)

  >>> FOREACH i IN (A,C,D)

    >>> IF (-FILE GMJ_e2_${i}_${j}_.csv)

      >>> COPY $WorkDir/GMJ_RHS_${i}_${j}_.csv $CurrDir/GMJ_RHS_${i}_${j}_.csv

      >>> COPY $WorkDir/GMJ_IVECW_${i}_${j}_.csv $CurrDir/GMJ_IVECW_${i}_${j}_.csv

      >>> COPY $WorkDir/GMJ_IVECX_${i}_${j}_.csv $CurrDir/GMJ_IVECX_${i}_${j}_.csv

      >>> COPY $WorkDir/GMJ_IVECC2_${i}_${j}_.csv $CurrDir/GMJ_IVECC2_${i}_${j}_.csv

      >>> COPY $WorkDir/GMJ_e2_${i}_${j}_.csv $CurrDir/GMJ_e2_${i}_${j}_.csv

    >>> END IF

  >>> END FOREACH

>>> END FOREACH

-- ----------------------------------

--- Start Module: gateway at Thu Apr 17 23:35:24 2025 ---
 
()()()()()()()()()()()()()()()()()()()()()()()()()()()()()()()()()()()()()()()()()()()()()()()()()()

                                              &GATEWAY

                                   only a single process is used
                       available to each process: 2.0 GB of memory, 1 thread?
()()()()()()()()()()()()()()()()()()()()()()()()()()()()()()()()()()()()()()()()()()()()()()()()()()
 
 
++    Symmetry information:
      ---------------------
 
                    Character Table for C1 
 
                             E  
                    a        1  x, y, xy, Rz, z, xz, Ry, yz, Rx, I
--
 
 
++    Basis set information:
      ----------------------
 
 
      Basis set label: O.ANO-RCC...4S3P2D1F.
 
      Electronic valence basis set:
      ------------------
      Associated Effective Charge   8.000000 au
      Associated Actual Charge      8.000000 au
      Nuclear Model: Point charge
 
      Shell  nPrim  nBasis  Cartesian Spherical Contaminant
         s      14       4        X                  
         p       9       3        X                  
         d       4       2                 X         
         f       3       1                 X         
 
 
      Basis set label: FE.ANO-RCC...6S5P3D2F1G.
 
      Electronic valence basis set:
      ------------------
      Associated Effective Charge  26.000000 au
      Associated Actual Charge     26.000000 au
      Nuclear Model: Point charge
 
      Shell  nPrim  nBasis  Cartesian Spherical Contaminant
         s      21       6        X                  
         p      15       5        X                  
         d      10       3                 X         
         f       6       2                 X         
         g       4       1                 X         
--
 
 
++    Molecular structure info:
      -------------------------
 
                    ************************************************ 
                    **** Cartesian Coordinates / Bohr, Angstrom **** 
                    ************************************************ 
 
     Center  Label                x              y              z                     x              y              z
        1      O1               0.000000       0.000000       4.100706              0.000000       0.000000       2.170000
        2      FE2              0.000000       0.000000      -1.077144              0.000000       0.000000      -0.570000
--
 
 
            Nuclear Potential Energy             40.17111672 au
 
--- Stop Module: gateway at Thu Apr 17 23:35:25 2025 /rc=_RC_ALL_IS_WELL_ ---
*** files: xmldump
    saved to directory /home/grierjones/DDCASPT2/iron_oxo_DDCASPT2/MScaspt2iron/2.74

--- Start Module: seward at Thu Apr 17 23:35:25 2025 ---
 
()()()()()()()()()()()()()()()()()()()()()()()()()()()()()()()()()()()()()()()()()()()()()()()()()()

                                              &SEWARD

                                   only a single process is used
                       available to each process: 2.0 GB of memory, 1 thread?
()()()()()()()()()()()()()()()()()()()()()()()()()()()()()()()()()()()()()()()()()()()()()()()()()()
 
               SEWARD will generate:
                  Multipole Moment integrals up to order  2
                  Kinetic Energy integrals
                  Nuclear Attraction integrals (point charge)
                  One-Electron Hamiltonian integrals
                  Velocity integrals
                  Relativistic Douglas-Kroll-Hess integrals:
                    - Parametrization         : EXP
                    - DKH order of Hamiltonian: 2
                    - DKH order of Properties : 0
                         - multipole moment operators
                         - electric potential operators
                         - contact operators
                  Atomic mean-field integrals
                  Two-Electron Repulsion integrals
 
                   Integrals are discarded if absolute value <: 0.10E-13
                   Integral cutoff threshold is set to       <: 0.10E-15
 
            Nuclear Potential Energy             40.17111672 au
 
 
      Basis set specifications :
      Symmetry species         a  
      Basis functions           89
 
 
  Input file to MOLDEN was generated!
 
forrtl: warning (525): IEEE_DIVIDE_BY_ZERO is signaling
forrtl: warning (526): IEEE_INVALID is signaling
forrtl: warning (528): IEEE_UNDERFLOW is signaling
--- Stop Module: seward at Thu Apr 17 23:35:28 2025 /rc=_RC_ALL_IS_WELL_ ---
*** files: 2.74.GssOrb 2.74.guessorb.h5 2.74.guessorb.molden xmldump
    saved to directory /home/grierjones/DDCASPT2/iron_oxo_DDCASPT2/MScaspt2iron/2.74
--- Module seward spent 2 seconds ---

*** symbolic link created: INPORB -> 2.74.GssOrb
--- Start Module: scf at Thu Apr 17 23:35:28 2025 ---
 
()()()()()()()()()()()()()()()()()()()()()()()()()()()()()()()()()()()()()()()()()()()()()()()()()()

                                                &SCF

                                   only a single process is used
                       available to each process: 2.0 GB of memory, 1 thread?
()()()()()()()()()()()()()()()()()()()()()()()()()()()()()()()()()()()()()()()()()()()()()()()()()()
 
 *** Possible bug in opening file
 *** isFreeUnit resets the unit number
++    Input section:
      --------------
 
      Header of the integral files:
      
       Integrals generated by seward 4.2.0  , Thu Apr 17 23:35:25 2025
 
 
      Cartesian coordinates in Angstrom:
      -----------------------------------------------------
      No.  Label        X            Y            Z        
      -----------------------------------------------------
       1   O1         0.00000000   0.00000000   2.17000000
       2   FE2        0.00000000   0.00000000  -0.57000000
      -----------------------------------------------------
      Nuclear repulsion energy =   40.17111672
--
 
++    Orbital specifications:
      -----------------------
 
      Symmetry species               1
                                     a
      Frozen orbitals                0
      Occupied orbitals alpha       18
      Occupied orbitals beta        14
      Secondary orbitals alpha      71
      Secondary orbitals beta       75
      Deleted orbitals               0
      Total number of orbitals      89
      Number of basis functions     89
--
 
      Molecular charge                           2.000
 
++    Optimization specifications:
      ----------------------------
 
      SCF Algorithm: Conventional USCF
      D(i)-D(i-1) density differences are used
      Number of density matrices in core                5
      Maximum number of NDDO SCF iterations           400
      Maximum number of HF SCF iterations             400
      Threshold for SCF energy change            0.10E-08
      Threshold for density matrix               0.10E-03
      Threshold for Fock matrix                  0.15E-03
      Threshold for linear dependence            0.10E-08
      Threshold at which DIIS is turned on       0.15E+00
      Threshold at which QNR/C2DIIS is turned on 0.75E-01
      Threshold for Norm(delta) (QNR/C2DIIS)     0.20E-04
      DIIS extrapolation of the SCF procedure
      All orbitals punched on: UHFORB
--
 
      Input vectors read from INPORB
      Orbital file label: * UHF orbitals
 
 
++ Convergence information
                               UHF SCF        iterations: Energy and convergence statistics
 
Iter     Tot. SCF        One-elec.       Two-elec.     Energy      Max Dij or  Max Fij      DNorm      TNorm      AccCon     Time
         Energy          Energy          Energy        Change      Delta Norm                                                in Sec.
 
 The total and one-electron energies are shifted by a value of      1000. a.u.
 
   1  -345.194389749  -923.474707552   538.109201081   0.00E+00    0.64E-02*   0.73E-03*    0.81E+01   0.21E+03   None         0.
   2  -345.194398235  -923.518899963   538.153385006  -0.85E-05*   0.78E-03*   0.65E-03*    0.12E-01   0.21E+03   EDIIS        0.
   3  -345.194400758  -923.473126161   538.107608681  -0.25E-05*   0.55E-02*   0.64E-03*    0.43E-02   0.21E+03   c2DIIS       0.
   4  -345.194401190  -923.566584752   538.201066840  -0.43E-06*   0.59E-02*   0.11E-02*    0.92E-02   0.21E+03   QNRc2DIIS    0.
   5  -345.194399554  -923.451764903   538.086248627   0.16E-05*   0.48E-02*   0.12E-02*    0.76E-02   0.21E+03   QNRc2DIIS    0.
   6  -345.194406026  -923.522368622   538.156845873  -0.65E-05*   0.48E-03*   0.31E-03*    0.58E-02   0.21E+03   QNRc2DIIS    0.
   7  -345.194405835  -923.529154962   538.163632406   0.19E-06*   0.20E-01*   0.21E-03*    0.62E-03   0.21E+03   QNRc2DIIS    0.
   8  -345.194413080  -923.554596031   538.189066228  -0.72E-05*   0.14E-01*   0.85E-03*    0.24E-01   0.21E+03   QNRc2DIIS    0.
   9  -345.194407764  -923.549527947   538.184003461   0.53E-05*   0.86E-03*   0.12E-03     0.17E-01   0.21E+03   QNRc2DIIS    0.
  10  -345.194407877  -923.553051943   538.187527344  -0.11E-06*   0.96E-03*   0.64E-04     0.11E-02   0.21E+03   QNRc2DIIS    0.
  11  -345.194407928  -923.554897908   538.189373258  -0.51E-07*   0.50E-03*   0.29E-04     0.12E-02   0.21E+03   QNRc2DIIS    0.
  12  -345.194407938  -923.554888187   538.189363527  -0.10E-07*   0.28E-03*   0.14E-04     0.64E-03   0.21E+03   QNRc2DIIS    0.
  13  -345.194407940  -923.554194023   538.188669360  -0.24E-08*   0.15E-03*   0.14E-04     0.37E-03   0.21E+03   QNRc2DIIS    0.
  14  -345.194407943  -923.554234319   538.188709653  -0.34E-08*   0.42E-03*   0.13E-04     0.21E-03   0.21E+03   QNRc2DIIS    0.
  15  -345.194407953  -923.554231649   538.188706973  -0.97E-08*   0.39E-02*   0.17E-04     0.59E-03   0.21E+03   QNRc2DIIS    0.
  16  -345.194407968  -923.554762015   538.189237325  -0.15E-07*   0.16E-02*   0.13E-03     0.54E-02   0.21E+03   QNRc2DIIS    0.
  17  -345.194408067  -923.554658675   538.189133886  -0.98E-07*   0.76E-02*   0.15E-03*    0.22E-02   0.21E+03   QNRc2DIIS    0.
  18  -345.194407921  -923.554330349   538.188805705   0.15E-06*   0.42E-04*   0.31E-05     0.11E-01   0.21E+03   QNRc2DIIS    0.
  19  -345.194407921  -923.554372182   538.188847538  -0.14E-09    0.35E-04*   0.13E-05     0.55E-04   0.21E+03   QNRc2DIIS    0.
  20  -345.194407921  -923.554381053   538.188856409  -0.32E-10    0.33E-05    0.34E-06     0.50E-04   0.21E+03   QNRc2DIIS    0.
 
       Convergence after 20 Macro Iterations
--
 
 *****************************************************************************************************************************
 *                                                                                                                           *
 *                                             SCF/KS-DFT Program, Final results                                             *
 *                                                                                                                           *
 *                                                                                                                           *
 *                                                                                                                           *
 *                                                       Final Results                                                       *
 *                                                                                                                           *
 *****************************************************************************************************************************
 
::    Total SCF energy                              -1345.1944079212
      One-electron energy                           -1923.5543810530
      Two-electron energy                             538.1888564094
      Nuclear repulsion energy                         40.1711167224
      Kinetic energy (interpolated)                  1399.1040213754
      Virial theorem                                    0.9614684737
      Total spin, S(S+1)                                7.0669649046
      Total spin, S                                     2.2049888918
      Max non-diagonal density matrix element           0.0000014438
      Max non-diagonal Fock matrix element              0.0000002306
 
 
      All orbitals with orbital energies smaller than  E(LUMO)+0.5 are printed
 
++    Molecular orbitals:
      -------------------
 
      Title: UHF orbitals (alpha)

      Molecular orbitals for symmetry species 1: a  
 
          Orbital            1         2         3         4         5         6         7         8         9        10    
          Energy         -264.0866  -32.8763  -27.9568  -27.9568  -27.9331  -21.4662   -4.7916   -3.3645   -3.3645   -3.3072
          Occ. No.          1.0000    1.0000    1.0000    1.0000    1.0000    1.0000    1.0000    1.0000    1.0000    1.0000
 
        1 O1     1s         0.0000    0.0000   -0.0000    0.0000   -0.0000    1.0000   -0.0001   -0.0000    0.0000   -0.0000
        2 O1     2s         0.0000    0.0001   -0.0000    0.0000   -0.0001    0.0004   -0.0006   -0.0000    0.0000    0.0004
        3 O1     3s         0.0000    0.0001   -0.0000    0.0000   -0.0001   -0.0006   -0.0008   -0.0000    0.0000   -0.0001
        4 O1     4s        -0.0000    0.0000   -0.0000    0.0000   -0.0000    0.0003   -0.0004   -0.0000    0.0000   -0.0001
        5 O1     2px       -0.0000    0.0000    0.0000    0.0000    0.0000    0.0000    0.0000   -0.0000   -0.0000   -0.0000
        6 O1     3px       -0.0000    0.0000    0.0000    0.0000   -0.0000    0.0000    0.0000    0.0000    0.0001    0.0000
        7 O1     4px       -0.0000    0.0000   -0.0000   -0.0000    0.0000    0.0000    0.0000    0.0001    0.0001    0.0000
        8 O1     2py        0.0000   -0.0000   -0.0000    0.0000   -0.0000   -0.0000   -0.0000    0.0000   -0.0000    0.0000
        9 O1     3py        0.0000   -0.0000   -0.0000    0.0000   -0.0000   -0.0000   -0.0000   -0.0001    0.0000   -0.0000
       10 O1     4py        0.0000   -0.0000    0.0000   -0.0000   -0.0000   -0.0000   -0.0000   -0.0001    0.0001   -0.0000
       11 O1     2pz       -0.0000   -0.0000    0.0000   -0.0000    0.0000   -0.0002    0.0006   -0.0000    0.0000   -0.0005
       12 O1     3pz       -0.0000   -0.0000    0.0000   -0.0000    0.0001   -0.0003    0.0007   -0.0000    0.0000    0.0002
       13 O1     4pz       -0.0000    0.0000    0.0000   -0.0000    0.0000   -0.0002   -0.0001   -0.0000    0.0000    0.0002
       14 O1     3d2-       0.0000    0.0000   -0.0000   -0.0000   -0.0000    0.0000   -0.0000   -0.0000   -0.0000    0.0000
       15 O1     4d2-       0.0000    0.0000   -0.0000   -0.0000   -0.0000   -0.0000   -0.0000   -0.0000   -0.0000    0.0000
       16 O1     3d1-       0.0000   -0.0000    0.0000   -0.0000    0.0000   -0.0000   -0.0000   -0.0001    0.0001   -0.0000
       17 O1     4d1-       0.0000   -0.0000    0.0000   -0.0000   -0.0000    0.0000   -0.0000   -0.0001    0.0001   -0.0000
       18 O1     3d0       -0.0000    0.0000   -0.0000    0.0000   -0.0000   -0.0013   -0.0004    0.0000   -0.0000    0.0001
       19 O1     4d0       -0.0000    0.0000   -0.0000    0.0000   -0.0000    0.0013   -0.0004    0.0000   -0.0000    0.0000
       20 O1     3d1+      -0.0000   -0.0000   -0.0000   -0.0000    0.0000    0.0000    0.0000    0.0001    0.0001    0.0000
       21 O1     4d1+      -0.0000    0.0000   -0.0000   -0.0000    0.0000   -0.0000    0.0000    0.0001    0.0001    0.0000
       22 O1     3d2+      -0.0000   -0.0000   -0.0000    0.0000    0.0000   -0.0000    0.0000   -0.0000    0.0000   -0.0000
       23 O1     4d2+      -0.0000   -0.0000   -0.0000    0.0000    0.0000    0.0000    0.0000   -0.0000    0.0000    0.0000
       24 O1     4f3-       0.0000   -0.0000    0.0000    0.0000    0.0000    0.0000   -0.0000   -0.0000   -0.0000   -0.0000
       25 O1     4f2-      -0.0000   -0.0000    0.0000    0.0000    0.0000   -0.0000    0.0000    0.0000    0.0000   -0.0000
       26 O1     4f1-      -0.0000    0.0000   -0.0000    0.0000    0.0000   -0.0000    0.0000    0.0000   -0.0000    0.0000
       27 O1     4f0        0.0000    0.0000    0.0000   -0.0000    0.0000   -0.0000    0.0001   -0.0000    0.0000   -0.0000
       28 O1     4f1+       0.0000   -0.0000    0.0000    0.0000   -0.0000    0.0000   -0.0000   -0.0000   -0.0000   -0.0000
       29 O1     4f2+       0.0000   -0.0000    0.0000   -0.0000   -0.0000    0.0000   -0.0000    0.0000   -0.0000   -0.0000
       30 O1     4f3+       0.0000    0.0000    0.0000   -0.0000   -0.0000   -0.0000    0.0000   -0.0000    0.0000    0.0000
       31 FE2    1s         1.0000   -0.0000    0.0000   -0.0000   -0.0000   -0.0000   -0.0000   -0.0000    0.0000    0.0000
       32 FE2    2s         0.0000    1.0000   -0.0000    0.0000   -0.0010   -0.0000   -0.0025   -0.0000    0.0000   -0.0000
       33 FE2    3s         0.0000    0.0025    0.0000   -0.0000    0.0000   -0.0001    1.0000   -0.0000    0.0000   -0.0043
       34 FE2    4s         0.0000   -0.0002    0.0000   -0.0000    0.0001   -0.0004    0.0045   -0.0000    0.0000    0.0011
       35 FE2    5s         0.0000    0.0001    0.0000   -0.0000    0.0000    0.0000   -0.0022    0.0000   -0.0000   -0.0005
       36 FE2    6s        -0.0000   -0.0001   -0.0000    0.0000   -0.0000    0.0000    0.0012   -0.0000    0.0000    0.0000
       37 FE2    2px        0.0000   -0.0000   -0.6358   -0.7719    0.0000   -0.0000    0.0000    0.0014    0.0018   -0.0000
       38 FE2    3px        0.0000   -0.0000   -0.0014   -0.0017    0.0000   -0.0000   -0.0000   -0.6286   -0.7777    0.0000
       39 FE2    4px        0.0000    0.0000    0.0002    0.0002    0.0000   -0.0000    0.0000    0.0014    0.0017    0.0000
       40 FE2    5px       -0.0000   -0.0000   -0.0005   -0.0006   -0.0000   -0.0000   -0.0000   -0.0000   -0.0000   -0.0000
       41 FE2    6px        0.0000    0.0000    0.0002    0.0003    0.0000   -0.0000   -0.0000   -0.0010   -0.0012   -0.0000
       42 FE2    2py       -0.0000    0.0000    0.7719   -0.6358   -0.0000    0.0000   -0.0000   -0.0018    0.0014   -0.0000
       43 FE2    3py       -0.0000    0.0000    0.0017   -0.0014   -0.0000    0.0000    0.0000    0.7777   -0.6286   -0.0000
       44 FE2    4py       -0.0000   -0.0000   -0.0002    0.0002   -0.0000    0.0000   -0.0000   -0.0017    0.0014   -0.0000
       45 FE2    5py        0.0000    0.0000    0.0006   -0.0005    0.0000    0.0000    0.0000    0.0000   -0.0000    0.0000
       46 FE2    6py       -0.0000   -0.0000   -0.0003    0.0002   -0.0000    0.0000    0.0000    0.0012   -0.0010    0.0000
       47 FE2    2pz        0.0000    0.0010    0.0000   -0.0000    1.0000   -0.0000   -0.0000   -0.0000    0.0000   -0.0019
       48 FE2    3pz       -0.0000    0.0000    0.0000   -0.0000    0.0019   -0.0001    0.0044    0.0000   -0.0000    1.0000
       49 FE2    4pz        0.0000   -0.0001   -0.0000    0.0000   -0.0001   -0.0004    0.0009   -0.0000    0.0000    0.0008
       50 FE2    5pz       -0.0000    0.0000    0.0000   -0.0000    0.0005   -0.0000    0.0003    0.0000   -0.0000   -0.0020
       51 FE2    6pz        0.0000   -0.0001   -0.0000    0.0000   -0.0002    0.0001   -0.0000    0.0000   -0.0000    0.0004
       52 FE2    3d2-      -0.0000   -0.0000   -0.0000   -0.0000   -0.0000    0.0000   -0.0000    0.0000    0.0000   -0.0000
       53 FE2    4d2-       0.0000    0.0000    0.0000    0.0000    0.0000    0.0000    0.0000    0.0000    0.0000    0.0000
       54 FE2    5d2-      -0.0000   -0.0000   -0.0000   -0.0000   -0.0000    0.0000   -0.0000   -0.0000   -0.0000   -0.0000
       55 FE2    3d1-      -0.0000    0.0000    0.0001   -0.0001    0.0000    0.0000    0.0000    0.0018   -0.0015    0.0000
       56 FE2    4d1-       0.0000   -0.0000   -0.0000    0.0000   -0.0000    0.0000   -0.0000   -0.0004    0.0003   -0.0000
       57 FE2    5d1-      -0.0000    0.0000    0.0000   -0.0000    0.0000    0.0000    0.0000    0.0001   -0.0001    0.0000
       58 FE2    3d0       -0.0000   -0.0004    0.0000   -0.0000    0.0001   -0.0001   -0.0100    0.0000   -0.0000    0.0019
       59 FE2    4d0        0.0000    0.0003    0.0000   -0.0000   -0.0000   -0.0002    0.0042   -0.0000    0.0000    0.0006
       60 FE2    5d0       -0.0000   -0.0003    0.0000   -0.0000    0.0001   -0.0001   -0.0001    0.0000   -0.0000   -0.0003
       61 FE2    3d1+       0.0000   -0.0000   -0.0001   -0.0001   -0.0000   -0.0000   -0.0000   -0.0015   -0.0018   -0.0000
       62 FE2    4d1+      -0.0000    0.0000    0.0000    0.0000    0.0000   -0.0000    0.0000    0.0003    0.0004    0.0000
       63 FE2    5d1+       0.0000   -0.0000   -0.0000   -0.0000   -0.0000   -0.0000   -0.0000   -0.0001   -0.0001   -0.0000
       64 FE2    3d2+      -0.0000   -0.0000   -0.0000    0.0000    0.0000   -0.0000   -0.0000    0.0000   -0.0000    0.0000
       65 FE2    4d2+      -0.0000   -0.0000    0.0000   -0.0000   -0.0000   -0.0000   -0.0000    0.0000   -0.0000   -0.0000
       66 FE2    5d2+       0.0000    0.0000   -0.0000    0.0000    0.0000   -0.0000    0.0000   -0.0000    0.0000    0.0000
       67 FE2    4f3-       0.0000   -0.0000    0.0000    0.0000    0.0000    0.0000   -0.0000    0.0000    0.0000    0.0000
       68 FE2    5f3-      -0.0000    0.0000   -0.0000   -0.0000   -0.0000    0.0000    0.0000   -0.0000   -0.0000   -0.0000
       69 FE2    4f2-       0.0000   -0.0000   -0.0000   -0.0000   -0.0000    0.0000   -0.0000    0.0000    0.0000   -0.0000
       70 FE2    5f2-      -0.0000    0.0000    0.0000    0.0000    0.0000    0.0000    0.0000    0.0000    0.0000    0.0000
       71 FE2    4f1-      -0.0000    0.0000   -0.0001    0.0001    0.0000    0.0000    0.0000   -0.0047    0.0038   -0.0000
       72 FE2    5f1-       0.0000   -0.0000    0.0002   -0.0001   -0.0000    0.0000   -0.0000    0.0009   -0.0008   -0.0000
       73 FE2    4f0        0.0000   -0.0000   -0.0000    0.0000   -0.0000   -0.0000    0.0000   -0.0000    0.0000   -0.0010
       74 FE2    5f0       -0.0000   -0.0000    0.0000   -0.0000    0.0001   -0.0001    0.0004    0.0000   -0.0000    0.0004
       75 FE2    4f1+       0.0000   -0.0000    0.0001    0.0001   -0.0000   -0.0000   -0.0000    0.0038    0.0047    0.0000
       76 FE2    5f1+      -0.0000    0.0000   -0.0001   -0.0002    0.0000   -0.0000    0.0000   -0.0008   -0.0009    0.0000
       77 FE2    4f2+      -0.0000    0.0000   -0.0000    0.0000    0.0000   -0.0000    0.0000    0.0000   -0.0000    0.0000
       78 FE2    5f2+       0.0000   -0.0000    0.0000   -0.0000   -0.0000   -0.0000   -0.0000    0.0000   -0.0000   -0.0000
       79 FE2    4f3+      -0.0000    0.0000    0.0000   -0.0000   -0.0000   -0.0000    0.0000    0.0000   -0.0000   -0.0000
       80 FE2    5f3+       0.0000   -0.0000   -0.0000    0.0000    0.0000   -0.0000   -0.0000   -0.0000    0.0000    0.0000
       81 FE2    5g4-      -0.0000   -0.0000    0.0000    0.0000    0.0000    0.0000   -0.0000    0.0000    0.0000    0.0000
       82 FE2    5g3-      -0.0000    0.0000    0.0000   -0.0000   -0.0000   -0.0000    0.0000    0.0000   -0.0000   -0.0000
       83 FE2    5g2-      -0.0000   -0.0000   -0.0000   -0.0000   -0.0000    0.0000   -0.0000   -0.0000   -0.0000   -0.0000
       84 FE2    5g1-       0.0000   -0.0000   -0.0000    0.0000    0.0000    0.0000   -0.0000   -0.0000    0.0000    0.0000
       85 FE2    5g0       -0.0000    0.0001   -0.0000    0.0000   -0.0000   -0.0000    0.0023   -0.0000    0.0000   -0.0000
       86 FE2    5g1+      -0.0000    0.0000    0.0000    0.0000   -0.0000   -0.0000    0.0000    0.0000    0.0000   -0.0000
       87 FE2    5g2+      -0.0000    0.0000   -0.0000    0.0000    0.0000   -0.0000    0.0000   -0.0000    0.0000    0.0000
       88 FE2    5g3+       0.0000   -0.0000   -0.0000   -0.0000    0.0000   -0.0000   -0.0000   -0.0000   -0.0000    0.0000
       89 FE2    5g4+      -0.0000   -0.0000    0.0000   -0.0000   -0.0000   -0.0000   -0.0000    0.0000   -0.0000   -0.0000
 
          Orbital           11        12        13        14        15        16        17        18        19        20    
          Energy           -1.9806   -1.3604   -1.3604   -1.0884   -1.0884   -1.0574   -1.0292   -1.0292   -0.5654   -0.4226
          Occ. No.          1.0000    1.0000    1.0000    1.0000    1.0000    1.0000    1.0000    1.0000    0.0000    0.0000
 
        1 O1     1s        -0.0003   -0.0000   -0.0000   -0.0000   -0.0000   -0.0017    0.0000   -0.0000    0.0046   -0.0119
        2 O1     2s         0.9959   -0.0000   -0.0000   -0.0000   -0.0000   -0.0307    0.0000   -0.0000    0.0698   -0.1167
        3 O1     3s        -0.0643    0.0000    0.0000    0.0000    0.0000    0.0015    0.0000   -0.0000   -0.0067   -0.0109
        4 O1     4s        -0.0100    0.0000    0.0000    0.0000    0.0000    0.0005    0.0000   -0.0000   -0.0030   -0.0008
        5 O1     2px        0.0000    0.6765   -0.7231    0.0000    0.0000    0.0000    0.0108    0.0165   -0.0000   -0.0000
        6 O1     3px       -0.0000   -0.0887    0.0948   -0.0000    0.0000   -0.0000   -0.0022   -0.0034   -0.0000   -0.0000
        7 O1     4px       -0.0000   -0.0045    0.0048   -0.0000    0.0000   -0.0000   -0.0004   -0.0006    0.0000   -0.0000
        8 O1     2py       -0.0000    0.7231    0.6765   -0.0000    0.0000   -0.0000   -0.0165    0.0108    0.0000    0.0000
        9 O1     3py        0.0000   -0.0948   -0.0887   -0.0000   -0.0000    0.0000    0.0034   -0.0022    0.0000    0.0000
       10 O1     4py        0.0000   -0.0048   -0.0045   -0.0000   -0.0000    0.0000    0.0006   -0.0004   -0.0000    0.0000
       11 O1     2pz       -0.0269   -0.0000   -0.0000   -0.0000   -0.0000   -0.0388    0.0000   -0.0000    0.9096    0.3672
       12 O1     3pz       -0.0002    0.0000    0.0000    0.0000    0.0000    0.0021   -0.0000    0.0000    0.1064    0.0600
       13 O1     4pz        0.0025    0.0000    0.0000    0.0000    0.0000    0.0023   -0.0000    0.0000   -0.0088    0.0010
       14 O1     3d2-       0.0000   -0.0000    0.0000    0.0000    0.0005   -0.0000   -0.0000   -0.0000   -0.0000    0.0000
       15 O1     4d2-      -0.0000   -0.0000    0.0000    0.0000    0.0003   -0.0000   -0.0000   -0.0000   -0.0000    0.0000
       16 O1     3d1-      -0.0000   -0.0071   -0.0066    0.0000    0.0000    0.0000   -0.0011    0.0008   -0.0000   -0.0000
       17 O1     4d1-       0.0000   -0.0029   -0.0027    0.0000    0.0000    0.0000   -0.0005    0.0003   -0.0000   -0.0000
       18 O1     3d0       -0.0457    0.0000    0.0000    0.0000    0.0000    0.0049    0.0000   -0.0000   -0.0192    0.0024
       19 O1     4d0        0.0036    0.0000    0.0000    0.0000    0.0000    0.0015    0.0000   -0.0000   -0.0089   -0.0007
       20 O1     3d1+       0.0000   -0.0066    0.0071    0.0000   -0.0000   -0.0000    0.0008    0.0011    0.0000    0.0000
       21 O1     4d1+      -0.0000   -0.0027    0.0029    0.0000   -0.0000   -0.0000    0.0003    0.0005    0.0000    0.0000
       22 O1     3d2+      -0.0000    0.0000    0.0000    0.0005   -0.0000   -0.0000   -0.0000    0.0000    0.0000    0.0000
       23 O1     4d2+      -0.0000    0.0000    0.0000    0.0003   -0.0000   -0.0000   -0.0000    0.0000    0.0000    0.0000
       24 O1     4f3-       0.0000    0.0000   -0.0000    0.0000   -0.0000    0.0000    0.0000    0.0000   -0.0000    0.0000
       25 O1     4f2-      -0.0000   -0.0000    0.0000   -0.0000   -0.0001   -0.0000   -0.0000   -0.0000    0.0000    0.0000
       26 O1     4f1-       0.0000   -0.0068   -0.0064   -0.0000   -0.0000    0.0000    0.0005   -0.0003   -0.0000   -0.0000
       27 O1     4f0        0.0004    0.0000    0.0000   -0.0000   -0.0000   -0.0002   -0.0000    0.0000   -0.0099   -0.0038
       28 O1     4f1+      -0.0000   -0.0064    0.0068   -0.0000    0.0000   -0.0000   -0.0003   -0.0005    0.0000    0.0000
       29 O1     4f2+       0.0000    0.0000    0.0000   -0.0001    0.0000   -0.0000   -0.0000    0.0000    0.0000    0.0000
       30 O1     4f3+      -0.0000   -0.0000   -0.0000   -0.0000   -0.0000   -0.0000    0.0000   -0.0000    0.0000   -0.0000
       31 FE2    1s        -0.0000   -0.0000   -0.0000   -0.0000    0.0000   -0.0000   -0.0000    0.0000    0.0006    0.0003
       32 FE2    2s        -0.0000   -0.0000   -0.0000    0.0000    0.0000    0.0003   -0.0000    0.0000    0.0046    0.0025
       33 FE2    3s        -0.0011   -0.0000   -0.0000    0.0000    0.0000    0.0100    0.0000   -0.0000    0.0269    0.0089
       34 FE2    4s         0.0024    0.0000    0.0000   -0.0000    0.0000    0.0128   -0.0000    0.0000   -0.1980    1.0133
       35 FE2    5s        -0.0007   -0.0000   -0.0000    0.0000   -0.0000   -0.0042    0.0000   -0.0000    0.0356   -0.0602
       36 FE2    6s         0.0003   -0.0000   -0.0000   -0.0000   -0.0000   -0.0002   -0.0000    0.0000   -0.0021   -0.0234
       37 FE2    2px        0.0000   -0.0000    0.0000    0.0000   -0.0000   -0.0000    0.0000    0.0001    0.0000    0.0000
       38 FE2    3px        0.0000   -0.0006    0.0006    0.0000    0.0000   -0.0000    0.0013    0.0020    0.0000    0.0000
       39 FE2    4px        0.0000    0.0042   -0.0045    0.0000   -0.0000    0.0000   -0.0042   -0.0065   -0.0000    0.0000
       40 FE2    5px        0.0000    0.0018   -0.0019   -0.0000    0.0000   -0.0000    0.0002    0.0004   -0.0000    0.0000
       41 FE2    6px        0.0000    0.0016   -0.0017   -0.0000    0.0000   -0.0000    0.0008    0.0012    0.0000    0.0000
       42 FE2    2py       -0.0000   -0.0000   -0.0000    0.0000    0.0000    0.0000   -0.0001    0.0000   -0.0000   -0.0000
       43 FE2    3py       -0.0000   -0.0006   -0.0006   -0.0000    0.0000    0.0000   -0.0020    0.0013   -0.0000   -0.0000
       44 FE2    4py       -0.0000    0.0045    0.0042    0.0000    0.0000   -0.0000    0.0065   -0.0042    0.0000   -0.0000
       45 FE2    5py       -0.0000    0.0019    0.0018   -0.0000   -0.0000    0.0000   -0.0004    0.0002    0.0000   -0.0000
       46 FE2    6py       -0.0000    0.0017    0.0016   -0.0000   -0.0000    0.0000   -0.0012    0.0008   -0.0000   -0.0000
       47 FE2    2pz       -0.0001   -0.0000   -0.0000   -0.0000   -0.0000   -0.0001   -0.0000    0.0000    0.0009    0.0004
       48 FE2    3pz       -0.0035   -0.0000   -0.0000   -0.0000   -0.0000   -0.0023   -0.0000    0.0000    0.0211    0.0091
       49 FE2    4pz        0.0019    0.0000    0.0000   -0.0000    0.0000    0.0199   -0.0000    0.0000   -0.1045    0.0413
       50 FE2    5pz       -0.0005   -0.0000   -0.0000    0.0000   -0.0000   -0.0032    0.0000   -0.0000   -0.0066    0.0207
       51 FE2    6pz       -0.0006   -0.0000   -0.0000    0.0000   -0.0000   -0.0041    0.0000   -0.0000    0.0012    0.0161
       52 FE2    3d2-       0.0000   -0.0000    0.0000    0.0169    0.9983   -0.0000    0.0000    0.0000   -0.0000   -0.0000
       53 FE2    4d2-      -0.0000   -0.0000    0.0000   -0.0008   -0.0467    0.0000    0.0000    0.0000    0.0000   -0.0000
       54 FE2    5d2-      -0.0000   -0.0000    0.0000   -0.0005   -0.0293    0.0000   -0.0000   -0.0000   -0.0000   -0.0000
       55 FE2    3d1-      -0.0000    0.0071    0.0067    0.0000   -0.0000   -0.0000    0.8356   -0.5477   -0.0000    0.0000
       56 FE2    4d1-      -0.0000    0.0022    0.0020    0.0000    0.0000    0.0000   -0.0222    0.0146    0.0000   -0.0000
       57 FE2    5d1-      -0.0000    0.0016    0.0015   -0.0000    0.0000    0.0000   -0.0210    0.0138    0.0000   -0.0000
       58 FE2    3d0        0.0054    0.0000    0.0000    0.0000    0.0000    0.9965    0.0000   -0.0000    0.0870    0.0194
       59 FE2    4d0        0.0002    0.0000    0.0000   -0.0000   -0.0000   -0.0316   -0.0000    0.0000   -0.0255   -0.0166
       60 FE2    5d0       -0.0004   -0.0000   -0.0000   -0.0000   -0.0000   -0.0264   -0.0000    0.0000   -0.0157   -0.0042
       61 FE2    3d1+       0.0000    0.0067   -0.0071   -0.0000    0.0000    0.0000   -0.5477   -0.8356    0.0000   -0.0000
       62 FE2    4d1+       0.0000    0.0020   -0.0022    0.0000   -0.0000   -0.0000    0.0146    0.0222   -0.0000    0.0000
       63 FE2    5d1+       0.0000    0.0015   -0.0016    0.0000   -0.0000   -0.0000    0.0138    0.0210   -0.0000    0.0000
       64 FE2    3d2+      -0.0000    0.0000    0.0000    0.9983   -0.0169   -0.0000   -0.0000    0.0000   -0.0000    0.0000
       65 FE2    4d2+       0.0000    0.0000    0.0000   -0.0467    0.0008    0.0000    0.0000   -0.0000    0.0000    0.0000
       66 FE2    5d2+       0.0000    0.0000    0.0000   -0.0293    0.0005    0.0000   -0.0000    0.0000    0.0000    0.0000
       67 FE2    4f3-      -0.0000   -0.0000   -0.0000   -0.0000    0.0000   -0.0000   -0.0000    0.0000   -0.0000    0.0000
       68 FE2    5f3-       0.0000   -0.0000   -0.0000   -0.0000    0.0000   -0.0000   -0.0000    0.0000   -0.0000    0.0000
       69 FE2    4f2-      -0.0000   -0.0000    0.0000    0.0000    0.0017   -0.0000    0.0000    0.0000   -0.0000    0.0000
       70 FE2    5f2-      -0.0000   -0.0000    0.0000    0.0000    0.0007   -0.0000    0.0000    0.0000    0.0000    0.0000
       71 FE2    4f1-      -0.0000    0.0005    0.0005   -0.0000   -0.0000   -0.0000    0.0024   -0.0016    0.0000   -0.0000
       72 FE2    5f1-      -0.0000    0.0005    0.0004    0.0000   -0.0000   -0.0000    0.0015   -0.0010    0.0000   -0.0000
       73 FE2    4f0        0.0005    0.0000    0.0000    0.0000    0.0000    0.0038    0.0000   -0.0000   -0.0047   -0.0013
       74 FE2    5f0        0.0004    0.0000    0.0000    0.0000    0.0000    0.0026    0.0000   -0.0000   -0.0039   -0.0011
       75 FE2    4f1+       0.0000    0.0005   -0.0005   -0.0000    0.0000    0.0000   -0.0016   -0.0024   -0.0000    0.0000
       76 FE2    5f1+       0.0000    0.0004   -0.0005   -0.0000    0.0000    0.0000   -0.0010   -0.0015   -0.0000    0.0000
       77 FE2    4f2+      -0.0000    0.0000    0.0000    0.0017   -0.0000   -0.0000    0.0000   -0.0000    0.0000   -0.0000
       78 FE2    5f2+      -0.0000    0.0000    0.0000    0.0007   -0.0000   -0.0000    0.0000   -0.0000    0.0000   -0.0000
       79 FE2    4f3+       0.0000   -0.0000    0.0000    0.0000    0.0000    0.0000    0.0000    0.0000    0.0000   -0.0000
       80 FE2    5f3+      -0.0000   -0.0000    0.0000    0.0000    0.0000    0.0000    0.0000    0.0000    0.0000   -0.0000
       81 FE2    5g4-       0.0000    0.0000   -0.0000   -0.0000    0.0000    0.0000   -0.0000   -0.0000   -0.0000   -0.0000
       82 FE2    5g3-      -0.0000   -0.0000    0.0000   -0.0000    0.0000   -0.0000    0.0000    0.0000   -0.0000    0.0000
       83 FE2    5g2-      -0.0000   -0.0000    0.0000   -0.0001   -0.0044   -0.0000    0.0000    0.0000   -0.0000   -0.0000
       84 FE2    5g1-      -0.0000    0.0001    0.0000    0.0000    0.0000   -0.0000   -0.0022    0.0015    0.0000   -0.0000
       85 FE2    5g0        0.0001    0.0000    0.0000   -0.0000    0.0000   -0.0015    0.0000   -0.0000   -0.0006    0.0001
       86 FE2    5g1+       0.0000    0.0000   -0.0001    0.0000   -0.0000    0.0000    0.0015    0.0022   -0.0000    0.0000
       87 FE2    5g2+       0.0000    0.0000    0.0000   -0.0044    0.0001    0.0000    0.0000   -0.0000    0.0000    0.0000
       88 FE2    5g3+       0.0000    0.0000    0.0000    0.0000    0.0000    0.0000    0.0000   -0.0000    0.0000   -0.0000
       89 FE2    5g4+       0.0000   -0.0000   -0.0000    0.0000    0.0000    0.0000   -0.0000    0.0000   -0.0000   -0.0000
 
          Orbital           21        22        23        24        25        26        27    
          Energy           -0.3029   -0.3029   -0.2792   -0.1983   -0.1273   -0.1273   -0.0828
          Occ. No.          0.0000    0.0000    0.0000    0.0000    0.0000    0.0000    0.0000
 
        1 O1     1s         0.0000   -0.0000   -0.0325   -0.0137    0.0000   -0.0000   -0.0279
        2 O1     2s         0.0000   -0.0000   -0.2954   -0.1174    0.0000   -0.0000   -0.2301
        3 O1     3s         0.0000   -0.0000   -0.0292   -0.0291   -0.0000    0.0000    0.1217
        4 O1     4s         0.0000   -0.0000   -0.0002   -0.0049   -0.0000    0.0000    0.0559
        5 O1     2px        0.0361    0.0467   -0.0000    0.0000    0.0437    0.0463    0.0000
        6 O1     3px       -0.0455   -0.0589   -0.0000    0.0000    0.4971    0.5265   -0.0000
        7 O1     4px       -0.0166   -0.0215   -0.0000    0.0000    0.1896    0.2008   -0.0000
        8 O1     2py       -0.0467    0.0361    0.0000   -0.0000    0.0463   -0.0437   -0.0000
        9 O1     3py        0.0589   -0.0455    0.0000   -0.0000    0.5265   -0.4971    0.0000
       10 O1     4py        0.0215   -0.0166    0.0000   -0.0000    0.2008   -0.1896    0.0000
       11 O1     2pz       -0.0000    0.0000    0.2805   -0.1027   -0.0000    0.0000    0.1073
       12 O1     3pz       -0.0000    0.0000    0.1312    0.1208   -0.0000    0.0000    0.7635
       13 O1     4pz       -0.0000    0.0000    0.0293    0.0529   -0.0000    0.0000    0.3191
       14 O1     3d2-      -0.0000   -0.0000    0.0000    0.0000   -0.0000   -0.0000    0.0000
       15 O1     4d2-       0.0000    0.0000    0.0000    0.0000   -0.0000   -0.0000    0.0000
       16 O1     3d1-      -0.0110    0.0085   -0.0000    0.0000   -0.0080    0.0076   -0.0000
       17 O1     4d1-      -0.0060    0.0047   -0.0000    0.0000   -0.0054    0.0051   -0.0000
       18 O1     3d0        0.0000   -0.0000   -0.0025   -0.0192    0.0000   -0.0000    0.0038
       19 O1     4d0        0.0000   -0.0000   -0.0085   -0.0136    0.0000   -0.0000   -0.0082
       20 O1     3d1+       0.0085    0.0110    0.0000   -0.0000   -0.0076   -0.0080    0.0000
       21 O1     4d1+       0.0047    0.0060    0.0000   -0.0000   -0.0051   -0.0054    0.0000
       22 O1     3d2+      -0.0000    0.0000    0.0000    0.0000    0.0000   -0.0000    0.0000
       23 O1     4d2+       0.0000   -0.0000    0.0000    0.0000    0.0000   -0.0000    0.0000
       24 O1     4f3-       0.0000    0.0000    0.0000    0.0000   -0.0000   -0.0000    0.0000
       25 O1     4f2-      -0.0000   -0.0000    0.0000   -0.0000    0.0000    0.0000   -0.0000
       26 O1     4f1-       0.0010   -0.0008   -0.0000    0.0000    0.0012   -0.0012    0.0000
       27 O1     4f0        0.0000   -0.0000   -0.0006    0.0028   -0.0000    0.0000    0.0039
       28 O1     4f1+      -0.0008   -0.0010    0.0000   -0.0000    0.0012    0.0012   -0.0000
       29 O1     4f2+      -0.0000    0.0000    0.0000   -0.0000   -0.0000    0.0000   -0.0000
       30 O1     4f3+       0.0000   -0.0000   -0.0000   -0.0000    0.0000   -0.0000   -0.0000
       31 FE2    1s        -0.0000    0.0000    0.0006    0.0005   -0.0000    0.0000    0.0031
       32 FE2    2s        -0.0000    0.0000    0.0044    0.0036   -0.0000    0.0000    0.0226
       33 FE2    3s        -0.0000    0.0000    0.0227    0.0190   -0.0000    0.0000    0.1069
       34 FE2    4s        -0.0000    0.0000    0.0860    0.1533   -0.0000    0.0000    0.3806
       35 FE2    5s        -0.0000    0.0000    0.1358    0.8719    0.0000   -0.0000   -0.3164
       36 FE2    6s        -0.0000    0.0000    0.0293    0.4154    0.0000   -0.0000    0.0393
       37 FE2    2px       -0.0000   -0.0001    0.0000   -0.0000   -0.0007   -0.0007    0.0000
       38 FE2    3px       -0.0000   -0.0001   -0.0000   -0.0000   -0.0136   -0.0144    0.0000
       39 FE2    4px       -0.5711   -0.7384   -0.0000   -0.0000   -0.2764   -0.2927    0.0000
       40 FE2    5px       -0.1284   -0.1660   -0.0000   -0.0000   -0.0445   -0.0471    0.0000
       41 FE2    6px       -0.0816   -0.1055   -0.0000    0.0000   -0.0215   -0.0228    0.0000
       42 FE2    2py        0.0001   -0.0000   -0.0000    0.0000   -0.0007    0.0007   -0.0000
       43 FE2    3py        0.0001   -0.0000    0.0000    0.0000   -0.0144    0.0136   -0.0000
       44 FE2    4py        0.7384   -0.5711    0.0000    0.0000   -0.2927    0.2764   -0.0000
       45 FE2    5py        0.1660   -0.1284    0.0000    0.0000   -0.0471    0.0445   -0.0000
       46 FE2    6py        0.1055   -0.0816    0.0000   -0.0000   -0.0228    0.0215   -0.0000
       47 FE2    2pz       -0.0000    0.0000    0.0008    0.0005   -0.0000    0.0000    0.0028
       48 FE2    3pz       -0.0000    0.0000    0.0149    0.0093   -0.0000    0.0000    0.0512
       49 FE2    4pz       -0.0000    0.0000    1.0372   -0.0934   -0.0000    0.0000    0.1305
       50 FE2    5pz       -0.0000    0.0000    0.2749    0.0270   -0.0000    0.0000    0.1311
       51 FE2    6pz       -0.0000    0.0000    0.1857    0.0320   -0.0000    0.0000    0.1105
       52 FE2    3d2-      -0.0000   -0.0000   -0.0000    0.0000   -0.0000   -0.0000    0.0000
       53 FE2    4d2-       0.0000    0.0000    0.0000    0.0000   -0.0000   -0.0000    0.0000
       54 FE2    5d2-       0.0000    0.0000    0.0000    0.0000   -0.0000   -0.0000    0.0000
       55 FE2    3d1-      -0.0074    0.0057    0.0000   -0.0000   -0.0178    0.0168    0.0000
       56 FE2    4d1-       0.0421   -0.0326    0.0000   -0.0000    0.2457   -0.2320    0.0000
       57 FE2    5d1-       0.0300   -0.0232    0.0000   -0.0000    0.1757   -0.1659    0.0000
       58 FE2    3d0       -0.0000    0.0000    0.0171    0.0127   -0.0000    0.0000    0.0595
       59 FE2    4d0       -0.0000    0.0000    0.0324    0.0524   -0.0000    0.0000    0.4828
       60 FE2    5d0       -0.0000    0.0000    0.0242    0.0351   -0.0000    0.0000    0.3405
       61 FE2    3d1+       0.0057    0.0074   -0.0000    0.0000   -0.0168   -0.0178   -0.0000
       62 FE2    4d1+      -0.0326   -0.0421   -0.0000    0.0000    0.2320    0.2457   -0.0000
       63 FE2    5d1+      -0.0232   -0.0300   -0.0000    0.0000    0.1659    0.1757   -0.0000
       64 FE2    3d2+      -0.0000    0.0000    0.0000   -0.0000    0.0000   -0.0000    0.0000
       65 FE2    4d2+       0.0000   -0.0000   -0.0000    0.0000    0.0000   -0.0000    0.0000
       66 FE2    5d2+       0.0000   -0.0000   -0.0000    0.0000    0.0000   -0.0000    0.0000
       67 FE2    4f3-       0.0000    0.0000    0.0000   -0.0000    0.0000    0.0000   -0.0000
       68 FE2    5f3-       0.0000    0.0000    0.0000   -0.0000    0.0000    0.0000   -0.0000
       69 FE2    4f2-       0.0000    0.0000   -0.0000    0.0000    0.0000    0.0000    0.0000
       70 FE2    5f2-       0.0000    0.0000   -0.0000    0.0000   -0.0000   -0.0000    0.0000
       71 FE2    4f1-      -0.0001    0.0001   -0.0000    0.0000    0.0035   -0.0033    0.0000
       72 FE2    5f1-      -0.0008    0.0006   -0.0000    0.0000    0.0030   -0.0029    0.0000
       73 FE2    4f0        0.0000   -0.0000   -0.0020    0.0011   -0.0000    0.0000    0.0079
       74 FE2    5f0        0.0000   -0.0000   -0.0016    0.0015   -0.0000    0.0000    0.0086
       75 FE2    4f1+       0.0001    0.0001    0.0000   -0.0000    0.0033    0.0035   -0.0000
       76 FE2    5f1+       0.0006    0.0008    0.0000   -0.0000    0.0029    0.0030   -0.0000
       77 FE2    4f2+       0.0000   -0.0000    0.0000    0.0000   -0.0000    0.0000   -0.0000
       78 FE2    5f2+       0.0000   -0.0000    0.0000    0.0000    0.0000   -0.0000   -0.0000
       79 FE2    4f3+       0.0000   -0.0000   -0.0000    0.0000   -0.0000    0.0000    0.0000
       80 FE2    5f3+       0.0000   -0.0000   -0.0000    0.0000   -0.0000    0.0000    0.0000
       81 FE2    5g4-       0.0000    0.0000    0.0000   -0.0000   -0.0000   -0.0000    0.0000
       82 FE2    5g3-      -0.0000   -0.0000   -0.0000   -0.0000    0.0000    0.0000    0.0000
       83 FE2    5g2-       0.0000    0.0000    0.0000    0.0000   -0.0000   -0.0000    0.0000
       84 FE2    5g1-       0.0001   -0.0001   -0.0000    0.0000    0.0002   -0.0002   -0.0000
       85 FE2    5g0        0.0000   -0.0000   -0.0001   -0.0001   -0.0000    0.0000    0.0007
       86 FE2    5g1+      -0.0001   -0.0001    0.0000   -0.0000    0.0002    0.0002    0.0000
       87 FE2    5g2+       0.0000   -0.0000   -0.0000    0.0000    0.0000   -0.0000    0.0000
       88 FE2    5g3+      -0.0000    0.0000    0.0000    0.0000   -0.0000    0.0000   -0.0000
       89 FE2    5g4+       0.0000   -0.0000   -0.0000    0.0000    0.0000   -0.0000    0.0000
--
 
 
  Input file to MOLDEN was generated!
 
 
++    Static properties:
      ------------------
 
 
      LoProp Charges per center
 

                   O1       FE2   
      Nuclear      8.0000  26.0000
      Electronic  -7.2638 -24.7362
 
      Total        0.7362   1.2638
--
 
 
      All orbitals with orbital energies smaller than  E(LUMO)+0.5 are printed
 
++    Molecular orbitals:
      -------------------
 
      Title: UHF orbitals (beta)

      Molecular orbitals for symmetry species 1: a  
 
          Orbital            1         2         3         4         5         6         7         8         9        10    
          Energy         -264.0853  -32.7767  -27.8507  -27.8501  -27.8501  -21.4271   -4.4971   -3.0196   -2.9742   -2.9742
          Occ. No.          1.0000    1.0000    1.0000    1.0000    1.0000    1.0000    1.0000    1.0000    1.0000    1.0000
 
        1 O1     1s         0.0000    0.0000   -0.0000   -0.0000    0.0000    1.0000    0.0000    0.0000   -0.0000    0.0000
        2 O1     2s         0.0000    0.0001   -0.0001   -0.0000    0.0000   -0.0020    0.0001    0.0026    0.0000   -0.0000
        3 O1     3s        -0.0000    0.0001   -0.0002   -0.0000    0.0000   -0.0003   -0.0003    0.0005   -0.0000    0.0000
        4 O1     4s        -0.0000    0.0000   -0.0001   -0.0000    0.0000   -0.0009   -0.0002    0.0002   -0.0000    0.0000
        5 O1     2px       -0.0000    0.0000   -0.0000    0.0000    0.0000   -0.0000   -0.0000    0.0000    0.0017    0.0012
        6 O1     3px       -0.0000    0.0000    0.0000   -0.0000   -0.0000   -0.0000   -0.0000   -0.0000    0.0004    0.0003
        7 O1     4px       -0.0000    0.0000    0.0000   -0.0000   -0.0000   -0.0000   -0.0000    0.0000    0.0002    0.0002
        8 O1     2py        0.0000   -0.0000    0.0000   -0.0000    0.0000    0.0000    0.0000    0.0000    0.0012   -0.0017
        9 O1     3py        0.0000   -0.0000   -0.0000    0.0000   -0.0000    0.0000    0.0000    0.0000    0.0003   -0.0004
       10 O1     4py        0.0000   -0.0000   -0.0000    0.0000   -0.0000    0.0000    0.0000   -0.0000    0.0002   -0.0002
       11 O1     2pz       -0.0000    0.0000    0.0000    0.0000   -0.0000    0.0002    0.0006   -0.0008   -0.0000    0.0000
       12 O1     3pz       -0.0000    0.0000   -0.0000   -0.0000    0.0000    0.0004    0.0009    0.0013    0.0000   -0.0000
       13 O1     4pz       -0.0000   -0.0000   -0.0001   -0.0000    0.0000    0.0001   -0.0001    0.0006    0.0000   -0.0000
       14 O1     3d2-      -0.0000    0.0000   -0.0000   -0.0000   -0.0000   -0.0000   -0.0000   -0.0000    0.0000    0.0000
       15 O1     4d2-       0.0000    0.0000    0.0000   -0.0000   -0.0000    0.0000   -0.0000   -0.0000    0.0000    0.0000
       16 O1     3d1-      -0.0000    0.0000   -0.0000    0.0000   -0.0000    0.0000    0.0000    0.0000   -0.0002    0.0003
       17 O1     4d1-      -0.0000    0.0000   -0.0000    0.0000   -0.0000   -0.0000    0.0000   -0.0000   -0.0001    0.0001
       18 O1     3d0       -0.0000   -0.0000   -0.0000   -0.0000    0.0000    0.0012   -0.0005   -0.0002   -0.0000    0.0000
       19 O1     4d0       -0.0000   -0.0000    0.0000    0.0000   -0.0000   -0.0013   -0.0006   -0.0004   -0.0000    0.0000
       20 O1     3d1+       0.0000   -0.0000    0.0000   -0.0000   -0.0000   -0.0000   -0.0000   -0.0000   -0.0003   -0.0002
       21 O1     4d1+       0.0000   -0.0000    0.0000   -0.0000   -0.0000    0.0000   -0.0000    0.0000   -0.0001   -0.0001
       22 O1     3d2+       0.0000   -0.0000   -0.0000   -0.0000    0.0000    0.0000   -0.0000   -0.0000   -0.0000    0.0000
       23 O1     4d2+       0.0000   -0.0000   -0.0000   -0.0000    0.0000   -0.0000   -0.0000   -0.0000   -0.0000    0.0000
       24 O1     4f3-      -0.0000    0.0000   -0.0000   -0.0000    0.0000   -0.0000   -0.0000   -0.0000   -0.0000   -0.0000
       25 O1     4f2-       0.0000    0.0000   -0.0000    0.0000    0.0000    0.0000    0.0000    0.0000    0.0000    0.0000
       26 O1     4f1-       0.0000   -0.0000    0.0000   -0.0000    0.0000    0.0000   -0.0000    0.0000    0.0000   -0.0001
       27 O1     4f0        0.0000    0.0000    0.0000    0.0000   -0.0000    0.0000    0.0001    0.0001   -0.0000    0.0000
       28 O1     4f1+      -0.0000    0.0000   -0.0000    0.0000    0.0000   -0.0000    0.0000   -0.0000    0.0001    0.0000
       29 O1     4f2+      -0.0000    0.0000    0.0000    0.0000   -0.0000    0.0000    0.0000    0.0000   -0.0000    0.0000
       30 O1     4f3+       0.0000   -0.0000    0.0000   -0.0000    0.0000    0.0000    0.0000    0.0000    0.0000   -0.0000
       31 FE2    1s         1.0000    0.0000   -0.0000   -0.0000    0.0000    0.0000    0.0000    0.0000    0.0000   -0.0000
       32 FE2    2s        -0.0000    1.0000   -0.0010   -0.0000    0.0000    0.0000    0.0004    0.0000    0.0000   -0.0000
       33 FE2    3s         0.0000   -0.0004   -0.0000   -0.0000    0.0000    0.0001    1.0001   -0.0024    0.0000   -0.0000
       34 FE2    4s         0.0000    0.0001    0.0001    0.0000   -0.0000    0.0006    0.0069    0.0036    0.0000   -0.0000
       35 FE2    5s         0.0000   -0.0002    0.0000    0.0000   -0.0000    0.0000   -0.0046   -0.0019   -0.0000    0.0000
       36 FE2    6s        -0.0000    0.0001    0.0000   -0.0000    0.0000   -0.0001    0.0022    0.0002   -0.0000    0.0000
       37 FE2    2px       -0.0000   -0.0000   -0.0000    0.9661    0.2582    0.0000   -0.0000    0.0000    0.0018    0.0013
       38 FE2    3px       -0.0000    0.0000    0.0000   -0.0022   -0.0006    0.0000    0.0000    0.0000    0.8138    0.5809
       39 FE2    4px        0.0000   -0.0000   -0.0000    0.0004    0.0001    0.0000   -0.0000   -0.0000    0.0043    0.0031
       40 FE2    5px       -0.0000    0.0000    0.0000   -0.0008   -0.0002    0.0000    0.0000    0.0000   -0.0059   -0.0042
       41 FE2    6px        0.0000   -0.0000   -0.0000    0.0005    0.0001    0.0000    0.0000    0.0000   -0.0010   -0.0007
       42 FE2    2py        0.0000    0.0000    0.0001   -0.2582    0.9661   -0.0000    0.0000   -0.0000    0.0013   -0.0018
       43 FE2    3py        0.0000   -0.0000   -0.0000    0.0006   -0.0022   -0.0000   -0.0000   -0.0000    0.5809   -0.8138
       44 FE2    4py       -0.0000    0.0000    0.0000   -0.0001    0.0004   -0.0000    0.0000    0.0000    0.0031   -0.0043
       45 FE2    5py        0.0000   -0.0000   -0.0000    0.0002   -0.0008   -0.0000   -0.0000   -0.0000   -0.0042    0.0059
       46 FE2    6py       -0.0000    0.0000    0.0000   -0.0001    0.0005   -0.0000   -0.0000   -0.0000   -0.0007    0.0010
       47 FE2    2pz        0.0000    0.0010    1.0000    0.0000   -0.0001    0.0000    0.0000    0.0014    0.0000   -0.0000
       48 FE2    3pz       -0.0000    0.0000   -0.0015   -0.0000    0.0000    0.0001    0.0027    0.9998    0.0000   -0.0000
       49 FE2    4pz        0.0000   -0.0000    0.0004    0.0000   -0.0000    0.0006    0.0013    0.0089    0.0000   -0.0000
       50 FE2    5pz       -0.0000   -0.0000   -0.0007   -0.0000    0.0000    0.0001   -0.0003   -0.0087   -0.0000    0.0000
       51 FE2    6pz        0.0000   -0.0001    0.0005    0.0000   -0.0000   -0.0000   -0.0004   -0.0023   -0.0000    0.0000
       52 FE2    3d2-       0.0000    0.0000    0.0000   -0.0000   -0.0000   -0.0000    0.0000    0.0000   -0.0000   -0.0000
       53 FE2    4d2-       0.0000    0.0000   -0.0000   -0.0000   -0.0000   -0.0000    0.0000   -0.0000   -0.0000   -0.0000
       54 FE2    5d2-      -0.0000   -0.0000    0.0000    0.0000    0.0000   -0.0000   -0.0000   -0.0000    0.0000    0.0000
       55 FE2    3d1-       0.0000    0.0000    0.0000   -0.0000    0.0001   -0.0000   -0.0000   -0.0000   -0.0003    0.0004
       56 FE2    4d1-      -0.0000   -0.0000   -0.0000    0.0000   -0.0000   -0.0000    0.0000    0.0000    0.0009   -0.0013
       57 FE2    5d1-      -0.0000    0.0000    0.0000   -0.0000    0.0001   -0.0000   -0.0000   -0.0000   -0.0003    0.0005
       58 FE2    3d0        0.0000    0.0001    0.0001    0.0000   -0.0000    0.0001    0.0020    0.0037    0.0000   -0.0000
       59 FE2    4d0        0.0000    0.0000    0.0000   -0.0000    0.0000    0.0003    0.0006   -0.0005    0.0000   -0.0000
       60 FE2    5d0       -0.0000   -0.0001    0.0002    0.0000   -0.0000    0.0001   -0.0001   -0.0003   -0.0000    0.0000
       61 FE2    3d1+      -0.0000   -0.0000   -0.0000    0.0001    0.0000    0.0000    0.0000    0.0000   -0.0004   -0.0003
       62 FE2    4d1+       0.0000    0.0000    0.0000   -0.0000   -0.0000    0.0000   -0.0000   -0.0000    0.0013    0.0009
       63 FE2    5d1+       0.0000   -0.0000   -0.0000    0.0001    0.0000    0.0000    0.0000    0.0000   -0.0005   -0.0003
       64 FE2    3d2+       0.0000    0.0000   -0.0000   -0.0000    0.0000    0.0000    0.0000   -0.0000    0.0000   -0.0000
       65 FE2    4d2+      -0.0000   -0.0000    0.0000   -0.0000    0.0000    0.0000   -0.0000    0.0000   -0.0000    0.0000
       66 FE2    5d2+       0.0000    0.0000   -0.0000    0.0000   -0.0000    0.0000    0.0000   -0.0000   -0.0000    0.0000
       67 FE2    4f3-      -0.0000    0.0000   -0.0000   -0.0000   -0.0000   -0.0000    0.0000   -0.0000   -0.0000   -0.0000
       68 FE2    5f3-       0.0000   -0.0000    0.0000    0.0000    0.0000   -0.0000   -0.0000   -0.0000    0.0000    0.0000
       69 FE2    4f2-      -0.0000    0.0000    0.0000   -0.0000   -0.0000   -0.0000    0.0000    0.0000   -0.0000   -0.0000
       70 FE2    5f2-       0.0000   -0.0000   -0.0000    0.0000    0.0000   -0.0000   -0.0000    0.0000    0.0000    0.0000
       71 FE2    4f1-       0.0000   -0.0000    0.0000   -0.0002    0.0006   -0.0000   -0.0000    0.0000    0.0068   -0.0095
       72 FE2    5f1-      -0.0000    0.0000   -0.0000    0.0001   -0.0003   -0.0000    0.0000    0.0000    0.0007   -0.0010
       73 FE2    4f0       -0.0000    0.0000   -0.0008   -0.0000    0.0000    0.0000    0.0003   -0.0172    0.0000   -0.0000
       74 FE2    5f0        0.0000   -0.0000    0.0006    0.0000   -0.0000    0.0001   -0.0001   -0.0003   -0.0000    0.0000
       75 FE2    4f1+      -0.0000    0.0000   -0.0000    0.0006    0.0002    0.0000    0.0000   -0.0000    0.0095    0.0068
       76 FE2    5f1+       0.0000   -0.0000    0.0000   -0.0003   -0.0001    0.0000   -0.0000   -0.0000    0.0010    0.0007
       77 FE2    4f2+       0.0000   -0.0000   -0.0000   -0.0000    0.0000   -0.0000   -0.0000   -0.0000    0.0000   -0.0000
       78 FE2    5f2+      -0.0000    0.0000    0.0000    0.0000   -0.0000    0.0000    0.0000    0.0000   -0.0000    0.0000
       79 FE2    4f3+       0.0000   -0.0000    0.0000    0.0000    0.0000    0.0000   -0.0000    0.0000    0.0000   -0.0000
       80 FE2    5f3+      -0.0000    0.0000   -0.0000    0.0000   -0.0000    0.0000    0.0000    0.0000   -0.0000    0.0000
       81 FE2    5g4-      -0.0000    0.0000   -0.0000    0.0000    0.0000   -0.0000    0.0000   -0.0000    0.0000    0.0000
       82 FE2    5g3-      -0.0000   -0.0000    0.0000    0.0000   -0.0000   -0.0000   -0.0000   -0.0000   -0.0000    0.0000
       83 FE2    5g2-       0.0000    0.0000    0.0000   -0.0000   -0.0000   -0.0000    0.0000    0.0000   -0.0000   -0.0000
       84 FE2    5g1-       0.0000    0.0000    0.0000   -0.0000    0.0000   -0.0000    0.0000   -0.0000    0.0001   -0.0001
       85 FE2    5g0       -0.0000   -0.0003    0.0000    0.0000   -0.0000    0.0000   -0.0041   -0.0000    0.0000   -0.0000
       86 FE2    5g1+      -0.0000   -0.0000   -0.0000    0.0000    0.0000    0.0000   -0.0000    0.0000    0.0001    0.0001
       87 FE2    5g2+      -0.0000   -0.0000   -0.0000   -0.0000    0.0000    0.0000   -0.0000   -0.0000    0.0000   -0.0000
       88 FE2    5g3+       0.0000    0.0000   -0.0000   -0.0000   -0.0000    0.0000    0.0000    0.0000   -0.0000   -0.0000
       89 FE2    5g4+       0.0000    0.0000    0.0000    0.0000   -0.0000   -0.0000    0.0000    0.0000   -0.0000    0.0000
 
          Orbital           11        12        13        14        15        16        17        18        19        20    
          Energy           -1.8380   -1.3393   -0.7983   -0.7983   -0.5682   -0.5682   -0.4201   -0.2885   -0.2885   -0.2816
          Occ. No.          1.0000    1.0000    1.0000    1.0000    0.0000    0.0000    0.0000    0.0000    0.0000    0.0000
 
        1 O1     1s         0.0017    0.0004   -0.0000   -0.0000   -0.0000    0.0000   -0.0165   -0.0000    0.0000   -0.0305
        2 O1     2s         0.9982    0.0247   -0.0000   -0.0000   -0.0000    0.0000   -0.1792   -0.0000    0.0000   -0.2930
        3 O1     3s        -0.0362   -0.0171   -0.0000   -0.0000    0.0000   -0.0000   -0.0193   -0.0000    0.0000   -0.0381
        4 O1     4s        -0.0070   -0.0032   -0.0000   -0.0000    0.0000   -0.0000   -0.0018   -0.0000    0.0000   -0.0025
        5 O1     2px        0.0000   -0.0000    0.2545   -0.2215   -0.6242   -0.6844    0.0000    0.0967    0.1518    0.0000
        6 O1     3px        0.0000    0.0000    0.0196   -0.0171   -0.0823   -0.0902    0.0000   -0.0053   -0.0083    0.0000
        7 O1     4px       -0.0000    0.0000   -0.0080    0.0069    0.0026    0.0028    0.0000   -0.0098   -0.0154    0.0000
        8 O1     2py       -0.0000    0.0000    0.2215    0.2545    0.6844   -0.6242   -0.0000   -0.1518    0.0967   -0.0000
        9 O1     3py       -0.0000   -0.0000    0.0171    0.0196    0.0902   -0.0823   -0.0000    0.0083   -0.0053   -0.0000
       10 O1     4py        0.0000   -0.0000   -0.0069   -0.0080   -0.0028    0.0026   -0.0000    0.0154   -0.0098   -0.0000
       11 O1     2pz       -0.0215    0.9890   -0.0000   -0.0000   -0.0000    0.0000    0.1272    0.0000   -0.0000    0.1516
       12 O1     3pz       -0.0104   -0.1098   -0.0000   -0.0000   -0.0000    0.0000   -0.0187    0.0000   -0.0000    0.0428
       13 O1     4pz        0.0025   -0.0121    0.0000    0.0000    0.0000   -0.0000   -0.0057    0.0000   -0.0000    0.0116
       14 O1     3d2-      -0.0000    0.0000   -0.0000    0.0000    0.0000    0.0000   -0.0000    0.0000    0.0000   -0.0000
       15 O1     4d2-      -0.0000    0.0000   -0.0000    0.0000    0.0000    0.0000   -0.0000    0.0000    0.0000   -0.0000
       16 O1     3d1-       0.0000   -0.0000   -0.0101   -0.0116   -0.0084    0.0077    0.0000   -0.0116    0.0074   -0.0000
       17 O1     4d1-      -0.0000   -0.0000   -0.0057   -0.0065   -0.0060    0.0055    0.0000   -0.0061    0.0039    0.0000
       18 O1     3d0        0.0556   -0.0107    0.0000    0.0000    0.0000   -0.0000    0.0047   -0.0000    0.0000   -0.0069
       19 O1     4d0        0.0012   -0.0074    0.0000    0.0000    0.0000   -0.0000    0.0042   -0.0000    0.0000   -0.0038
       20 O1     3d1+      -0.0000    0.0000   -0.0116    0.0101    0.0077    0.0084   -0.0000    0.0074    0.0116    0.0000
       21 O1     4d1+       0.0000    0.0000   -0.0065    0.0057    0.0055    0.0060   -0.0000    0.0039    0.0061   -0.0000
       22 O1     3d2+       0.0000   -0.0000    0.0000    0.0000    0.0000   -0.0000   -0.0000    0.0000   -0.0000   -0.0000
       23 O1     4d2+       0.0000   -0.0000    0.0000    0.0000    0.0000   -0.0000    0.0000    0.0000   -0.0000   -0.0000
       24 O1     4f3-      -0.0000    0.0000   -0.0000    0.0000    0.0000   -0.0000   -0.0000   -0.0000    0.0000   -0.0000
       25 O1     4f2-       0.0000   -0.0000    0.0000   -0.0000   -0.0000   -0.0000    0.0000    0.0000    0.0000    0.0000
       26 O1     4f1-      -0.0000    0.0000    0.0040    0.0046    0.0085   -0.0077   -0.0000   -0.0010    0.0006    0.0000
       27 O1     4f0       -0.0012    0.0157   -0.0000   -0.0000   -0.0000    0.0000    0.0013    0.0000   -0.0000    0.0026
       28 O1     4f1+       0.0000   -0.0000    0.0046   -0.0040   -0.0077   -0.0085    0.0000    0.0006    0.0010   -0.0000
       29 O1     4f2+      -0.0000   -0.0000   -0.0000   -0.0000   -0.0000    0.0000    0.0000    0.0000   -0.0000    0.0000
       30 O1     4f3+       0.0000   -0.0000    0.0000    0.0000   -0.0000   -0.0000    0.0000    0.0000    0.0000    0.0000
       31 FE2    1s        -0.0001    0.0001   -0.0000   -0.0000   -0.0000    0.0000   -0.0000    0.0000   -0.0000    0.0003
       32 FE2    2s        -0.0005    0.0007   -0.0000   -0.0000   -0.0000    0.0000   -0.0002    0.0000   -0.0000    0.0019
       33 FE2    3s        -0.0040    0.0061   -0.0000   -0.0000   -0.0000    0.0000   -0.0059    0.0000   -0.0000    0.0104
       34 FE2    4s        -0.0004   -0.0161    0.0000    0.0000   -0.0000    0.0000    1.0099    0.0000   -0.0000   -0.0548
       35 FE2    5s        -0.0016    0.0040   -0.0000   -0.0000    0.0000   -0.0000   -0.0114    0.0000   -0.0000    0.0776
       36 FE2    6s         0.0009    0.0013    0.0000    0.0000   -0.0000    0.0000   -0.0383    0.0000   -0.0000    0.0224
       37 FE2    2px        0.0000    0.0000   -0.0001    0.0001    0.0002    0.0002   -0.0000    0.0001    0.0002   -0.0000
       38 FE2    3px        0.0000   -0.0000   -0.0020    0.0018    0.0053    0.0058    0.0000    0.0018    0.0028    0.0000
       39 FE2    4px       -0.0000   -0.0000    0.0512   -0.0445   -0.0080   -0.0088    0.0000   -0.5066   -0.7952    0.0000
       40 FE2    5px       -0.0000   -0.0000   -0.0000    0.0000    0.0005    0.0006    0.0000   -0.1351   -0.2121    0.0000
       41 FE2    6px        0.0000   -0.0000   -0.0030    0.0026    0.0019    0.0021    0.0000   -0.0884   -0.1388    0.0000
       42 FE2    2py       -0.0000   -0.0000   -0.0001   -0.0001   -0.0002    0.0002    0.0000   -0.0002    0.0001    0.0000
       43 FE2    3py       -0.0000    0.0000   -0.0018   -0.0020   -0.0058    0.0053   -0.0000   -0.0028    0.0018   -0.0000
       44 FE2    4py        0.0000    0.0000    0.0445    0.0512    0.0088   -0.0080   -0.0000    0.7952   -0.5066   -0.0000
       45 FE2    5py        0.0000    0.0000   -0.0000   -0.0000   -0.0006    0.0005   -0.0000    0.2121   -0.1351   -0.0000
       46 FE2    6py       -0.0000    0.0000   -0.0026   -0.0030   -0.0021    0.0019   -0.0000    0.1388   -0.0884   -0.0000
       47 FE2    2pz       -0.0002    0.0003   -0.0000   -0.0000   -0.0000    0.0000   -0.0000    0.0000   -0.0000    0.0001
       48 FE2    3pz       -0.0079    0.0118   -0.0000   -0.0000   -0.0000    0.0000   -0.0021   -0.0000    0.0000    0.0021
       49 FE2    4pz        0.0004   -0.0112    0.0000    0.0000    0.0000   -0.0000    0.1569    0.0000   -0.0000    1.0209
       50 FE2    5pz       -0.0015    0.0022    0.0000    0.0000    0.0000   -0.0000    0.0394    0.0000   -0.0000    0.2804
       51 FE2    6pz       -0.0014    0.0031   -0.0000   -0.0000    0.0000   -0.0000    0.0251    0.0000   -0.0000    0.1868
       52 FE2    3d2-      -0.0000    0.0000   -0.0000    0.0000   -0.0000   -0.0000   -0.0000    0.0000    0.0000   -0.0000
       53 FE2    4d2-      -0.0000    0.0000    0.0000   -0.0000   -0.0000   -0.0000   -0.0000    0.0000    0.0000   -0.0000
       54 FE2    5d2-      -0.0000    0.0000    0.0000   -0.0000    0.0000    0.0000   -0.0000    0.0000    0.0000   -0.0000
       55 FE2    3d1-       0.0000   -0.0000    0.6017    0.6911   -0.2879    0.2625   -0.0000   -0.0417    0.0266    0.0000
       56 FE2    4d1-       0.0000    0.0000    0.0626    0.0719   -0.0207    0.0189   -0.0000    0.0314   -0.0200   -0.0000
       57 FE2    5d1-       0.0000    0.0000    0.0072    0.0083    0.0013   -0.0011   -0.0000    0.0258   -0.0165   -0.0000
       58 FE2    3d0        0.0021   -0.0090    0.0000    0.0000   -0.0000    0.0000    0.0076   -0.0000    0.0000    0.0248
       59 FE2    4d0        0.0002   -0.0041    0.0000    0.0000    0.0000   -0.0000    0.0091    0.0000   -0.0000    0.0422
       60 FE2    5d0       -0.0008    0.0002    0.0000    0.0000    0.0000   -0.0000    0.0077    0.0000   -0.0000    0.0289
       61 FE2    3d1+      -0.0000    0.0000    0.6911   -0.6017    0.2625    0.2879    0.0000    0.0266    0.0417   -0.0000
       62 FE2    4d1+      -0.0000   -0.0000    0.0719   -0.0626    0.0189    0.0207    0.0000   -0.0200   -0.0314    0.0000
       63 FE2    5d1+      -0.0000   -0.0000    0.0083   -0.0072   -0.0011   -0.0013    0.0000   -0.0165   -0.0258    0.0000
       64 FE2    3d2+      -0.0000   -0.0000    0.0000    0.0000   -0.0000    0.0000    0.0000    0.0000   -0.0000    0.0000
       65 FE2    4d2+       0.0000   -0.0000   -0.0000   -0.0000    0.0000   -0.0000    0.0000    0.0000   -0.0000    0.0000
       66 FE2    5d2+       0.0000   -0.0000   -0.0000   -0.0000    0.0000   -0.0000    0.0000    0.0000   -0.0000    0.0000
       67 FE2    4f3-      -0.0000    0.0000    0.0000    0.0000   -0.0000    0.0000   -0.0000    0.0000    0.0000   -0.0000
       68 FE2    5f3-      -0.0000    0.0000    0.0000    0.0000   -0.0000    0.0000   -0.0000    0.0000    0.0000   -0.0000
       69 FE2    4f2-      -0.0000    0.0000   -0.0000    0.0000   -0.0000   -0.0000   -0.0000   -0.0000   -0.0000    0.0000
       70 FE2    5f2-      -0.0000    0.0000   -0.0000    0.0000   -0.0000   -0.0000   -0.0000   -0.0000   -0.0000   -0.0000
       71 FE2    4f1-       0.0000   -0.0000    0.0051    0.0059    0.0026   -0.0024   -0.0000    0.0024   -0.0016    0.0000
       72 FE2    5f1-       0.0000    0.0000    0.0041    0.0047    0.0023   -0.0021   -0.0000    0.0021   -0.0013    0.0000
       73 FE2    4f0        0.0002   -0.0014    0.0000    0.0000    0.0000   -0.0000   -0.0025   -0.0000    0.0000   -0.0052
       74 FE2    5f0        0.0002   -0.0011    0.0000    0.0000    0.0000   -0.0000   -0.0019   -0.0000    0.0000   -0.0049
       75 FE2    4f1+      -0.0000    0.0000    0.0059   -0.0051   -0.0024   -0.0026    0.0000   -0.0016   -0.0024   -0.0000
       76 FE2    5f1+      -0.0000   -0.0000    0.0047   -0.0041   -0.0021   -0.0023    0.0000   -0.0013   -0.0021   -0.0000
       77 FE2    4f2+      -0.0000    0.0000   -0.0000   -0.0000   -0.0000    0.0000    0.0000   -0.0000    0.0000   -0.0000
       78 FE2    5f2+      -0.0000    0.0000   -0.0000   -0.0000   -0.0000    0.0000    0.0000   -0.0000    0.0000   -0.0000
       79 FE2    4f3+       0.0000   -0.0000    0.0000   -0.0000    0.0000    0.0000    0.0000    0.0000   -0.0000    0.0000
       80 FE2    5f3+       0.0000   -0.0000    0.0000   -0.0000    0.0000    0.0000    0.0000    0.0000   -0.0000    0.0000
       81 FE2    5g4-       0.0000    0.0000   -0.0000    0.0000   -0.0000   -0.0000   -0.0000   -0.0000   -0.0000   -0.0000
       82 FE2    5g3-      -0.0000    0.0000    0.0000   -0.0000    0.0000    0.0000   -0.0000    0.0000   -0.0000    0.0000
       83 FE2    5g2-      -0.0000    0.0000   -0.0000    0.0000   -0.0000   -0.0000    0.0000   -0.0000   -0.0000   -0.0000
       84 FE2    5g1-       0.0000    0.0000   -0.0008   -0.0009    0.0007   -0.0007    0.0000    0.0001   -0.0000    0.0000
       85 FE2    5g0        0.0000   -0.0000   -0.0000   -0.0000    0.0000   -0.0000   -0.0008   -0.0000    0.0000   -0.0001
       86 FE2    5g1+      -0.0000   -0.0000   -0.0009    0.0008   -0.0007   -0.0007   -0.0000   -0.0000   -0.0001   -0.0000
       87 FE2    5g2+      -0.0000    0.0000   -0.0000   -0.0000    0.0000   -0.0000   -0.0000   -0.0000    0.0000    0.0000
       88 FE2    5g3+       0.0000   -0.0000   -0.0000   -0.0000    0.0000   -0.0000    0.0000   -0.0000   -0.0000   -0.0000
       89 FE2    5g4+      -0.0000    0.0000    0.0000    0.0000   -0.0000    0.0000    0.0000   -0.0000    0.0000    0.0000
 
          Orbital           21        22        23        24        25        26        27    
          Energy           -0.2185   -0.2185   -0.1991   -0.1849   -0.0896   -0.0841   -0.0841
          Occ. No.          0.0000    0.0000    0.0000    0.0000    0.0000    0.0000    0.0000
 
        1 O1     1s        -0.0000   -0.0000   -0.0128   -0.0249   -0.0219   -0.0000    0.0000
        2 O1     2s        -0.0000   -0.0000   -0.1044   -0.2268   -0.1884   -0.0000    0.0000
        3 O1     3s        -0.0000   -0.0000   -0.0331    0.0057    0.0707    0.0000   -0.0000
        4 O1     4s         0.0000    0.0000   -0.0056    0.0119    0.0373    0.0000   -0.0000
        5 O1     2px       -0.0000   -0.0000   -0.0000    0.0000    0.0000   -0.1182   -0.0907
        6 O1     3px        0.0000    0.0000   -0.0000    0.0000   -0.0000    0.5175    0.3971
        7 O1     4px        0.0000    0.0000   -0.0000    0.0000   -0.0000    0.2374    0.1822
        8 O1     2py        0.0000   -0.0000    0.0000   -0.0000   -0.0000    0.0907   -0.1182
        9 O1     3py       -0.0000    0.0000    0.0000   -0.0000    0.0001   -0.3971    0.5175
       10 O1     4py       -0.0000    0.0000    0.0000   -0.0000    0.0000   -0.1822    0.2374
       11 O1     2pz        0.0000    0.0000   -0.0075    0.1322    0.2246    0.0000   -0.0000
       12 O1     3pz        0.0000    0.0000    0.2450    0.0873    0.9951    0.0001   -0.0001
       13 O1     4pz        0.0000    0.0000    0.0825    0.0394    0.3685    0.0000   -0.0000
       14 O1     3d2-       0.0093   -0.0002    0.0000   -0.0000    0.0000   -0.0000   -0.0000
       15 O1     4d2-       0.0061   -0.0001    0.0000   -0.0000    0.0000   -0.0000   -0.0000
       16 O1     3d1-       0.0000   -0.0000   -0.0000    0.0000   -0.0000    0.0071   -0.0092
       17 O1     4d1-       0.0000   -0.0000   -0.0000    0.0000   -0.0000    0.0042   -0.0054
       18 O1     3d0        0.0000   -0.0000   -0.0291    0.0134   -0.0162   -0.0000    0.0000
       19 O1     4d0        0.0000   -0.0000   -0.0173    0.0087   -0.0111   -0.0000    0.0000
       20 O1     3d1+      -0.0000   -0.0000    0.0000   -0.0000    0.0000   -0.0092   -0.0071
       21 O1     4d1+      -0.0000   -0.0000    0.0000   -0.0000    0.0000   -0.0054   -0.0042
       22 O1     3d2+      -0.0002   -0.0093    0.0000   -0.0000    0.0000   -0.0000    0.0000
       23 O1     4d2+      -0.0001   -0.0061    0.0000   -0.0000    0.0000   -0.0000    0.0000
       24 O1     4f3-       0.0000    0.0000    0.0000    0.0000    0.0000    0.0000   -0.0000
       25 O1     4f2-      -0.0013    0.0000   -0.0000    0.0000   -0.0000   -0.0000   -0.0000
       26 O1     4f1-      -0.0000    0.0000   -0.0000    0.0000   -0.0000    0.0028   -0.0036
       27 O1     4f0       -0.0000    0.0000    0.0006   -0.0008   -0.0001   -0.0000    0.0000
       28 O1     4f1+       0.0000    0.0000    0.0000   -0.0000    0.0000   -0.0036   -0.0028
       29 O1     4f2+       0.0000    0.0013   -0.0000    0.0000   -0.0000   -0.0000    0.0000
       30 O1     4f3+       0.0000   -0.0000   -0.0000   -0.0000   -0.0000   -0.0000   -0.0000
       31 FE2    1s         0.0000    0.0000    0.0010    0.0004    0.0040    0.0000   -0.0000
       32 FE2    2s         0.0000    0.0000    0.0073    0.0030    0.0290    0.0000   -0.0000
       33 FE2    3s        -0.0000    0.0000    0.0377    0.0132    0.1399    0.0000   -0.0000
       34 FE2    4s         0.0000    0.0000    0.1934    0.0927    0.5300    0.0001   -0.0001
       35 FE2    5s        -0.0000    0.0000    0.8177    0.1110   -0.3261   -0.0000    0.0000
       36 FE2    6s        -0.0000    0.0000    0.4249    0.0984   -0.2801   -0.0000    0.0000
       37 FE2    2px       -0.0000   -0.0000    0.0000   -0.0000    0.0000   -0.0006   -0.0005
       38 FE2    3px        0.0000    0.0000    0.0000   -0.0000    0.0000   -0.0140   -0.0108
       39 FE2    4px        0.0000    0.0000    0.0000   -0.0000    0.0000   -0.2679   -0.2056
       40 FE2    5px        0.0000    0.0000    0.0000   -0.0000    0.0000   -0.0413   -0.0317
       41 FE2    6px        0.0000    0.0000    0.0000   -0.0000    0.0000   -0.0169   -0.0130
       42 FE2    2py        0.0000   -0.0000   -0.0000    0.0000   -0.0000    0.0005   -0.0006
       43 FE2    3py       -0.0000    0.0000   -0.0000    0.0000   -0.0000    0.0108   -0.0140
       44 FE2    4py        0.0000    0.0000   -0.0000    0.0000   -0.0001    0.2056   -0.2679
       45 FE2    5py        0.0000    0.0000   -0.0000    0.0000   -0.0000    0.0317   -0.0413
       46 FE2    6py        0.0000    0.0000   -0.0000    0.0000   -0.0000    0.0130   -0.0169
       47 FE2    2pz        0.0000    0.0000    0.0010    0.0003    0.0038    0.0000   -0.0000
       48 FE2    3pz       -0.0000    0.0000    0.0212    0.0054    0.0721    0.0000   -0.0000
       49 FE2    4pz        0.0000    0.0000    0.0080    0.0542    0.2224    0.0000   -0.0000
       50 FE2    5pz        0.0000    0.0000    0.0655    0.0083    0.2016    0.0000   -0.0000
       51 FE2    6pz        0.0000    0.0000    0.0623    0.0031    0.1732    0.0000   -0.0000
       52 FE2    3d2-       0.8482   -0.0149    0.0000   -0.0000    0.0000   -0.0000   -0.0000
       53 FE2    4d2-       0.4716   -0.0083    0.0000   -0.0000    0.0000   -0.0000   -0.0000
       54 FE2    5d2-       0.2379   -0.0042    0.0000   -0.0000    0.0000   -0.0000   -0.0000
       55 FE2    3d1-      -0.0000    0.0000    0.0000   -0.0000   -0.0000    0.0501   -0.0653
       56 FE2    4d1-      -0.0000    0.0000    0.0000   -0.0000    0.0001   -0.2351    0.3064
       57 FE2    5d1-      -0.0000    0.0000    0.0000   -0.0000    0.0000   -0.1784    0.2324
       58 FE2    3d0        0.0000   -0.0000   -0.1320    0.8357   -0.0834   -0.0000    0.0000
       59 FE2    4d0        0.0000   -0.0000   -0.0380    0.5085    0.1427    0.0000   -0.0000
       60 FE2    5d0        0.0000   -0.0000   -0.0070    0.2612    0.1271    0.0000   -0.0000
       61 FE2    3d1+       0.0000    0.0000   -0.0000    0.0000    0.0000   -0.0653   -0.0501
       62 FE2    4d1+       0.0000    0.0000   -0.0000    0.0000   -0.0000    0.3064    0.2351
       63 FE2    5d1+       0.0000    0.0000   -0.0000    0.0000   -0.0000    0.2324    0.1784
       64 FE2    3d2+      -0.0149   -0.8482    0.0000   -0.0000    0.0000   -0.0000    0.0000
[...]
       79 FE2    4f3+       0.0001   -0.0001   -0.0000   -0.0000   -0.7884   -0.0000   -0.0028   -0.0000    0.0000    0.0000
       80 FE2    5f3+       0.0000    0.0001    0.0000   -0.0000   -0.6151   -0.0000    0.0029    0.0000   -0.0000   -0.0000
       81 FE2    5g4-      -0.0000   -0.0000    0.0000   -0.0000    0.0000    0.0000    0.0000    0.0107   -0.0000   -0.0000
       82 FE2    5g3-      -0.0000    0.0001    0.9958    0.0000   -0.0000    0.0000    0.0011    0.0000   -0.0000    0.0000
       83 FE2    5g2-      -0.0001   -0.0109    0.0000   -0.0012   -0.0000    0.0000    0.0000   -0.0000    0.9998    0.0193
       84 FE2    5g1-      -0.0132    0.0002   -0.0000   -0.0000   -0.0000   -0.0125   -0.0000    0.0000    0.0000    0.0000
       85 FE2    5g0       -0.0002   -0.0010    0.0137    0.0002   -0.0000   -0.0000   -0.0019    0.0000   -0.0000   -0.0000
       86 FE2    5g1+       0.0121   -0.0003    0.0000   -0.0000   -0.0000   -0.0133    0.0000   -0.0000   -0.0000    0.0000
       87 FE2    5g2+       0.0000    0.0004   -0.0000    0.0063   -0.0000    0.0000    0.0000   -0.0000   -0.0193    0.9998
       88 FE2    5g3+       0.0000   -0.0000    0.0001   -0.0000   -0.0005   -0.0000    0.9999   -0.0000   -0.0000   -0.0000
       89 FE2    5g4+      -0.0000   -0.0000   -0.0000    0.0000   -0.0000    0.0000    0.0000    0.9999    0.0000    0.0000
 
          Orbital           81        82        83        84        85        86        87    
          Energy            4.0553    7.5427    4.0553    3.3615    3.3641    3.3641    6.9369
          Occ. No.          0.0000    0.0000    0.0000    0.0000    0.0000    0.0000    0.0000
 
        1 O1     1s        -0.0000    0.0000   -0.0000   -0.0000   -0.0000   -0.0000   -0.0000
        2 O1     2s        -0.0000    0.0000   -0.0000   -0.0000   -0.0000   -0.0000   -0.0000
        3 O1     3s        -0.0001    0.0000   -0.0000   -0.0000    0.0000   -0.0000    0.0000
        4 O1     4s        -0.0000    0.0000    0.0000   -0.0000    0.0000   -0.0000    0.0000
        5 O1     2px        0.0000   -0.0000   -0.0000   -0.0000   -0.0000    0.0000   -0.0000
        6 O1     3px        0.0000    0.0000   -0.0000   -0.0000    0.0000   -0.0000   -0.0000
        7 O1     4px       -0.0000   -0.0000    0.0000    0.0000   -0.0000    0.0000    0.0000
        8 O1     2py       -0.0000   -0.0000   -0.0000    0.0000   -0.0000   -0.0000   -0.0000
        9 O1     3py       -0.0000    0.0000   -0.0000   -0.0000    0.0000    0.0000   -0.0000
       10 O1     4py        0.0000   -0.0000    0.0000    0.0000   -0.0000   -0.0000    0.0000
       11 O1     2pz        0.0000   -0.0000    0.0000    0.0000   -0.0000    0.0000   -0.0000
       12 O1     3pz        0.0000    0.0000    0.0000   -0.0000   -0.0000    0.0000    0.0000
       13 O1     4pz        0.0000   -0.0000    0.0000   -0.0000   -0.0000    0.0000   -0.0000
       14 O1     3d2-      -0.0816   -0.0000    0.4781   -0.0061    0.0000    0.0000   -0.0000
       15 O1     4d2-       0.1473   -0.0000   -0.8630    0.0135   -0.0000   -0.0000   -0.0000
       16 O1     3d1-       0.0000   -0.0000    0.0000    0.0000   -0.0000   -0.0000    0.0000
       17 O1     4d1-      -0.0000   -0.0000   -0.0000    0.0000   -0.0000   -0.0000    0.0000
       18 O1     3d0       -0.0000    0.0000    0.0000   -0.0000   -0.0000   -0.0000    0.0000
       19 O1     4d0        0.0000    0.0000    0.0000   -0.0000   -0.0000   -0.0000    0.0000
       20 O1     3d1+      -0.0000   -0.0000    0.0000    0.0000   -0.0000    0.0000    0.0000
       21 O1     4d1+      -0.0000   -0.0000    0.0000    0.0000   -0.0000    0.0000    0.0000
       22 O1     3d2+       0.4781    0.0000    0.0816   -0.0012    0.0000   -0.0000   -0.0000
       23 O1     4d2+      -0.8630    0.0000   -0.1473    0.0026   -0.0000    0.0000   -0.0000
       24 O1     4f3-      -0.0000    0.0000   -0.0000    0.0000   -0.0092   -0.9999    0.0000
       25 O1     4f2-      -0.0026    0.0000    0.0153    0.9817   -0.0000   -0.0000    0.0000
       26 O1     4f1-      -0.0000    0.0000   -0.0000    0.0000   -0.0000    0.0000   -0.0000
       27 O1     4f0        0.0000   -0.0000    0.0000   -0.0000    0.0000    0.0000   -0.0000
       28 O1     4f1+       0.0000    0.0000   -0.0000   -0.0000    0.0000    0.0000   -0.0000
       29 O1     4f2+       0.0153   -0.0000    0.0026    0.1893   -0.0000    0.0000   -0.0000
       30 O1     4f3+      -0.0000    0.0000    0.0000   -0.0000   -0.9999    0.0092    0.0055
       31 FE2    1s         0.0000    0.0000    0.0000   -0.0000   -0.0000    0.0000    0.0000
       32 FE2    2s         0.0000    0.0000    0.0000   -0.0000   -0.0000    0.0000    0.0000
       33 FE2    3s         0.0000    0.0000    0.0000   -0.0000   -0.0000    0.0000    0.0000
       34 FE2    4s         0.0000    0.0000    0.0000   -0.0000   -0.0000    0.0000    0.0000
       35 FE2    5s         0.0000    0.0000    0.0000   -0.0000   -0.0000    0.0000    0.0000
       36 FE2    6s        -0.0000    0.0000    0.0000   -0.0000   -0.0000    0.0000    0.0000
       37 FE2    2px       -0.0000   -0.0000    0.0000    0.0000   -0.0000   -0.0000   -0.0000
       38 FE2    3px       -0.0000   -0.0000    0.0000    0.0000   -0.0000   -0.0000   -0.0000
       39 FE2    4px       -0.0000    0.0000    0.0001    0.0001    0.0000    0.0000    0.0000
       40 FE2    5px        0.0000    0.0000   -0.0001   -0.0001    0.0000   -0.0000   -0.0000
       41 FE2    6px        0.0000    0.0000   -0.0000   -0.0000    0.0000   -0.0000   -0.0000
       42 FE2    2py        0.0000   -0.0000    0.0000    0.0000    0.0000   -0.0000   -0.0000
       43 FE2    3py        0.0000   -0.0000    0.0000   -0.0000    0.0000   -0.0000   -0.0000
       44 FE2    4py        0.0001    0.0000    0.0000    0.0000   -0.0000    0.0000    0.0000
       45 FE2    5py       -0.0001    0.0000   -0.0000   -0.0000    0.0000    0.0000   -0.0000
       46 FE2    6py       -0.0000    0.0000   -0.0000   -0.0000    0.0000    0.0000   -0.0000
       47 FE2    2pz        0.0000    0.0000    0.0000   -0.0000   -0.0000    0.0000   -0.0000
       48 FE2    3pz        0.0000    0.0000    0.0000   -0.0000   -0.0000    0.0000   -0.0000
       49 FE2    4pz        0.0001   -0.0000    0.0000    0.0000    0.0000    0.0000   -0.0000
       50 FE2    5pz        0.0000   -0.0000   -0.0000    0.0000    0.0000   -0.0000   -0.0000
       51 FE2    6pz       -0.0000   -0.0000   -0.0000    0.0000    0.0000   -0.0000    0.0000
       52 FE2    3d2-      -0.0014   -0.0000    0.0079    0.0050   -0.0000   -0.0000    0.0000
       53 FE2    4d2-      -0.0043   -0.0000    0.0252    0.0183   -0.0000   -0.0000    0.0000
       54 FE2    5d2-      -0.0101   -0.0000    0.0593    0.0200   -0.0000   -0.0000    0.0000
       55 FE2    3d1-      -0.0000   -0.0000   -0.0000   -0.0000    0.0000    0.0000   -0.0000
       56 FE2    4d1-      -0.0000    0.0000   -0.0000   -0.0000    0.0000    0.0000    0.0000
       57 FE2    5d1-      -0.0000    0.0000   -0.0000   -0.0000    0.0000    0.0000   -0.0000
       58 FE2    3d0        0.0000    0.0000    0.0000   -0.0000   -0.0000    0.0000    0.0000
       59 FE2    4d0        0.0000   -0.0000    0.0000    0.0000    0.0000    0.0000   -0.0000
       60 FE2    5d0        0.0000   -0.0000    0.0000    0.0000    0.0000    0.0000    0.0000
       61 FE2    3d1+      -0.0000   -0.0000    0.0000   -0.0000    0.0000   -0.0000   -0.0000
       62 FE2    4d1+       0.0000    0.0001   -0.0000   -0.0000    0.0000   -0.0000    0.0000
       63 FE2    5d1+       0.0000    0.0000   -0.0000   -0.0000    0.0000   -0.0000   -0.0000
       64 FE2    3d2+       0.0079    0.0000    0.0014    0.0010   -0.0000    0.0000    0.0000
       65 FE2    4d2+       0.0252    0.0000    0.0043    0.0035   -0.0000    0.0000    0.0000
       66 FE2    5d2+       0.0593   -0.0000    0.0101    0.0039   -0.0000    0.0000   -0.0000
       67 FE2    4f3-       0.0000   -0.0000    0.0000   -0.0000    0.0001    0.0072    0.0043
       68 FE2    5f3-       0.0000    0.0000   -0.0000   -0.0000    0.0000    0.0020   -0.0055
       69 FE2    4f2-      -0.0081    0.0000    0.0473    0.0419   -0.0000   -0.0000   -0.0000
       70 FE2    5f2-      -0.0011    0.0000    0.0062    0.0136   -0.0000   -0.0000    0.0000
       71 FE2    4f1-       0.0001   -0.0000    0.0000    0.0000    0.0000   -0.0000    0.0000
       72 FE2    5f1-       0.0001    0.0000    0.0000    0.0000    0.0000   -0.0000    0.0000
       73 FE2    4f0        0.0000   -0.0000    0.0000    0.0000    0.0000   -0.0000   -0.0000
       74 FE2    5f0        0.0000   -0.0000    0.0000    0.0000    0.0000   -0.0000   -0.0000
       75 FE2    4f1+      -0.0000   -0.0000    0.0001    0.0001   -0.0000   -0.0000    0.0000
       76 FE2    5f1+      -0.0000    0.0000    0.0001    0.0001   -0.0000   -0.0000    0.0000
       77 FE2    4f2+       0.0473    0.0000    0.0081    0.0081   -0.0000    0.0000   -0.0000
       78 FE2    5f2+       0.0062   -0.0000    0.0011    0.0026   -0.0000    0.0000    0.0000
       79 FE2    4f3+       0.0000    0.0000   -0.0000    0.0000    0.0072   -0.0001    0.6151
       80 FE2    5f3+       0.0000    0.0000   -0.0000    0.0000    0.0020   -0.0000   -0.7884
       81 FE2    5g4-       0.0000    0.9999    0.0000   -0.0000   -0.0000    0.0000   -0.0000
       82 FE2    5g3-       0.0000   -0.0000    0.0000    0.0000   -0.0000   -0.0011    0.0000
       83 FE2    5g2-       0.0011    0.0000   -0.0062   -0.0063    0.0000    0.0000   -0.0000
       84 FE2    5g1-      -0.0000   -0.0000   -0.0000    0.0000   -0.0000    0.0000   -0.0000
       85 FE2    5g0       -0.0000   -0.0000   -0.0000    0.0000    0.0000   -0.0000    0.0000
       86 FE2    5g1+       0.0000   -0.0000   -0.0000   -0.0000    0.0000    0.0000   -0.0000
       87 FE2    5g2+      -0.0062    0.0000   -0.0011   -0.0012    0.0000   -0.0000   -0.0000
       88 FE2    5g3+       0.0000   -0.0000   -0.0000   -0.0000   -0.0011    0.0000    0.0040
       89 FE2    5g4+       0.0000   -0.0107   -0.0000   -0.0000    0.0000    0.0000    0.0000
--
 
 
++    Molecular properties:
      ---------------------
 
      Charge (e):
                      =    2.0000
      Dipole Moment (Debye):
      Origin of the operator (Ang)=    0.0000    0.0000    0.0000
                   X=  5.2183E-07               Y= -2.1268E-05               Z=  3.8373E+00           Total=  3.8373E+00
      Center of Charge (Ang)
                     X=    0.00000005               Y=   -0.00000221               Z=    0.39945039
      Quadrupole Moment (Debye*Ang):
      Origin of the operator (Ang)=    0.0000    0.0000    0.0393
                  XX= -1.2368E+01              XY=  4.1671E-07              XZ=  6.7049E-07              YY= -1.2368E+01
                  YZ= -2.7915E-05              ZZ=  7.5171E+00
      In traceless form (Debye*Ang)
                  XX= -9.9425E+00              XY=  6.2506E-07              XZ=  1.0057E-06              YY= -9.9425E+00
                  YZ= -4.1872E-05              ZZ=  1.9885E+01
--
 
 
  Input file to MOLDEN was generated!
 
 ###############################################################################
 ###############################################################################
 ###                                                                         ###
 ###                                                                         ###
 ###    RunFile label nBas                                                   ###
 ###    was used       86 times                                              ###
 ###                                                                         ###
 ###                                                                         ###
 ###############################################################################
 ###############################################################################
forrtl: warning (528): IEEE_UNDERFLOW is signaling
--- Stop Module: scf at Thu Apr 17 23:35:30 2025 /rc=_RC_ALL_IS_WELL_ ---
*** files: 2.74.LprOrb 2.74.LoProp.molden 2.74.scf.molden 2.74.scf.h5 2.74.UhfOrb 2.74.UnaOrb xmldump
    saved to directory /home/grierjones/DDCASPT2/iron_oxo_DDCASPT2/MScaspt2iron/2.74
--- Module scf spent 2 seconds ---

>>> COPY /tmp/2.74/2.74.scf.h5 /home/grierjones/DDCASPT2/iron_oxo_DDCASPT2/MScaspt2iron/2.74/

*** symbolic link created: INPORB -> 2.74.UnaOrb
--- Start Module: rasscf at Thu Apr 17 23:35:30 2025 ---
 
()()()()()()()()()()()()()()()()()()()()()()()()()()()()()()()()()()()()()()()()()()()()()()()()()()

                                              &RASSCF

                                   only a single process is used
                       available to each process: 2.0 GB of memory, 1 thread?
()()()()()()()()()()()()()()()()()()()()()()()()()()()()()()()()()()()()()()()()()()()()()()()()()()
 
 ###############################################################################
 ###############################################################################
 ###                                                                         ###
 ###                                                                         ###
 ###    LUMORB input error.                                                  ###
 ###                                                                         ###
 ###                                                                         ###
 ###############################################################################
 ###############################################################################
  Keyword LUMORB used with file name StartOrbFile=
 /home/grierjones/DDCASPT2/iron_oxo_DDCASPT2/MScaspt2iron/2.72/2.72.RasOrb      
                                                  
  but that file cannot be used. Perhaps it does
  not exist?
 
      Header of the ONEINT file:
      --------------------------
      
      Integrals generated by seward 4.2.0  , Thu Apr 17 23:35:25 2025
 
 
      OrdInt status: non-squared
 
 
      Cartesian coordinates in Angstrom:
      -----------------------------------------------------
      No.  Label        X            Y            Z        
      -----------------------------------------------------
       1   O1         0.00000000   0.00000000   2.17000000
       2   FE2        0.00000000   0.00000000  -0.57000000
      -----------------------------------------------------
      Nuclear repulsion energy =   40.17111672
 
++    Wave function specifications:
      -----------------------------
 
      Number of closed shell electrons          22
      Number of electrons in active shells      10
      Max number of holes in RAS1 space          0
      Max nr of electrons in RAS3 space          0
      Number of inactive orbitals               11
      Number of active orbitals                 14
      Number of secondary orbitals              64
      Spin quantum number                      2.0
      State symmetry                             1
--
 
++    Orbital specifications:
      -----------------------
 
      Symmetry species                           1
                                                 a
      Frozen orbitals                            0
      Inactive orbitals                         11
      Active orbitals                           14
      RAS1 orbitals                              0
      RAS2 orbitals                             14
      RAS3 orbitals                              0
      Secondary orbitals                        64
      Deleted orbitals                           0
      Number of basis functions                 89
--
 
++    CI expansion specifications:
      ----------------------------
 
      Number of CSFs                        975975
      Number of determinants               1249248
      Number of root(s) required                 3
      Root chosen for geometry opt.              3
      CI roots used                              1     2     3
      weights                                0.333 0.333 0.333
      highest root included in the CI            3
      max. size of the explicit Hamiltonian    200
--
 
++    Optimization specifications:
      ----------------------------
 
      RASSCF algorithm: Conventional
      Maximum number of macro iterations       200
      Maximum number of SX iterations          100
      Threshold for RASSCF energy            0.100E-07
      Threshold for max MO rotation          0.100E+00
      Threshold for max BLB element          0.100E-03
      Level shift parameter                  0.500E+00
      Make Quasi-Newton update
--
 
 ###############################################################################
 ###############################################################################
 ###                                                                         ###
 ###                                                                         ###
 ###    Location: rdVec_                                                     ###
 ###    File: /home/grierjones/DDCASPT2/iron_oxo_DDCASPT2/MScaspt2iron/2.72/2.72.RasOrb\n\n\n
 ###    ile: /home/grierjones/DDCASPT2/iron_oxo_DDCASPT2/MScaspt2iron/2.72/2.72.RasOrb\n\n\n
 ###    le: /home/grierjones/DDCASPT2/iron_oxo_DDCASPT2/MScaspt2iron/2.72/2.72.RasOrb\n\n\n
 ###    e: /home/grierjones/DDCASPT2/iron_oxo_DDCASPT2/MScaspt2iron/2.72/2.72.RasOrb\n\n\n
 ###    : /home/grierjones/DDCASPT2/iron_oxo_DDCASPT2/MScaspt2iron/2.72/2.72.RasOrb\n\n\n
 ###     /home/grierjones/DDCASPT2/iron_oxo_DDCASPT2/MScaspt2iron/2.72/2.72.RasOrb\n\n\n
 ###    /home/grierjones/DDCASPT2/iron_oxo_DDCASPT2/MScaspt2iron/2.72/2.72.RasOrb\n\n\n
 ###    home/grierjones/DDCASPT2/iron_oxo_DDCASPT2/MScaspt2iron/2.72/2.72.RasOrb\n\n\n
 ###    ome/grierjones/DDCASPT2/iron_oxo_DDCASPT2/MScaspt2iron/2.72/2.72.RasOrb\n\n\n
 ###    me/grierjones/DDCASPT2/iron_oxo_DDCASPT2/MScaspt2iron/2.72/2.72.RasOrb\n\n\n
 ###    e/grierjones/DDCASPT2/iron_oxo_DDCASPT2/MScaspt2iron/2.72/2.72.RasOrb\n\n\n
 ###    /grierjones/DDCASPT2/iron_oxo_DDCASPT2/MScaspt2iron/2.72/2.72.RasOrb\n\n\n
 ###    grierjones/DDCASPT2/iron_oxo_DDCASPT2/MScaspt2iron/2.72/2.72.RasOrb\n\n\n
 ###    rierjones/DDCASPT2/iron_oxo_DDCASPT2/MScaspt2iron/2.72/2.72.RasOrb\n\n\n
 ###    ierjones/DDCASPT2/iron_oxo_DDCASPT2/MScaspt2iron/2.72/2.72.RasOrb\n\n\n
 ###    erjones/DDCASPT2/iron_oxo_DDCASPT2/MScaspt2iron/2.72/2.72.RasOrb\n\n\n
 ###    rjones/DDCASPT2/iron_oxo_DDCASPT2/MScaspt2iron/2.72/2.72.RasOrb\n\n\n
 ###    jones/DDCASPT2/iron_oxo_DDCASPT2/MScaspt2iron/2.72/2.72.RasOrb\n\n\n
 ###    ones/DDCASPT2/iron_oxo_DDCASPT2/MScaspt2iron/2.72/2.72.RasOrb\n\n\n  ###
 ###    nes/DDCASPT2/iron_oxo_DDCASPT2/MScaspt2iron/2.72/2.72.RasOrb\n\n\n   ###
 ###    es/DDCASPT2/iron_oxo_DDCASPT2/MScaspt2iron/2.72/2.72.RasOrb          ###
 ###                                                                         ###
 ###                                                                         ###
 ###    Error during reading INPORB                                          ###
 ###     not defined yet                                                     ###
 ###                                                                         ###
 ###                                                                         ###
 ###############################################################################
 ###############################################################################
[ process      0]: xquit (rc =    128): _INTERNAL_ERROR_
abort: 
--- Stop Module: rasscf at Thu Apr 17 23:35:30 2025 /rc=_RC_FLOATING_EXCEPTION_ ---
*** files: xmldump
    saved to directory /home/grierjones/DDCASPT2/iron_oxo_DDCASPT2/MScaspt2iron/2.74

.########################.
.# Non-zero return code #.
.########################.

    Timing: Wall=5.33 User=4.76 System=0.57
************************************
*** WorkDir at /tmp/2.74 cleaned ***
************************************
