[Molden Format]
[N_Atoms]
                     2
[Atoms] (AU)
B1          1      5           0.00000000      0.00000000      0.00000000
B2          2      5           0.00000000      0.00000000      2.83458919
[Charge] (Mulliken)
  1.030286966852145E-013
 -1.136868377216160E-013
[GTO] (AU)
   1
   s  14
  3.336021700E+04  1.039699991E-04
  4.972095200E+03  5.254399956E-04
  1.125641700E+03  2.509059979E-03
  3.164913600E+02  1.031887991E-02
  1.020072600E+02  3.636632969E-02
  3.629587300E+01  1.064607991E-01
  1.397141000E+01  2.403999880E-01
  5.741156000E+00  3.748581168E-01
  2.494268000E+00  3.100066974E-01
  1.114202000E+00  7.922455933E-02
  4.215490000E-01 -4.947589958E-03
  1.696330000E-01 -7.737119935E-03
  6.853500000E-02 -1.501079987E-03
  2.398700000E-02 -1.333299989E-04
   s  14
  3.336021700E+04 -2.030000008E-05
  4.972095200E+03 -1.025700004E-04
  1.125641700E+03 -4.911300020E-04
  3.164913600E+02 -2.026570008E-03
  1.020072600E+02 -7.261010030E-03
  3.629587300E+01 -2.197722009E-02
  1.397141000E+01 -5.408428022E-02
  5.741156000E+00 -1.022402604E-01
  2.494268000E+00 -1.423595206E-01
  1.114202000E+00 -4.658690019E-02
  4.215490000E-01  3.799402916E-01
  1.696330000E-01  5.890463624E-01
  6.853500000E-02  1.749075107E-01
  2.398700000E-02 -1.142030005E-03
   p   9
  5.500000000E+01  1.229800005E-03
  1.336610100E+01  8.827380035E-03
  4.135394000E+00  3.843340015E-02
  1.481256000E+00  1.150031805E-01
  6.021360000E-01  2.733674011E-01
  2.556360000E-01  4.061972116E-01
  1.111510000E-01  3.014967912E-01
  4.764800000E-02  7.684809030E-02
  1.667700000E-02 -8.170000032E-06
 
   2
   s  14
  3.336021700E+04  1.039699991E-04
  4.972095200E+03  5.254399956E-04
  1.125641700E+03  2.509059979E-03
  3.164913600E+02  1.031887991E-02
  1.020072600E+02  3.636632969E-02
  3.629587300E+01  1.064607991E-01
  1.397141000E+01  2.403999880E-01
  5.741156000E+00  3.748581168E-01
  2.494268000E+00  3.100066974E-01
  1.114202000E+00  7.922455933E-02
  4.215490000E-01 -4.947589958E-03
  1.696330000E-01 -7.737119935E-03
  6.853500000E-02 -1.501079987E-03
  2.398700000E-02 -1.333299989E-04
   s  14
  3.336021700E+04 -2.030000008E-05
  4.972095200E+03 -1.025700004E-04
  1.125641700E+03 -4.911300020E-04
  3.164913600E+02 -2.026570008E-03
  1.020072600E+02 -7.261010030E-03
  3.629587300E+01 -2.197722009E-02
  1.397141000E+01 -5.408428022E-02
  5.741156000E+00 -1.022402604E-01
  2.494268000E+00 -1.423595206E-01
  1.114202000E+00 -4.658690019E-02
  4.215490000E-01  3.799402916E-01
  1.696330000E-01  5.890463624E-01
  6.853500000E-02  1.749075107E-01
  2.398700000E-02 -1.142030005E-03
   p   9
  5.500000000E+01  1.229800005E-03
  1.336610100E+01  8.827380035E-03
  4.135394000E+00  3.843340015E-02
  1.481256000E+00  1.150031805E-01
  6.021360000E-01  2.733674011E-01
  2.556360000E-01  4.061972116E-01
  1.111510000E-01  3.014967912E-01
  4.764800000E-02  7.684809030E-02
  1.667700000E-02 -8.170000032E-06
 
[MO]
Sym=     1a  
Ene=    -7.7225
Spin= Alpha
Occup=    2.00000
   1         0.70673424
   2         0.01025153
   3         0.00000000
   4        -0.00000000
   5         0.00111976
   6         0.70673424
   7         0.01025153
   8        -0.00000000
   9        -0.00000000
  10        -0.00111976
Sym=     2a  
Ene=    -7.7212
Spin= Alpha
Occup=    2.00000
   1        -0.70744438
   2        -0.01035126
   3         0.00000000
   4        -0.00000000
   5        -0.00209846
   6         0.70744439
   7         0.01035126
   8        -0.00000000
   9         0.00000000
  10        -0.00209846
Sym=     3a  
Ene=    -0.7278
Spin= Alpha
Occup=    2.00000
   1        -0.06215142
   2         0.49440636
   3         0.00000000
   4        -0.00000000
   5         0.19287331
   6        -0.06215142
   7         0.49440636
   8        -0.00000000
   9        -0.00000000
  10        -0.19287331
Sym=     4a  
Ene=    -0.3274
Spin= Alpha
Occup=    2.00000
   1         0.00000000
   2        -0.00000000
   3        -0.07565058
   4         0.59645701
   5         0.00000000
   6        -0.00000000
   7         0.00000000
   8        -0.07565058
   9         0.59645701
  10         0.00000000
Sym=     5a  
Ene=    -0.0445
Spin= Alpha
Occup=    0.13032
   1        -0.00000000
   2         0.00000000
   3         0.59645701
   4         0.07565058
   5        -0.00000000
   6         0.00000000
   7        -0.00000000
   8         0.59645701
   9         0.07565058
  10        -0.00000000
Sym=     6a  
Ene=    -0.0134
Spin= Alpha
Occup=    1.86968
   1        -0.00743440
   2        -0.71336860
   3         0.00000000
   4        -0.00000000
   5         0.26178771
   6         0.00743440
   7         0.71336860
   8         0.00000000
   9        -0.00000000
  10         0.26178771
Sym=     7a  
Ene=    -0.0111
Spin= Alpha
Occup=    0.00000
   1         0.04724147
   2         0.38044043
   3        -0.00000000
   4        -0.00000000
   5        -0.66557832
   6         0.04724147
   7         0.38044043
   8         0.00000000
   9        -0.00000000
  10         0.66557832
Sym=     8a  
Ene=     0.1900
Spin= Alpha
Occup=    0.00000
   1         0.00000000
   2         0.00000000
   3         0.11328595
   4        -0.89318811
   5         0.00000000
   6        -0.00000000
   7        -0.00000000
   8        -0.11328595
   9         0.89318811
  10         0.00000000
Sym=     9a  
Ene=     0.2302
Spin= Alpha
Occup=    0.00000
   1        -0.00000000
   2         0.00000000
   3        -0.89318811
   4        -0.11328595
   5         0.00000000
   6        -0.00000000
   7        -0.00000000
   8         0.89318811
   9         0.11328595
  10        -0.00000000
Sym=    10a  
Ene=     0.7149
Spin= Alpha
Occup=    0.00000
   1        -0.22096862
   2        -1.45917420
   3        -0.00000000
   4        -0.00000000
   5        -1.29275663
   6         0.22096862
   7         1.45917420
   8        -0.00000000
   9         0.00000000
  10        -1.29275663
