   This run of MOLCAS is using the pymolcas driver

                             OPE
                             OPE          NMOL  CASOP  ENMOLC A   SO
                 OPE        NMOLC        AS  OP EN  MO LC     AS  OP
                OPENM       OL CA        SO  PE NM  OL CA     SOP EN
                OP EN      MO   LC       AS  OP ENMOL  CASO   PENMOL
                OP  EN     MO   LC       AS  OP EN     MO     LC ASO
               OP   E  NMOL  C  AS       OP  EN MO     LC     AS  OP
               OP  E   NMO   LC AS        OPEN  MO     LCASOP EN   M
               O  PEN   MO  LCA  SO
            OPE   NMO   L   CAS    OP
        OPENMOL  CASOP     ENMOL   CASOPE
     OPENMOLCA   SOPENMOLCASOPEN   MOLCASOPE
    OPENMOLCAS   OP           EN   MOL    CAS
    OPENMOLCAS       OP  ENM        O     LCA
    OPENMOLCAS    OPEN  MOLCASO     P  E  NMO
    OPENMOLCAS     OP               E  N  MOL
    OPENMOLCA   SO           PENM   O  L  CAS    OPEN    MO    LCAS
    OPENMOLCA   SOP           ENM   O  L  CAS   OP  EN  MOLC  AS   O
    OPENMOLCA   SOPE           NM      O  LCA   S      OP  EN MO
    OPENMOLC                AS         O  PEN   M      OL  CA  SOPE
    OPENMO        LCASOPE  NMOL        C  ASO   P      ENMOLC     AS
    OPE     NMO      LCA  SO     P     E   NM   OL  CA SO  PE N   MO
          OPENMOLCA            SOPE   NMO        LCAS  O    P  ENMO
     OPENMOLCASOPENMOLCASOPENMOLCASOPENMOLCA
        OPENMOLCASOPENMOLCASOPENMOLCASOPE
            OPENMOLCASOPENMOLCASOPENM
               OPENMOLCASOPENMOLCA        version: ea724fe96-dirty
                   OPENMOLCASO
                       OPE                tag:

 OpenMolcas is free software; you can redistribute it and/or modify it
 under the terms of the GNU Lesser General Public License version 2.1.
 OpenMolcas is distributed in the hope that it will be useful, but it
 is provided "as is" and without any express or implied warranties.
 For more details see the full text of the license in the file
 LICENSE or in <http://www.gnu.org/licenses/>.

                 Copyright (C) The OpenMolcas Authors
           For the author list and the recommended citation,
                   consult the file CONTRIBUTORS.md

           *************************************************
           * pymolcas version py2.28                       *
           *   build c4a6d18ded8cb6cad61d2372a9abd97c      *
           *   (after the EMIL interpreter by V. Veryazov) *
           *************************************************

configuration info
------------------
C Compiler ID: Intel
C flags: -std=gnu99
Fortran Compiler ID: Intel
Fortran flags: -fpp -i8 -r8 -heap-arrays
Definitions: _MOLCAS_;_I8_;_LINUX_
Parallel: OFF (GA=OFF)


   -------------------------------------------------------------------------------
  |
  |              Project: 1.73
  |       Submitted from: /home/grierjones/DDCASPT2/iron_oxo_DDCASPT2/cluster/1.73
  |         Scratch area: /tmp/1.73
  |      Save outputs to: /home/grierjones/DDCASPT2/iron_oxo_DDCASPT2/cluster/1.73
  |               Molcas: /home/grierjones/Test/build
  |
  | Scratch area is empty
  |
  |       MOLCAS_DRIVER = /usr/local/pymolcas
  | MOLCAS_KEEP_WORKDIR = NO
  |  MOLCAS_NEW_WORKDIR = YES
  |       MOLCAS_NPROCS = 1
  |        MOLCAS_PRINT = NORMAL
  |       MOLCAS_SOURCE = /home/grierjones/Test/build
  |    MOLCAS_STRUCTURE = 0
  |
   -------------------------------------------------------------------------------

++ ---------   Input file   ---------

&GATEWAY
coord=1.73.xyz
Basis = ANO-RCC-VDZP
Group = nosymm
Expert
End of Input

&SEWARD
End of Input

&SCF
UHF
charge
2
spin
5

>>> COPY $WorkDir/1.73.scf.h5 $CurrDir/

&RASSCF
Title= RASSCF
FileOrb
/home/grierjones/DDCASPT2/iron_oxo_DDCASPT2/cluster/1.72/1.72.RasOrb
NACTEL
10 0 0
RAS2
14
Symmetry
1
Spin
5
charge
2
orblisting
all
ITERation
300 200

>>> COPY $WorkDir/1.73.rasscf.h5 $CurrDir/

>>> COPY $WorkDir/GMJ_Fock_MO.csv $CurrDir/1.73.GMJ_Fock_MO.csv

>>> COPY $WorkDir/GMJ_PT2_Fock_MO.csv $CurrDir/1.73.GMJ_PT2_Fock_MO.csv

&MOTRA
Frozen=0
LUMORB

>>> COPY $WorkDir/GMJ_one_int_indx.csv $CurrDir/1.73.GMJ_one_int_indx.csv

>>> COPY $WorkDir/GMJ_one_int.csv $CurrDir/1.73.GMJ_one_int.csv

>>> COPY $WorkDir/GMJ_two_int_indx.csv $CurrDir/1.73.GMJ_two_int_indx.csv

>>> COPY $WorkDir/GMJ_two_int.csv $CurrDir/1.73.GMJ_two_int.csv

&CASPT2
Frozen
0
MAXITER
50

>>> FOREACH i IN (B,E,F,G,H)

  >>> FOREACH j IN (P,M)

    >>> IF (-FILE GMJ_e2_${i}_${j}.csv)

      >>> COPY $WorkDir/GMJ_RHS_${i}_${j}.csv $CurrDir/GMJ_RHS_${i}_${j}.csv

      >>> COPY $WorkDir/GMJ_IVECW_${i}_${j}.csv $CurrDir/GMJ_IVECW_${i}_${j}.csv

      >>> COPY $WorkDir/GMJ_IVECX_${i}_${j}.csv $CurrDir/GMJ_IVECX_${i}_${j}.csv

      >>> COPY $WorkDir/GMJ_IVECC2_${i}_${j}.csv $CurrDir/GMJ_IVECC2_${i}_${j}.csv

      >>> COPY $WorkDir/GMJ_e2_${i}_${j}.csv $CurrDir/GMJ_e2_${i}_${j}.csv

    >>> END IF

  >>> END FOREACH

>>> END FOREACH

>>> FOREACH i IN (A,C,D)

  >>> IF (-FILE GMJ_e2_$i.csv)

    >>> COPY $WorkDir/GMJ_RHS_$i.csv $CurrDir/GMJ_RHS_$i.csv

    >>> COPY $WorkDir/GMJ_IVECW_$i.csv $CurrDir/GMJ_IVECW_$i.csv

    >>> COPY $WorkDir/GMJ_IVECX_$i.csv $CurrDir/GMJ_IVECX_$i.csv

    >>> COPY $WorkDir/GMJ_IVECC2_$i.csv $CurrDir/GMJ_IVECC2_$i.csv

    >>> COPY $WorkDir/GMJ_e2_$i.csv $CurrDir/GMJ_e2_$i.csv

  >>> END IF

>>> END FOREACH

-- ----------------------------------

--- Start Module: gateway at Thu Dec 19 15:15:13 2024 ---
 
()()()()()()()()()()()()()()()()()()()()()()()()()()()()()()()()()()()()()()()()()()()()()()()()()()

                                              &GATEWAY

                                   only a single process is used
                       available to each process: 2.0 GB of memory, 1 thread?
()()()()()()()()()()()()()()()()()()()()()()()()()()()()()()()()()()()()()()()()()()()()()()()()()()
 
 ###############################################################################
 ###############################################################################
 ###                                                                         ###
 ###                                                                         ###
 ###                                                                         ###
 ###    WARNING: EXPERT option is ON!                                        ###
 ###                                                                         ###
 ###                                                                         ###
 ###############################################################################
 ###############################################################################
 
++    Symmetry information:
      ---------------------
 
                    Character Table for C1 
 
                             E  
                    a        1  x, y, xy, Rz, z, xz, Ry, yz, Rx, I
--
 
 
++    Basis set information:
      ----------------------
 
 
      Basis set label: O.ANO-RCC...3S2P1D.
 
      Electronic valence basis set:
      ------------------
      Associated Effective Charge   8.000000 au
      Associated Actual Charge      8.000000 au
      Nuclear Model: Point charge
 
      Shell  nPrim  nBasis  Cartesian Spherical Contaminant
         s      14       3        X                  
         p       9       2        X                  
         d       4       1                 X         
 
 
      Basis set label: FE.ANO-RCC...5S4P2D1F.
 
      Electronic valence basis set:
      ------------------
      Associated Effective Charge  26.000000 au
      Associated Actual Charge     26.000000 au
      Nuclear Model: Point charge
 
      Shell  nPrim  nBasis  Cartesian Spherical Contaminant
         s      21       5        X                  
         p      15       4        X                  
         d      10       2                 X         
         f       6       1                 X         
--
 
 
++    Molecular structure info:
      -------------------------
 
                    ************************************************ 
                    **** Cartesian Coordinates / Bohr, Angstrom **** 
                    ************************************************ 
 
     Center  Label                x              y              z                     x              y              z
        1      O1               0.000000       0.000000       3.147018              0.000000       0.000000       1.665330
        2      FE2              0.000000       0.000000      -0.123456              0.000000       0.000000      -0.065330
--
 
 
            Nuclear Potential Energy             63.59935505 au
 
 ###############################################################################
 ###############################################################################
 ###                                                                         ###
 ###                                                                         ###
 ###    There were warnings during the execution                             ###
 ###    Please, check the output with care!                                  ###
 ###                                                                         ###
 ###                                                                         ###
 ###############################################################################
 ###############################################################################
--- Stop Module: gateway at Thu Dec 19 15:15:13 2024 /rc=_RC_ALL_IS_WELL_ ---
*** files: xmldump
    saved to directory /home/grierjones/DDCASPT2/iron_oxo_DDCASPT2/cluster/1.73

--- Start Module: seward at Thu Dec 19 15:15:13 2024 ---
 
()()()()()()()()()()()()()()()()()()()()()()()()()()()()()()()()()()()()()()()()()()()()()()()()()()

                                              &SEWARD

                                   only a single process is used
                       available to each process: 2.0 GB of memory, 1 thread?
()()()()()()()()()()()()()()()()()()()()()()()()()()()()()()()()()()()()()()()()()()()()()()()()()()
 
 ###############################################################################
 ###############################################################################
 ###                                                                         ###
 ###                                                                         ###
 ###                                                                         ###
 ###    WARNING: EXPERT option is ON!                                        ###
 ###                                                                         ###
 ###                                                                         ###
 ###############################################################################
 ###############################################################################
               SEWARD will generate:
                  Multipole Moment integrals up to order  2
                  Kinetic Energy integrals
                  Nuclear Attraction integrals (point charge)
                  One-Electron Hamiltonian integrals
                  Velocity integrals
                  Relativistic Douglas-Kroll-Hess integrals:
                    - Parametrization         : EXP
                    - DKH order of Hamiltonian: 2
                    - DKH order of Properties : 0
                         - multipole moment operators
                         - electric potential operators
                         - contact operators
                  Atomic mean-field integrals
                  Two-Electron Repulsion integrals
 
                   Integrals are discarded if absolute value <: 0.10E-13
                   Integral cutoff threshold is set to       <: 0.10E-15
 
            Nuclear Potential Energy             63.59935505 au
 
 
      Basis set specifications :
      Symmetry species         a  
      Basis functions           48
 
 
  Input file to MOLDEN was generated!
 
 ###############################################################################
 ###############################################################################
 ###                                                                         ###
 ###                                                                         ###
 ###    There were warnings during the execution                             ###
 ###    Please, check the output with care!                                  ###
 ###                                                                         ###
 ###                                                                         ###
 ###############################################################################
 ###############################################################################
--- Stop Module: seward at Thu Dec 19 15:15:14 2024 /rc=_RC_ALL_IS_WELL_ ---
*** files: 1.73.GssOrb 1.73.guessorb.h5 1.73.guessorb.molden xmldump
    saved to directory /home/grierjones/DDCASPT2/iron_oxo_DDCASPT2/cluster/1.73
--- Module seward spent 1 second ---

*** symbolic link created: INPORB -> 1.73.GssOrb
--- Start Module: scf at Thu Dec 19 15:15:14 2024 ---
 
()()()()()()()()()()()()()()()()()()()()()()()()()()()()()()()()()()()()()()()()()()()()()()()()()()

                                                &SCF

                                   only a single process is used
                       available to each process: 2.0 GB of memory, 1 thread?
()()()()()()()()()()()()()()()()()()()()()()()()()()()()()()()()()()()()()()()()()()()()()()()()()()
 
 *** Possible bug in opening file
 *** isFreeUnit resets the unit number
++    Input section:
      --------------
 
      Header of the integral files:
      
       Integrals generated by seward 4.2.0  , Thu Dec 19 15:15:13 2024
 
 
      Cartesian coordinates in Angstrom:
      -----------------------------------------------------
      No.  Label        X            Y            Z        
      -----------------------------------------------------
       1   O1         0.00000000   0.00000000   1.66533000
       2   FE2        0.00000000   0.00000000  -0.06533000
      -----------------------------------------------------
      Nuclear repulsion energy =   63.59935505
--
 
++    Orbital specifications:
      -----------------------
 
      Symmetry species               1
                                     a
      Frozen orbitals                0
      Start temperature = 0.500
      End temperature   = 0.010
      Temperature Factor= 0.460
      Deleted orbitals               0
      Total number of orbitals      48
      Number of basis functions     48
--
 
      Molecular charge                           2.000
 
++    Optimization specifications:
      ----------------------------
 
      SCF Algorithm: Conventional USCF
      D(i)-D(i-1) density differences are used
      Number of density matrices in core                5
      Maximum number of NDDO SCF iterations           400
      Maximum number of HF SCF iterations             400
      Threshold for SCF energy change            0.10E-08
      Threshold for density matrix               0.10E-03
      Threshold for Fock matrix                  0.15E-03
      Threshold for linear dependence            0.10E-08
      Threshold at which DIIS is turned on       0.15E+00
      Threshold at which QNR/C2DIIS is turned on 0.75E-01
      Threshold for Norm(delta) (QNR/C2DIIS)     0.20E-04
      DIIS extrapolation of the SCF procedure
      All orbitals punched on: UHFORB
--
 
      Input vectors read from INPORB
      Orbital file label: *Guess orbitals
 
 
++ Convergence information
                               UHF SCF        iterations: Energy and convergence statistics
 
Iter     Tot. SCF        One-elec.       Two-elec.     Energy      Max Dij or  Max Fij      DNorm      TNorm      AccCon     Time
         Energy          Energy          Energy        Change      Delta Norm                                                in Sec.
 
 The total and one-electron energies are shifted by a value of      1000. a.u.
 
   1  -342.952251699  -954.411908692   547.860301938   0.00E+00    0.14E+00*   0.93E+00*    0.76E+01   0.19E+03   None         0.
   2  -343.476953498  -952.207284122   545.130975569  -0.52E+00*   0.25E+00*   0.29E+00*    0.14E+01   0.19E+03   EDIIS        0.
   3  -342.061788169  -994.479536378   588.818393153   0.14E+01*   0.97E-01*   0.23E+00*    0.21E+01   0.20E+03   EDIIS        0.
   4  -344.240555733  -948.724771799   540.884861011  -0.22E+01*   0.36E+00*   0.24E+00*    0.18E+01   0.19E+03   EDIIS        0.
   5  -344.640618958  -972.927397239   564.687423226  -0.40E+00*   0.36E+00*   0.17E+00*    0.14E+01   0.19E+03   EDIIS        0.
   6  -344.932677328  -953.354736678   544.822704296  -0.29E+00*   0.42E+00*   0.22E+00*    0.16E+01   0.19E+03   EDIIS        0.
   7  -345.050293135  -970.280573976   561.630925785  -0.12E+00*   0.22E+00*   0.12E+00*    0.10E+01   0.19E+03   EDIIS        0.
   8  -345.204269088  -960.242689469   551.439065325  -0.15E+00*   0.23E+00*   0.13E+00*    0.53E+00   0.19E+03   EDIIS        0.
   9  -345.212722002  -966.381413814   557.569336757  -0.85E-02*   0.15E+00*   0.74E-01*    0.59E+00   0.19E+03   EDIIS        0.
 
       Fermi aufbau procedure completed!
      nOcc(alpha)=   18
      nOcc(beta) =   14
 
  10  -345.243292338  -960.923924130   552.081276737  -0.31E-01*   0.10E+00*   0.64E-01*    0.38E+00   0.19E+03   EDIIS        0.
  11  -345.248766049  -964.232382589   555.384261486  -0.55E-02*   0.91E-01*   0.28E-01*    0.29E+00   0.19E+03   EDIIS        0.
  12  -345.254861306  -961.580244107   552.726027746  -0.61E-02*   0.38E-01*   0.19E-01*    0.18E+00   0.19E+03   EDIIS        0.
  13  -345.256356384  -963.113169967   554.257458528  -0.15E-02*   0.46E-01*   0.13E-01*    0.12E+00   0.19E+03   EDIIS        0.
  14  -345.257508547  -961.961444869   553.104581267  -0.12E-02*   0.11E-01*   0.54E-02*    0.80E-01   0.19E+03   c2DIIS       0.
  15  -345.258040243  -962.346167364   553.488772065  -0.53E-03*   0.26E-01*   0.37E-02*    0.35E-01   0.19E+03   QNRc2DIIS    0.
  16  -345.258197892  -962.198705499   553.341152552  -0.16E-03*   0.84E-01*   0.28E-02*    0.28E-01   0.19E+03   QNRc2DIIS    0.
  17  -345.258471755  -962.072801893   553.214975084  -0.27E-03*   0.12E-01*   0.22E-02*    0.10E+00   0.19E+03   QNRc2DIIS    0.
  18  -345.258511096  -962.025068823   553.167202672  -0.39E-04*   0.20E-01*   0.15E-02*    0.16E-01   0.19E+03   QNRc2DIIS    0.
  19  -345.258535491  -961.994885949   553.136995403  -0.24E-04*   0.25E-02*   0.28E-03*    0.27E-01   0.19E+03   QNRc2DIIS    0.
  20  -345.258536027  -961.991463115   553.133572034  -0.54E-06*   0.39E-03*   0.73E-04     0.34E-02   0.19E+03   QNRc2DIIS    0.
  21  -345.258536052  -961.993763557   553.135872450  -0.26E-07*   0.98E-04*   0.22E-04     0.62E-03   0.19E+03   QNRc2DIIS    0.
  22  -345.258536055  -961.993000669   553.135109559  -0.26E-08*   0.51E-04*   0.35E-05     0.13E-03   0.19E+03   QNRc2DIIS    0.
  23  -345.258536055  -961.992977802   553.135086692  -0.30E-09    0.93E-05    0.14E-05     0.65E-04   0.19E+03   QNRc2DIIS    0.
 
       Convergence after 23 Macro Iterations
--
 
 *****************************************************************************************************************************
 *                                                                                                                           *
 *                                             SCF/KS-DFT Program, Final results                                             *
 *                                                                                                                           *
 *                                                                                                                           *
 *                                                                                                                           *
 *                                                       Final Results                                                       *
 *                                                                                                                           *
 *****************************************************************************************************************************
 
::    Total SCF energy                              -1345.2585360552
      One-electron energy                           -1961.9929778021
      Two-electron energy                             553.1350866920
      Nuclear repulsion energy                         63.5993550549
      Kinetic energy (interpolated)                  1399.8063781571
      Virial theorem                                    0.9610318663
      Total spin, S(S+1)                                6.9541624549
      Total spin, S                                     2.1840570886
      Max non-diagonal density matrix element           0.0000038138
      Max non-diagonal Fock matrix element              0.0000004655
 
 
      All orbitals with orbital energies smaller than  E(LUMO)+0.5 are printed
 
++    Molecular orbitals:
      -------------------
 
      Title: UHF orbitals (alpha)

      Molecular orbitals for symmetry species 1: a  
 
          Orbital            1         2         3         4         5         6         7         8         9        10    
          Energy         -264.4664  -33.3148  -28.3870  -28.3870  -28.3787  -21.1913   -5.2580   -3.8154   -3.8154   -3.7971
          Occ. No.          1.0000    1.0000    1.0000    1.0000    1.0000    1.0000    1.0000    1.0000    1.0000    1.0000
 
        1 O1     1s        -0.0000    0.0000    0.0000    0.0000    0.0000    1.0000    0.0001    0.0000   -0.0000   -0.0006
        2 O1     2s        -0.0000    0.0001   -0.0000    0.0000    0.0004   -0.0004    0.0043   -0.0000    0.0000    0.0135
        3 O1     3s         0.0000    0.0001   -0.0000    0.0000    0.0003   -0.0011    0.0013    0.0000   -0.0000    0.0006
        4 O1     2px       -0.0000    0.0000    0.0000   -0.0001    0.0000   -0.0000   -0.0000   -0.0001    0.0026   -0.0000
        5 O1     3px        0.0000    0.0000    0.0000   -0.0001    0.0000   -0.0000    0.0000   -0.0001    0.0020   -0.0000
        6 O1     2py       -0.0000    0.0000   -0.0001   -0.0000   -0.0000    0.0000    0.0000    0.0026    0.0001    0.0000
        7 O1     3py       -0.0000    0.0000   -0.0001   -0.0000   -0.0000    0.0000   -0.0000    0.0020    0.0001    0.0000
        8 O1     2pz        0.0000   -0.0001    0.0000   -0.0000   -0.0005    0.0001   -0.0025    0.0000    0.0000   -0.0057
        9 O1     3pz       -0.0000   -0.0001   -0.0000    0.0000   -0.0004    0.0004   -0.0007    0.0000   -0.0000    0.0022
       10 O1     3d2-      -0.0000   -0.0000   -0.0000   -0.0000    0.0000    0.0000   -0.0000    0.0000    0.0000    0.0000
       11 O1     3d1-       0.0000   -0.0000   -0.0000   -0.0000    0.0000   -0.0000    0.0000   -0.0006   -0.0000   -0.0000
       12 O1     3d0        0.0000   -0.0000   -0.0000    0.0000    0.0002   -0.0012    0.0002   -0.0000    0.0000    0.0002
       13 O1     3d1+      -0.0000   -0.0000    0.0000   -0.0000   -0.0000    0.0000    0.0000    0.0000   -0.0006    0.0000
       14 O1     3d2+      -0.0000   -0.0000    0.0000   -0.0000    0.0000    0.0000   -0.0000   -0.0000   -0.0000    0.0000
       15 FE2    1s         1.0000   -0.0000   -0.0000   -0.0000   -0.0000    0.0000   -0.0000    0.0000    0.0000   -0.0000
       16 FE2    2s         0.0000    1.0000    0.0000   -0.0000   -0.0001    0.0001   -0.0035    0.0000    0.0000   -0.0002
       17 FE2    3s        -0.0000    0.0033   -0.0000   -0.0000   -0.0001    0.0003    0.9991    0.0000   -0.0000   -0.0002
       18 FE2    4s         0.0000   -0.0004    0.0000    0.0000   -0.0006    0.0005   -0.0055    0.0000    0.0000   -0.0044
       19 FE2    5s        -0.0000    0.0004    0.0000   -0.0000    0.0003   -0.0002    0.0047   -0.0000    0.0000    0.0021
       20 FE2    2px        0.0000    0.0000   -0.0461    0.9989    0.0000   -0.0000    0.0000    0.0002   -0.0032    0.0000
       21 FE2    3px       -0.0000   -0.0000   -0.0001    0.0032    0.0000    0.0000    0.0000   -0.0479    0.9984   -0.0000
       22 FE2    4px       -0.0000   -0.0000    0.0000   -0.0004   -0.0000    0.0000    0.0000    0.0008   -0.0170    0.0000
       23 FE2    5px       -0.0000   -0.0000   -0.0001    0.0013    0.0000   -0.0000   -0.0000   -0.0005    0.0114   -0.0000
       24 FE2    2py        0.0000   -0.0000    0.9989    0.0461    0.0000   -0.0000    0.0000   -0.0032   -0.0002   -0.0000
       25 FE2    3py        0.0000   -0.0000    0.0032    0.0001    0.0000   -0.0000   -0.0000    0.9984    0.0479    0.0000
       26 FE2    4py        0.0000   -0.0000   -0.0004   -0.0000   -0.0000   -0.0000   -0.0000   -0.0170   -0.0008   -0.0000
       27 FE2    5py        0.0000   -0.0000    0.0013    0.0001    0.0000   -0.0000    0.0000    0.0114    0.0005    0.0000
       28 FE2    2pz       -0.0000    0.0001   -0.0000   -0.0000    1.0000    0.0000   -0.0002    0.0000   -0.0000   -0.0031
       29 FE2    3pz        0.0000    0.0001   -0.0000   -0.0000    0.0029    0.0002   -0.0013   -0.0000    0.0000    0.9985
       30 FE2    4pz        0.0000   -0.0001    0.0000   -0.0000   -0.0009    0.0003   -0.0031    0.0000    0.0000   -0.0183
       31 FE2    5pz        0.0000    0.0001   -0.0000   -0.0000    0.0014   -0.0002    0.0019   -0.0000   -0.0000    0.0115
       32 FE2    3d2-      -0.0000   -0.0000   -0.0000   -0.0000    0.0000   -0.0000   -0.0000    0.0000   -0.0000    0.0000
       33 FE2    4d2-       0.0000    0.0000   -0.0000   -0.0000   -0.0000   -0.0000    0.0000   -0.0000   -0.0000   -0.0000
       34 FE2    3d1-       0.0000   -0.0000    0.0000    0.0000    0.0000   -0.0000   -0.0000   -0.0017   -0.0001   -0.0000
       35 FE2    4d1-       0.0000   -0.0000    0.0000    0.0000    0.0000   -0.0000   -0.0000   -0.0030   -0.0001   -0.0000
       36 FE2    3d0       -0.0000   -0.0002    0.0000   -0.0000   -0.0001    0.0002   -0.0039    0.0000   -0.0000   -0.0013
       37 FE2    4d0        0.0000    0.0000    0.0000    0.0000   -0.0002    0.0001   -0.0001   -0.0000    0.0000   -0.0030
       38 FE2    3d1+       0.0000    0.0000   -0.0000    0.0000    0.0000    0.0000    0.0000    0.0001   -0.0017    0.0000
       39 FE2    4d1+      -0.0000   -0.0000   -0.0000    0.0000   -0.0000    0.0000    0.0000    0.0001   -0.0030    0.0000
       40 FE2    3d2+      -0.0000   -0.0000    0.0000    0.0000    0.0000   -0.0000   -0.0000    0.0000    0.0000    0.0000
       41 FE2    4d2+       0.0000    0.0000   -0.0000   -0.0000   -0.0000   -0.0000    0.0000   -0.0000   -0.0000   -0.0000
       42 FE2    4f3-       0.0000    0.0000   -0.0000   -0.0000    0.0000   -0.0000    0.0000   -0.0000   -0.0000    0.0000
       43 FE2    4f2-      -0.0000    0.0000   -0.0000   -0.0000   -0.0000   -0.0000    0.0000    0.0000   -0.0000   -0.0000
       44 FE2    4f1-      -0.0000    0.0000   -0.0000   -0.0000   -0.0000   -0.0000   -0.0000   -0.0023   -0.0001   -0.0000
       45 FE2    4f0        0.0000   -0.0000    0.0000    0.0000   -0.0001    0.0001    0.0000    0.0000   -0.0000   -0.0010
       46 FE2    4f1+       0.0000   -0.0000    0.0000   -0.0000    0.0000    0.0000    0.0000    0.0001   -0.0023    0.0000
       47 FE2    4f2+       0.0000    0.0000    0.0000    0.0000   -0.0000   -0.0000    0.0000    0.0000    0.0000   -0.0000
       48 FE2    4f3+      -0.0000    0.0000    0.0000   -0.0000   -0.0000    0.0000   -0.0000    0.0000   -0.0000    0.0000
 
          Orbital           11        12        13        14        15        16        17        18        19        20    
          Energy           -1.8090   -1.5096   -1.5096   -1.4974   -1.4974   -1.4734   -1.1173   -1.1173   -0.5913   -0.4503
          Occ. No.          1.0000    1.0000    1.0000    1.0000    1.0000    1.0000    1.0000    1.0000    0.0000    0.0000
 
        1 O1     1s        -0.0049    0.0000    0.0000   -0.0000    0.0000   -0.0142   -0.0000   -0.0000   -0.0207    0.0176
        2 O1     2s         0.9237    0.0000    0.0000   -0.0000    0.0000   -0.3584   -0.0000   -0.0000   -0.2742    0.2211
        3 O1     3s        -0.0131    0.0000    0.0000   -0.0000    0.0000   -0.0368   -0.0000   -0.0000   -0.0452    0.0436
        4 O1     2px        0.0000   -0.0000   -0.0000   -0.0039    0.0818   -0.0000   -0.9793   -0.0468    0.0000   -0.0000
        5 O1     3px       -0.0000    0.0000    0.0000    0.0014   -0.0283    0.0000    0.0367    0.0018    0.0000   -0.0000
        6 O1     2py        0.0000    0.0000   -0.0000    0.0818    0.0039    0.0000   -0.0468    0.9793   -0.0000    0.0000
        7 O1     3py        0.0000   -0.0000    0.0000   -0.0283   -0.0014   -0.0000    0.0018   -0.0367   -0.0000    0.0000
        8 O1     2pz       -0.1329   -0.0000   -0.0000   -0.0000    0.0000   -0.0036   -0.0000   -0.0000   -0.2691    0.7829
        9 O1     3pz       -0.0085   -0.0000   -0.0000    0.0000   -0.0000    0.0277    0.0000    0.0000   -0.0094    0.1481
       10 O1     3d2-       0.0000   -0.0002    0.0001   -0.0000    0.0000   -0.0000    0.0000    0.0000   -0.0000    0.0000
       11 O1     3d1-      -0.0000    0.0000    0.0000   -0.0035   -0.0002    0.0000    0.0015   -0.0315    0.0000   -0.0000
       12 O1     3d0       -0.0145   -0.0000   -0.0000    0.0000   -0.0000    0.0131    0.0000    0.0000    0.0167   -0.0306
       13 O1     3d1+       0.0000    0.0000    0.0000    0.0002   -0.0035   -0.0000    0.0315    0.0015   -0.0000    0.0000
       14 O1     3d2+       0.0000    0.0001    0.0002   -0.0000   -0.0000   -0.0000   -0.0000    0.0000   -0.0000    0.0000
       15 FE2    1s        -0.0012   -0.0000   -0.0000    0.0000   -0.0000    0.0006   -0.0000   -0.0000   -0.0005    0.0032
       16 FE2    2s        -0.0085   -0.0000   -0.0000   -0.0000   -0.0000    0.0048   -0.0000   -0.0000   -0.0030    0.0229
       17 FE2    3s        -0.0543   -0.0000   -0.0000    0.0000   -0.0000    0.0294   -0.0000   -0.0000   -0.0112    0.1105
       18 FE2    4s         0.0119   -0.0000   -0.0000   -0.0000    0.0000    0.0135    0.0000    0.0000    0.8860    0.3499
       19 FE2    5s        -0.0111   -0.0000   -0.0000    0.0000   -0.0000    0.0038   -0.0000   -0.0000   -0.2618    0.0236
       20 FE2    2px       -0.0000    0.0000    0.0000    0.0000   -0.0000   -0.0000    0.0012    0.0001   -0.0000    0.0000
       21 FE2    3px        0.0000    0.0000    0.0000   -0.0000    0.0002    0.0000    0.0277    0.0013   -0.0000    0.0000
       22 FE2    4px       -0.0000   -0.0000   -0.0000   -0.0000    0.0007    0.0000   -0.0485   -0.0023    0.0000   -0.0000
       23 FE2    5px        0.0000   -0.0000    0.0000   -0.0004    0.0074    0.0000    0.0102    0.0005   -0.0000   -0.0000
       24 FE2    2py       -0.0000    0.0000    0.0000   -0.0000   -0.0000    0.0000    0.0001   -0.0012    0.0000   -0.0000
       25 FE2    3py       -0.0000   -0.0000    0.0000    0.0002    0.0000   -0.0000    0.0013   -0.0277    0.0000   -0.0000
       26 FE2    4py       -0.0000    0.0000   -0.0000    0.0007    0.0000   -0.0000   -0.0023    0.0485   -0.0000    0.0000
       27 FE2    5py       -0.0000   -0.0000   -0.0000    0.0074    0.0004    0.0000    0.0005   -0.0102   -0.0000    0.0000
       28 FE2    2pz       -0.0024   -0.0000   -0.0000   -0.0000   -0.0000    0.0010   -0.0000   -0.0000   -0.0007    0.0042
       29 FE2    3pz       -0.0704   -0.0000   -0.0000   -0.0000    0.0000    0.0254   -0.0000   -0.0000   -0.0091    0.0682
       30 FE2    4pz        0.0194   -0.0000   -0.0000   -0.0000    0.0000    0.0067    0.0000    0.0000   -0.1611   -0.5342
       31 FE2    5pz       -0.0074   -0.0000   -0.0000    0.0000   -0.0000    0.0095   -0.0000   -0.0000   -0.0101   -0.0109
       32 FE2    3d2-       0.0000    0.9001   -0.4218   -0.0000    0.0000   -0.0000    0.0000   -0.0000    0.0000   -0.0000
       33 FE2    4d2-      -0.0000   -0.0990    0.0464    0.0000   -0.0000    0.0000   -0.0000    0.0000   -0.0000   -0.0000
       34 FE2    3d1-       0.0000    0.0000   -0.0000    0.9855    0.0472   -0.0000    0.0076   -0.1587    0.0000   -0.0000
       35 FE2    4d1-       0.0000   -0.0000    0.0000   -0.0986   -0.0047    0.0000   -0.0019    0.0394   -0.0000    0.0000
       36 FE2    3d0        0.2277   -0.0000   -0.0000    0.0000   -0.0000    0.9721   -0.0000   -0.0000   -0.0107    0.0932
       37 FE2    4d0       -0.0142    0.0000    0.0000   -0.0000    0.0000   -0.0938    0.0000    0.0000   -0.0068    0.0066
       38 FE2    3d1+       0.0000   -0.0000   -0.0000   -0.0472    0.9855    0.0000    0.1587    0.0076   -0.0000    0.0000
       39 FE2    4d1+      -0.0000    0.0000    0.0000    0.0047   -0.0986   -0.0000   -0.0394   -0.0019    0.0000   -0.0000
       40 FE2    3d2+       0.0000   -0.4218   -0.9001   -0.0000   -0.0000   -0.0000   -0.0000    0.0000    0.0000   -0.0000
       41 FE2    4d2+      -0.0000    0.0464    0.0990    0.0000    0.0000    0.0000    0.0000   -0.0000   -0.0000   -0.0000
       42 FE2    4f3-      -0.0000    0.0000   -0.0000    0.0000    0.0000    0.0000   -0.0000    0.0000    0.0000   -0.0000
       43 FE2    4f2-       0.0000   -0.0021    0.0010    0.0000   -0.0000    0.0000   -0.0000   -0.0000   -0.0000    0.0000
       44 FE2    4f1-       0.0000   -0.0000    0.0000   -0.0014   -0.0001   -0.0000   -0.0004    0.0084   -0.0000    0.0000
       45 FE2    4f0        0.0053    0.0000    0.0000    0.0000   -0.0000   -0.0020    0.0000    0.0000    0.0023   -0.0065
       46 FE2    4f1+       0.0000    0.0000    0.0000    0.0001   -0.0014    0.0000   -0.0084   -0.0004    0.0000   -0.0000
       47 FE2    4f2+       0.0000    0.0010    0.0021    0.0000    0.0000    0.0000    0.0000   -0.0000    0.0000   -0.0000
       48 FE2    4f3+      -0.0000   -0.0000   -0.0000   -0.0000    0.0000   -0.0000   -0.0000   -0.0000   -0.0000    0.0000
 
          Orbital           21        22        23        24    
          Energy           -0.3922   -0.3922   -0.2580   -0.1969
          Occ. No.          0.0000    0.0000    0.0000    0.0000
 
        1 O1     1s        -0.0000    0.0000   -0.0742   -0.0546
        2 O1     2s        -0.0000    0.0000   -0.6131   -0.4203
        3 O1     3s        -0.0000    0.0000   -0.1754   -0.1345
        4 O1     2px        0.0130   -0.2643   -0.0000   -0.0000
        5 O1     3px        0.0036   -0.0728   -0.0000   -0.0000
        6 O1     2py       -0.2643   -0.0130    0.0000    0.0000
        7 O1     3py       -0.0728   -0.0036    0.0000    0.0000
        8 O1     2pz       -0.0000    0.0000    0.3557    0.6558
        9 O1     3pz       -0.0000    0.0000    0.1381    0.3297
       10 O1     3d2-      -0.0000    0.0000   -0.0000   -0.0000
       11 O1     3d1-      -0.0007   -0.0000    0.0000   -0.0000
       12 O1     3d0        0.0000   -0.0000   -0.0139   -0.0183
       13 O1     3d1+       0.0000   -0.0007   -0.0000    0.0000
       14 O1     3d2+      -0.0000   -0.0000   -0.0000   -0.0000
       15 FE2    1s        -0.0000    0.0000    0.0034    0.0056
       16 FE2    2s        -0.0000    0.0000    0.0248    0.0406
       17 FE2    3s        -0.0000    0.0000    0.1270    0.1987
       18 FE2    4s        -0.0000    0.0000    0.7241    0.3613
       19 FE2    5s        -0.0000    0.0000    0.4147   -0.9769
       20 FE2    2px       -0.0001    0.0011    0.0000    0.0000
       21 FE2    3px       -0.0014    0.0283    0.0000    0.0000
       22 FE2    4px       -0.0517    1.0548   -0.0000    0.0000
       23 FE2    5px       -0.0033    0.0673    0.0000    0.0000
       24 FE2    2py        0.0011    0.0001   -0.0000   -0.0000
       25 FE2    3py        0.0283    0.0014   -0.0000   -0.0000
       26 FE2    4py        1.0548    0.0517   -0.0000   -0.0000
       27 FE2    5py        0.0673    0.0033   -0.0000   -0.0000
       28 FE2    2pz       -0.0000    0.0000    0.0055    0.0076
       29 FE2    3pz       -0.0000    0.0000    0.1113    0.1382
       30 FE2    4pz        0.0000   -0.0000    0.9448    0.6285
       31 FE2    5pz        0.0000   -0.0000    0.0907    0.0865
       32 FE2    3d2-      -0.0000    0.0000   -0.0000   -0.0000
       33 FE2    4d2-       0.0000   -0.0000   -0.0000   -0.0000
       34 FE2    3d1-       0.0366    0.0018   -0.0000   -0.0000
       35 FE2    4d1-      -0.0440   -0.0022    0.0000    0.0000
       36 FE2    3d0       -0.0000    0.0000    0.1179    0.1273
       37 FE2    4d0       -0.0000    0.0000   -0.0998   -0.0621
       38 FE2    3d1+      -0.0018    0.0366    0.0000    0.0000
       39 FE2    4d1+       0.0022   -0.0440    0.0000   -0.0000
       40 FE2    3d2+      -0.0000   -0.0000   -0.0000   -0.0000
       41 FE2    4d2+       0.0000    0.0000   -0.0000   -0.0000
       42 FE2    4f3-      -0.0000   -0.0000   -0.0000   -0.0000
       43 FE2    4f2-       0.0000   -0.0000   -0.0000   -0.0000
       44 FE2    4f1-      -0.0029   -0.0001    0.0000    0.0000
       45 FE2    4f0        0.0000   -0.0000   -0.0074   -0.0059
       46 FE2    4f1+       0.0001   -0.0029    0.0000   -0.0000
       47 FE2    4f2+       0.0000    0.0000   -0.0000   -0.0000
       48 FE2    4f3+       0.0000   -0.0000   -0.0000    0.0000
--
 
 
  Input file to MOLDEN was generated!
 
 
++    Static properties:
      ------------------
 
 
      LoProp Charges per center
 

                   O1       FE2   
      Nuclear      8.0000  26.0000
      Electronic  -8.2092 -23.7908
 
      Total       -0.2092   2.2092
--
 
 
      All orbitals with orbital energies smaller than  E(LUMO)+0.5 are printed
 
++    Molecular orbitals:
      -------------------
 
      Title: UHF orbitals (beta)

      Molecular orbitals for symmetry species 1: a  
 
          Orbital            1         2         3         4         5         6         7         8         9        10    
          Energy         -264.4637  -33.1636  -28.2339  -28.2326  -28.2326  -21.1903   -4.8533   -3.3340   -3.3139   -3.3139
          Occ. No.          1.0000    1.0000    1.0000    1.0000    1.0000    1.0000    1.0000    1.0000    1.0000    1.0000
 
        1 O1     1s        -0.0000   -0.0000   -0.0000    0.0000   -0.0000    1.0000   -0.0005   -0.0018    0.0000   -0.0000
        2 O1     2s        -0.0000   -0.0002   -0.0002   -0.0000    0.0000    0.0003    0.0034    0.0265   -0.0000    0.0000
        3 O1     3s         0.0000   -0.0001   -0.0002   -0.0000   -0.0000   -0.0004   -0.0001   -0.0001    0.0000   -0.0000
        4 O1     2px       -0.0000    0.0000    0.0000   -0.0000   -0.0001   -0.0000   -0.0000    0.0000    0.0075   -0.0004
        5 O1     3px        0.0000    0.0000    0.0000   -0.0000   -0.0001    0.0000    0.0000   -0.0000    0.0002   -0.0000
        6 O1     2py       -0.0000    0.0000   -0.0000    0.0001   -0.0000    0.0000   -0.0000   -0.0000    0.0004    0.0075
        7 O1     3py       -0.0000    0.0000   -0.0000    0.0001   -0.0000   -0.0000   -0.0000    0.0000    0.0000    0.0002
        8 O1     2pz       -0.0000    0.0001    0.0003    0.0000    0.0000   -0.0003   -0.0039   -0.0212    0.0000   -0.0000
        9 O1     3pz       -0.0000    0.0001    0.0004    0.0000   -0.0000   -0.0003   -0.0000    0.0028   -0.0000    0.0000
       10 O1     3d2-      -0.0000   -0.0000   -0.0000   -0.0000    0.0000   -0.0000    0.0000   -0.0000    0.0000    0.0000
       11 O1     3d1-       0.0000   -0.0000   -0.0000    0.0000   -0.0000    0.0000    0.0000    0.0000   -0.0001   -0.0017
       12 O1     3d0        0.0000    0.0000   -0.0001   -0.0000    0.0000    0.0009    0.0012    0.0046   -0.0000    0.0000
       13 O1     3d1+      -0.0000   -0.0000   -0.0000   -0.0000   -0.0000   -0.0000   -0.0000   -0.0000   -0.0017    0.0001
       14 O1     3d2+      -0.0000    0.0000   -0.0000    0.0000    0.0000   -0.0000    0.0000   -0.0000    0.0000   -0.0000
       15 FE2    1s         1.0000    0.0000    0.0000   -0.0000    0.0000   -0.0000   -0.0000   -0.0001    0.0000    0.0000
       16 FE2    2s        -0.0000    1.0000   -0.0001   -0.0000    0.0000   -0.0001    0.0008   -0.0004    0.0000    0.0000
       17 FE2    3s        -0.0000   -0.0008   -0.0001   -0.0000    0.0000   -0.0003    0.9992    0.0057   -0.0000    0.0000
       18 FE2    4s         0.0000    0.0003    0.0004    0.0000   -0.0000   -0.0003    0.0008    0.0013   -0.0000    0.0000
       19 FE2    5s        -0.0000   -0.0003   -0.0002   -0.0000    0.0000    0.0002    0.0003   -0.0005    0.0000   -0.0000
       20 FE2    2px        0.0000    0.0000   -0.0000   -0.0261   -0.9997   -0.0000   -0.0000    0.0000    0.0028   -0.0001
       21 FE2    3px       -0.0000    0.0000    0.0000    0.0001    0.0029   -0.0000    0.0000    0.0000    0.9984   -0.0478
       22 FE2    4px       -0.0000   -0.0000   -0.0000   -0.0000   -0.0004   -0.0000   -0.0000   -0.0000   -0.0054    0.0003
       23 FE2    5px       -0.0000   -0.0000    0.0000    0.0000    0.0010   -0.0000   -0.0000    0.0000   -0.0006    0.0000
       24 FE2    2py        0.0000   -0.0000   -0.0000    0.9997   -0.0261   -0.0000    0.0000   -0.0000    0.0001    0.0028
       25 FE2    3py        0.0000   -0.0000    0.0000   -0.0029    0.0001    0.0000   -0.0000   -0.0000    0.0478    0.9984
       26 FE2    4py        0.0000   -0.0000   -0.0000    0.0004   -0.0000    0.0000   -0.0000    0.0000   -0.0003   -0.0054
       27 FE2    5py        0.0000   -0.0000    0.0000   -0.0010    0.0000   -0.0000    0.0000   -0.0000   -0.0000   -0.0006
       28 FE2    2pz        0.0000    0.0001    1.0000    0.0000   -0.0000   -0.0000    0.0002    0.0025   -0.0000    0.0000
       29 FE2    3pz        0.0000   -0.0001   -0.0026   -0.0000    0.0000   -0.0002   -0.0099    0.9953   -0.0000    0.0000
       30 FE2    4pz       -0.0000    0.0002    0.0007    0.0000   -0.0000   -0.0002    0.0005   -0.0013   -0.0000    0.0000
       31 FE2    5pz        0.0000   -0.0001   -0.0012   -0.0000    0.0000    0.0001    0.0006   -0.0024    0.0000   -0.0000
       32 FE2    3d2-       0.0000    0.0000   -0.0000   -0.0000    0.0000    0.0000    0.0000   -0.0000   -0.0000    0.0000
       33 FE2    4d2-      -0.0000    0.0000    0.0000   -0.0000    0.0000    0.0000    0.0000    0.0000   -0.0000    0.0000
       34 FE2    3d1-       0.0000   -0.0000    0.0000   -0.0000    0.0000    0.0000   -0.0000   -0.0000   -0.0004   -0.0083
       35 FE2    4d1-       0.0000   -0.0000    0.0000   -0.0000    0.0000    0.0000    0.0000    0.0000    0.0001    0.0019
       36 FE2    3d0       -0.0000    0.0001    0.0001    0.0000   -0.0000   -0.0001   -0.0009   -0.0060    0.0000   -0.0000
       37 FE2    4d0        0.0000    0.0001    0.0001    0.0000   -0.0000   -0.0001    0.0016    0.0026   -0.0000    0.0000
       38 FE2    3d1+       0.0000    0.0000    0.0000    0.0000    0.0000   -0.0000    0.0000    0.0000   -0.0083    0.0004
       39 FE2    4d1+      -0.0000   -0.0000   -0.0000    0.0000    0.0000   -0.0000   -0.0000   -0.0000    0.0019   -0.0001
       40 FE2    3d2+       0.0000    0.0000   -0.0000    0.0000   -0.0000    0.0000    0.0000   -0.0000    0.0000    0.0000
       41 FE2    4d2+       0.0000    0.0000    0.0000    0.0000    0.0000    0.0000    0.0000    0.0000    0.0000    0.0000
       42 FE2    4f3-       0.0000    0.0000    0.0000   -0.0000    0.0000   -0.0000    0.0000    0.0000   -0.0000   -0.0000
       43 FE2    4f2-       0.0000   -0.0000    0.0000    0.0000    0.0000    0.0000   -0.0000    0.0000   -0.0000    0.0000
       44 FE2    4f1-      -0.0000   -0.0000   -0.0000    0.0001   -0.0000    0.0000   -0.0000    0.0000    0.0001    0.0028
       45 FE2    4f0       -0.0000    0.0000   -0.0002   -0.0000    0.0000   -0.0001    0.0004   -0.0039   -0.0000    0.0000
       46 FE2    4f1+       0.0000    0.0000   -0.0000   -0.0000   -0.0001   -0.0000    0.0000   -0.0000    0.0028   -0.0001
       47 FE2    4f2+       0.0000   -0.0000    0.0000    0.0000   -0.0000    0.0000   -0.0000    0.0000    0.0000    0.0000
       48 FE2    4f3+      -0.0000    0.0000   -0.0000    0.0000    0.0000    0.0000    0.0000   -0.0000   -0.0000    0.0000
 
          Orbital           11        12        13        14        15        16        17        18        19        20    
          Energy           -1.8216   -1.2284   -0.9994   -0.9994   -0.5445   -0.5445   -0.5441   -0.4873   -0.4873   -0.4605
          Occ. No.          1.0000    1.0000    1.0000    1.0000    0.0000    0.0000    0.0000    0.0000    0.0000    0.0000
 
        1 O1     1s        -0.0046   -0.0149   -0.0000    0.0000   -0.0000    0.0000    0.0109    0.0000   -0.0000   -0.0003
        2 O1     2s         0.9577   -0.2301   -0.0000    0.0000   -0.0000    0.0000    0.1331    0.0000   -0.0000   -0.0446
        3 O1     3s        -0.0037   -0.0031   -0.0000    0.0000   -0.0000    0.0000    0.0223    0.0000   -0.0000   -0.0002
        4 O1     2px       -0.0000    0.0000   -0.0357    0.7460   -0.5795    0.0277   -0.0000   -0.0000    0.0000   -0.0000
        5 O1     3px        0.0000   -0.0000   -0.0002    0.0031   -0.0837    0.0040   -0.0000   -0.0000    0.0000    0.0000
        6 O1     2py        0.0000   -0.0000    0.7460    0.0357   -0.0277   -0.5795    0.0000    0.0000    0.0000    0.0000
        7 O1     3py        0.0000    0.0000    0.0031    0.0002   -0.0040   -0.0837    0.0000    0.0000    0.0000   -0.0000
        8 O1     2pz       -0.0866   -0.9085   -0.0000    0.0000    0.0000   -0.0000   -0.1018   -0.0000    0.0000    0.2335
        9 O1     3pz       -0.0334    0.0511    0.0000   -0.0000    0.0000   -0.0000   -0.0176   -0.0000    0.0000    0.0338
       10 O1     3d2-      -0.0000    0.0000   -0.0000    0.0000   -0.0000    0.0000   -0.0000    0.0071    0.0018   -0.0000
       11 O1     3d1-       0.0000   -0.0000   -0.0348   -0.0017   -0.0002   -0.0039    0.0000    0.0000    0.0000    0.0000
       12 O1     3d0        0.0476    0.0213    0.0000   -0.0000   -0.0000    0.0000    0.0093   -0.0000    0.0000    0.0131
       13 O1     3d1+      -0.0000    0.0000    0.0017   -0.0348   -0.0039    0.0002   -0.0000   -0.0000    0.0000   -0.0000
       14 O1     3d2+      -0.0000    0.0000   -0.0000   -0.0000    0.0000    0.0000   -0.0000   -0.0018    0.0071   -0.0000
       15 FE2    1s        -0.0015   -0.0019   -0.0000    0.0000    0.0000   -0.0000   -0.0007   -0.0000    0.0000    0.0009
       16 FE2    2s        -0.0111   -0.0144   -0.0000    0.0000    0.0000   -0.0000   -0.0047   -0.0000    0.0000    0.0068
       17 FE2    3s        -0.0707   -0.0801   -0.0000    0.0000    0.0000   -0.0000   -0.0247   -0.0000    0.0000    0.0359
       18 FE2    4s         0.0145    0.1010    0.0000   -0.0000    0.0000   -0.0000   -0.9358   -0.0000    0.0000    0.2218
       19 FE2    5s        -0.0124   -0.0430   -0.0000    0.0000   -0.0000    0.0000    0.1919    0.0000   -0.0000   -0.0255
       20 FE2    2px       -0.0000   -0.0000    0.0001   -0.0013    0.0013   -0.0001    0.0000    0.0000   -0.0000   -0.0000
       21 FE2    3px       -0.0000   -0.0000    0.0013   -0.0268    0.0331   -0.0016    0.0000    0.0000   -0.0000    0.0000
       22 FE2    4px       -0.0000    0.0000   -0.0048    0.0996   -0.1498    0.0072   -0.0000   -0.0000    0.0000   -0.0000
       23 FE2    5px       -0.0000   -0.0000    0.0004   -0.0080   -0.0072    0.0003   -0.0000   -0.0000    0.0000   -0.0000
       24 FE2    2py       -0.0000    0.0000   -0.0013   -0.0001    0.0001    0.0013   -0.0000   -0.0000   -0.0000   -0.0000
       25 FE2    3py       -0.0000    0.0000   -0.0268   -0.0013    0.0016    0.0331   -0.0000   -0.0000   -0.0000   -0.0000
       26 FE2    4py       -0.0000   -0.0000    0.0996    0.0048   -0.0072   -0.1498    0.0000    0.0000    0.0000    0.0000
       27 FE2    5py       -0.0000   -0.0000   -0.0080   -0.0004   -0.0003   -0.0072    0.0000    0.0000    0.0000    0.0000
       28 FE2    2pz       -0.0034   -0.0042   -0.0000    0.0000    0.0000   -0.0000   -0.0012   -0.0000    0.0000    0.0017
       29 FE2    3pz       -0.1021   -0.0912   -0.0000    0.0000    0.0000   -0.0000   -0.0197   -0.0000    0.0000    0.0346
       30 FE2    4pz        0.0300    0.0849    0.0000   -0.0000   -0.0000    0.0000    0.1851    0.0000   -0.0000   -0.5232
       31 FE2    5pz       -0.0084   -0.0121   -0.0000    0.0000   -0.0000    0.0000    0.0092    0.0000   -0.0000   -0.0383
       32 FE2    3d2-       0.0000    0.0000    0.0000   -0.0000   -0.0000    0.0000    0.0000    0.9539    0.2381   -0.0000
       33 FE2    4d2-      -0.0000    0.0000    0.0000   -0.0000   -0.0000    0.0000    0.0000    0.1744    0.0435   -0.0000
       34 FE2    3d1-       0.0000   -0.0000    0.5130    0.0246    0.0410    0.8558   -0.0000   -0.0000   -0.0000   -0.0000
       35 FE2    4d1-      -0.0000   -0.0000    0.0840    0.0040    0.0051    0.1058   -0.0000   -0.0000   -0.0000   -0.0000
       36 FE2    3d0        0.0791    0.2088    0.0000   -0.0000   -0.0000    0.0000    0.3378   -0.0000    0.0000    0.7961
       37 FE2    4d0        0.0159    0.0410    0.0000   -0.0000   -0.0000    0.0000    0.0618   -0.0000    0.0000    0.1404
       38 FE2    3d1+      -0.0000    0.0000   -0.0246    0.5130    0.8558   -0.0410    0.0000    0.0000   -0.0000    0.0000
       39 FE2    4d1+       0.0000    0.0000   -0.0040    0.0840    0.1058   -0.0051    0.0000    0.0000   -0.0000    0.0000
       40 FE2    3d2+       0.0000    0.0000    0.0000    0.0000    0.0000    0.0000    0.0000   -0.2381    0.9539   -0.0000
       41 FE2    4d2+      -0.0000    0.0000    0.0000    0.0000    0.0000    0.0000    0.0000   -0.0435    0.1744   -0.0000
       42 FE2    4f3-      -0.0000    0.0000    0.0000    0.0000   -0.0000   -0.0000   -0.0000    0.0000   -0.0000    0.0000
       43 FE2    4f2-       0.0000    0.0000    0.0000   -0.0000   -0.0000    0.0000   -0.0000   -0.0022   -0.0005    0.0000
       44 FE2    4f1-       0.0000   -0.0000    0.0117    0.0006   -0.0004   -0.0083    0.0000    0.0000    0.0000   -0.0000
       45 FE2    4f0        0.0062    0.0104    0.0000   -0.0000   -0.0000    0.0000    0.0015    0.0000   -0.0000   -0.0047
       46 FE2    4f1+       0.0000    0.0000   -0.0006    0.0117   -0.0083    0.0004   -0.0000   -0.0000    0.0000    0.0000
       47 FE2    4f2+       0.0000    0.0000    0.0000    0.0000    0.0000    0.0000   -0.0000    0.0005   -0.0022    0.0000
       48 FE2    4f3+      -0.0000   -0.0000   -0.0000    0.0000   -0.0000    0.0000   -0.0000    0.0000    0.0000    0.0000
 
          Orbital           21        22        23        24    
          Energy           -0.3588   -0.3588   -0.2313   -0.1805
          Occ. No.          0.0000    0.0000    0.0000    0.0000
 
        1 O1     1s         0.0000   -0.0000   -0.0647   -0.0921
        2 O1     2s         0.0000   -0.0000   -0.5504   -0.7783
        3 O1     3s         0.0000   -0.0000   -0.1476   -0.2187
        4 O1     2px        0.0210   -0.4352    0.0000    0.0000
        5 O1     3px        0.0056   -0.1160    0.0000    0.0000
        6 O1     2py       -0.4352   -0.0210    0.0000   -0.0000
        7 O1     3py       -0.1160   -0.0056   -0.0000   -0.0000
        8 O1     2pz        0.0000   -0.0000    0.1592    0.5984
        9 O1     3pz        0.0000   -0.0000    0.0695    0.2995
       10 O1     3d2-       0.0000   -0.0000    0.0000    0.0000
       11 O1     3d1-      -0.0055   -0.0003   -0.0000   -0.0000
       12 O1     3d0        0.0000   -0.0000   -0.0132   -0.0153
       13 O1     3d1+       0.0003   -0.0055    0.0000    0.0000
       14 O1     3d2+       0.0000    0.0000    0.0000    0.0000
       15 FE2    1s         0.0000    0.0000    0.0021    0.0058
       16 FE2    2s         0.0000    0.0000    0.0156    0.0417
       17 FE2    3s         0.0000    0.0000    0.0813    0.2090
       18 FE2    4s         0.0000   -0.0000    0.5797    0.5931
       19 FE2    5s         0.0000    0.0000    0.6941   -0.8080
       20 FE2    2px       -0.0000    0.0008   -0.0000   -0.0000
       21 FE2    3px       -0.0014    0.0293   -0.0000   -0.0000
       22 FE2    4px       -0.0509    1.0528   -0.0000   -0.0000
       23 FE2    5px       -0.0044    0.0916   -0.0000   -0.0000
       24 FE2    2py        0.0008    0.0000   -0.0000    0.0000
       25 FE2    3py        0.0293    0.0014   -0.0000    0.0000
       26 FE2    4py        1.0528    0.0509   -0.0000    0.0000
       27 FE2    5py        0.0916    0.0044   -0.0000    0.0000
       28 FE2    2pz        0.0000    0.0000    0.0035    0.0083
       29 FE2    3pz        0.0000    0.0000    0.0749    0.1610
       30 FE2    4pz       -0.0000    0.0000    0.7134    0.9444
       31 FE2    5pz       -0.0000    0.0000    0.0707    0.1120
       32 FE2    3d2-      -0.0000    0.0000   -0.0000   -0.0000
       33 FE2    4d2-      -0.0000    0.0000   -0.0000   -0.0000
       34 FE2    3d1-       0.1593    0.0077   -0.0000   -0.0000
       35 FE2    4d1-      -0.0125   -0.0006   -0.0000   -0.0000
       36 FE2    3d0       -0.0000    0.0000    0.3139    0.4543
       37 FE2    4d0       -0.0000    0.0000    0.0158    0.0307
       38 FE2    3d1+      -0.0077    0.1593   -0.0000    0.0000
       39 FE2    4d1+       0.0006   -0.0125    0.0000    0.0000
       40 FE2    3d2+      -0.0000   -0.0000   -0.0000   -0.0000
       41 FE2    4d2+      -0.0000   -0.0000   -0.0000   -0.0000
       42 FE2    4f3-      -0.0000   -0.0000   -0.0000    0.0000
       43 FE2    4f2-      -0.0000   -0.0000    0.0000    0.0000
       44 FE2    4f1-      -0.0034   -0.0002   -0.0000   -0.0000
       45 FE2    4f0        0.0000    0.0000   -0.0064   -0.0096
       46 FE2    4f1+       0.0002   -0.0034    0.0000    0.0000
       47 FE2    4f2+       0.0000   -0.0000    0.0000    0.0000
       48 FE2    4f3+       0.0000   -0.0000   -0.0000   -0.0000
--
 
 
++    Molecular charges:
      ------------------
 
      Mulliken charges per centre and basis function type
      ---------------------------------------------------
 
                            O1                      FE2   
                     alpha        beta       alpha        beta
      1s           1.0000      1.0000      1.0000      1.0000
      2s           0.9712      0.9730      1.0000      1.0000
      2px          0.9785      0.6340      1.0000      1.0000
      2pz          0.0214      0.8805      1.0000      1.0000
      2py          0.9785      0.6340      1.0000      1.0000
      3s          -0.0002     -0.0002      0.9992      0.9998
      3px         -0.0006      0.0004      0.9993      0.9995
      3pz          0.0010      0.0025      0.9985      0.9991
      3py         -0.0006      0.0004      0.9993      0.9995
      4s           0.0000      0.0000      0.0021      0.0215
      3d2+        -0.0000      0.0000      0.9880      0.0000
      3d1+         0.0012      0.0046      0.9878      0.3081
      3d0          0.0015      0.0033      0.9800      0.0759
      3d1-         0.0012      0.0046      0.9878      0.3081
      3d2-        -0.0000      0.0000      0.9880      0.0000
      4px          0.0000      0.0000      0.0128      0.0275
      4pz          0.0000      0.0000      0.0078      0.0233
      4py          0.0000      0.0000      0.0128      0.0275
      5s           0.0000      0.0000      0.0009      0.0104
      4d2+         0.0000      0.0000      0.0120      0.0000
      4d1+         0.0000      0.0000      0.0204      0.0251
      4d0          0.0000      0.0000      0.0162      0.0073
      4d1-         0.0000      0.0000      0.0204      0.0251
      4d2-         0.0000      0.0000      0.0120      0.0000
      5px          0.0000      0.0000     -0.0002     -0.0002
      5pz          0.0000      0.0000     -0.0004      0.0022
      5py          0.0000      0.0000     -0.0002     -0.0002
      4f3+         0.0000      0.0000      0.0000      0.0000
      4f2+         0.0000      0.0000      0.0000      0.0000
      4f1+         0.0000      0.0000      0.0009      0.0010
      4f0          0.0000      0.0000      0.0006      0.0013
      4f1-         0.0000      0.0000      0.0009      0.0010
      4f2-         0.0000      0.0000      0.0000      0.0000
      4f3-         0.0000      0.0000      0.0000      0.0000
      Total        3.9532      4.1372     14.0468      9.8628
      Total              8.0905                 23.9095
 
      Charge           -0.0905                  2.0905
 
      Total electronic charge=   32.000000
 
      Total            charge=    2.000000
--
 
 
  Input file to MOLDEN was generated!
 
 
++    Static properties:
      ------------------
 
 
      LoProp Charges per center
 

                   O1       FE2   
      Nuclear      8.0000  26.0000
      Electronic  -8.2092 -23.7908
 
      Total       -0.2092   2.2092
--
 
 
++    Natural Bond Order analysis
      ---------------------------
      Based on LoProp computed density
      -------------------------------------------------------------------------------------
      Atom A       Atom B       Bond Order
        O1           FE2            1.987
      -------------------------------------------------------------------------------------
      NBO located     19.999 core electrons.
      NBO located      1.942 lone pair electrons.
      NBO located      3.975 electrons involved in    1 bonds.
      NBO located      0.907 non-bonded electrons on atom O1        
      NBO located      1.000 non-bonded electrons on atom FE2       
      NBO located      1.000 non-bonded electrons on atom FE2       
      The remaining    3.177 electrons are to be considered as diffuse
--
 
 
++    Molecular orbitals:
      -------------------
 
      Title: Natural orbitals

      Molecular orbitals for symmetry species 1: a  
 
          Orbital            1         2         3         4         5         6         7         8         9        10    
          Energy         -264.4650  -32.7008  -21.0096  -27.8008  -27.7998  -27.8302   -5.7868   -4.0680   -4.0690   -3.9749
          Occ. No.          2.0000    2.0000    2.0000    2.0000    2.0000    2.0000    2.0000    1.9999    1.9999    1.9999
 
        1 O1     1s        -0.0001   -0.0289    0.9923   -0.0000   -0.0000   -0.0375   -0.1104   -0.0000   -0.0000    0.0234
        2 O1     2s         0.0000    0.0014   -0.0295    0.0000    0.0000   -0.0076   -0.0320    0.0000   -0.0000    0.1106
        3 O1     3s         0.0000   -0.0001   -0.0005    0.0000    0.0000    0.0001    0.0009   -0.0000    0.0000   -0.0014
        4 O1     2px       -0.0000   -0.0000    0.0000   -0.0001    0.0018   -0.0000    0.0000    0.0013   -0.0273   -0.0000
        5 O1     3px        0.0000    0.0000    0.0000    0.0000   -0.0003    0.0000   -0.0000   -0.0001    0.0020    0.0000
        6 O1     2py       -0.0000    0.0000    0.0000    0.0018    0.0001   -0.0000   -0.0000   -0.0273   -0.0013    0.0000
        7 O1     3py       -0.0000    0.0000   -0.0000   -0.0003   -0.0000    0.0000   -0.0000    0.0020    0.0001   -0.0000
        8 O1     2pz       -0.0000    0.0000    0.0037   -0.0000   -0.0000    0.0008    0.0038   -0.0000    0.0000   -0.0144
        9 O1     3pz       -0.0000    0.0000    0.0008   -0.0000    0.0000    0.0005    0.0003   -0.0000    0.0000   -0.0049
       10 O1     3d2-      -0.0000   -0.0000   -0.0000   -0.0000   -0.0000    0.0000    0.0000    0.0000    0.0000   -0.0000
       11 O1     3d1-       0.0000   -0.0000    0.0000    0.0001    0.0000   -0.0000    0.0000    0.0002    0.0000   -0.0000
       12 O1     3d0        0.0000   -0.0001   -0.0006    0.0000    0.0000    0.0000   -0.0001    0.0000   -0.0000    0.0005
       13 O1     3d1+      -0.0000    0.0000    0.0000   -0.0000    0.0001   -0.0000   -0.0000   -0.0000    0.0002    0.0000
       14 O1     3d2+      -0.0000   -0.0000   -0.0000    0.0000   -0.0000    0.0000    0.0000   -0.0000    0.0000   -0.0000
       15 FE2    1s         1.0000   -0.0000    0.0001   -0.0000   -0.0000   -0.0000   -0.0000   -0.0000    0.0000   -0.0002
       16 FE2    2s         0.0000    0.9901    0.0431   -0.0000   -0.0000   -0.0174    0.1325   -0.0000    0.0000   -0.0005
       17 FE2    3s         0.0001   -0.1351    0.1089   -0.0000    0.0000    0.0472    0.9840   -0.0000    0.0000   -0.0465
       18 FE2    4s         0.0000    0.0003   -0.0007    0.0000   -0.0000   -0.0006   -0.0029    0.0000   -0.0000    0.0048
       19 FE2    5s        -0.0000   -0.0003    0.0007   -0.0000    0.0000    0.0004    0.0030   -0.0000    0.0000   -0.0032
       20 FE2    2px       -0.0000   -0.0000    0.0000   -0.0456    0.9886   -0.0000   -0.0000   -0.0068    0.1432    0.0000
       21 FE2    3px        0.0000    0.0000   -0.0000    0.0066   -0.1432    0.0000   -0.0000   -0.0466    0.9881    0.0000
       22 FE2    4px       -0.0000   -0.0000    0.0000   -0.0001    0.0018   -0.0000    0.0000    0.0007   -0.0141   -0.0000
       23 FE2    5px       -0.0000    0.0000   -0.0000    0.0000   -0.0007    0.0000   -0.0000   -0.0003    0.0055    0.0000
       24 FE2    2py       -0.0000   -0.0000    0.0000    0.9886    0.0456   -0.0000   -0.0000    0.1431    0.0068   -0.0000
       25 FE2    3py       -0.0000    0.0000   -0.0000   -0.1431   -0.0066    0.0000   -0.0000    0.9881    0.0466   -0.0000
       26 FE2    4py        0.0000   -0.0000    0.0000    0.0018    0.0001   -0.0000   -0.0000   -0.0141   -0.0007    0.0000
       27 FE2    5py        0.0000    0.0000   -0.0000   -0.0007   -0.0000    0.0000    0.0000    0.0055    0.0003   -0.0000
       28 FE2    2pz       -0.0000   -0.0216   -0.0303   -0.0000   -0.0000   -0.9896    0.0418   -0.0000    0.0000   -0.1325
       29 FE2    3pz       -0.0000    0.0086    0.0214    0.0000    0.0000    0.1298   -0.0492   -0.0000    0.0000   -0.9906
       30 FE2    4pz        0.0000    0.0002   -0.0011    0.0000   -0.0000   -0.0017   -0.0019    0.0000   -0.0000    0.0144
       31 FE2    5pz        0.0000   -0.0001    0.0005   -0.0000    0.0000    0.0007    0.0013   -0.0000    0.0000   -0.0058
       32 FE2    3d2-       0.0000   -0.0000   -0.0000   -0.0000    0.0000   -0.0000    0.0000    0.0000   -0.0000    0.0000
       33 FE2    4d2-       0.0000   -0.0000    0.0000   -0.0000    0.0000    0.0000    0.0000   -0.0000   -0.0000   -0.0000
       34 FE2    3d1-       0.0000   -0.0000    0.0000    0.0032    0.0001   -0.0000   -0.0000   -0.0329   -0.0016    0.0000
       35 FE2    4d1-       0.0000   -0.0000    0.0000    0.0001    0.0000   -0.0000   -0.0000   -0.0013   -0.0001    0.0000
       36 FE2    3d0        0.0000    0.0004   -0.0032    0.0000   -0.0000   -0.0025   -0.0052    0.0000   -0.0000    0.0247
       37 FE2    4d0        0.0000   -0.0000   -0.0002    0.0000    0.0000   -0.0000    0.0003    0.0000   -0.0000    0.0013
       38 FE2    3d1+      -0.0000   -0.0000    0.0000   -0.0001    0.0032   -0.0000    0.0000    0.0016   -0.0329   -0.0000
       39 FE2    4d1+      -0.0000   -0.0000    0.0000   -0.0000    0.0001   -0.0000    0.0000    0.0001   -0.0013   -0.0000
       40 FE2    3d2+       0.0000   -0.0000   -0.0000   -0.0000   -0.0000   -0.0000    0.0000    0.0000    0.0000    0.0000
       41 FE2    4d2+       0.0000   -0.0000    0.0000    0.0000   -0.0000    0.0000    0.0000   -0.0000   -0.0000   -0.0000
       42 FE2    4f3-       0.0000   -0.0000   -0.0000    0.0000    0.0000    0.0000    0.0000   -0.0000   -0.0000   -0.0000
       43 FE2    4f2-      -0.0000    0.0000    0.0000   -0.0000    0.0000    0.0000   -0.0000    0.0000   -0.0000   -0.0000
       44 FE2    4f1-      -0.0000    0.0000    0.0000    0.0001    0.0000   -0.0000   -0.0000   -0.0001   -0.0000    0.0000
       45 FE2    4f0        0.0000   -0.0000   -0.0002    0.0000   -0.0000   -0.0002    0.0001    0.0000   -0.0000    0.0034
       46 FE2    4f1+       0.0000   -0.0000    0.0000   -0.0000    0.0001   -0.0000    0.0000    0.0000   -0.0001   -0.0000
       47 FE2    4f2+       0.0000    0.0000    0.0000   -0.0000   -0.0000    0.0000   -0.0000    0.0000    0.0000   -0.0000
       48 FE2    4f3+      -0.0000    0.0000    0.0000   -0.0000    0.0000   -0.0000   -0.0000    0.0000   -0.0000    0.0000
 
          Orbital           11        12        13        14        15        16        17        18        19        20    
          Energy           -1.8614   -1.1321   -1.1321   -1.0306   -0.9588   -0.9588   -0.9210   -0.9210   -0.7256    0.1904
          Occ. No.          1.9975    1.9873    1.9873    1.3195    1.0000    1.0000    1.0000    1.0000    0.6805    0.0127
 
        1 O1     1s         0.0200   -0.0000   -0.0000   -0.0183   -0.0000    0.0000   -0.0000    0.0000    0.0001    0.0000
        2 O1     2s         0.9498   -0.0000   -0.0000   -0.3032   -0.0000    0.0000   -0.0000    0.0000   -0.0371    0.0000
        3 O1     3s        -0.0057   -0.0000   -0.0000   -0.0254   -0.0000    0.0000   -0.0000    0.0000    0.0303    0.0000
        4 O1     2px       -0.0000   -0.0372   -0.7786    0.0000    0.0000   -0.0000    0.0269   -0.5605    0.0000   -0.3850
        5 O1     3px        0.0000    0.0010    0.0216   -0.0000   -0.0000    0.0000   -0.0001    0.0016   -0.0000    0.3097
        6 O1     2py        0.0000    0.7786   -0.0372   -0.0000    0.0000   -0.0000   -0.5605   -0.0269   -0.0000   -0.0184
        7 O1     3py        0.0000   -0.0216    0.0010    0.0000   -0.0000    0.0000    0.0016    0.0001    0.0000    0.0148
        8 O1     2pz       -0.1263   -0.0000   -0.0000   -0.5705   -0.0000    0.0000    0.0000   -0.0000   -0.7562   -0.0000
        9 O1     3pz       -0.0213    0.0000    0.0000    0.0485    0.0000   -0.0000   -0.0000    0.0000    0.0225    0.0000
       10 O1     3d2-      -0.0000   -0.0000   -0.0000    0.0000   -0.0002   -0.0001    0.0000   -0.0000    0.0000    0.0000
       11 O1     3d1-      -0.0000   -0.0308    0.0015    0.0000   -0.0000    0.0000    0.0174    0.0008    0.0000   -0.0025
       12 O1     3d0        0.0163    0.0000    0.0000    0.0187    0.0000   -0.0000   -0.0000    0.0000    0.0074    0.0000
       13 O1     3d1+       0.0000    0.0015    0.0308   -0.0000   -0.0000    0.0000   -0.0008    0.0174   -0.0000   -0.0522
       14 O1     3d2+      -0.0000   -0.0000    0.0000    0.0000    0.0001   -0.0002    0.0000    0.0000    0.0000   -0.0000
       15 FE2    1s        -0.0014   -0.0000   -0.0000   -0.0009    0.0000   -0.0000    0.0000   -0.0000   -0.0020   -0.0000
       16 FE2    2s        -0.0062   -0.0000   -0.0000   -0.0063    0.0000   -0.0000    0.0000   -0.0000   -0.0147   -0.0000
       17 FE2    3s        -0.0191   -0.0000   -0.0000   -0.0318    0.0000   -0.0000    0.0000   -0.0000   -0.0800   -0.0000
       18 FE2    4s         0.0136    0.0000    0.0000    0.0710    0.0000   -0.0000   -0.0000    0.0000    0.0732   -0.0000
       19 FE2    5s        -0.0124   -0.0000   -0.0000   -0.0248   -0.0000    0.0000    0.0000   -0.0000   -0.0383    0.0000
       20 FE2    2px        0.0000   -0.0001   -0.0017   -0.0000   -0.0000    0.0000   -0.0000    0.0009   -0.0000   -0.0009
       21 FE2    3px        0.0000   -0.0010   -0.0218    0.0000   -0.0000    0.0000   -0.0014    0.0288   -0.0000   -0.0083
       22 FE2    4px       -0.0000   -0.0033   -0.0683    0.0000    0.0000   -0.0000    0.0015   -0.0305    0.0000    0.3900
       23 FE2    5px        0.0000    0.0003    0.0053   -0.0000   -0.0000    0.0000   -0.0006    0.0123   -0.0000   -0.0336
       24 FE2    2py        0.0000    0.0017   -0.0001    0.0000   -0.0000    0.0000    0.0009    0.0000    0.0000   -0.0000
       25 FE2    3py       -0.0000    0.0218   -0.0010    0.0000   -0.0000    0.0000    0.0288    0.0014    0.0000   -0.0004
       26 FE2    4py        0.0000    0.0683   -0.0033   -0.0000    0.0000   -0.0000   -0.0305   -0.0015   -0.0000    0.0187
       27 FE2    5py       -0.0000   -0.0053    0.0003   -0.0000   -0.0000    0.0000    0.0123    0.0006    0.0000   -0.0016
       28 FE2    2pz        0.0051   -0.0000   -0.0000   -0.0016   -0.0000    0.0000    0.0000   -0.0000   -0.0038   -0.0000
       29 FE2    3pz        0.0510   -0.0000   -0.0000   -0.0228   -0.0000    0.0000    0.0000   -0.0000   -0.0804   -0.0000
       30 FE2    4pz        0.0241    0.0000    0.0000    0.0571    0.0000   -0.0000   -0.0000    0.0000    0.0638    0.0000
       31 FE2    5pz       -0.0081   -0.0000    0.0000   -0.0021   -0.0000    0.0000    0.0000   -0.0000   -0.0174    0.0000
       32 FE2    3d2-       0.0000    0.0000    0.0000    0.0000    0.9001    0.4218   -0.0000    0.0000   -0.0000   -0.0000
       33 FE2    4d2-      -0.0000    0.0000    0.0000   -0.0000   -0.0990   -0.0464    0.0000   -0.0000    0.0000   -0.0000
       34 FE2    3d1-       0.0000    0.5097   -0.0244   -0.0000   -0.0000    0.0000    0.8609    0.0412    0.0000    0.0023
       35 FE2    4d1-       0.0000    0.0258   -0.0012    0.0000    0.0000   -0.0000   -0.1011   -0.0048   -0.0000    0.0350
       36 FE2    3d0        0.0853    0.0000    0.0000    0.7385    0.0000   -0.0000    0.0000   -0.0000   -0.6764   -0.0000
       37 FE2    4d0        0.0083    0.0000    0.0000   -0.0336   -0.0000    0.0000   -0.0000    0.0000    0.1159   -0.0000
       38 FE2    3d1+      -0.0000   -0.0244   -0.5097    0.0000   -0.0000    0.0000   -0.0412    0.8609   -0.0000    0.0488
       39 FE2    4d1+      -0.0000   -0.0012   -0.0258   -0.0000    0.0000   -0.0000    0.0048   -0.1011    0.0000    0.7319
       40 FE2    3d2+       0.0000    0.0000   -0.0000    0.0000   -0.4218    0.9001   -0.0000   -0.0000   -0.0000    0.0000
       41 FE2    4d2+      -0.0000    0.0000   -0.0000   -0.0000    0.0464   -0.0990    0.0000    0.0000    0.0000    0.0000
       42 FE2    4f3-      -0.0000   -0.0000    0.0000    0.0000    0.0000    0.0000    0.0000    0.0000   -0.0000    0.0000
       43 FE2    4f2-       0.0000    0.0000    0.0000    0.0000   -0.0021   -0.0010    0.0000   -0.0000    0.0000   -0.0000
       44 FE2    4f1-       0.0000    0.0087   -0.0004   -0.0000    0.0000   -0.0000   -0.0064   -0.0003   -0.0000    0.0019
       45 FE2    4f0        0.0057    0.0000    0.0000    0.0054    0.0000   -0.0000   -0.0000    0.0000    0.0097   -0.0000
       46 FE2    4f1+      -0.0000   -0.0004   -0.0087    0.0000    0.0000   -0.0000    0.0003   -0.0064    0.0000    0.0398
       47 FE2    4f2+       0.0000    0.0000   -0.0000    0.0000    0.0010   -0.0021    0.0000    0.0000    0.0000    0.0000
       48 FE2    4f3+      -0.0000    0.0000    0.0000   -0.0000   -0.0000    0.0000   -0.0000    0.0000   -0.0000    0.0000
 
          Orbital           21        22        23        24        25        26        27        28        29        30    
          Energy            0.1904    1.4149    1.3438    1.1879    1.1879    0.0191    1.0037    1.5772    1.5772    1.5587
          Occ. No.          0.0127    0.0025    0.0001    0.0001    0.0001    0.0000    0.0000    0.0000    0.0000    0.0000
 
        1 O1     1s        -0.0000   -0.0327   -0.0350    0.0000   -0.0000    0.0779   -0.0316   -0.0000    0.0000    0.1758
        2 O1     2s        -0.0000   -0.2502   -0.3579    0.0000   -0.0000    0.6770   -0.1773   -0.0000    0.0000    1.2938
        3 O1     3s        -0.0000    0.0532   -0.1003    0.0000   -0.0000    0.3287    0.3027    0.0000   -0.0000    0.9229
        4 O1     2px        0.0184    0.0000    0.0000    0.0056   -0.1147   -0.0000   -0.0000    0.0168   -0.3415    0.0000
        5 O1     3px       -0.0148    0.0000    0.0000    0.0124   -0.2567   -0.0000   -0.0000    0.0367   -0.7475    0.0000
        6 O1     2py       -0.3850   -0.0000   -0.0000   -0.1147   -0.0056    0.0000    0.0000   -0.3415   -0.0168    0.0000
        7 O1     3py        0.3097    0.0000   -0.0000   -0.2567   -0.0124    0.0000    0.0000   -0.7475   -0.0367    0.0000
        8 O1     2pz        0.0000    0.1244    0.3672   -0.0000    0.0000   -0.6065   -0.1820   -0.0000    0.0000   -0.5312
        9 O1     3pz       -0.0000   -0.2630    0.1927   -0.0000    0.0000   -0.2869   -0.5187   -0.0000    0.0000   -0.0412
       10 O1     3d2-      -0.0000   -0.0000    0.0000    0.0000   -0.0000   -0.0000    0.0000    0.0000   -0.0000    0.0000
       11 O1     3d1-      -0.0522    0.0000   -0.0000   -0.0273   -0.0013    0.0000    0.0000   -0.1741   -0.0086    0.0000
       12 O1     3d0       -0.0000    0.9082   -0.3356    0.0000   -0.0000    0.4146    0.0383    0.0000   -0.0000    0.3853
       13 O1     3d1+       0.0025   -0.0000    0.0000    0.0013   -0.0273   -0.0000   -0.0000    0.0086   -0.1741    0.0000
       14 O1     3d2+      -0.0000   -0.0000    0.0000    0.0000    0.0000   -0.0000    0.0000   -0.0000   -0.0000    0.0000
       15 FE2    1s         0.0000   -0.0046    0.0044   -0.0000    0.0000   -0.0072   -0.0061   -0.0000    0.0000   -0.0076
       16 FE2    2s         0.0000   -0.0330    0.0316   -0.0000    0.0000   -0.0524   -0.0433   -0.0000    0.0000   -0.0558
       17 FE2    3s         0.0000   -0.1514    0.1577   -0.0000    0.0000   -0.2632   -0.1903   -0.0000    0.0000   -0.2916
       18 FE2    4s         0.0000    0.1307    0.1447   -0.0000    0.0000   -1.1387   -0.3156   -0.0000    0.0000   -0.8657
       19 FE2    5s        -0.0000   -0.0411   -0.0719    0.0000   -0.0000    0.8675    0.1512   -0.0000   -0.0000   -0.0172
       20 FE2    2px        0.0000   -0.0000   -0.0000   -0.0001    0.0012    0.0000    0.0000   -0.0002    0.0031   -0.0000
       21 FE2    3px        0.0004   -0.0000   -0.0000   -0.0014    0.0299   -0.0000    0.0000   -0.0028    0.0573   -0.0000
       22 FE2    4px       -0.0187   -0.0000   -0.0000   -0.0258    0.5317   -0.0000    0.0000   -0.0344    0.7001   -0.0000
       23 FE2    5px        0.0016   -0.0000    0.0000    0.0372   -0.7683   -0.0000    0.0000   -0.0323    0.6576   -0.0000
       24 FE2    2py       -0.0009    0.0000    0.0000    0.0012    0.0001    0.0000   -0.0000    0.0031    0.0002   -0.0000
       25 FE2    3py       -0.0083    0.0000    0.0000    0.0299    0.0014    0.0000   -0.0000    0.0573    0.0028   -0.0000
       26 FE2    4py        0.3900    0.0000    0.0000    0.5317    0.0258    0.0000   -0.0000    0.7001    0.0344    0.0000
       27 FE2    5py       -0.0336    0.0000   -0.0000   -0.7683   -0.0372    0.0000   -0.0000    0.6576    0.0323    0.0000
       28 FE2    2pz        0.0000   -0.0078    0.0072   -0.0000    0.0000   -0.0118   -0.0064   -0.0000    0.0000   -0.0147
       29 FE2    3pz        0.0000   -0.1014    0.1312   -0.0000    0.0000   -0.2080   -0.0809   -0.0000    0.0000   -0.2702
       30 FE2    4pz       -0.0000    0.2370    0.7677   -0.0000    0.0000   -0.4036    0.4862    0.0000   -0.0000   -0.9411
       31 FE2    5pz       -0.0000   -0.0292   -0.8142    0.0000   -0.0000    0.1482    0.7262    0.0000   -0.0000    0.0116
       32 FE2    3d2-       0.0000    0.0000    0.0000   -0.0000    0.0000    0.0000   -0.0000   -0.0000    0.0000   -0.0000
       33 FE2    4d2-       0.0000    0.0000    0.0000   -0.0000    0.0000    0.0000    0.0000   -0.0000    0.0000   -0.0000
       34 FE2    3d1-       0.0488    0.0000   -0.0000    0.0212    0.0010    0.0000   -0.0000    0.0837    0.0041   -0.0000
       35 FE2    4d1-       0.7319    0.0000   -0.0000   -0.1118   -0.0054    0.0000   -0.0000    0.1985    0.0097   -0.0000
       36 FE2    3d0        0.0000   -0.0170    0.1252   -0.0000    0.0000   -0.2134    0.0231   -0.0000   -0.0000   -0.3979
       37 FE2    4d0        0.0000    0.2633    0.0426   -0.0000    0.0000   -0.1415    0.1060    0.0000   -0.0000   -1.2935
       38 FE2    3d1+      -0.0023   -0.0000   -0.0000   -0.0010    0.0212   -0.0000    0.0000   -0.0041    0.0837   -0.0000
       39 FE2    4d1+      -0.0350   -0.0000    0.0000    0.0054   -0.1118   -0.0000    0.0000   -0.0097    0.1985   -0.0000
       40 FE2    3d2+       0.0000    0.0000    0.0000   -0.0000   -0.0000    0.0000   -0.0000   -0.0000    0.0000   -0.0000
       41 FE2    4d2+       0.0000    0.0000    0.0000   -0.0000    0.0000    0.0000    0.0000   -0.0000    0.0000   -0.0000
       42 FE2    4f3-       0.0000    0.0000    0.0000    0.0000    0.0000   -0.0000    0.0000    0.0000    0.0000   -0.0000
       43 FE2    4f2-       0.0000    0.0000    0.0000    0.0000   -0.0000    0.0000    0.0000   -0.0000    0.0000    0.0000
       44 FE2    4f1-       0.0398    0.0000    0.0000    0.3073    0.0149    0.0000   -0.0000    0.5428    0.0267   -0.0000
       45 FE2    4f0        0.0000    0.0075   -0.2046    0.0000   -0.0000   -0.0861   -0.3304   -0.0000    0.0000   -0.3916
       46 FE2    4f1+      -0.0019   -0.0000   -0.0000   -0.0149    0.3073   -0.0000    0.0000   -0.0267    0.5428    0.0000
       47 FE2    4f2+       0.0000    0.0000    0.0000    0.0000    0.0000    0.0000    0.0000   -0.0000    0.0000    0.0000
       48 FE2    4f3+      -0.0000   -0.0000   -0.0000   -0.0000    0.0000    0.0000   -0.0000   -0.0000    0.0000   -0.0000
 
          Orbital           31        32        33        34        35        36        37        38        39        40    
          Energy            0.5510    0.2761    0.6241    0.6336    1.4680    1.2100    0.3506    1.3986    1.4187    0.3474
          Occ. No.          0.0000    0.0000    0.0000    0.0000    0.0000    0.0000    0.0000    0.0000    0.0000    0.0000
 
        1 O1     1s         0.0857    0.0243   -0.0000   -0.0000    0.0992    0.1193   -0.0000    0.0000   -0.0000    0.0000
        2 O1     2s         0.6803    0.2518   -0.0000   -0.0000    0.8141    0.9844   -0.0000    0.0001   -0.0000    0.0000
        3 O1     3s         1.2673    0.6304   -0.0000   -0.0000    0.5672    1.0682   -0.0000    0.0001   -0.0000    0.0000
        4 O1     2px       -0.0000    0.0000   -0.0027    0.0525    0.0000    0.0000    0.0186   -0.2857    0.0199   -0.0061
        5 O1     3px       -0.0000    0.0000   -0.0110    0.2166    0.0001    0.0000    0.0887   -0.9715    0.0605   -0.0164
        6 O1     2py       -0.0000    0.0000    0.0545    0.0026   -0.0000   -0.0000    0.0071   -0.0196   -0.2783    0.0421
        7 O1     3py       -0.0000    0.0000    0.2234    0.0107   -0.0000   -0.0000    0.0206   -0.0598   -0.9562    0.1410
        8 O1     2pz       -0.3157    0.0418   -0.0000    0.0000   -0.4143   -0.5786    0.0000   -0.0000    0.0000   -0.0000
        9 O1     3pz       -0.0496    0.3747   -0.0000   -0.0000   -0.6045   -1.2642    0.0000   -0.0001    0.0000   -0.0000
       10 O1     3d2-       0.0000   -0.0000   -0.0001   -0.0000   -0.0000   -0.0000    0.0069    0.0011   -0.0076   -0.0538
       11 O1     3d1-      -0.0000    0.0000    0.1305    0.0064   -0.0000   -0.0000   -0.0080    0.0166   -0.0007   -0.0077
       12 O1     3d0        0.0407   -0.0254    0.0000   -0.0000    0.0638    0.0234   -0.0000    0.0000   -0.0000    0.0000
       13 O1     3d1+      -0.0000    0.0000   -0.0064    0.1307    0.0000    0.0000    0.0547    0.0215   -0.0177    0.0104
       14 O1     3d2+       0.0000    0.0000    0.0001    0.0000   -0.0000   -0.0000   -0.0539   -0.0063   -0.0017   -0.0068
       15 FE2    1s        -0.0069    0.0008   -0.0000   -0.0000   -0.0094   -0.0175    0.0000   -0.0000    0.0000   -0.0000
       16 FE2    2s        -0.0500    0.0050   -0.0000   -0.0000   -0.0677   -0.1253    0.0000   -0.0000    0.0000   -0.0000
       17 FE2    3s        -0.2513    0.0088   -0.0000   -0.0000   -0.3201   -0.5778    0.0000   -0.0000    0.0000   -0.0000
       18 FE2    4s        -0.3590   -0.6808    0.0000    0.0000   -0.9365   -1.3196    0.0000   -0.0001    0.0000   -0.0000
       19 FE2    5s         0.4842   -0.6021    0.0001    0.0000   -0.0351    0.3993   -0.0000   -0.0000   -0.0000    0.0000
       20 FE2    2px        0.0000   -0.0000    0.0000   -0.0006   -0.0000   -0.0000   -0.0003    0.0046   -0.0003    0.0001
[...]
      NBO located     19.998 core electrons.
      NBO located      1.979 lone pair electrons.
      NBO located      5.370 electrons involved in    1 bonds.
      NBO located      1.000 non-bonded electrons on atom FE2       
      NBO located      1.000 non-bonded electrons on atom FE2       
      The remaining    2.654 electrons are to be considered as diffuse
--
 
--
 
 
  Input file to MOLDEN was generated!
 
 
  Input file to MOLDEN was generated!
 
      Average orbitals are written to the RASORB file
      Natural orbitals for root   1 are written to the RASORB.1 file
      Spin density orbitals for root   1 are written to the SPDORB.1 file
 
--- Stop Module: rasscf at Thu Dec 19 15:16:53 2024 /rc=_RC_ALL_IS_WELL_ ---
*** files: 1.73.LprOrb 1.73.rasscf.molden 1.73.rasscf.molden.1 1.73.LoProp.molden 1.73.RasOrb 1.73.RasOrb.1 1.73.rasscf.h5 1.73.SpdOrb.1 xmldump
    saved to directory /home/grierjones/DDCASPT2/iron_oxo_DDCASPT2/cluster/1.73
--- Module rasscf spent 1 minute 38 seconds ---

>>> COPY /tmp/1.73/1.73.rasscf.h5 /home/grierjones/DDCASPT2/iron_oxo_DDCASPT2/cluster/1.73/

>>> COPY /tmp/1.73/GMJ_Fock_MO.csv /home/grierjones/DDCASPT2/iron_oxo_DDCASPT2/cluster/1.73/1.73.GMJ_Fock_MO.csv

>>> COPY /tmp/1.73/GMJ_PT2_Fock_MO.csv /home/grierjones/DDCASPT2/iron_oxo_DDCASPT2/cluster/1.73/1.73.GMJ_PT2_Fock_MO.csv

*** symbolic link created: INPORB -> 1.73.RasOrb
--- Start Module: motra at Thu Dec 19 15:16:53 2024 ---
 
()()()()()()()()()()()()()()()()()()()()()()()()()()()()()()()()()()()()()()()()()()()()()()()()()()

                                               &MOTRA

                                   only a single process is used
                       available to each process: 2.0 GB of memory, 1 thread?
()()()()()()()()()()()()()()()()()()()()()()()()()()()()()()()()()()()()()()()()()()()()()()()()()()
 
 
      *** WARNING: Default frozen orbitals is overwritten by user input.
      *** Default values:   7
 
      Header of the integral files:
      
       Integrals generated by seward 4.2.0  , Thu Dec 19 15:15:13 2024
 
 
      Header of MO coefficients source file:
      * RASSCF average (pseudo-natural) orbitals                                      
 
 
      Cartesian coordinates in Angstrom:
      -----------------------------------------------------
      No.  Label        X            Y            Z        
      -----------------------------------------------------
       1   O1         0.00000000   0.00000000   1.66533000
       2   FE2        0.00000000   0.00000000  -0.06533000
      -----------------------------------------------------
      Nuclear repulsion energy =   63.59935505
 
      Orbital specifications:
      -----------------------
 
      Symmetry species:              1
      Number of basis functions:    48
      Frozen orbitals:               0
      Deleted orbitals:              0
      Number of orbitals used:      48

       SYMMETRY  BASIS FUNCTIONS       ORBITALS      INTEGRALS   CPU(SEC)  I/O(SEC)
 
        1 1 1 1   48  48  48  48    48  48  48  48      692076       0.00      0.00

       TOTAL CPU TIME(SEC)    0.39TOTAL I/O TIME(SEC)    0.86
 
--- Stop Module: motra at Thu Dec 19 15:16:54 2024 /rc=_RC_ALL_IS_WELL_ ---
*** files: xmldump
    saved to directory /home/grierjones/DDCASPT2/iron_oxo_DDCASPT2/cluster/1.73

>>> COPY /tmp/1.73/GMJ_one_int_indx.csv /home/grierjones/DDCASPT2/iron_oxo_DDCASPT2/cluster/1.73/1.73.GMJ_one_int_indx.csv

>>> COPY /tmp/1.73/GMJ_one_int.csv /home/grierjones/DDCASPT2/iron_oxo_DDCASPT2/cluster/1.73/1.73.GMJ_one_int.csv

>>> COPY /tmp/1.73/GMJ_two_int_indx.csv /home/grierjones/DDCASPT2/iron_oxo_DDCASPT2/cluster/1.73/1.73.GMJ_two_int_indx.csv

>>> COPY /tmp/1.73/GMJ_two_int.csv /home/grierjones/DDCASPT2/iron_oxo_DDCASPT2/cluster/1.73/1.73.GMJ_two_int.csv

*** symbolic link created: INPORB -> 1.73.RasOrb
--- Start Module: caspt2 at Thu Dec 19 15:16:54 2024 ---
 
()()()()()()()()()()()()()()()()()()()()()()()()()()()()()()()()()()()()()()()()()()()()()()()()()()

                                              &CASPT2

                                   only a single process is used
                       available to each process: 2.0 GB of memory, 1 thread?
()()()()()()()()()()()()()()()()()()()()()()()()()()()()()()()()()()()()()()()()()()()()()()()()()()
 
 Cholesky algorithm in CASPT2 =    1
 
 ###############################################################################
 ###############################################################################
 ###                                                                         ###
 ###                                                                         ###
 ###    User changed nr of frozen orbitals.                                  ###
 ###                                                                         ###
 ###                                                                         ###
 ###############################################################################
 ###############################################################################
 
++    Wave function specifications:
      -----------------------------
 
      Number of closed shell electrons          22
      Number of electrons in active shells      10
      Max number of holes in RAS1 space          0
      Max number of electrons in RAS3 space      0
      Number of inactive orbitals               11
      Number of active orbitals                 14
      Number of secondary orbitals              23
      Spin quantum number                      2.0
      State symmetry                             1
      Number of CSFs                        975975
      Number of root(s) available                1
      Root passed to geometry opt.               1
      A file JOBMIX will be created.
      This is a CASSCF or RASSCF reference function
--
 
++    Orbital specifications:
      -----------------------
 
      Symmetry species                           1
                                                 a
      Frozen orbitals                            0
      Inactive orbitals                         11
      Active orbitals                           14
      Secondary orbitals                        23
      Deleted orbitals                           0
      Number of basis functions                 48
--
 
      Type of Fock operator: STANDARD
      Type of 0-order Hamiltonian: STANDARD WITH DEFAULT IPEA
        "IP-EA" denominator shift =      0.25
      The input orbitals and the CI vector will be transformed.
 
--------------------------------------------------------------------------------
 Estimated memory requirements:
  POLY3 :                227658189
  RHS:                     4146972
  SIGMA :                   646704
  PRPCTL:                        0
 Available workspace:    229020647
 
++ CASPT2 computation for group   1
 
********************************************************************************
 Multi-State initialization phase begins for group   1
--------------------------------------------------------------------------------
********************************************************************************
 Compute H0 matrices for state    1
--------------------------------------------------------------------------------
--------------------------------------------------------------------------------
 H0 matrices have been computed.
 
********************************************************************************
  CASPT2 EQUATION SOLUTION
--------------------------------------------------------------------------------
 
  Total nr of CASPT2 parameters:
   Before reduction:      408969
   After  reduction:      408240
 
 The contributions to the second order correlation energy in atomic units.
-----------------------------------------------------------------------------------------------------------------------------
  IT.      VJTU        VJTI        ATVX        AIVX        VJAI        BVAT        BJAT        BJAI        TOTAL       RNORM  
-----------------------------------------------------------------------------------------------------------------------------
   1    -0.006389   -0.029640   -0.024372   -0.182889   -0.019584   -0.080413   -0.023306   -0.044645   -0.411237    0.007040
   2    -0.006419   -0.029671   -0.024572   -0.183238   -0.019587   -0.080524   -0.023299   -0.044656   -0.411966    0.001035
   3    -0.006420   -0.029674   -0.024579   -0.183264   -0.019590   -0.080526   -0.023306   -0.044658   -0.412018    0.000156
   4    -0.006419   -0.029673   -0.024579   -0.183257   -0.019590   -0.080524   -0.023306   -0.044658   -0.412005    0.000026
   5    -0.006419   -0.029673   -0.024579   -0.183256   -0.019590   -0.080523   -0.023306   -0.044658   -0.412003    0.000004
-------------------------------------------------------------------------------------------------------------------
 
  FINAL CASPT2 RESULT:
 
  Correlation energy /Case, /Symm, and sums:
 VJTU     -0.00641929 -0.00641929
 VJTIP    -0.01183311 -0.01183311
 VJTIM    -0.01784000 -0.01784000
 ATVX     -0.02457860 -0.02457860
 AIVX     -0.18325615 -0.18325615
 VJAIP    -0.01428535 -0.01428535
 VJAIM    -0.00530422 -0.00530422
 BVATP    -0.02881888 -0.02881888
 BVATM    -0.05170464 -0.05170464
 BJATP    -0.01270497 -0.01270497
 BJATM    -0.01060092 -0.01060092
 BJAIP    -0.03010306 -0.03010306
 BJAIM    -0.01455456 -0.01455456
 Summed:  -0.41200375 -0.41200375
 
      Reference energy:       -1345.4566893777
      E2 (Non-variational):      -0.4120037491
      E2 (Variational):          -0.4120037581
      Total energy:           -1345.8686931358
      Residual norm:              0.0000006971
      Reference weight:           0.93485
 
      Contributions to the CASPT2 correlation energy
      Active & Virtual Only:         -0.1051021229
      One Inactive Excited:          -0.2129813277
      Two Inactive Excited:          -0.0939202985
 
 
++ Denominators, etc.
----------------------------------------------------------------------------------------------------
 Report on small energy denominators, large coefficients, and large energy contributions.
CASE  SYMM ACTIVE-MIX  NON-ACTIVE INDICES          DENOMINATOR     RHS VALUE       COEFFICIENT     CONTRIBUTION
VJTIM    1  Mu1.0008  In1.010 In1.009               5.43831064     -0.15019847      0.02761697     -0.00414803
ATVX     1  Mu1.0001  Se1.026                       0.13731769      0.00000000     -0.00000002     -0.00000000
ATVX     1  Mu1.0002  Se1.026                       0.13742046      0.00000013     -0.00000110     -0.00000000
ATVX     1  Mu1.0003  Se1.026                       0.19330276     -0.00000000      0.00000000     -0.00000000
ATVX     1  Mu1.0004  Se1.026                       0.19330282     -0.00000000      0.00000000     -0.00000000
ATVX     1  Mu1.0005  Se1.026                       0.29229452     -0.00154513      0.00614599     -0.00000950
--
 
   (Skipping property calculation,
    use PROP keyword to activate)
--
 
  Total CASPT2 energies:
::    CASPT2 Root  1     Total energy:  -1345.86869314
 
  A NEW JOBIPH FILE NAMED 'JOBMIX' IS PREPARED.
********************************************************************************
--- Stop Module: caspt2 at Thu Dec 19 15:22:24 2024 /rc=_RC_ALL_IS_WELL_ ---
*** files: xmldump
    saved to directory /home/grierjones/DDCASPT2/iron_oxo_DDCASPT2/cluster/1.73
--- Module caspt2 spent 5 minutes 29 seconds ---

>>> EXPORT i = B

>>> EXPORT j = P

>>> IF (-FILE GMJ_e2_${i}_${j}.csv)

>>> COPY /tmp/1.73/GMJ_RHS_B_P.csv /home/grierjones/DDCASPT2/iron_oxo_DDCASPT2/cluster/1.73/GMJ_RHS_B_P.csv

>>> COPY /tmp/1.73/GMJ_IVECW_B_P.csv /home/grierjones/DDCASPT2/iron_oxo_DDCASPT2/cluster/1.73/GMJ_IVECW_B_P.csv

>>> COPY /tmp/1.73/GMJ_IVECX_B_P.csv /home/grierjones/DDCASPT2/iron_oxo_DDCASPT2/cluster/1.73/GMJ_IVECX_B_P.csv

>>> COPY /tmp/1.73/GMJ_IVECC2_B_P.csv /home/grierjones/DDCASPT2/iron_oxo_DDCASPT2/cluster/1.73/GMJ_IVECC2_B_P.csv

>>> COPY /tmp/1.73/GMJ_e2_B_P.csv /home/grierjones/DDCASPT2/iron_oxo_DDCASPT2/cluster/1.73/GMJ_e2_B_P.csv

>>> END FOREACH

>>> EXPORT j = M

>>> IF (-FILE GMJ_e2_${i}_${j}.csv)

>>> COPY /tmp/1.73/GMJ_RHS_B_M.csv /home/grierjones/DDCASPT2/iron_oxo_DDCASPT2/cluster/1.73/GMJ_RHS_B_M.csv

>>> COPY /tmp/1.73/GMJ_IVECW_B_M.csv /home/grierjones/DDCASPT2/iron_oxo_DDCASPT2/cluster/1.73/GMJ_IVECW_B_M.csv

>>> COPY /tmp/1.73/GMJ_IVECX_B_M.csv /home/grierjones/DDCASPT2/iron_oxo_DDCASPT2/cluster/1.73/GMJ_IVECX_B_M.csv

>>> COPY /tmp/1.73/GMJ_IVECC2_B_M.csv /home/grierjones/DDCASPT2/iron_oxo_DDCASPT2/cluster/1.73/GMJ_IVECC2_B_M.csv

>>> COPY /tmp/1.73/GMJ_e2_B_M.csv /home/grierjones/DDCASPT2/iron_oxo_DDCASPT2/cluster/1.73/GMJ_e2_B_M.csv

>>> END FOREACH

>>> END FOREACH

>>> EXPORT i = E

>>> EXPORT j = P

>>> IF (-FILE GMJ_e2_${i}_${j}.csv)

>>> COPY /tmp/1.73/GMJ_RHS_E_P.csv /home/grierjones/DDCASPT2/iron_oxo_DDCASPT2/cluster/1.73/GMJ_RHS_E_P.csv

>>> COPY /tmp/1.73/GMJ_IVECW_E_P.csv /home/grierjones/DDCASPT2/iron_oxo_DDCASPT2/cluster/1.73/GMJ_IVECW_E_P.csv

>>> COPY /tmp/1.73/GMJ_IVECX_E_P.csv /home/grierjones/DDCASPT2/iron_oxo_DDCASPT2/cluster/1.73/GMJ_IVECX_E_P.csv

>>> COPY /tmp/1.73/GMJ_IVECC2_E_P.csv /home/grierjones/DDCASPT2/iron_oxo_DDCASPT2/cluster/1.73/GMJ_IVECC2_E_P.csv

>>> COPY /tmp/1.73/GMJ_e2_E_P.csv /home/grierjones/DDCASPT2/iron_oxo_DDCASPT2/cluster/1.73/GMJ_e2_E_P.csv

>>> END FOREACH

>>> EXPORT j = M

>>> IF (-FILE GMJ_e2_${i}_${j}.csv)

>>> COPY /tmp/1.73/GMJ_RHS_E_M.csv /home/grierjones/DDCASPT2/iron_oxo_DDCASPT2/cluster/1.73/GMJ_RHS_E_M.csv

>>> COPY /tmp/1.73/GMJ_IVECW_E_M.csv /home/grierjones/DDCASPT2/iron_oxo_DDCASPT2/cluster/1.73/GMJ_IVECW_E_M.csv

>>> COPY /tmp/1.73/GMJ_IVECX_E_M.csv /home/grierjones/DDCASPT2/iron_oxo_DDCASPT2/cluster/1.73/GMJ_IVECX_E_M.csv

>>> COPY /tmp/1.73/GMJ_IVECC2_E_M.csv /home/grierjones/DDCASPT2/iron_oxo_DDCASPT2/cluster/1.73/GMJ_IVECC2_E_M.csv

>>> COPY /tmp/1.73/GMJ_e2_E_M.csv /home/grierjones/DDCASPT2/iron_oxo_DDCASPT2/cluster/1.73/GMJ_e2_E_M.csv

>>> END FOREACH

>>> END FOREACH

>>> EXPORT i = F

>>> EXPORT j = P

>>> IF (-FILE GMJ_e2_${i}_${j}.csv)

>>> COPY /tmp/1.73/GMJ_RHS_F_P.csv /home/grierjones/DDCASPT2/iron_oxo_DDCASPT2/cluster/1.73/GMJ_RHS_F_P.csv

>>> COPY /tmp/1.73/GMJ_IVECW_F_P.csv /home/grierjones/DDCASPT2/iron_oxo_DDCASPT2/cluster/1.73/GMJ_IVECW_F_P.csv

>>> COPY /tmp/1.73/GMJ_IVECX_F_P.csv /home/grierjones/DDCASPT2/iron_oxo_DDCASPT2/cluster/1.73/GMJ_IVECX_F_P.csv

>>> COPY /tmp/1.73/GMJ_IVECC2_F_P.csv /home/grierjones/DDCASPT2/iron_oxo_DDCASPT2/cluster/1.73/GMJ_IVECC2_F_P.csv

>>> COPY /tmp/1.73/GMJ_e2_F_P.csv /home/grierjones/DDCASPT2/iron_oxo_DDCASPT2/cluster/1.73/GMJ_e2_F_P.csv

>>> END FOREACH

>>> EXPORT j = M

>>> IF (-FILE GMJ_e2_${i}_${j}.csv)

>>> COPY /tmp/1.73/GMJ_RHS_F_M.csv /home/grierjones/DDCASPT2/iron_oxo_DDCASPT2/cluster/1.73/GMJ_RHS_F_M.csv

>>> COPY /tmp/1.73/GMJ_IVECW_F_M.csv /home/grierjones/DDCASPT2/iron_oxo_DDCASPT2/cluster/1.73/GMJ_IVECW_F_M.csv

>>> COPY /tmp/1.73/GMJ_IVECX_F_M.csv /home/grierjones/DDCASPT2/iron_oxo_DDCASPT2/cluster/1.73/GMJ_IVECX_F_M.csv

>>> COPY /tmp/1.73/GMJ_IVECC2_F_M.csv /home/grierjones/DDCASPT2/iron_oxo_DDCASPT2/cluster/1.73/GMJ_IVECC2_F_M.csv

>>> COPY /tmp/1.73/GMJ_e2_F_M.csv /home/grierjones/DDCASPT2/iron_oxo_DDCASPT2/cluster/1.73/GMJ_e2_F_M.csv

>>> END FOREACH

>>> END FOREACH

>>> EXPORT i = G

>>> EXPORT j = P

>>> IF (-FILE GMJ_e2_${i}_${j}.csv)

>>> COPY /tmp/1.73/GMJ_RHS_G_P.csv /home/grierjones/DDCASPT2/iron_oxo_DDCASPT2/cluster/1.73/GMJ_RHS_G_P.csv

>>> COPY /tmp/1.73/GMJ_IVECW_G_P.csv /home/grierjones/DDCASPT2/iron_oxo_DDCASPT2/cluster/1.73/GMJ_IVECW_G_P.csv

>>> COPY /tmp/1.73/GMJ_IVECX_G_P.csv /home/grierjones/DDCASPT2/iron_oxo_DDCASPT2/cluster/1.73/GMJ_IVECX_G_P.csv

>>> COPY /tmp/1.73/GMJ_IVECC2_G_P.csv /home/grierjones/DDCASPT2/iron_oxo_DDCASPT2/cluster/1.73/GMJ_IVECC2_G_P.csv

>>> COPY /tmp/1.73/GMJ_e2_G_P.csv /home/grierjones/DDCASPT2/iron_oxo_DDCASPT2/cluster/1.73/GMJ_e2_G_P.csv

>>> END FOREACH

>>> EXPORT j = M

>>> IF (-FILE GMJ_e2_${i}_${j}.csv)

>>> COPY /tmp/1.73/GMJ_RHS_G_M.csv /home/grierjones/DDCASPT2/iron_oxo_DDCASPT2/cluster/1.73/GMJ_RHS_G_M.csv

>>> COPY /tmp/1.73/GMJ_IVECW_G_M.csv /home/grierjones/DDCASPT2/iron_oxo_DDCASPT2/cluster/1.73/GMJ_IVECW_G_M.csv

>>> COPY /tmp/1.73/GMJ_IVECX_G_M.csv /home/grierjones/DDCASPT2/iron_oxo_DDCASPT2/cluster/1.73/GMJ_IVECX_G_M.csv

>>> COPY /tmp/1.73/GMJ_IVECC2_G_M.csv /home/grierjones/DDCASPT2/iron_oxo_DDCASPT2/cluster/1.73/GMJ_IVECC2_G_M.csv

>>> COPY /tmp/1.73/GMJ_e2_G_M.csv /home/grierjones/DDCASPT2/iron_oxo_DDCASPT2/cluster/1.73/GMJ_e2_G_M.csv

>>> END FOREACH

>>> END FOREACH

>>> EXPORT i = H

>>> EXPORT j = P

>>> IF (-FILE GMJ_e2_${i}_${j}.csv)

>>> COPY /tmp/1.73/GMJ_RHS_H_P.csv /home/grierjones/DDCASPT2/iron_oxo_DDCASPT2/cluster/1.73/GMJ_RHS_H_P.csv

>>> COPY /tmp/1.73/GMJ_IVECW_H_P.csv /home/grierjones/DDCASPT2/iron_oxo_DDCASPT2/cluster/1.73/GMJ_IVECW_H_P.csv

>>> COPY /tmp/1.73/GMJ_IVECX_H_P.csv /home/grierjones/DDCASPT2/iron_oxo_DDCASPT2/cluster/1.73/GMJ_IVECX_H_P.csv

>>> COPY /tmp/1.73/GMJ_IVECC2_H_P.csv /home/grierjones/DDCASPT2/iron_oxo_DDCASPT2/cluster/1.73/GMJ_IVECC2_H_P.csv

>>> COPY /tmp/1.73/GMJ_e2_H_P.csv /home/grierjones/DDCASPT2/iron_oxo_DDCASPT2/cluster/1.73/GMJ_e2_H_P.csv

>>> END FOREACH

>>> EXPORT j = M

>>> IF (-FILE GMJ_e2_${i}_${j}.csv)

>>> COPY /tmp/1.73/GMJ_RHS_H_M.csv /home/grierjones/DDCASPT2/iron_oxo_DDCASPT2/cluster/1.73/GMJ_RHS_H_M.csv

>>> COPY /tmp/1.73/GMJ_IVECW_H_M.csv /home/grierjones/DDCASPT2/iron_oxo_DDCASPT2/cluster/1.73/GMJ_IVECW_H_M.csv

>>> COPY /tmp/1.73/GMJ_IVECX_H_M.csv /home/grierjones/DDCASPT2/iron_oxo_DDCASPT2/cluster/1.73/GMJ_IVECX_H_M.csv

>>> COPY /tmp/1.73/GMJ_IVECC2_H_M.csv /home/grierjones/DDCASPT2/iron_oxo_DDCASPT2/cluster/1.73/GMJ_IVECC2_H_M.csv

>>> COPY /tmp/1.73/GMJ_e2_H_M.csv /home/grierjones/DDCASPT2/iron_oxo_DDCASPT2/cluster/1.73/GMJ_e2_H_M.csv

>>> END FOREACH

>>> END FOREACH

>>> EXPORT i = A

>>> IF (-FILE GMJ_e2_$i.csv)

>>> COPY /tmp/1.73/GMJ_RHS_A.csv /home/grierjones/DDCASPT2/iron_oxo_DDCASPT2/cluster/1.73/GMJ_RHS_A.csv

>>> COPY /tmp/1.73/GMJ_IVECW_A.csv /home/grierjones/DDCASPT2/iron_oxo_DDCASPT2/cluster/1.73/GMJ_IVECW_A.csv

>>> COPY /tmp/1.73/GMJ_IVECX_A.csv /home/grierjones/DDCASPT2/iron_oxo_DDCASPT2/cluster/1.73/GMJ_IVECX_A.csv

>>> COPY /tmp/1.73/GMJ_IVECC2_A.csv /home/grierjones/DDCASPT2/iron_oxo_DDCASPT2/cluster/1.73/GMJ_IVECC2_A.csv

>>> COPY /tmp/1.73/GMJ_e2_A.csv /home/grierjones/DDCASPT2/iron_oxo_DDCASPT2/cluster/1.73/GMJ_e2_A.csv

>>> END FOREACH

>>> EXPORT i = C

>>> IF (-FILE GMJ_e2_$i.csv)

>>> COPY /tmp/1.73/GMJ_RHS_C.csv /home/grierjones/DDCASPT2/iron_oxo_DDCASPT2/cluster/1.73/GMJ_RHS_C.csv

>>> COPY /tmp/1.73/GMJ_IVECW_C.csv /home/grierjones/DDCASPT2/iron_oxo_DDCASPT2/cluster/1.73/GMJ_IVECW_C.csv

>>> COPY /tmp/1.73/GMJ_IVECX_C.csv /home/grierjones/DDCASPT2/iron_oxo_DDCASPT2/cluster/1.73/GMJ_IVECX_C.csv

>>> COPY /tmp/1.73/GMJ_IVECC2_C.csv /home/grierjones/DDCASPT2/iron_oxo_DDCASPT2/cluster/1.73/GMJ_IVECC2_C.csv

>>> COPY /tmp/1.73/GMJ_e2_C.csv /home/grierjones/DDCASPT2/iron_oxo_DDCASPT2/cluster/1.73/GMJ_e2_C.csv

>>> END FOREACH

>>> EXPORT i = D

>>> IF (-FILE GMJ_e2_$i.csv)

>>> COPY /tmp/1.73/GMJ_RHS_D.csv /home/grierjones/DDCASPT2/iron_oxo_DDCASPT2/cluster/1.73/GMJ_RHS_D.csv

>>> COPY /tmp/1.73/GMJ_IVECW_D.csv /home/grierjones/DDCASPT2/iron_oxo_DDCASPT2/cluster/1.73/GMJ_IVECW_D.csv

>>> COPY /tmp/1.73/GMJ_IVECX_D.csv /home/grierjones/DDCASPT2/iron_oxo_DDCASPT2/cluster/1.73/GMJ_IVECX_D.csv

>>> COPY /tmp/1.73/GMJ_IVECC2_D.csv /home/grierjones/DDCASPT2/iron_oxo_DDCASPT2/cluster/1.73/GMJ_IVECC2_D.csv

>>> COPY /tmp/1.73/GMJ_e2_D.csv /home/grierjones/DDCASPT2/iron_oxo_DDCASPT2/cluster/1.73/GMJ_e2_D.csv

>>> END FOREACH

.########################.
.# Non-zero return code #.
.########################.

    Timing: Wall=431.02 User=427.98 System=2.92
************************************
*** WorkDir at /tmp/1.73 cleaned ***
************************************
