[Molden Format]
[N_Atoms]
                     2
[Atoms] (AU)
F1          1      9           0.00000000      0.00000000      0.00000000
O2          2      8           0.00000000      0.00000000      2.07869874
[Charge] (Mulliken)
 -5.154347921691027E-002
  5.154347921688629E-002
[GTO] (AU)
   1
   s  14
  1.031094600E+05  1.713099991E-04
  1.528100700E+04  7.123999962E-04
  3.441539200E+03  2.990479984E-03
  9.670948300E+02  1.164036994E-02
  3.140353400E+02  3.968642979E-02
  1.134423000E+02  1.128546094E-01
  4.464472700E+01  2.473650687E-01
  1.894287400E+01  3.672702681E-01
  8.532743000E+00  2.896286985E-01
  3.919401000E+00  7.786681959E-02
  1.568157000E+00  4.562139976E-03
  6.232900000E-01  2.468879987E-03
  2.408610000E-01  1.106309994E-03
  8.430100000E-02  1.739699991E-04
   s  14
  1.031094600E+05 -4.044999995E-05
  1.528100700E+04 -1.682299998E-04
  3.441539200E+03 -7.084299991E-04
  9.670948300E+02 -2.767999996E-03
  3.140353400E+02 -9.611379987E-03
  1.134423000E+02 -2.833957996E-02
  4.464472700E+01 -6.839343991E-02
  1.894287400E+01 -1.237379298E-01
  8.532743000E+00 -1.512859698E-01
  3.919401000E+00 -9.099909988E-03
  1.568157000E+00  3.716257695E-01
  6.232900000E-01  5.500214393E-01
  2.408610000E-01  2.092318697E-01
  8.430100000E-02  8.074639989E-03
   p   9
  2.453302900E+02  1.024860004E-03
  5.691900500E+01  8.344290032E-03
  1.760456800E+01  4.078927016E-02
  6.274995000E+00  1.351370605E-01
  2.447030000E+00  2.798830811E-01
  9.950600000E-01  3.597966414E-01
  4.039730000E-01  3.055347412E-01
  1.548100000E-01  1.354703905E-01
  5.418400000E-02  2.804449011E-02
 
   2
   s  14
  1.053749500E+05  1.238600013E-04
  1.567924000E+04  5.120100053E-04
  3.534544700E+03  2.152910022E-03
  9.873651600E+02  8.528440089E-03
  3.159787500E+02  3.018049031E-02
  1.116542800E+02  9.099702095E-02
  4.269945100E+01  2.177936423E-01
  1.739559600E+01  3.686245738E-01
  7.438309000E+00  3.366707335E-01
  3.222862000E+00  9.657630101E-02
  1.253877000E+00  2.144520022E-03
  4.951550000E-01  1.194350012E-03
  1.916650000E-01  5.390200056E-04
  6.708300000E-02  2.103400022E-04
   s  14
  1.053749500E+05 -2.815000008E-05
  1.567924000E+04 -1.163000003E-04
  3.534544700E+03 -4.909200013E-04
  9.873651600E+02 -1.946160005E-03
  3.159787500E+02 -7.005300019E-03
  1.116542800E+02 -2.167814006E-02
  4.269945100E+01 -5.641213015E-02
  1.739559600E+01 -1.127053003E-01
  7.438309000E+00 -1.589119704E-01
  3.222862000E+00 -3.355083009E-02
  1.253877000E+00  3.531902810E-01
  4.951550000E-01  5.534199315E-01
  1.916650000E-01  2.301839106E-01
  6.708300000E-02  1.127267003E-02
   p   9
  2.000000000E+02  9.173000030E-04
  4.653336700E+01  7.377140024E-03
  1.462180900E+01  3.483515011E-02
  5.313064000E+00  1.144397004E-01
  2.102525000E+00  2.554966408E-01
  8.502230000E-01  3.722557412E-01
  3.375970000E-01  3.323314911E-01
  1.288920000E-01  1.400847905E-01
  4.511200000E-02  2.395784008E-02
 
[MO]
Sym=     1a  
Ene=   -26.5510
Spin= Alpha
Occup=    1.00000
   1         1.00006762
   2        -0.00217579
   3        -0.00000000
   4        -0.00000000
   5         0.00203378
   6        -0.00017202
   7        -0.00115083
   8        -0.00000000
   9        -0.00000000
  10         0.00059864
Sym=     1a  
Ene=   -26.5400
Spin= Beta
Occup=    1.00000
   1         1.00005307
   2        -0.00262791
   3        -0.00000000
   4        -0.00000000
   5         0.00198070
   6        -0.00012278
   7        -0.00097062
   8        -0.00000000
   9        -0.00000000
  10         0.00046929
Sym=     2a  
Ene=   -20.8690
Spin= Alpha
Occup=    1.00000
   1        -0.00034771
   2        -0.00161503
   3         0.00000000
   4         0.00000000
   5        -0.00064758
   6         1.00008323
   7         0.00166019
   8        -0.00000000
   9         0.00000000
  10        -0.00274296
Sym=     2a  
Ene=   -20.8340
Spin= Beta
Occup=    1.00000
   1        -0.00029825
   2        -0.00099697
   3         0.00000000
   4         0.00000000
   5        -0.00023895
   6         1.00004083
   7        -0.00037477
   8         0.00000000
   9         0.00000000
  10        -0.00242402
Sym=     3a  
Ene=    -2.0389
Spin= Alpha
Occup=    1.00000
   1        -0.02086199
   2         0.67320002
   3        -0.00000000
   4         0.00000000
   5         0.20243335
   6        -0.03262975
   7         0.37105701
   8        -0.00000000
   9         0.00000000
  10        -0.18473954
Sym=     3a  
Ene=    -1.9931
Spin= Beta
Occup=    1.00000
   1        -0.01916140
   2         0.70510978
   3        -0.00000000
   4         0.00000000
   5         0.21148455
   6        -0.03332967
   7         0.32006923
   8        -0.00000000
   9        -0.00000000
  10        -0.18768809
Sym=     4a  
Ene=    -1.3122
Spin= Alpha
Occup=    1.00000
   1        -0.02379975
   2        -0.69553144
   3        -0.00000000
   4         0.00000000
   5         0.28660722
   6         0.00143425
   7         0.77066154
   8        -0.00000000
   9         0.00000000
  10         0.03625445
Sym=     4a  
Ene=    -1.2164
Spin= Beta
Occup=    1.00000
   1        -0.02410748
   2        -0.66321979
   3        -0.00000000
   4         0.00000000
   5         0.38371791
   6        -0.00430919
   7         0.71195400
   8        -0.00000000
   9         0.00000000
  10         0.00621269
Sym=     5a  
Ene=    -0.9831
Spin= Alpha
Occup=    1.00000
   1         0.00000000
   2         0.00000000
   3        -0.44413218
   4         0.58575192
   5         0.00000000
   6        -0.00000000
   7        -0.00000000
   8        -0.31281505
   9         0.41256190
  10        -0.00000000
Sym=     5a  
Ene=    -0.9312
Spin= Beta
Occup=    1.00000
   1         0.00000000
   2         0.00000000
   3         0.63738974
   4         0.48328530
   5        -0.00000000
   6         0.00000000
   7         0.00000000
   8         0.34398517
   9         0.26081840
  10         0.00000000
Sym=     6a  
Ene=    -0.9465
Spin= Alpha
Occup=    1.00000
   1         0.00000000
   2         0.00000000
   3         0.62034527
   4         0.47036174
   5        -0.00000000
   6         0.00000000
   7         0.00000000
   8         0.36780105
   9         0.27887622
  10         0.00000000
Sym=     6a  
Ene=    -0.8328
Spin= Beta
Occup=    1.00000
   1        -0.00000000
   2        -0.00000000
   3        -0.53521012
   4         0.70587175
   5         0.00000000
   6        -0.00000000
   7        -0.00000000
   8        -0.17632008
   9         0.23254300
  10        -0.00000000
Sym=     7a  
Ene=    -0.8528
Spin= Alpha
Occup=    1.00000
   1         0.02064849
   2         0.23607151
   3        -0.00000000
   4        -0.00000000
   5        -0.67032556
   6         0.03575220
   7         0.52326519
   8        -0.00000000
   9         0.00000000
  10         0.58438331
Sym=     7a  
Ene=    -0.8160
Spin= Beta
Occup=    1.00000
   1        -0.01816072
   2        -0.18904021
   3         0.00000000
   4        -0.00000000
   5         0.63362884
   6        -0.03551776
   7        -0.59849405
   8         0.00000000
   9        -0.00000000
  10        -0.58366115
Sym=     8a  
Ene=    -0.6364
Spin= Alpha
Occup=    1.00000
   1        -0.00000000
   2        -0.00000000
   3         0.43872149
   4        -0.57861594
   5         0.00000000
   6        -0.00000000
   7         0.00000000
   8        -0.54025613
   9         0.71252677
  10        -0.00000000
Sym=     8a  
Ene=    -0.5470
Spin= Beta
Occup=    1.00000
   1        -0.00000000
   2        -0.00000000
   3        -0.52118714
   4        -0.39517750
   5         0.00000000
   6        -0.00000000
   7        -0.00000000
   8         0.74804807
   9         0.56718929
  10        -0.00000000
Sym=     9a  
Ene=    -0.5788
Spin= Alpha
Occup=    1.00000
   1        -0.00000000
   2        -0.00000000
   3        -0.54136260
   4        -0.41047505
   5         0.00000000
   6        -0.00000000
   7        -0.00000000
   8         0.73663024
   9         0.55853200
  10        -0.00000000
Sym=     9a  
Ene=     0.0861
Spin= Beta
Occup=    0.00000
   1        -0.00000000
   2        -0.00000000
   3         0.32137215
   4        -0.42384760
   5        -0.00000000
   6         0.00000000
   7         0.00000000
   8        -0.59886657
   9         0.78982623
  10        -0.00000000
Sym=    10a  
Ene=     0.5163
Spin= Alpha
Occup=    0.00000
   1         0.08193534
   2         0.70649429
   3        -0.00000000
   4        -0.00000000
   5         0.88887287
   6        -0.07325513
   7        -0.66806590
   8        -0.00000000
   9         0.00000000
  10         1.01297160
Sym=    10a  
Ene=     0.5608
Spin= Beta
Occup=    0.00000
   1         0.08302047
   2         0.72045065
   3         0.00000000
   4        -0.00000000
   5         0.87698587
   6        -0.07351985
   7        -0.69584918
   8        -0.00000000
   9         0.00000000
  10         1.01347640
