[Molden Format]
[N_Atoms]
                     2
[Atoms] (AU)
B1          1      5           0.00000000      0.00000000      0.00000000
C2          2      6           0.00000000      0.00000000      3.77945225
[Charge] (Mulliken)
  9.692901108806495E-002
 -9.692901108813690E-002
[GTO] (AU)
   1
   s  14
  3.336021700E+04  1.039699991E-04
  4.972095200E+03  5.254399956E-04
  1.125641700E+03  2.509059979E-03
  3.164913600E+02  1.031887991E-02
  1.020072600E+02  3.636632969E-02
  3.629587300E+01  1.064607991E-01
  1.397141000E+01  2.403999880E-01
  5.741156000E+00  3.748581168E-01
  2.494268000E+00  3.100066974E-01
  1.114202000E+00  7.922455933E-02
  4.215490000E-01 -4.947589958E-03
  1.696330000E-01 -7.737119935E-03
  6.853500000E-02 -1.501079987E-03
  2.398700000E-02 -1.333299989E-04
   s  14
  3.336021700E+04 -2.030000008E-05
  4.972095200E+03 -1.025700004E-04
  1.125641700E+03 -4.911300020E-04
  3.164913600E+02 -2.026570008E-03
  1.020072600E+02 -7.261010030E-03
  3.629587300E+01 -2.197722009E-02
  1.397141000E+01 -5.408428022E-02
  5.741156000E+00 -1.022402604E-01
  2.494268000E+00 -1.423595206E-01
  1.114202000E+00 -4.658690019E-02
  4.215490000E-01  3.799402916E-01
  1.696330000E-01  5.890463624E-01
  6.853500000E-02  1.749075107E-01
  2.398700000E-02 -1.142030005E-03
   p   9
  5.500000000E+01  1.229800005E-03
  1.336610100E+01  8.827380035E-03
  4.135394000E+00  3.843340015E-02
  1.481256000E+00  1.150031805E-01
  6.021360000E-01  2.733674011E-01
  2.556360000E-01  4.061972116E-01
  1.111510000E-01  3.014967912E-01
  4.764800000E-02  7.684809030E-02
  1.667700000E-02 -8.170000032E-06
 
   2
   s  14
  5.055750100E+04  1.128874000E-04
  7.524785600E+03  5.295373000E-04
  1.694327600E+03  2.450038300E-03
  4.728227900E+02  1.005398470E-02
  1.517107500E+02  3.545398060E-02
  5.391874600E+01  1.044071086E-01
  2.065931100E+01  2.412894918E-01
  8.383976000E+00  3.834225483E-01
  3.577015000E+00  3.078514393E-01
  1.547118000E+00  6.872442990E-02
  6.130130000E-01  2.224445000E-04
  2.460680000E-01  1.976748900E-03
  9.908700000E-02  2.057859400E-03
  3.468000000E-02  4.182020000E-04
   s  14
  5.055750100E+04 -2.507420000E-05
  7.524785600E+03 -1.175945000E-04
  1.694327600E+03 -5.456275000E-04
  4.728227900E+02 -2.245077100E-03
  1.517107500E+02 -8.043471800E-03
  5.391874600E+01 -2.442588710E-02
  2.065931100E+01 -6.136791180E-02
  8.383976000E+00 -1.177767835E-01
  3.577015000E+00 -1.550487783E-01
  1.547118000E+00 -1.933316860E-02
  6.130130000E-01  3.996930678E-01
  2.460680000E-01  5.589420949E-01
  9.908700000E-02  1.711195023E-01
  3.468000000E-02  7.456244600E-03
   p   9
  8.333315500E+01  1.344656000E-03
  1.955761100E+01  1.023555500E-02
  6.080365000E+00  4.520067100E-02
  2.179317000E+00  1.410756198E-01
  8.651500000E-01  3.047388085E-01
  3.619440000E-01  3.995281011E-01
  1.547400000E-01  2.719163432E-01
  6.542900000E-02  5.857669330E-02
  2.290000000E-02 -1.263813000E-04
 
[MO]
Sym=     1a  
Ene=   -11.2610
Spin= Alpha
Occup=    1.00000
   1        -0.00013946
   2        -0.00108617
   3        -0.00000000
   4         0.00000000
   5        -0.00098914
   6         1.00006233
   7         0.00120872
   8         0.00000000
   9        -0.00000000
  10        -0.00044200
Sym=     1a  
Ene=   -11.1990
Spin= Beta
Occup=    1.00000
   1        -0.00007530
   2        -0.00048741
   3        -0.00000000
   4         0.00000000
   5        -0.00022676
   6         1.00000859
   7        -0.00439709
   8         0.00000000
   9        -0.00000000
  10        -0.00053858
Sym=     2a  
Ene=    -7.6837
Spin= Alpha
Occup=    1.00000
   1         0.99990920
   2         0.01338801
   3         0.00000000
   4         0.00000000
   5         0.00053995
   6        -0.00007500
   7        -0.00012895
   8        -0.00000000
   9        -0.00000000
  10        -0.00008671
Sym=     2a  
Ene=    -7.7143
Spin= Beta
Occup=    1.00000
   1         0.99988271
   2         0.01592032
   3        -0.00000000
   4        -0.00000000
   5        -0.00019289
   6        -0.00008047
   7        -0.00018898
   8        -0.00000000
   9        -0.00000000
  10         0.00017758
Sym=     3a  
Ene=    -0.8456
Spin= Alpha
Occup=    1.00000
   1         0.01391576
   2        -0.14992368
   3        -0.00000000
   4        -0.00000000
   5        -0.09037321
   6         0.00723902
   7        -0.92304589
   8         0.00000000
   9         0.00000000
  10        -0.07612959
Sym=     3a  
Ene=    -0.6473
Spin= Beta
Occup=    1.00000
   1        -0.02475991
   2         0.72562380
   3         0.00000000
   4        -0.00000000
   5        -0.03071132
   6        -0.01017688
   7         0.48330968
   8         0.00000000
   9        -0.00000000
  10        -0.15301214
Sym=     4a  
Ene=    -0.4564
Spin= Alpha
Occup=    1.00000
   1        -0.02178721
   2         0.69344648
   3         0.00000000
   4        -0.00000000
   5         0.25662454
   6        -0.02383132
   7        -0.33696014
   8        -0.00000000
   9        -0.00000000
  10        -0.49638791
Sym=     4a  
Ene=    -0.4798
Spin= Beta
Occup=    1.00000
   1         0.00541227
   2         0.61735507
   3        -0.00000000
   4        -0.00000000
   5        -0.42758500
   6         0.00271934
   7        -0.66015057
   8        -0.00000000
   9         0.00000000
  10         0.13079758
Sym=     5a  
Ene=    -0.4106
Spin= Alpha
Occup=    1.00000
   1        -0.00000000
   2         0.00000000
   3         0.04310274
   4         0.10570203
   5         0.00000000
   6        -0.00000000
   7        -0.00000000
   8         0.36815002
   9         0.90282432
  10        -0.00000000
Sym=     5a  
Ene=    -0.3356
Spin= Beta
Occup=    1.00000
   1         0.00000000
   2         0.00000000
   3         0.90943392
   4        -0.37084527
   5        -0.00000000
   6         0.00000000
   7        -0.00000000
   8         0.08043516
   9        -0.03279952
  10         0.00000000
Sym=     6a  
Ene=    -0.4075
Spin= Alpha
Occup=    1.00000
   1         0.00000000
   2        -0.00000000
   3         0.08343839
   4        -0.03402417
   5        -0.00000000
   6         0.00000000
   7         0.00000000
   8         0.90868393
   9        -0.37053943
  10         0.00000000
Sym=     6a  
Ene=     0.0575
Spin= Beta
Occup=    0.00000
   1        -0.00000000
   2         0.00000000
   3         0.35415563
   4         0.86850547
   5         0.00000000
   6        -0.00000000
   7        -0.00000000
   8         0.08532469
   9         0.20924406
  10        -0.00000000
Sym=     7a  
Ene=     0.0450
Spin= Alpha
Occup=    0.00000
   1         0.01138012
   2         0.72942396
   3         0.00000000
   4        -0.00000000
   5        -0.48968857
   6         0.00612106
   7        -0.07149674
   8        -0.00000000
   9        -0.00000000
  10         0.55415795
Sym=     7a  
Ene=     0.0820
Spin= Beta
Occup=    0.00000
   1        -0.00833042
   2         0.16334686
   3        -0.00000000
   4        -0.00000000
   5         0.68711882
   6        -0.03396960
   7        -0.65923632
   8        -0.00000000
   9        -0.00000000
  10        -0.46123600
Sym=     8a  
Ene=     0.1387
Spin= Alpha
Occup=    0.00000
   1         0.00000000
   2         0.00000000
   3         0.38029017
   4         0.93259591
   5         0.00000000
   6        -0.00000000
   7        -0.00000000
   8        -0.10461365
   9        -0.25654688
  10         0.00000000
Sym=     8a  
Ene=     0.2677
Spin= Beta
Occup=    0.00000
   1        -0.00000000
   2        -0.00000000
   3        -0.23203017
   4         0.09461632
   5        -0.00000000
   6         0.00000000
   7        -0.00000000
   8         0.93511402
   9        -0.38131700
  10        -0.00000000
Sym=     9a  
Ene=     0.1874
Spin= Alpha
Occup=    0.00000
   1         0.00000000
   2        -0.00000000
   3         0.93485083
   4        -0.38120968
   5         0.00000000
   6        -0.00000000
   7        -0.00000000
   8        -0.23495014
   9         0.09580701
  10         0.00000000
Sym=     9a  
Ene=     0.2818
Spin= Beta
Occup=    0.00000
   1        -0.00000000
   2        -0.00000000
   3        -0.14509393
   4        -0.35581778
   5        -0.00000000
   6         0.00000000
   7         0.00000000
   8         0.37309269
   9         0.91494534
  10        -0.00000000
Sym=    10a  
Ene=     0.3518
Spin= Alpha
Occup=    0.00000
   1         0.03151566
   2         0.40469197
   3        -0.00000000
   4        -0.00000000
   5         0.98139910
   6        -0.04832923
   7        -0.52908901
   8         0.00000000
   9         0.00000000
  10         0.81542836
Sym=    10a  
Ene=     0.4011
Spin= Beta
Occup=    0.00000
   1         0.03364998
   2         0.51455552
   3        -0.00000000
   4        -0.00000000
   5         0.78807320
   6        -0.04284974
   7        -0.38289082
   8         0.00000000
   9         0.00000000
  10         0.98536877
