[Molden Format]
[N_Atoms]
                     2
[Atoms] (AU)
B1          1      5           0.00000000      0.00000000      0.00000000
C2          2      6           0.00000000      0.00000000      3.77945225
[Charge] (Mulliken)
  0.137600822777185     
 -0.137600822777229     
[GTO] (AU)
   1
   s  14
  3.336021700E+04  1.039699991E-04
  4.972095200E+03  5.254399956E-04
  1.125641700E+03  2.509059979E-03
  3.164913600E+02  1.031887991E-02
  1.020072600E+02  3.636632969E-02
  3.629587300E+01  1.064607991E-01
  1.397141000E+01  2.403999880E-01
  5.741156000E+00  3.748581168E-01
  2.494268000E+00  3.100066974E-01
  1.114202000E+00  7.922455933E-02
  4.215490000E-01 -4.947589958E-03
  1.696330000E-01 -7.737119935E-03
  6.853500000E-02 -1.501079987E-03
  2.398700000E-02 -1.333299989E-04
   s  14
  3.336021700E+04 -2.030000008E-05
  4.972095200E+03 -1.025700004E-04
  1.125641700E+03 -4.911300020E-04
  3.164913600E+02 -2.026570008E-03
  1.020072600E+02 -7.261010030E-03
  3.629587300E+01 -2.197722009E-02
  1.397141000E+01 -5.408428022E-02
  5.741156000E+00 -1.022402604E-01
  2.494268000E+00 -1.423595206E-01
  1.114202000E+00 -4.658690019E-02
  4.215490000E-01  3.799402916E-01
  1.696330000E-01  5.890463624E-01
  6.853500000E-02  1.749075107E-01
  2.398700000E-02 -1.142030005E-03
   p   9
  5.500000000E+01  1.229800005E-03
  1.336610100E+01  8.827380035E-03
  4.135394000E+00  3.843340015E-02
  1.481256000E+00  1.150031805E-01
  6.021360000E-01  2.733674011E-01
  2.556360000E-01  4.061972116E-01
  1.111510000E-01  3.014967912E-01
  4.764800000E-02  7.684809030E-02
  1.667700000E-02 -8.170000032E-06
 
   2
   s  14
  5.055750100E+04  1.128874000E-04
  7.524785600E+03  5.295373000E-04
  1.694327600E+03  2.450038300E-03
  4.728227900E+02  1.005398470E-02
  1.517107500E+02  3.545398060E-02
  5.391874600E+01  1.044071086E-01
  2.065931100E+01  2.412894918E-01
  8.383976000E+00  3.834225483E-01
  3.577015000E+00  3.078514393E-01
  1.547118000E+00  6.872442990E-02
  6.130130000E-01  2.224445000E-04
  2.460680000E-01  1.976748900E-03
  9.908700000E-02  2.057859400E-03
  3.468000000E-02  4.182020000E-04
   s  14
  5.055750100E+04 -2.507420000E-05
  7.524785600E+03 -1.175945000E-04
  1.694327600E+03 -5.456275000E-04
  4.728227900E+02 -2.245077100E-03
  1.517107500E+02 -8.043471800E-03
  5.391874600E+01 -2.442588710E-02
  2.065931100E+01 -6.136791180E-02
  8.383976000E+00 -1.177767835E-01
  3.577015000E+00 -1.550487783E-01
  1.547118000E+00 -1.933316860E-02
  6.130130000E-01  3.996930678E-01
  2.460680000E-01  5.589420949E-01
  9.908700000E-02  1.711195023E-01
  3.468000000E-02  7.456244600E-03
   p   9
  8.333315500E+01  1.344656000E-03
  1.955761100E+01  1.023555500E-02
  6.080365000E+00  4.520067100E-02
  2.179317000E+00  1.410756198E-01
  8.651500000E-01  3.047388085E-01
  3.619440000E-01  3.995281011E-01
  1.547400000E-01  2.719163432E-01
  6.542900000E-02  5.857669330E-02
  2.290000000E-02 -1.263813000E-04
 
[MO]
Sym=     1a  
Ene=   -11.2270
Spin= Alpha
Occup=    2.00000
   1        -0.00011076
   2        -0.00093272
   3        -0.00000001
   4         0.00000002
   5        -0.00060139
   6         1.00004065
   7        -0.00184124
   8         0.00000001
   9         0.00000002
  10        -0.00117341
Sym=     2a  
Ene=    -7.7149
Spin= Alpha
Occup=    2.00000
   1         0.99990974
   2         0.01398033
   3        -0.00000003
   4         0.00000013
   5         0.00109769
   6        -0.00011829
   7        -0.00030496
   8         0.00000000
   9        -0.00000000
  10         0.00008759
Sym=     3a  
Ene=    -0.7317
Spin= Alpha
Occup=    2.00000
   1        -0.02077345
   2         0.34082857
   3        -0.00000178
   4         0.00000636
   5         0.12672492
   6        -0.00994761
   7         0.79992903
   8         0.00000035
   9         0.00000113
  10        -0.08839537
Sym=     4a  
Ene=    -0.4747
Spin= Alpha
Occup=    2.00000
   1         0.00935927
   2        -0.89755754
   3        -0.00000448
   4         0.00001064
   5         0.13786390
   6         0.01270887
   7         0.51033495
   8        -0.00000417
   9        -0.00000213
  10         0.14445328
Sym=     5a  
Ene=    -0.2881
Spin= Alpha
Occup=    2.00000
   1         0.00000035
   2         0.00000987
   3        -0.35536593
   4        -0.12562519
   5        -0.00001368
   6         0.00000041
   7         0.00000484
   8        -0.81719138
   9        -0.28888483
  10         0.00001511
Sym=     6a  
Ene=     0.3153
Spin= Alpha
Occup=    0.00000
   1        -0.03060947
   2        -0.46419099
   3         0.03738757
   4        -0.10574822
   5        -0.90157366
   6         0.04630453
   7         0.49103477
   8         0.06795302
   9        -0.19223397
  10        -0.84047911
Sym=     7a  
Ene=     0.0003
Spin= Alpha
Occup=    1.00000
   1         0.01650541
   2         0.21857052
   3         0.00003243
   4        -0.00007016
   5        -0.61291335
   6         0.02216869
   7         0.30548340
   8         0.00003122
   9        -0.00002687
  10         0.66540226
Sym=     8a  
Ene=     0.0600
Spin= Alpha
Occup=    0.00000
   1         0.00683147
   2         0.10359372
   3         0.27558004
   4        -0.77956595
   5         0.20131597
   6        -0.01033846
   7        -0.10963069
   8         0.13381044
   9        -0.37851354
  10         0.18755879
Sym=     9a  
Ene=     0.0983
Spin= Alpha
Occup=    0.00000
   1        -0.00000018
   2        -0.00000400
   3        -0.88711576
   4        -0.31360088
   5        -0.00000415
   6         0.00000024
   7         0.00000307
   8         0.49543493
   9         0.17514148
  10        -0.00000569
Sym=    10a  
Ene=     0.1929
Spin= Alpha
Occup=    0.00000
   1        -0.00385174
   2        -0.05841642
   3         0.19179419
   4        -0.54254359
   5        -0.11344889
   6         0.00582681
   7         0.06179377
   8        -0.30266506
   9         0.85617237
  10        -0.10576310
