[Molden Format]
[N_Atoms]
                     2
[Atoms] (AU)
BE1         1      4           0.00000000      0.00000000      0.00000000
BE2         2      4           0.00000000      0.00000000      1.70075351
[Charge] (Mulliken)
  0.000000000000000E+000
  0.000000000000000E+000
[GTO] (AU)
   1
   s  14
  2.262859900E+04  8.443999941E-05
  3.372318100E+03  4.601499968E-04
  7.603504000E+02  2.285389984E-03
  2.117404800E+02  9.648129932E-03
  6.722346800E+01  3.494469975E-02
  2.337217700E+01  1.061099893E-01
  8.721373000E+00  2.458240383E-01
  3.468091000E+00  3.862428773E-01
  1.452144000E+00  3.105526078E-01
  6.086150000E-01  6.415933955E-02
  2.576860000E-01 -2.265049984E-03
  1.041760000E-01 -5.217499963E-04
  4.242700000E-02 -8.757499938E-04
  1.484900000E-02  1.242199991E-04
   s  14
  2.262859900E+04 -1.586999994E-05
  3.372318100E+03 -8.656999968E-05
  7.603504000E+02 -4.302199984E-04
  2.117404800E+02 -1.825079993E-03
  6.722346800E+01 -6.682749976E-03
  2.337217700E+01 -2.095119992E-02
  8.721373000E+00 -5.200308981E-02
  3.468091000E+00 -9.849176964E-02
  1.452144000E+00 -1.355800695E-01
  6.086150000E-01 -6.429875976E-02
  2.576860000E-01  3.125414989E-01
  1.041760000E-01  6.270468577E-01
  4.242700000E-02  2.110231492E-01
  1.484900000E-02 -4.104669985E-03
   p   9
  3.371018400E+01  1.069960000E-03
  8.057649500E+00  6.828550001E-03
  2.836471400E+00  2.119065000E-02
  1.099965700E+00  5.843696001E-02
  4.433964000E-01  2.020920800E-01
  1.822264000E-01  4.582953101E-01
  7.572410000E-02  3.691239601E-01
  3.168540000E-02  6.611471001E-02
  1.108990000E-02  1.405160000E-03
 
   2
   s  14
  2.262859900E+04  8.443999941E-05
  3.372318100E+03  4.601499968E-04
  7.603504000E+02  2.285389984E-03
  2.117404800E+02  9.648129932E-03
  6.722346800E+01  3.494469975E-02
  2.337217700E+01  1.061099893E-01
  8.721373000E+00  2.458240383E-01
  3.468091000E+00  3.862428773E-01
  1.452144000E+00  3.105526078E-01
  6.086150000E-01  6.415933955E-02
  2.576860000E-01 -2.265049984E-03
  1.041760000E-01 -5.217499963E-04
  4.242700000E-02 -8.757499938E-04
  1.484900000E-02  1.242199991E-04
   s  14
  2.262859900E+04 -1.586999994E-05
  3.372318100E+03 -8.656999968E-05
  7.603504000E+02 -4.302199984E-04
  2.117404800E+02 -1.825079993E-03
  6.722346800E+01 -6.682749976E-03
  2.337217700E+01 -2.095119992E-02
  8.721373000E+00 -5.200308981E-02
  3.468091000E+00 -9.849176964E-02
  1.452144000E+00 -1.355800695E-01
  6.086150000E-01 -6.429875976E-02
  2.576860000E-01  3.125414989E-01
  1.041760000E-01  6.270468577E-01
  4.242700000E-02  2.110231492E-01
  1.484900000E-02 -4.104669985E-03
   p   9
  3.371018400E+01  1.069960000E-03
  8.057649500E+00  6.828550001E-03
  2.836471400E+00  2.119065000E-02
  1.099965700E+00  5.843696001E-02
  4.433964000E-01  2.020920800E-01
  1.822264000E-01  4.582953101E-01
  7.572410000E-02  3.691239601E-01
  3.168540000E-02  6.611471001E-02
  1.108990000E-02  1.405160000E-03
 
[MO]
Sym=     1a  
Ene=    -4.9642
Spin= Alpha
Occup=    2.00000
   1         0.68951660
   2         0.00921767
   3         0.00000000
   4         0.00000000
   5        -0.00000000
   6         0.68951660
   7         0.00921767
   8        -0.00000000
   9        -0.00000000
  10        -0.00000000
Sym=     2a  
Ene=    -4.5261
Spin= Alpha
Occup=    2.00000
   1        -0.72214453
   2         0.00951284
   3        -0.00000000
   4        -0.00000000
   5        -0.00000000
   6         0.72214453
   7        -0.00951284
   8         0.00000000
   9         0.00000000
  10        -0.00000000
Sym=     3a  
Ene=    -0.5489
Spin= Alpha
Occup=    2.00000
   1        -0.10843552
   2         0.53005440
   3         0.00000000
   4        -0.00000000
   5         0.00000000
   6        -0.10843552
   7         0.53005440
   8        -0.00000000
   9         0.00000000
  10         0.00000000
Sym=     4a  
Ene=    -0.0458
Spin= Alpha
Occup=    2.00000
   1        -0.37012114
   2        -1.83604288
   3         0.00000000
   4        -0.00000000
   5         0.00000000
   6         0.37012114
   7         1.83604288
   8        -0.00000000
   9        -0.00000000
  10         0.00000000
Sym=     5a  
Ene=     3.3967
Spin= Alpha
Occup=    0.00000
   1        -0.00000000
   2        -0.00000000
   3         0.00000000
   4         0.52871485
   5        -0.00000000
   6         0.00000000
   7         0.00000000
   8        -0.00000000
   9         0.52871485
  10        -0.00000000
Sym=     6a  
Ene=     3.3967
Spin= Alpha
Occup=    0.00000
   1        -0.00000000
   2        -0.00000000
   3         0.52871485
   4        -0.00000000
   5        -0.00000000
   6         0.00000000
   7         0.00000000
   8         0.52871485
   9         0.00000000
  10        -0.00000000
Sym=     7a  
Ene=     3.8615
Spin= Alpha
Occup=    0.00000
   1        -0.00000000
   2        -0.00000000
   3        -0.00000000
   4        -1.53812185
   5         0.00000000
   6         0.00000000
   7         0.00000000
   8         0.00000000
   9         1.53812185
  10        -0.00000000
Sym=     8a  
Ene=     3.8615
Spin= Alpha
Occup=    0.00000
   1        -0.00000000
   2        -0.00000000
   3        -1.53812185
   4         0.00000000
   5        -0.00000000
   6         0.00000000
   7         0.00000000
   8         1.53812185
   9        -0.00000000
  10        -0.00000000
Sym=     9a  
Ene=     4.3294
Spin= Alpha
Occup=    0.00000
   1         0.25669064
   2         0.20428726
   3        -0.00000000
   4        -0.00000000
   5        -1.08690148
   6         0.25669064
   7         0.20428726
   8        -0.00000000
   9         0.00000000
  10         1.08690148
Sym=    10a  
Ene=    12.1310
Spin= Alpha
Occup=    0.00000
   1        -3.38641662
   2       -11.32577268
   3         0.00000000
   4         0.00000000
   5        -3.79805628
   6         3.38641662
   7        11.32577268
   8        -0.00000000
   9        -0.00000000
  10        -3.79805628
