[Molden Format]
[N_Atoms]
                     2
[Atoms] (AU)
BE1         1      4           0.00000000      0.00000000      0.00000000
BE2         2      4           0.00000000      0.00000000      1.70075351
[Charge] (Mulliken)
  0.999999999996802     
   1.00000000000319     
[GTO] (AU)
   1
   s  14
  2.262859900E+04  8.443999941E-05
  3.372318100E+03  4.601499968E-04
  7.603504000E+02  2.285389984E-03
  2.117404800E+02  9.648129932E-03
  6.722346800E+01  3.494469975E-02
  2.337217700E+01  1.061099893E-01
  8.721373000E+00  2.458240383E-01
  3.468091000E+00  3.862428773E-01
  1.452144000E+00  3.105526078E-01
  6.086150000E-01  6.415933955E-02
  2.576860000E-01 -2.265049984E-03
  1.041760000E-01 -5.217499963E-04
  4.242700000E-02 -8.757499938E-04
  1.484900000E-02  1.242199991E-04
   s  14
  2.262859900E+04 -1.586999994E-05
  3.372318100E+03 -8.656999968E-05
  7.603504000E+02 -4.302199984E-04
  2.117404800E+02 -1.825079993E-03
  6.722346800E+01 -6.682749976E-03
  2.337217700E+01 -2.095119992E-02
  8.721373000E+00 -5.200308981E-02
  3.468091000E+00 -9.849176964E-02
  1.452144000E+00 -1.355800695E-01
  6.086150000E-01 -6.429875976E-02
  2.576860000E-01  3.125414989E-01
  1.041760000E-01  6.270468577E-01
  4.242700000E-02  2.110231492E-01
  1.484900000E-02 -4.104669985E-03
   p   9
  3.371018400E+01  1.069960000E-03
  8.057649500E+00  6.828550001E-03
  2.836471400E+00  2.119065000E-02
  1.099965700E+00  5.843696001E-02
  4.433964000E-01  2.020920800E-01
  1.822264000E-01  4.582953101E-01
  7.572410000E-02  3.691239601E-01
  3.168540000E-02  6.611471001E-02
  1.108990000E-02  1.405160000E-03
 
   2
   s  14
  2.262859900E+04  8.443999941E-05
  3.372318100E+03  4.601499968E-04
  7.603504000E+02  2.285389984E-03
  2.117404800E+02  9.648129932E-03
  6.722346800E+01  3.494469975E-02
  2.337217700E+01  1.061099893E-01
  8.721373000E+00  2.458240383E-01
  3.468091000E+00  3.862428773E-01
  1.452144000E+00  3.105526078E-01
  6.086150000E-01  6.415933955E-02
  2.576860000E-01 -2.265049984E-03
  1.041760000E-01 -5.217499963E-04
  4.242700000E-02 -8.757499938E-04
  1.484900000E-02  1.242199991E-04
   s  14
  2.262859900E+04 -1.586999994E-05
  3.372318100E+03 -8.656999968E-05
  7.603504000E+02 -4.302199984E-04
  2.117404800E+02 -1.825079993E-03
  6.722346800E+01 -6.682749976E-03
  2.337217700E+01 -2.095119992E-02
  8.721373000E+00 -5.200308981E-02
  3.468091000E+00 -9.849176964E-02
  1.452144000E+00 -1.355800695E-01
  6.086150000E-01 -6.429875976E-02
  2.576860000E-01  3.125414989E-01
  1.041760000E-01  6.270468577E-01
  4.242700000E-02  2.110231492E-01
  1.484900000E-02 -4.104669985E-03
   p   9
  3.371018400E+01  1.069960000E-03
  8.057649500E+00  6.828550001E-03
  2.836471400E+00  2.119065000E-02
  1.099965700E+00  5.843696001E-02
  4.433964000E-01  2.020920800E-01
  1.822264000E-01  4.582953101E-01
  7.572410000E-02  3.691239601E-01
  3.168540000E-02  6.611471001E-02
  1.108990000E-02  1.405160000E-03
 
[MO]
Sym=     1a  
Ene=    -5.9280
Spin= Alpha
Occup=    2.00000
   1         0.68784947
   2        -0.00276849
   3        -0.00000000
   4         0.00000000
   5         0.01439315
   6         0.68784947
   7        -0.00276849
   8         0.00000000
   9        -0.00000000
  10        -0.01439315
Sym=     2a  
Ene=    -5.7152
Spin= Alpha
Occup=    2.00000
   1        -0.73305850
   2        -0.02824537
   3        -0.00000000
   4         0.00000000
   5        -0.01138508
   6         0.73305850
   7         0.02824537
   8        -0.00000000
   9         0.00000000
  10        -0.01138508
Sym=     3a  
Ene=    -1.0547
Spin= Alpha
Occup=    1.99300
   1        -0.17229078
   2         0.44343394
   3         0.00000000
   4        -0.00000001
   5         0.32896959
   6        -0.17229078
   7         0.44343394
   8        -0.00000000
   9         0.00000001
  10        -0.32896959
Sym=     4a  
Ene=     0.0005
Spin= Alpha
Occup=    0.00700
   1        -0.03711186
   2        -0.72375225
   3        -0.00000011
   4         0.00000095
   5         0.37007742
   6         0.03711186
   7         0.72375225
   8        -0.00000011
   9         0.00000095
  10         0.37007742
Sym=     5a  
Ene=    -0.6547
Spin= Alpha
Occup=    0.00000
   1         0.00000000
   2        -0.00000001
   3         0.52567186
   4         0.05664353
   5         0.00000001
   6        -0.00000000
   7         0.00000001
   8         0.52567186
   9         0.05664353
  10         0.00000001
Sym=     6a  
Ene=    -0.6547
Spin= Alpha
Occup=    0.00000
   1        -0.00000004
   2         0.00000096
   3        -0.05664353
   4         0.52567186
   5        -0.00000078
   6         0.00000004
   7        -0.00000096
   8        -0.05664353
   9         0.52567186
  10        -0.00000078
Sym=     7a  
Ene=    -0.4427
Spin= Alpha
Occup=    0.00000
   1         0.22418851
   2         0.35515431
   3        -0.00000000
   4         0.00000000
   5        -1.03582173
   6         0.22418851
   7         0.35515431
   8         0.00000000
   9        -0.00000000
  10         1.03582173
Sym=     8a  
Ene=    -0.2712
Spin= Alpha
Occup=    0.00000
   1        -0.00000000
   2         0.00000000
   3        -1.42176429
   4         0.58686041
   5         0.00000000
   6        -0.00000000
   7         0.00000000
   8         1.42176429
   9        -0.58686041
  10        -0.00000000
Sym=     9a  
Ene=    -0.2712
Spin= Alpha
Occup=    0.00000
   1         0.00000000
   2        -0.00000000
   3        -0.58686041
   4        -1.42176429
   5        -0.00000000
   6         0.00000000
   7        -0.00000000
   8         0.58686041
   9         1.42176429
  10         0.00000000
Sym=    10a  
Ene=     2.7628
Spin= Alpha
Occup=    0.00000
   1        -3.40404874
   2       -11.45074913
   3         0.00000000
   4        -0.00000002
   5        -3.77996621
   6         3.40404874
   7        11.45074913
   8         0.00000000
   9        -0.00000002
  10        -3.77996621
