[Molden Format]
[N_Atoms]
                     2
[Atoms] (AU)
BE1         1      4           0.00000000      0.00000000      0.00000000
BE2         2      4           0.00000000      0.00000000      1.70075351
[Charge] (Mulliken)
 -4.254374630363600E-013
  4.094502514817577E-013
[GTO] (AU)
   1
   s  14
  2.262859900E+04  8.443999941E-05
  3.372318100E+03  4.601499968E-04
  7.603504000E+02  2.285389984E-03
  2.117404800E+02  9.648129932E-03
  6.722346800E+01  3.494469975E-02
  2.337217700E+01  1.061099893E-01
  8.721373000E+00  2.458240383E-01
  3.468091000E+00  3.862428773E-01
  1.452144000E+00  3.105526078E-01
  6.086150000E-01  6.415933955E-02
  2.576860000E-01 -2.265049984E-03
  1.041760000E-01 -5.217499963E-04
  4.242700000E-02 -8.757499938E-04
  1.484900000E-02  1.242199991E-04
   s  14
  2.262859900E+04 -1.586999994E-05
  3.372318100E+03 -8.656999968E-05
  7.603504000E+02 -4.302199984E-04
  2.117404800E+02 -1.825079993E-03
  6.722346800E+01 -6.682749976E-03
  2.337217700E+01 -2.095119992E-02
  8.721373000E+00 -5.200308981E-02
  3.468091000E+00 -9.849176964E-02
  1.452144000E+00 -1.355800695E-01
  6.086150000E-01 -6.429875976E-02
  2.576860000E-01  3.125414989E-01
  1.041760000E-01  6.270468577E-01
  4.242700000E-02  2.110231492E-01
  1.484900000E-02 -4.104669985E-03
   p   9
  3.371018400E+01  1.069960000E-03
  8.057649500E+00  6.828550001E-03
  2.836471400E+00  2.119065000E-02
  1.099965700E+00  5.843696001E-02
  4.433964000E-01  2.020920800E-01
  1.822264000E-01  4.582953101E-01
  7.572410000E-02  3.691239601E-01
  3.168540000E-02  6.611471001E-02
  1.108990000E-02  1.405160000E-03
 
   2
   s  14
  2.262859900E+04  8.443999941E-05
  3.372318100E+03  4.601499968E-04
  7.603504000E+02  2.285389984E-03
  2.117404800E+02  9.648129932E-03
  6.722346800E+01  3.494469975E-02
  2.337217700E+01  1.061099893E-01
  8.721373000E+00  2.458240383E-01
  3.468091000E+00  3.862428773E-01
  1.452144000E+00  3.105526078E-01
  6.086150000E-01  6.415933955E-02
  2.576860000E-01 -2.265049984E-03
  1.041760000E-01 -5.217499963E-04
  4.242700000E-02 -8.757499938E-04
  1.484900000E-02  1.242199991E-04
   s  14
  2.262859900E+04 -1.586999994E-05
  3.372318100E+03 -8.656999968E-05
  7.603504000E+02 -4.302199984E-04
  2.117404800E+02 -1.825079993E-03
  6.722346800E+01 -6.682749976E-03
  2.337217700E+01 -2.095119992E-02
  8.721373000E+00 -5.200308981E-02
  3.468091000E+00 -9.849176964E-02
  1.452144000E+00 -1.355800695E-01
  6.086150000E-01 -6.429875976E-02
  2.576860000E-01  3.125414989E-01
  1.041760000E-01  6.270468577E-01
  4.242700000E-02  2.110231492E-01
  1.484900000E-02 -4.104669985E-03
   p   9
  3.371018400E+01  1.069960000E-03
  8.057649500E+00  6.828550001E-03
  2.836471400E+00  2.119065000E-02
  1.099965700E+00  5.843696001E-02
  4.433964000E-01  2.020920800E-01
  1.822264000E-01  4.582953101E-01
  7.572410000E-02  3.691239601E-01
  3.168540000E-02  6.611471001E-02
  1.108990000E-02  1.405160000E-03
 
[MO]
Sym=     1a  
Ene=    -5.1805
Spin= Alpha
Occup=    2.00000
   1         0.68746202
   2        -0.00162018
   3         0.00000000
   4         0.00000000
   5         0.01502691
   6         0.68746202
   7        -0.00162018
   8        -0.00000000
   9        -0.00000000
  10        -0.01502691
Sym=     2a  
Ene=    -4.9655
Spin= Alpha
Occup=    2.00000
   1        -0.73210154
   2        -0.02576298
   3         0.00000000
   4        -0.00000000
   5        -0.00981851
   6         0.73210154
   7         0.02576298
   8         0.00000000
   9        -0.00000000
  10        -0.00981851
Sym=     3a  
Ene=    -0.4561
Spin= Alpha
Occup=    2.00000
   1        -0.13110289
   2         0.49980408
   3         0.00000000
   4        -0.00000000
   5         0.13839188
   6        -0.13110289
   7         0.49980408
   8        -0.00000000
   9         0.00000000
  10        -0.13839188
Sym=     4a  
Ene=    -0.0046
Spin= Alpha
Occup=    0.01718
   1        -0.07462962
   2        -0.85290048
   3        -0.00000000
   4         0.00000000
   5         0.32740804
   6         0.07462962
   7         0.85290048
   8        -0.00000000
   9         0.00000000
  10         0.32740804
Sym=     5a  
Ene=     0.0000
Spin= Alpha
Occup=    1.98282
   1        -0.00000000
   2        -0.00000000
   3         0.50754743
   4         0.14810468
   5         0.00000000
   6         0.00000000
   7         0.00000000
   8         0.50754743
   9         0.14810468
  10         0.00000000
Sym=     6a  
Ene=    -0.0822
Spin= Alpha
Occup=    0.00000
   1        -0.00000000
   2         0.00000000
   3        -0.14810468
   4         0.50754743
   5        -0.00000000
   6         0.00000000
   7        -0.00000000
   8        -0.14810468
   9         0.50754743
  10        -0.00000000
Sym=     7a  
Ene=     0.1568
Spin= Alpha
Occup=    0.00000
   1         0.25157404
   2         0.27012806
   3         0.00000000
   4        -0.00000000
   5        -1.07795023
   6         0.25157404
   7         0.27012806
   8        -0.00000000
   9         0.00000000
  10         1.07795023
Sym=     8a  
Ene=     0.3040
Spin= Alpha
Occup=    0.00000
   1         0.00000000
   2        -0.00000000
   3        -1.47654221
   4        -0.43086184
   5        -0.00000000
   6         0.00000000
   7        -0.00000000
   8         1.47654221
   9         0.43086184
  10         0.00000000
Sym=     9a  
Ene=     0.3080
Spin= Alpha
Occup=    0.00000
   1         0.00000000
   2        -0.00000000
   3         0.43086184
   4        -1.47654221
   5        -0.00000000
   6         0.00000000
   7        -0.00000000
   8        -0.43086184
   9         1.47654221
  10         0.00000000
Sym=    10a  
Ene=     3.4212
Spin= Alpha
Occup=    0.00000
   1        -3.40363888
   2       -11.44186033
   3         0.00000000
   4        -0.00000000
   5        -3.78390526
   6         3.40363888
   7        11.44186033
   8         0.00000000
   9        -0.00000000
  10        -3.78390526
