[Molden Format]
[N_Atoms]
                     2
[Atoms] (AU)
BE1         1      4           0.00000000      0.00000000      0.00000000
F2          2      9           0.00000000      0.00000000      1.88972612
[Charge] (Mulliken)
  0.648718192857446     
 -0.648718192857457     
[GTO] (AU)
   1
   s  14
  2.262859900E+04  8.443999941E-05
  3.372318100E+03  4.601499968E-04
  7.603504000E+02  2.285389984E-03
  2.117404800E+02  9.648129932E-03
  6.722346800E+01  3.494469975E-02
  2.337217700E+01  1.061099893E-01
  8.721373000E+00  2.458240383E-01
  3.468091000E+00  3.862428773E-01
  1.452144000E+00  3.105526078E-01
  6.086150000E-01  6.415933955E-02
  2.576860000E-01 -2.265049984E-03
  1.041760000E-01 -5.217499963E-04
  4.242700000E-02 -8.757499938E-04
  1.484900000E-02  1.242199991E-04
   s  14
  2.262859900E+04 -1.586999994E-05
  3.372318100E+03 -8.656999968E-05
  7.603504000E+02 -4.302199984E-04
  2.117404800E+02 -1.825079993E-03
  6.722346800E+01 -6.682749976E-03
  2.337217700E+01 -2.095119992E-02
  8.721373000E+00 -5.200308981E-02
  3.468091000E+00 -9.849176964E-02
  1.452144000E+00 -1.355800695E-01
  6.086150000E-01 -6.429875976E-02
  2.576860000E-01  3.125414989E-01
  1.041760000E-01  6.270468577E-01
  4.242700000E-02  2.110231492E-01
  1.484900000E-02 -4.104669985E-03
   p   9
  3.371018400E+01  1.069960000E-03
  8.057649500E+00  6.828550001E-03
  2.836471400E+00  2.119065000E-02
  1.099965700E+00  5.843696001E-02
  4.433964000E-01  2.020920800E-01
  1.822264000E-01  4.582953101E-01
  7.572410000E-02  3.691239601E-01
  3.168540000E-02  6.611471001E-02
  1.108990000E-02  1.405160000E-03
 
   2
   s  14
  1.031094600E+05  1.713099991E-04
  1.528100700E+04  7.123999962E-04
  3.441539200E+03  2.990479984E-03
  9.670948300E+02  1.164036994E-02
  3.140353400E+02  3.968642979E-02
  1.134423000E+02  1.128546094E-01
  4.464472700E+01  2.473650687E-01
  1.894287400E+01  3.672702681E-01
  8.532743000E+00  2.896286985E-01
  3.919401000E+00  7.786681959E-02
  1.568157000E+00  4.562139976E-03
  6.232900000E-01  2.468879987E-03
  2.408610000E-01  1.106309994E-03
  8.430100000E-02  1.739699991E-04
   s  14
  1.031094600E+05 -4.044999995E-05
  1.528100700E+04 -1.682299998E-04
  3.441539200E+03 -7.084299991E-04
  9.670948300E+02 -2.767999996E-03
  3.140353400E+02 -9.611379987E-03
  1.134423000E+02 -2.833957996E-02
  4.464472700E+01 -6.839343991E-02
  1.894287400E+01 -1.237379298E-01
  8.532743000E+00 -1.512859698E-01
  3.919401000E+00 -9.099909988E-03
  1.568157000E+00  3.716257695E-01
  6.232900000E-01  5.500214393E-01
  2.408610000E-01  2.092318697E-01
  8.430100000E-02  8.074639989E-03
   p   9
  2.453302900E+02  1.024860004E-03
  5.691900500E+01  8.344290032E-03
  1.760456800E+01  4.078927016E-02
  6.274995000E+00  1.351370605E-01
  2.447030000E+00  2.798830811E-01
  9.950600000E-01  3.597966414E-01
  4.039730000E-01  3.055347412E-01
  1.548100000E-01  1.354703905E-01
  5.418400000E-02  2.804449011E-02
 
[MO]
Sym=     1a  
Ene=   -26.2490
Spin= Alpha
Occup=    1.00000
   1        -0.00054999
   2        -0.00087503
   3        -0.00000000
   4        -0.00000000
   5        -0.00053942
   6         1.00009662
   7        -0.00158902
   8         0.00000000
   9         0.00000000
  10        -0.00123645
Sym=     1a  
Ene=   -26.2510
Spin= Beta
Occup=    1.00000
   1        -0.00057279
   2        -0.00091345
   3        -0.00000000
   4        -0.00000000
   5        -0.00058671
   6         1.00010333
   7        -0.00143360
   8         0.00000000
   9         0.00000000
  10        -0.00123942
Sym=     2a  
Ene=    -4.8203
Spin= Alpha
Occup=    1.00000
   1         0.99073922
   2        -0.00366740
   3         0.00000000
   4        -0.00000000
   5        -0.00006500
   6        -0.00355655
   7         0.02749399
   8        -0.00000000
   9         0.00000000
  10        -0.02390259
Sym=     2a  
Ene=    -4.8012
Spin= Beta
Occup=    1.00000
   1         0.99071609
   2        -0.00392906
   3         0.00000000
   4        -0.00000000
   5         0.00108175
   6        -0.00364322
   7         0.02718402
   8        -0.00000000
   9         0.00000000
  10        -0.02413972
Sym=     3a  
Ene=    -1.6787
Spin= Alpha
Occup=    1.00000
   1        -0.19379393
   2        -0.00432939
   3         0.00000000
   4        -0.00000000
   5         0.06357310
   6        -0.00252540
   7         0.96006945
   8        -0.00000000
   9         0.00000000
  10        -0.20055712
Sym=     3a  
Ene=    -1.6837
Spin= Beta
Occup=    1.00000
   1        -0.19365514
   2        -0.00834946
   3         0.00000000
   4        -0.00000000
   5         0.06068806
   6        -0.00214381
   7         0.96427227
   8         0.00000000
   9         0.00000000
  10        -0.19658473
Sym=     4a  
Ene=    -0.7482
Spin= Alpha
Occup=    1.00000
   1         0.21432805
   2         0.06122108
   3        -0.00000000
   4        -0.00000000
   5        -0.09060650
   6         0.00511783
   7         0.19388531
   8        -0.00000000
   9        -0.00000000
  10         1.01200788
Sym=     4a  
Ene=    -0.7489
Spin= Beta
Occup=    1.00000
   1         0.21601223
   2         0.06707332
   3        -0.00000000
   4        -0.00000000
   5        -0.09022643
   6         0.00470994
   7         0.18646645
   8        -0.00000000
   9        -0.00000000
  10         1.01369779
Sym=     5a  
Ene=    -0.7224
Spin= Alpha
Occup=    1.00000
   1         0.00000000
   2         0.00000000
   3         0.16163601
   4         0.00434131
   5        -0.00000000
   6        -0.00000000
   7         0.00000000
   8         0.92551517
   9         0.02485799
  10         0.00000000
Sym=     5a  
Ene=    -0.7323
Spin= Beta
Occup=    1.00000
   1         0.00000000
   2         0.00000000
   3         0.12217446
   4         0.00245978
   5        -0.00000000
   6         0.00000000
   7         0.00000000
   8         0.94584281
   9         0.01904295
  10         0.00000000
Sym=     6a  
Ene=    -0.7224
Spin= Alpha
Occup=    1.00000
   1         0.00000000
   2        -0.00000000
   3        -0.00434131
   4         0.16163601
   5        -0.00000000
   6         0.00000000
   7         0.00000000
   8        -0.02485799
   9         0.92551517
  10         0.00000000
Sym=     6a  
Ene=    -0.7323
Spin= Beta
Occup=    1.00000
   1         0.00000000
   2        -0.00000000
   3        -0.00245978
   4         0.12217446
   5        -0.00000000
   6         0.00000000
   7         0.00000000
   8        -0.01904295
   9         0.94584281
  10         0.00000000
Sym=     7a  
Ene=    -0.3475
Spin= Alpha
Occup=    1.00000
   1        -0.02945557
   2        -0.88468472
   3        -0.00000000
   4         0.00000000
   5         0.50233374
   6         0.00569656
   7         0.10569086
   8         0.00000000
   9        -0.00000000
  10        -0.07362252
Sym=     7a  
Ene=     0.0617
Spin= Beta
Occup=    0.00000
   1        -0.04513640
   2        -0.95798282
   3        -0.00000000
   4         0.00000000
   5         0.39148321
   6         0.01972358
   7         0.20024046
   8         0.00000000
   9        -0.00000000
  10        -0.08637074
Sym=     8a  
Ene=     0.1805
Spin= Alpha
Occup=    0.00000
   1        -0.00000000
   2        -0.00000000
   3        -0.16814845
   4        -1.06045473
   5        -0.00000000
   6         0.00000000
   7         0.00000000
   8         0.08883680
   9         0.56026330
  10        -0.00000000
Sym=     8a  
Ene=     0.2382
Spin= Beta
Occup=    0.00000
   1        -0.00000000
   2        -0.00000000
   3        -0.11555109
   4        -1.07270615
   5        -0.00000000
   6         0.00000000
   7         0.00000000
   8         0.05707538
   9         0.52985313
  10        -0.00000000
Sym=     9a  
Ene=     0.1805
Spin= Alpha
Occup=    0.00000
   1         0.00000000
   2        -0.00000000
   3         1.06045473
   4        -0.16814845
   5         0.00000000
   6        -0.00000000
   7        -0.00000000
   8        -0.56026330
   9         0.08883680
  10         0.00000000
Sym=     9a  
Ene=     0.2382
Spin= Beta
Occup=    0.00000
   1        -0.00000000
   2         0.00000000
   3        -1.07270615
   4         0.11555109
   5        -0.00000000
   6         0.00000000
   7         0.00000000
   8         0.52985313
   9        -0.05707538
  10        -0.00000000
Sym=    10a  
Ene=     0.4295
Spin= Alpha
Occup=    0.00000
   1         0.17549400
   2         0.82624175
   3        -0.00000000
   4        -0.00000000
   5         1.15220952
   6        -0.14954467
   7        -1.02784150
   8         0.00000000
   9         0.00000000
  10         0.19313439
Sym=    10a  
Ene=     0.4628
Spin= Beta
Occup=    0.00000
   1         0.17030354
   2         0.73946437
   3        -0.00000000
   4        -0.00000000
   5         1.19460992
   6        -0.14831987
   7        -1.01108061
   8         0.00000000
   9         0.00000000
  10         0.18276816
