[Molden Format]
[N_Atoms]
                     2
[Atoms] (AU)
H1          1      1           0.00000000      0.00000000      0.00000000
H2          2      1           0.00000000      0.00000000      3.40150702
[Charge] (Mulliken)
 -8.881784197001252E-014
  8.903988657493755E-014
[GTO] (AU)
   1
   s   8
  1.886144500E+02  9.638500027E-04
  2.827659600E+01  7.491960021E-03
  6.424830000E+00  3.759541011E-02
  1.815041000E+00  1.433949804E-01
  5.910630000E-01  3.486363010E-01
  2.121490000E-01  4.382973612E-01
  7.989100000E-02  1.651066105E-01
  2.796200000E-02  2.102287006E-02
 
   2
   s   8
  1.886144500E+02  9.638500027E-04
  2.827659600E+01  7.491960021E-03
  6.424830000E+00  3.759541011E-02
  1.815041000E+00  1.433949804E-01
  5.910630000E-01  3.486363010E-01
  2.121490000E-01  4.382973612E-01
  7.989100000E-02  1.651066105E-01
  2.796200000E-02  2.102287006E-02
 
[MO]
Sym=     1a  
Ene=    -0.3675
Spin= Alpha
Occup=    1.00000
   1         0.63585369
   2         0.63585369
Sym=     1a  
Ene=    -0.3675
Spin= Beta
Occup=    1.00000
   1         0.63585369
   2         0.63585369
Sym=     2a  
Ene=     0.0705
Spin= Alpha
Occup=    0.00000
   1        -0.80933866
   2         0.80933866
Sym=     2a  
Ene=     0.0705
Spin= Beta
Occup=    0.00000
   1        -0.80933866
   2         0.80933866
