[Molden Format]
[N_Atoms]
                     2
[Atoms] (AU)
C1          1      6           0.00000000      0.00000000      0.00000000
LI2         2      3           0.00000000      0.00000000      4.53534270
[Charge] (Mulliken)
 -0.269170340536004     
  0.269170340535993     
[GTO] (AU)
   1
   s  14
  5.055750100E+04  1.128874000E-04
  7.524785600E+03  5.295373000E-04
  1.694327600E+03  2.450038300E-03
  4.728227900E+02  1.005398470E-02
  1.517107500E+02  3.545398060E-02
  5.391874600E+01  1.044071086E-01
  2.065931100E+01  2.412894918E-01
  8.383976000E+00  3.834225483E-01
  3.577015000E+00  3.078514393E-01
  1.547118000E+00  6.872442990E-02
  6.130130000E-01  2.224445000E-04
  2.460680000E-01  1.976748900E-03
  9.908700000E-02  2.057859400E-03
  3.468000000E-02  4.182020000E-04
   s  14
  5.055750100E+04 -2.507420000E-05
  7.524785600E+03 -1.175945000E-04
  1.694327600E+03 -5.456275000E-04
  4.728227900E+02 -2.245077100E-03
  1.517107500E+02 -8.043471800E-03
  5.391874600E+01 -2.442588710E-02
  2.065931100E+01 -6.136791180E-02
  8.383976000E+00 -1.177767835E-01
  3.577015000E+00 -1.550487783E-01
  1.547118000E+00 -1.933316860E-02
  6.130130000E-01  3.996930678E-01
  2.460680000E-01  5.589420949E-01
  9.908700000E-02  1.711195023E-01
  3.468000000E-02  7.456244600E-03
   p   9
  8.333315500E+01  1.344656000E-03
  1.955761100E+01  1.023555500E-02
  6.080365000E+00  4.520067100E-02
  2.179317000E+00  1.410756198E-01
  8.651500000E-01  3.047388085E-01
  3.619440000E-01  3.995281011E-01
  1.547400000E-01  2.719163432E-01
  6.542900000E-02  5.857669330E-02
  2.290000000E-02 -1.263813000E-04
 
   2
   s  14
  9.497934400E+03  9.668999974E-05
  1.416811200E+03  6.087099984E-04
  3.214599400E+02  3.101519992E-03
  9.112416300E+01  1.266904997E-02
  2.999989100E+01  4.248012989E-02
  1.101763100E+01  1.150183297E-01
  4.372801000E+00  2.398650094E-01
  1.831256000E+00  3.584300090E-01
  8.022610000E-01  3.048527792E-01
  3.626480000E-01  8.824261976E-02
  1.139950000E-01 -8.445899977E-04
  5.123700000E-02 -7.943959979E-03
  2.246800000E-02 -3.764419990E-03
  7.860000000E-03 -8.868999976E-05
   s  14
  9.497934400E+03 -1.244999993E-05
  1.416811200E+03 -7.838999954E-05
  3.214599400E+02 -4.007099976E-04
  9.112416300E+01 -1.645249990E-03
  2.999989100E+01 -5.634599967E-03
  1.101763100E+01 -1.590780991E-02
  4.372801000E+00 -3.612581979E-02
  1.831256000E+00 -6.459927962E-02
  8.022610000E-01 -1.008321794E-01
  3.626480000E-01 -9.757613942E-02
  1.139950000E-01  2.301215886E-01
  5.123700000E-02  6.102389764E-01
  2.246800000E-02  2.849406083E-01
  7.860000000E-03  4.026899976E-03
   p   9
  1.311950400E+01  1.524940000E-03
  3.077424200E+00  8.314830000E-03
  1.098800500E+00  1.933203000E-02
  4.357784000E-01  4.934293000E-02
  1.802432000E-01  1.623554000E-01
  7.613330000E-02  3.847505400E-01
  3.254650000E-02  4.336100400E-01
  1.401820000E-02  1.287005900E-01
  4.906400000E-03 -1.018520000E-03
 
[MO]
Sym=     1a  
Ene=   -11.1220
Spin= Alpha
Occup=    1.00000
   1         1.00009384
   2        -0.00107349
   3         0.00000000
   4         0.00000000
   5         0.00022595
   6        -0.00015540
   7        -0.00106819
   8        -0.00000000
   9        -0.00000000
  10         0.00119234
Sym=     1a  
Ene=   -11.1220
Spin= Beta
Occup=    1.00000
   1         1.00009384
   2        -0.00107349
   3         0.00000000
   4         0.00000000
   5         0.00022595
   6        -0.00015540
   7        -0.00106819
   8        -0.00000000
   9        -0.00000000
  10         0.00119234
Sym=     2a  
Ene=    -2.5444
Spin= Alpha
Occup=    1.00000
   1        -0.00001818
   2         0.00137998
   3         0.00000000
   4        -0.00000000
   5         0.00037570
   6         0.99987568
   7         0.01281802
   8        -0.00000000
   9        -0.00000000
  10         0.00087255
Sym=     2a  
Ene=    -2.5444
Spin= Beta
Occup=    1.00000
   1        -0.00001818
   2         0.00137998
   3         0.00000000
   4        -0.00000000
   5         0.00037570
   6         0.99987568
   7         0.01281802
   8        -0.00000000
   9        -0.00000000
  10         0.00087255
Sym=     3a  
Ene=    -0.6083
Spin= Alpha
Occup=    1.00000
   1         0.00487538
   2        -0.93537066
   3        -0.00000000
   4        -0.00000000
   5        -0.03350343
   6         0.02052579
   7        -0.07982348
   8         0.00000000
   9         0.00000000
  10         0.08285015
Sym=     3a  
Ene=    -0.6083
Spin= Beta
Occup=    1.00000
   1         0.00487538
   2        -0.93537066
   3        -0.00000000
   4        -0.00000000
   5        -0.03350343
   6         0.02052579
   7        -0.07982348
   8         0.00000000
   9         0.00000000
  10         0.08285015
Sym=     4a  
Ene=    -0.0244
Spin= Alpha
Occup=    1.00000
   1         0.00000000
   2        -0.00000000
   3        -0.71277861
   4         0.64949458
   5         0.00000000
   6         0.00000000
   7        -0.00000000
   8        -0.10630625
   9         0.09686785
  10        -0.00000000
Sym=     4a  
Ene=    -0.0244
Spin= Beta
Occup=    0.00000
   1         0.00000000
   2        -0.00000000
   3        -0.71277861
   4         0.64949458
   5         0.00000000
   6         0.00000000
   7        -0.00000000
   8        -0.10630625
   9         0.09686785
  10        -0.00000000
Sym=     5a  
Ene=    -0.0000
Spin= Alpha
Occup=    1.00000
   1        -0.00000000
   2        -0.00000000
   3         0.54714954
   4         0.60046150
   5         0.00000000
   6         0.00000000
   7         0.00000000
   8         0.30720853
   9         0.33714164
  10         0.00000000
Sym=     5a  
Ene=    -0.0000
Spin= Beta
Occup=    1.00000
   1        -0.00000000
   2        -0.00000000
   3         0.54714954
   4         0.60046150
   5         0.00000000
   6         0.00000000
   7         0.00000000
   8         0.30720853
   9         0.33714164
  10         0.00000000
Sym=     6a  
Ene=    -0.0101
Spin= Alpha
Occup=    0.00000
   1        -0.00577085
   2        -0.12504181
   3        -0.00000000
   4        -0.00000000
   5         0.08079491
   6        -0.01311815
   7         0.89937032
   8         0.00000000
   9        -0.00000000
  10         0.41597082
Sym=     6a  
Ene=    -0.0101
Spin= Beta
Occup=    0.00000
   1        -0.00577085
   2        -0.12504181
   3        -0.00000000
   4        -0.00000000
   5         0.08079491
   6        -0.01311815
   7         0.89937032
   8         0.00000000
   9        -0.00000000
  10         0.41597082
Sym=     7a  
Ene=     0.0780
Spin= Alpha
Occup=    0.00000
   1        -0.00000000
   2        -0.00000000
   3        -0.23709280
   4         0.21604253
   5         0.00000000
   6         0.00000000
   7         0.00000000
   8         0.74361638
   9        -0.67759442
  10        -0.00000000
Sym=     7a  
Ene=     0.0780
Spin= Beta
Occup=    0.00000
   1        -0.00000000
   2        -0.00000000
   3        -0.23709280
   4         0.21604253
   5         0.00000000
   6         0.00000000
   7         0.00000000
   8         0.74361638
   9        -0.67759442
  10        -0.00000000
Sym=     8a  
Ene=     0.0883
Spin= Alpha
Occup=    0.00000
   1        -0.00000000
   2        -0.00000000
   3        -0.41127236
   4        -0.45134502
   5         0.00000000
   6         0.00000000
   7         0.00000000
   8         0.61167025
   9         0.67126884
  10        -0.00000000
Sym=     8a  
Ene=     0.0883
Spin= Beta
Occup=    0.00000
   1        -0.00000000
   2        -0.00000000
   3        -0.41127236
   4        -0.45134502
   5         0.00000000
   6         0.00000000
   7         0.00000000
   8         0.61167025
   9         0.67126884
  10        -0.00000000
Sym=     9a  
Ene=     0.1091
Spin= Alpha
Occup=    0.00000
   1        -0.05491728
   2        -0.56338743
   3         0.00000000
   4         0.00000000
   5         0.44374493
   6        -0.01241477
   7         0.32794709
   8        -0.00000000
   9        -0.00000000
  10        -0.85857236
Sym=     9a  
Ene=     0.1091
Spin= Beta
Occup=    0.00000
   1        -0.05491728
   2        -0.56338743
   3         0.00000000
   4         0.00000000
   5         0.44374493
   6        -0.01241477
   7         0.32794709
   8        -0.00000000
   9        -0.00000000
  10        -0.85857236
Sym=    10a  
Ene=     0.2685
Spin= Alpha
Occup=    0.00000
   1         0.04762734
   2         0.42533496
   3         0.00000000
   4        -0.00000000
   5         0.93544210
   6        -0.04205044
   7        -0.49972292
   8         0.00000000
   9         0.00000000
  10         0.61808157
Sym=    10a  
Ene=     0.2685
Spin= Beta
Occup=    0.00000
   1         0.04762734
   2         0.42533496
   3         0.00000000
   4        -0.00000000
   5         0.93544210
   6        -0.04205044
   7        -0.49972292
   8         0.00000000
   9         0.00000000
  10         0.61808157
