[Molden Format]
[N_Atoms]
                     2
[Atoms] (AU)
C1          1      6           0.00000000      0.00000000      0.00000000
LI2         2      3           0.00000000      0.00000000      4.53534270
[Charge] (Mulliken)
  4.422846474159403E-002
 -4.422846474164288E-002
[GTO] (AU)
   1
   s  14
  5.055750100E+04  1.128874000E-04
  7.524785600E+03  5.295373000E-04
  1.694327600E+03  2.450038300E-03
  4.728227900E+02  1.005398470E-02
  1.517107500E+02  3.545398060E-02
  5.391874600E+01  1.044071086E-01
  2.065931100E+01  2.412894918E-01
  8.383976000E+00  3.834225483E-01
  3.577015000E+00  3.078514393E-01
  1.547118000E+00  6.872442990E-02
  6.130130000E-01  2.224445000E-04
  2.460680000E-01  1.976748900E-03
  9.908700000E-02  2.057859400E-03
  3.468000000E-02  4.182020000E-04
   s  14
  5.055750100E+04 -2.507420000E-05
  7.524785600E+03 -1.175945000E-04
  1.694327600E+03 -5.456275000E-04
  4.728227900E+02 -2.245077100E-03
  1.517107500E+02 -8.043471800E-03
  5.391874600E+01 -2.442588710E-02
  2.065931100E+01 -6.136791180E-02
  8.383976000E+00 -1.177767835E-01
  3.577015000E+00 -1.550487783E-01
  1.547118000E+00 -1.933316860E-02
  6.130130000E-01  3.996930678E-01
  2.460680000E-01  5.589420949E-01
  9.908700000E-02  1.711195023E-01
  3.468000000E-02  7.456244600E-03
   p   9
  8.333315500E+01  1.344656000E-03
  1.955761100E+01  1.023555500E-02
  6.080365000E+00  4.520067100E-02
  2.179317000E+00  1.410756198E-01
  8.651500000E-01  3.047388085E-01
  3.619440000E-01  3.995281011E-01
  1.547400000E-01  2.719163432E-01
  6.542900000E-02  5.857669330E-02
  2.290000000E-02 -1.263813000E-04
 
   2
   s  14
  9.497934400E+03  9.668999974E-05
  1.416811200E+03  6.087099984E-04
  3.214599400E+02  3.101519992E-03
  9.112416300E+01  1.266904997E-02
  2.999989100E+01  4.248012989E-02
  1.101763100E+01  1.150183297E-01
  4.372801000E+00  2.398650094E-01
  1.831256000E+00  3.584300090E-01
  8.022610000E-01  3.048527792E-01
  3.626480000E-01  8.824261976E-02
  1.139950000E-01 -8.445899977E-04
  5.123700000E-02 -7.943959979E-03
  2.246800000E-02 -3.764419990E-03
  7.860000000E-03 -8.868999976E-05
   s  14
  9.497934400E+03 -1.244999993E-05
  1.416811200E+03 -7.838999954E-05
  3.214599400E+02 -4.007099976E-04
  9.112416300E+01 -1.645249990E-03
  2.999989100E+01 -5.634599967E-03
  1.101763100E+01 -1.590780991E-02
  4.372801000E+00 -3.612581979E-02
  1.831256000E+00 -6.459927962E-02
  8.022610000E-01 -1.008321794E-01
  3.626480000E-01 -9.757613942E-02
  1.139950000E-01  2.301215886E-01
  5.123700000E-02  6.102389764E-01
  2.246800000E-02  2.849406083E-01
  7.860000000E-03  4.026899976E-03
   p   9
  1.311950400E+01  1.524940000E-03
  3.077424200E+00  8.314830000E-03
  1.098800500E+00  1.933203000E-02
  4.357784000E-01  4.934293000E-02
  1.802432000E-01  1.623554000E-01
  7.613330000E-02  3.847505400E-01
  3.254650000E-02  4.336100400E-01
  1.401820000E-02  1.287005900E-01
  4.906400000E-03 -1.018520000E-03
 
[MO]
Sym=     1a  
Ene=   -11.3340
Spin= Alpha
Occup=    1.00000
   1         1.00012711
   2         0.00101256
   3         0.00000000
   4         0.00000000
   5         0.00058969
   6        -0.00020106
   7        -0.00141586
   8        -0.00000000
   9         0.00000000
  10         0.00159441
Sym=     1a  
Ene=   -11.2870
Spin= Beta
Occup=    1.00000
   1         1.00003915
   2        -0.00444849
   3         0.00000000
   4         0.00000000
   5         0.00036104
   6        -0.00011394
   7        -0.00062523
   8        -0.00000000
   9        -0.00000000
  10         0.00060116
Sym=     2a  
Ene=    -2.4607
Spin= Alpha
Occup=    1.00000
   1        -0.00014071
   2         0.00095739
   3        -0.00000000
   4         0.00000000
   5         0.00158825
   6         0.99982441
   7         0.01316711
   8         0.00000000
   9         0.00000000
  10        -0.00117119
Sym=     2a  
Ene=    -2.4724
Spin= Beta
Occup=    1.00000
   1        -0.00006252
   2         0.00082690
   3        -0.00000000
   4         0.00000000
   5         0.00031065
   6         0.99989621
   7         0.01223104
   8         0.00000000
   9         0.00000000
  10        -0.00053212
Sym=     3a  
Ene=    -0.8522
Spin= Alpha
Occup=    1.00000
   1        -0.00087515
   2         0.99171580
   3         0.00000000
   4        -0.00000000
   5         0.01791459
   6        -0.02060293
   7         0.00788791
   8        -0.00000000
   9         0.00000000
  10        -0.01360972
Sym=     3a  
Ene=    -0.6192
Spin= Beta
Occup=    1.00000
   1        -0.00051227
   2         0.94839742
   3        -0.00000000
   4         0.00000000
   5         0.04998588
   6        -0.02126008
   7         0.06982752
   8         0.00000000
   9        -0.00000000
  10        -0.06092737
Sym=     4a  
Ene=    -0.4710
Spin= Alpha
Occup=    1.00000
   1        -0.00492689
   2        -0.06329669
   3        -0.00000000
   4        -0.00000000
   5         0.97955437
   6        -0.04336946
   7         0.05411134
   8        -0.00000000
   9         0.00000000
  10        -0.06125371
Sym=     4a  
Ene=    -0.1799
Spin= Beta
Occup=    1.00000
   1        -0.01594682
   2        -0.22437192
   3         0.00000000
   4        -0.00000000
   5         0.12585868
   6        -0.01281074
   7         0.95184944
   8         0.00000000
   9        -0.00000000
  10         0.26047025
Sym=     5a  
Ene=    -0.4633
Spin= Alpha
Occup=    1.00000
   1         0.00000000
   2         0.00000000
   3        -0.68923834
   4        -0.71648024
   5        -0.00000000
   6         0.00000000
   7        -0.00000000
   8        -0.02093003
   9        -0.02175728
  10         0.00000000
Sym=     5a  
Ene=     0.0246
Spin= Beta
Occup=    0.00000
   1         0.00000000
   2         0.00000000
   3        -0.26886882
   4         0.25864593
   5        -0.00000000
   6        -0.00000000
   7         0.00000000
   8        -0.62245202
   9         0.59878525
  10         0.00000000
Sym=     6a  
Ene=     0.0227
Spin= Alpha
Occup=    0.00000
   1         0.00000000
   2         0.00000000
   3        -0.55000843
   4         0.52909609
   5        -0.00000000
   6         0.00000000
   7        -0.00000000
   8        -0.37789084
   9         0.36352273
  10         0.00000000
Sym=     6a  
Ene=     0.0357
Spin= Beta
Occup=    0.00000
   1         0.00000000
   2         0.00000000
   3         0.16148374
   4         0.16786633
   5        -0.00000000
   6         0.00000000
   7        -0.00000000
   8         0.64604656
   9         0.67158133
  10         0.00000000
Sym=     7a  
Ene=     0.0688
Spin= Alpha
Occup=    0.00000
   1         0.01988177
   2         0.20817811
   3        -0.00000000
   4         0.00000000
   5         0.18596003
   6         0.00107580
   7        -1.01150243
   8         0.00000000
   9        -0.00000000
  10        -0.20632300
Sym=     7a  
Ene=     0.0793
Spin= Beta
Occup=    0.00000
   1         0.05060782
   2         0.49774553
   3        -0.00000000
   4         0.00000000
   5        -0.49340788
   6         0.01439500
   7        -0.14783229
   8         0.00000000
   9        -0.00000000
  10         0.86560918
Sym=     8a  
Ene=     0.0968
Spin= Alpha
Occup=    0.00000
   1        -0.00000000
   2        -0.00000000
   3        -0.14606611
   4        -0.15183932
   5        -0.00000000
   6        -0.00000000
   7         0.00000000
   8         0.70423485
   9         0.73206949
  10         0.00000000
Sym=     8a  
Ene=     0.1452
Spin= Beta
Occup=    0.00000
   1        -0.00000000
   2        -0.00000000
   3        -0.68125522
   4         0.65535264
   5         0.00000000
   6        -0.00000000
   7         0.00000000
   8         0.38594378
   9        -0.37126948
  10        -0.00000000
Sym=     9a  
Ene=     0.1257
Spin= Alpha
Occup=    0.00000
   1        -0.00000000
   2        -0.00000000
   3         0.48362160
   4        -0.46523341
   5         0.00000000
   6         0.00000000
   7        -0.00000000
   8        -0.62737360
   9         0.60351969
  10        -0.00000000
Sym=     9a  
Ene=     0.1996
Spin= Beta
Occup=    0.00000
   1         0.00000000
   2         0.00000000
   3        -0.68578991
   4        -0.71289551
   5        -0.00000000
   6         0.00000000
   7        -0.00000000
   8         0.28108475
   9         0.29219453
  10         0.00000000
Sym=    10a  
Ene=     0.1555
Spin= Alpha
Occup=    0.00000
   1        -0.06967390
   2        -0.59835210
   3        -0.00000000
   4         0.00000000
   5        -0.29185661
   6         0.01765514
   7         0.38258814
   8         0.00000000
   9        -0.00000000
  10        -1.11917784
Sym=    10a  
Ene=     0.2266
Spin= Beta
Occup=    0.00000
   1        -0.05133235
   2        -0.43737912
   3         0.00000000
   4        -0.00000000
   5        -0.90433479
   6         0.04063717
   7         0.48967221
   8        -0.00000000
   9         0.00000000
  10        -0.69154362
