   This run of MOLCAS is using the pymolcas driver

                             OPE
                             OPE          NMOL  CASOP  ENMOLC A   SO
                 OPE        NMOLC        AS  OP EN  MO LC     AS  OP
                OPENM       OL CA        SO  PE NM  OL CA     SOP EN
                OP EN      MO   LC       AS  OP ENMOL  CASO   PENMOL
                OP  EN     MO   LC       AS  OP EN     MO     LC ASO
               OP   E  NMOL  C  AS       OP  EN MO     LC     AS  OP
               OP  E   NMO   LC AS        OPEN  MO     LCASOP EN   M
               O  PEN   MO  LCA  SO
            OPE   NMO   L   CAS    OP
        OPENMOL  CASOP     ENMOL   CASOPE
     OPENMOLCA   SOPENMOLCASOPEN   MOLCASOPE
    OPENMOLCAS   OP           EN   MOL    CAS
    OPENMOLCAS       OP  ENM        O     LCA
    OPENMOLCAS    OPEN  MOLCASO     P  E  NMO
    OPENMOLCAS     OP               E  N  MOL
    OPENMOLCA   SO           PENM   O  L  CAS    OPEN    MO    LCAS
    OPENMOLCA   SOP           ENM   O  L  CAS   OP  EN  MOLC  AS   O
    OPENMOLCA   SOPE           NM      O  LCA   S      OP  EN MO
    OPENMOLC                AS         O  PEN   M      OL  CA  SOPE
    OPENMO        LCASOPE  NMOL        C  ASO   P      ENMOLC     AS
    OPE     NMO      LCA  SO     P     E   NM   OL  CA SO  PE N   MO
          OPENMOLCA            SOPE   NMO        LCAS  O    P  ENMO
     OPENMOLCASOPENMOLCASOPENMOLCASOPENMOLCA
        OPENMOLCASOPENMOLCASOPENMOLCASOPE
            OPENMOLCASOPENMOLCASOPENM
               OPENMOLCASOPENMOLCA        version: ea724fe96-dirty
                   OPENMOLCASO
                       OPE                tag:

 OpenMolcas is free software; you can redistribute it and/or modify it
 under the terms of the GNU Lesser General Public License version 2.1.
 OpenMolcas is distributed in the hope that it will be useful, but it
 is provided "as is" and without any express or implied warranties.
 For more details see the full text of the license in the file
 LICENSE or in <http://www.gnu.org/licenses/>.

                 Copyright (C) The OpenMolcas Authors
           For the author list and the recommended citation,
                   consult the file CONTRIBUTORS.md

           *************************************************
           * pymolcas version py2.28                       *
           *   build c4a6d18ded8cb6cad61d2372a9abd97c      *
           *   (after the EMIL interpreter by V. Veryazov) *
           *************************************************

configuration info
------------------
C Compiler ID: Intel
C flags: -std=gnu99
Fortran Compiler ID: Intel
Fortran flags: -fpp -i8 -r8 -heap-arrays
Definitions: _MOLCAS_;_I8_;_LINUX_
Parallel: OFF (GA=OFF)


   -------------------------------------------------------------------------------
  |
  |              Project: 5.59
  |       Submitted from: /home/grierjones/DDCASPT2/iron_oxo_DDCASPT2/cluster/5.59
  |         Scratch area: /tmp/5.59
  |      Save outputs to: /home/grierjones/DDCASPT2/iron_oxo_DDCASPT2/cluster/5.59
  |               Molcas: /home/grierjones/Test/build
  |
  | Scratch area is empty
  |
  |       MOLCAS_DRIVER = /usr/local/pymolcas
  | MOLCAS_KEEP_WORKDIR = NO
  |  MOLCAS_NEW_WORKDIR = YES
  |       MOLCAS_NPROCS = 1
  |        MOLCAS_PRINT = NORMAL
  |       MOLCAS_SOURCE = /home/grierjones/Test/build
  |    MOLCAS_STRUCTURE = 0
  |
   -------------------------------------------------------------------------------

++ ---------   Input file   ---------

&GATEWAY
coord=5.59.xyz
Basis = ANO-RCC-VDZP
Group = nosymm
Expert
End of Input

&SEWARD
End of Input

&SCF
UHF
charge
2
spin
5

>>> COPY $WorkDir/5.59.scf.h5 $CurrDir/

&RASSCF
Title= RASSCF
FileOrb
/home/grierjones/DDCASPT2/iron_oxo_DDCASPT2/cluster/5.58/5.58.RasOrb
NACTEL
10 0 0
RAS2
14
Symmetry
1
Spin
5
charge
2
orblisting
all
ITERation
300 200

>>> COPY $WorkDir/5.59.rasscf.h5 $CurrDir/

>>> COPY $WorkDir/GMJ_Fock_MO.csv $CurrDir/5.59.GMJ_Fock_MO.csv

>>> COPY $WorkDir/GMJ_PT2_Fock_MO.csv $CurrDir/5.59.GMJ_PT2_Fock_MO.csv

&MOTRA
Frozen=0
LUMORB

>>> COPY $WorkDir/GMJ_one_int_indx.csv $CurrDir/5.59.GMJ_one_int_indx.csv

>>> COPY $WorkDir/GMJ_one_int.csv $CurrDir/5.59.GMJ_one_int.csv

>>> COPY $WorkDir/GMJ_two_int_indx.csv $CurrDir/5.59.GMJ_two_int_indx.csv

>>> COPY $WorkDir/GMJ_two_int.csv $CurrDir/5.59.GMJ_two_int.csv

&CASPT2
Frozen
0
MAXITER
50

>>> FOREACH i IN (B,E,F,G,H)

  >>> FOREACH j IN (P,M)

    >>> IF (-FILE GMJ_e2_${i}_${j}.csv)

      >>> COPY $WorkDir/GMJ_RHS_${i}_${j}.csv $CurrDir/GMJ_RHS_${i}_${j}.csv

      >>> COPY $WorkDir/GMJ_IVECW_${i}_${j}.csv $CurrDir/GMJ_IVECW_${i}_${j}.csv

      >>> COPY $WorkDir/GMJ_IVECX_${i}_${j}.csv $CurrDir/GMJ_IVECX_${i}_${j}.csv

      >>> COPY $WorkDir/GMJ_IVECC2_${i}_${j}.csv $CurrDir/GMJ_IVECC2_${i}_${j}.csv

      >>> COPY $WorkDir/GMJ_e2_${i}_${j}.csv $CurrDir/GMJ_e2_${i}_${j}.csv

    >>> END IF

  >>> END FOREACH

>>> END FOREACH

>>> FOREACH i IN (A,C,D)

  >>> IF (-FILE GMJ_e2_$i.csv)

    >>> COPY $WorkDir/GMJ_RHS_$i.csv $CurrDir/GMJ_RHS_$i.csv

    >>> COPY $WorkDir/GMJ_IVECW_$i.csv $CurrDir/GMJ_IVECW_$i.csv

    >>> COPY $WorkDir/GMJ_IVECX_$i.csv $CurrDir/GMJ_IVECX_$i.csv

    >>> COPY $WorkDir/GMJ_IVECC2_$i.csv $CurrDir/GMJ_IVECC2_$i.csv

    >>> COPY $WorkDir/GMJ_e2_$i.csv $CurrDir/GMJ_e2_$i.csv

  >>> END IF

>>> END FOREACH

-- ----------------------------------

--- Start Module: gateway at Sun Dec 22 16:42:51 2024 ---
 
()()()()()()()()()()()()()()()()()()()()()()()()()()()()()()()()()()()()()()()()()()()()()()()()()()

                                              &GATEWAY

                                   only a single process is used
                       available to each process: 2.0 GB of memory, 1 thread?
()()()()()()()()()()()()()()()()()()()()()()()()()()()()()()()()()()()()()()()()()()()()()()()()()()
 
 ###############################################################################
 ###############################################################################
 ###                                                                         ###
 ###                                                                         ###
 ###                                                                         ###
 ###    WARNING: EXPERT option is ON!                                        ###
 ###                                                                         ###
 ###                                                                         ###
 ###############################################################################
 ###############################################################################
 
++    Symmetry information:
      ---------------------
 
                    Character Table for C1 
 
                             E  
                    a        1  x, y, xy, Rz, z, xz, Ry, yz, Rx, I
--
 
 
++    Basis set information:
      ----------------------
 
 
      Basis set label: O.ANO-RCC...3S2P1D.
 
      Electronic valence basis set:
      ------------------
      Associated Effective Charge   8.000000 au
      Associated Actual Charge      8.000000 au
      Nuclear Model: Point charge
 
      Shell  nPrim  nBasis  Cartesian Spherical Contaminant
         s      14       3        X                  
         p       9       2        X                  
         d       4       1                 X         
 
 
      Basis set label: FE.ANO-RCC...5S4P2D1F.
 
      Electronic valence basis set:
      ------------------
      Associated Effective Charge  26.000000 au
      Associated Actual Charge     26.000000 au
      Nuclear Model: Point charge
 
      Shell  nPrim  nBasis  Cartesian Spherical Contaminant
         s      21       5        X                  
         p      15       4        X                  
         d      10       2                 X         
         f       6       1                 X         
--
 
 
++    Molecular structure info:
      -------------------------
 
                    ************************************************ 
                    **** Cartesian Coordinates / Bohr, Angstrom **** 
                    ************************************************ 
 
     Center  Label                x              y              z                     x              y              z
        1      O1               0.000000       0.000000       6.796192              0.000000       0.000000       3.596390
        2      FE2              0.000000       0.000000      -3.772630              0.000000       0.000000      -1.996390
--
 
 
            Nuclear Potential Energy             19.68052736 au
 
 ###############################################################################
 ###############################################################################
 ###                                                                         ###
 ###                                                                         ###
 ###    There were warnings during the execution                             ###
 ###    Please, check the output with care!                                  ###
 ###                                                                         ###
 ###                                                                         ###
 ###############################################################################
 ###############################################################################
--- Stop Module: gateway at Sun Dec 22 16:42:51 2024 /rc=_RC_ALL_IS_WELL_ ---
*** files: xmldump
    saved to directory /home/grierjones/DDCASPT2/iron_oxo_DDCASPT2/cluster/5.59

--- Start Module: seward at Sun Dec 22 16:42:51 2024 ---
 
()()()()()()()()()()()()()()()()()()()()()()()()()()()()()()()()()()()()()()()()()()()()()()()()()()

                                              &SEWARD

                                   only a single process is used
                       available to each process: 2.0 GB of memory, 1 thread?
()()()()()()()()()()()()()()()()()()()()()()()()()()()()()()()()()()()()()()()()()()()()()()()()()()
 
 ###############################################################################
 ###############################################################################
 ###                                                                         ###
 ###                                                                         ###
 ###                                                                         ###
 ###    WARNING: EXPERT option is ON!                                        ###
 ###                                                                         ###
 ###                                                                         ###
 ###############################################################################
 ###############################################################################
               SEWARD will generate:
                  Multipole Moment integrals up to order  2
                  Kinetic Energy integrals
                  Nuclear Attraction integrals (point charge)
                  One-Electron Hamiltonian integrals
                  Velocity integrals
                  Relativistic Douglas-Kroll-Hess integrals:
                    - Parametrization         : EXP
                    - DKH order of Hamiltonian: 2
                    - DKH order of Properties : 0
                         - multipole moment operators
                         - electric potential operators
                         - contact operators
                  Atomic mean-field integrals
                  Two-Electron Repulsion integrals
 
                   Integrals are discarded if absolute value <: 0.10E-13
                   Integral cutoff threshold is set to       <: 0.10E-15
 
            Nuclear Potential Energy             19.68052736 au
 
 
      Basis set specifications :
      Symmetry species         a  
      Basis functions           48
 
 
  Input file to MOLDEN was generated!
 
 ###############################################################################
 ###############################################################################
 ###                                                                         ###
 ###                                                                         ###
 ###    There were warnings during the execution                             ###
 ###    Please, check the output with care!                                  ###
 ###                                                                         ###
 ###                                                                         ###
 ###############################################################################
 ###############################################################################
--- Stop Module: seward at Sun Dec 22 16:42:52 2024 /rc=_RC_ALL_IS_WELL_ ---
*** files: 5.59.GssOrb 5.59.guessorb.h5 5.59.guessorb.molden xmldump
    saved to directory /home/grierjones/DDCASPT2/iron_oxo_DDCASPT2/cluster/5.59

*** symbolic link created: INPORB -> 5.59.GssOrb
--- Start Module: scf at Sun Dec 22 16:42:52 2024 ---
 
()()()()()()()()()()()()()()()()()()()()()()()()()()()()()()()()()()()()()()()()()()()()()()()()()()

                                                &SCF

                                   only a single process is used
                       available to each process: 2.0 GB of memory, 1 thread?
()()()()()()()()()()()()()()()()()()()()()()()()()()()()()()()()()()()()()()()()()()()()()()()()()()
 
 *** Possible bug in opening file
 *** isFreeUnit resets the unit number
++    Input section:
      --------------
 
      Header of the integral files:
      
       Integrals generated by seward 4.2.0  , Sun Dec 22 16:42:52 2024
 
 
      Cartesian coordinates in Angstrom:
      -----------------------------------------------------
      No.  Label        X            Y            Z        
      -----------------------------------------------------
       1   O1         0.00000000   0.00000000   3.59639000
       2   FE2        0.00000000   0.00000000  -1.99639000
      -----------------------------------------------------
      Nuclear repulsion energy =   19.68052736
--
 
++    Orbital specifications:
      -----------------------
 
      Symmetry species               1
                                     a
      Frozen orbitals                0
      Start temperature = 0.500
      End temperature   = 0.010
      Temperature Factor= 0.460
      Deleted orbitals               0
      Total number of orbitals      48
      Number of basis functions     48
--
 
      Molecular charge                           2.000
 
++    Optimization specifications:
      ----------------------------
 
      SCF Algorithm: Conventional USCF
      D(i)-D(i-1) density differences are used
      Number of density matrices in core                5
      Maximum number of NDDO SCF iterations           400
      Maximum number of HF SCF iterations             400
      Threshold for SCF energy change            0.10E-08
      Threshold for density matrix               0.10E-03
      Threshold for Fock matrix                  0.15E-03
      Threshold for linear dependence            0.10E-08
      Threshold at which DIIS is turned on       0.15E+00
      Threshold at which QNR/C2DIIS is turned on 0.75E-01
      Threshold for Norm(delta) (QNR/C2DIIS)     0.20E-04
      DIIS extrapolation of the SCF procedure
      All orbitals punched on: UHFORB
--
 
      Input vectors read from INPORB
      Orbital file label: *Guess orbitals
 
 
++ Convergence information
                               UHF SCF        iterations: Energy and convergence statistics
 
Iter     Tot. SCF        One-elec.       Two-elec.     Energy      Max Dij or  Max Fij      DNorm      TNorm      AccCon     Time
         Energy          Energy          Energy        Change      Delta Norm                                                in Sec.
 
 The total and one-electron energies are shifted by a value of      1000. a.u.
 
   1  -343.307401879  -873.266007141   510.278077900   0.00E+00    0.16E+00*   0.36E+00*    0.75E+01   0.18E+03   None         0.
   2  -343.486064284  -869.191738801   506.025147155  -0.18E+00*   0.11E+00*   0.14E+00*    0.10E+01   0.18E+03   EDIIS        0.
   3  -341.590744575  -917.359148314   556.087876376   0.19E+01*   0.62E-01*   0.14E+00*    0.18E+01   0.19E+03   EDIIS        0.
   4  -342.866266143  -857.045274234   494.498480729  -0.13E+01*   0.74E-01*   0.60E-01*    0.15E+01   0.17E+03   EDIIS        0.
   5  -344.051589054  -891.294227398   527.562110982  -0.12E+01*   0.24E-01*   0.36E-01*    0.86E+00   0.18E+03   EDIIS        0.
   6  -344.133511959  -862.849664320   499.035625000  -0.82E-01*   0.13E+00*   0.13E+00*    0.18E+01   0.17E+03   EDIIS        0.
   7  -343.584628069  -902.133886069   538.868730637   0.55E+00*   0.35E-01*   0.41E-01*    0.17E+01   0.18E+03   EDIIS        0.
   8  -344.912782829  -880.833957344   516.240647153  -0.13E+01*   0.27E+00*   0.17E+00*    0.21E+01   0.18E+03   EDIIS        0.
   9  -345.198398196  -869.020733408   504.141807850  -0.29E+00*   0.25E+00*   0.44E+00*    0.17E+01   0.18E+03   EDIIS        0.
  10  -345.104104976  -888.541305436   523.756673098   0.94E-01*   0.11E+00*   0.74E-01*    0.19E+01   0.18E+03   EDIIS        0.
  11  -345.290702646  -872.413937412   507.442707404  -0.19E+00*   0.88E-01*   0.57E-01*    0.60E+00   0.18E+03   EDIIS        0.
  12  -345.298135287  -873.546297665   508.567635016  -0.74E-02*   0.41E-01*   0.22E-01*    0.22E+00   0.18E+03   EDIIS        0.
 
       Fermi aufbau procedure completed!
      nOcc(alpha)=   18
      nOcc(beta) =   14
 
  13  -345.299299883  -873.126742630   508.146915385  -0.12E-02*   0.19E-01*   0.11E-01*    0.90E-01   0.18E+03   EDIIS        0.
  14  -345.299586713  -873.314844126   508.334730052  -0.29E-03*   0.83E-02*   0.47E-02*    0.42E-01   0.18E+03   EDIIS        0.
  15  -345.299670741  -873.242764221   508.262566118  -0.84E-04*   0.56E-02*   0.32E-02*    0.21E-01   0.18E+03   EDIIS        0.
  16  -345.299697787  -873.271934297   508.291709148  -0.27E-04*   0.31E-02*   0.18E-02*    0.12E-01   0.18E+03   EDIIS        0.
  17  -345.299706828  -873.260484862   508.280250671  -0.90E-05*   0.58E-03*   0.22E-02*    0.66E-02   0.18E+03   c2DIIS       0.
  18  -345.299711343  -873.269400087   508.289161383  -0.45E-05*   0.57E-03*   0.18E-03*    0.17E-02   0.18E+03   QNRc2DIIS    0.
  19  -345.299711474  -873.261190264   508.280951428  -0.13E-06*   0.33E-03*   0.10E-03     0.80E-03   0.18E+03   QNRc2DIIS    0.
  20  -345.299711513  -873.262620811   508.282381936  -0.39E-07*   0.29E-03*   0.49E-04     0.45E-03   0.18E+03   QNRc2DIIS    0.
  21  -345.299711523  -873.263438445   508.283199560  -0.10E-07*   0.18E-04    0.12E-05     0.40E-03   0.18E+03   QNRc2DIIS    0.
  22  -345.299711523  -873.263458779   508.283219893  -0.11E-10    0.21E-05    0.84E-06     0.25E-04   0.18E+03   QNRc2DIIS    0.
 
       Convergence after 22 Macro Iterations
--
 
 *****************************************************************************************************************************
 *                                                                                                                           *
 *                                             SCF/KS-DFT Program, Final results                                             *
 *                                                                                                                           *
 *                                                                                                                           *
 *                                                                                                                           *
 *                                                       Final Results                                                       *
 *                                                                                                                           *
 *****************************************************************************************************************************
 
::    Total SCF energy                              -1345.2997115233
      One-electron energy                           -1873.2634587786
      Two-electron energy                             508.2832198934
      Nuclear repulsion energy                         19.6805273619
      Kinetic energy (interpolated)                  1399.7967445912
      Virial theorem                                    0.9610678956
      Total spin, S(S+1)                                8.0094579909
      Total spin, S                                     2.3739272766
      Max non-diagonal density matrix element           0.0000009358
      Max non-diagonal Fock matrix element              0.0000001799
 
 
      All orbitals with orbital energies smaller than  E(LUMO)+0.5 are printed
 
++    Molecular orbitals:
      -------------------
 
      Title: UHF orbitals (alpha)

      Molecular orbitals for symmetry species 1: a  
 
          Orbital            1         2         3         4         5         6         7         8         9        10    
          Energy         -264.6174  -33.4949  -28.5588  -28.5588  -28.5588  -20.8242   -5.4431   -3.9830   -3.9830   -3.9830
          Occ. No.          1.0000    1.0000    1.0000    1.0000    1.0000    1.0000    1.0000    1.0000    1.0000    1.0000
 
        1 O1     1s         0.0000   -0.0000   -0.0000   -0.0000    0.0000    1.0000   -0.0000    0.0000    0.0000   -0.0000
        2 O1     2s         0.0000   -0.0000   -0.0000   -0.0000    0.0000   -0.0022   -0.0002    0.0000    0.0000   -0.0001
        3 O1     3s         0.0000   -0.0000   -0.0000   -0.0000    0.0000    0.0004   -0.0003    0.0000    0.0000   -0.0001
        4 O1     2px       -0.0000   -0.0000   -0.0000   -0.0000   -0.0000   -0.0000    0.0000   -0.0000   -0.0000   -0.0000
        5 O1     3px        0.0000    0.0000   -0.0000   -0.0000   -0.0000   -0.0000   -0.0000   -0.0000   -0.0001   -0.0000
        6 O1     2py       -0.0000    0.0000    0.0000   -0.0000    0.0000    0.0000   -0.0000   -0.0000    0.0000   -0.0000
        7 O1     3py        0.0000   -0.0000    0.0000   -0.0000    0.0000   -0.0000   -0.0000   -0.0001    0.0000   -0.0000
        8 O1     2pz        0.0000    0.0000    0.0000    0.0000   -0.0000   -0.0001    0.0002   -0.0000   -0.0000    0.0001
        9 O1     3pz        0.0000    0.0000    0.0001    0.0000   -0.0000    0.0000    0.0005   -0.0000   -0.0000    0.0002
       10 O1     3d2-       0.0000    0.0000    0.0000   -0.0000    0.0000    0.0000    0.0000   -0.0000   -0.0000   -0.0000
       11 O1     3d1-      -0.0000    0.0000   -0.0000    0.0000   -0.0000   -0.0000    0.0000    0.0000   -0.0000    0.0000
       12 O1     3d0       -0.0000   -0.0000   -0.0000   -0.0000    0.0000    0.0009   -0.0000    0.0000    0.0000   -0.0000
       13 O1     3d1+       0.0000   -0.0000    0.0000    0.0000    0.0000    0.0000   -0.0000    0.0000    0.0000    0.0000
       14 O1     3d2+       0.0000   -0.0000   -0.0000   -0.0000   -0.0000    0.0000   -0.0000    0.0000    0.0000   -0.0000
       15 FE2    1s         1.0000   -0.0000   -0.0000   -0.0000   -0.0000    0.0000    0.0000   -0.0000    0.0000    0.0000
       16 FE2    2s         0.0000    1.0000   -0.0000   -0.0000    0.0000    0.0000   -0.0035    0.0000    0.0000   -0.0000
       17 FE2    3s        -0.0000    0.0035    0.0000    0.0000   -0.0000   -0.0000    0.9999    0.0000    0.0000   -0.0000
       18 FE2    4s         0.0000   -0.0003    0.0000    0.0000   -0.0000   -0.0000   -0.0076   -0.0000   -0.0000    0.0000
       19 FE2    5s        -0.0000    0.0004    0.0000    0.0000   -0.0000   -0.0000    0.0082   -0.0000   -0.0000    0.0000
       20 FE2    2px        0.0000   -0.0000    0.0000    0.1108    0.9938   -0.0000   -0.0000   -0.0002   -0.0035   -0.0000
       21 FE2    3px       -0.0000   -0.0000    0.0000    0.0004    0.0034   -0.0000    0.0000    0.0650    0.9975    0.0000
       22 FE2    4px       -0.0000    0.0000   -0.0000   -0.0001   -0.0006    0.0000    0.0000   -0.0012   -0.0191   -0.0000
       23 FE2    5px       -0.0000   -0.0000    0.0000    0.0002    0.0015   -0.0000    0.0000    0.0012    0.0182    0.0000
       24 FE2    2py       -0.0000    0.0000   -0.0000    0.9938   -0.1108   -0.0000   -0.0000   -0.0035    0.0002   -0.0000
       25 FE2    3py       -0.0000   -0.0000   -0.0000    0.0034   -0.0004   -0.0000    0.0000    0.9975   -0.0650    0.0000
       26 FE2    4py        0.0000   -0.0000    0.0000   -0.0006    0.0001   -0.0000   -0.0000   -0.0191    0.0012   -0.0000
       27 FE2    5py        0.0000   -0.0000   -0.0000    0.0015   -0.0002   -0.0000    0.0000    0.0182   -0.0012    0.0000
       28 FE2    2pz        0.0000    0.0000    1.0000    0.0000   -0.0000    0.0000   -0.0000    0.0000    0.0000   -0.0035
       29 FE2    3pz       -0.0000    0.0000    0.0035    0.0000   -0.0000   -0.0000    0.0000   -0.0000   -0.0000    0.9996
       30 FE2    4pz        0.0000    0.0000   -0.0006   -0.0000    0.0000   -0.0000    0.0001    0.0000    0.0000   -0.0192
       31 FE2    5pz        0.0000    0.0000    0.0015    0.0000   -0.0000   -0.0000    0.0000   -0.0000   -0.0000    0.0182
       32 FE2    3d2-      -0.0000   -0.0000   -0.0000    0.0000   -0.0000    0.0000    0.0000    0.0000    0.0000   -0.0000
       33 FE2    4d2-      -0.0000    0.0000    0.0000   -0.0000   -0.0000   -0.0000   -0.0000   -0.0000    0.0000   -0.0000
       34 FE2    3d1-       0.0000    0.0000   -0.0000    0.0000   -0.0000   -0.0000    0.0000    0.0000   -0.0000    0.0000
       35 FE2    4d1-       0.0000   -0.0000   -0.0000    0.0000   -0.0000    0.0000    0.0000   -0.0000    0.0000   -0.0000
       36 FE2    3d0        0.0000    0.0000    0.0000    0.0000   -0.0000   -0.0000   -0.0000   -0.0000   -0.0000    0.0000
       37 FE2    4d0        0.0000    0.0000    0.0000    0.0000   -0.0000   -0.0000    0.0000    0.0000    0.0000   -0.0000
       38 FE2    3d1+      -0.0000   -0.0000    0.0000    0.0000    0.0000    0.0000   -0.0000    0.0000    0.0000    0.0000
       39 FE2    4d1+      -0.0000    0.0000    0.0000    0.0000    0.0000   -0.0000    0.0000   -0.0000   -0.0000   -0.0000
       40 FE2    3d2+       0.0000    0.0000   -0.0000    0.0000    0.0000    0.0000    0.0000   -0.0000   -0.0000   -0.0000
       41 FE2    4d2+       0.0000   -0.0000    0.0000    0.0000   -0.0000   -0.0000   -0.0000   -0.0000    0.0000    0.0000
       42 FE2    4f3-       0.0000   -0.0000   -0.0000    0.0000    0.0000    0.0000    0.0000    0.0000   -0.0000    0.0000
       43 FE2    4f2-      -0.0000    0.0000   -0.0000   -0.0000    0.0000    0.0000   -0.0000    0.0000   -0.0000   -0.0000
       44 FE2    4f1-      -0.0000    0.0000    0.0000    0.0000   -0.0000   -0.0000   -0.0000   -0.0000    0.0000   -0.0000
       45 FE2    4f0        0.0000    0.0000    0.0000    0.0000   -0.0000   -0.0000    0.0000    0.0000    0.0000   -0.0000
       46 FE2    4f1+      -0.0000    0.0000    0.0000    0.0000    0.0000   -0.0000   -0.0000   -0.0000   -0.0000   -0.0000
       47 FE2    4f2+      -0.0000    0.0000    0.0000   -0.0000   -0.0000    0.0000   -0.0000    0.0000   -0.0000    0.0000
       48 FE2    4f3+       0.0000    0.0000    0.0000   -0.0000   -0.0000    0.0000    0.0000    0.0000    0.0000    0.0000
 
          Orbital           11        12        13        14        15        16        17        18        19        20    
          Energy           -1.6637   -1.6637   -1.6637   -1.6637   -1.6637   -1.2690   -0.9508   -0.7090   -0.4825   -0.4825
          Occ. No.          1.0000    1.0000    1.0000    1.0000    1.0000    1.0000    1.0000    1.0000    0.0000    0.0000
 
        1 O1     1s         0.0000    0.0000    0.0000    0.0000   -0.0000    0.0021    0.0004    0.0001    0.0000   -0.0000
        2 O1     2s         0.0003    0.0000    0.0000    0.0000   -0.0000    0.9992    0.0038    0.0146    0.0000   -0.0000
        3 O1     3s         0.0003    0.0000    0.0000    0.0000   -0.0000    0.0222    0.0040   -0.0090    0.0000   -0.0000
        4 O1     2px        0.0000    0.0000   -0.0000    0.0001    0.0000    0.0000   -0.0000    0.0000   -0.0006   -0.0008
        5 O1     3px        0.0000    0.0000   -0.0000    0.0002    0.0001   -0.0000   -0.0000    0.0000   -0.0013   -0.0017
        6 O1     2py        0.0000   -0.0000    0.0000   -0.0000    0.0001    0.0000    0.0000   -0.0000   -0.0008    0.0006
        7 O1     3py        0.0000   -0.0000    0.0000   -0.0001    0.0002   -0.0000    0.0000   -0.0000   -0.0017    0.0013
        8 O1     2pz       -0.0004   -0.0000   -0.0000   -0.0000    0.0000   -0.0139   -0.0052    0.9984   -0.0000    0.0000
        9 O1     3pz       -0.0008   -0.0000   -0.0000   -0.0000    0.0000   -0.0051   -0.0064    0.0500   -0.0000    0.0000
       10 O1     3d2-       0.0000   -0.0000    0.0000   -0.0000   -0.0000    0.0000   -0.0000    0.0000   -0.0000    0.0000
       11 O1     3d1-      -0.0000    0.0000   -0.0000    0.0000   -0.0000   -0.0000    0.0000   -0.0000    0.0000   -0.0000
       12 O1     3d0        0.0001    0.0000    0.0000    0.0000   -0.0000    0.0294    0.0002   -0.0043    0.0000   -0.0000
       13 O1     3d1+      -0.0000   -0.0000    0.0000   -0.0000   -0.0000    0.0000    0.0000   -0.0000    0.0000    0.0000
       14 O1     3d2+      -0.0000    0.0000    0.0000    0.0000   -0.0000    0.0000    0.0000    0.0000    0.0000   -0.0000
       15 FE2    1s        -0.0000   -0.0000   -0.0000    0.0000    0.0000   -0.0000   -0.0000    0.0000   -0.0000    0.0000
       16 FE2    2s        -0.0000   -0.0000   -0.0000    0.0000    0.0000   -0.0000    0.0004    0.0001   -0.0000   -0.0000
       17 FE2    3s         0.0000    0.0000    0.0000    0.0000   -0.0000   -0.0000    0.0101    0.0004   -0.0000    0.0000
       18 FE2    4s        -0.0001   -0.0000   -0.0000   -0.0000    0.0000    0.0000    0.9284    0.0049   -0.0000    0.0000
       19 FE2    5s        -0.0001   -0.0000   -0.0000   -0.0000    0.0000   -0.0004   -0.3712   -0.0019   -0.0000   -0.0000
       20 FE2    2px       -0.0000   -0.0000    0.0000   -0.0000   -0.0000    0.0000   -0.0000   -0.0000    0.0003    0.0004
       21 FE2    3px        0.0000   -0.0000    0.0000   -0.0000   -0.0000   -0.0000    0.0000    0.0000    0.0111    0.0149
       22 FE2    4px        0.0000   -0.0000   -0.0000   -0.0001   -0.0000    0.0000    0.0000    0.0000    0.5963    0.8020
       23 FE2    5px       -0.0000   -0.0000    0.0000   -0.0000   -0.0000    0.0000   -0.0000   -0.0000    0.0193    0.0259
       24 FE2    2py        0.0000    0.0000   -0.0000    0.0000   -0.0000    0.0000    0.0000   -0.0000    0.0004   -0.0003
       25 FE2    3py       -0.0000    0.0000   -0.0000    0.0000   -0.0000   -0.0000   -0.0000    0.0000    0.0149   -0.0111
       26 FE2    4py       -0.0000    0.0000   -0.0000    0.0000   -0.0001   -0.0000   -0.0000    0.0000    0.8020   -0.5963
       27 FE2    5py       -0.0000    0.0000    0.0000    0.0000   -0.0000    0.0000    0.0000   -0.0000    0.0259   -0.0193
       28 FE2    2pz       -0.0000   -0.0000   -0.0000   -0.0000    0.0000   -0.0000   -0.0000    0.0000   -0.0000    0.0000
       29 FE2    3pz       -0.0000   -0.0000   -0.0000   -0.0000    0.0000   -0.0000   -0.0001    0.0001   -0.0000    0.0000
       30 FE2    4pz       -0.0002   -0.0000   -0.0000   -0.0000    0.0000   -0.0001   -0.0034   -0.0066   -0.0000    0.0000
       31 FE2    5pz       -0.0000   -0.0000   -0.0000   -0.0000    0.0000   -0.0001   -0.0003   -0.0002   -0.0000    0.0000
       32 FE2    3d2-      -0.0000   -0.0311    0.9902    0.0000    0.0000    0.0000    0.0000   -0.0000    0.0000    0.0000
       33 FE2    4d2-       0.0000    0.0043   -0.1363   -0.0000   -0.0000   -0.0000   -0.0000   -0.0000    0.0000   -0.0000
       34 FE2    3d1-       0.0000   -0.0000    0.0000   -0.4318    0.8916    0.0000   -0.0000    0.0000    0.0000   -0.0000
       35 FE2    4d1-      -0.0000    0.0000   -0.0000    0.0594   -0.1228    0.0000   -0.0000    0.0000   -0.0003    0.0002
       36 FE2    3d0        0.9906    0.0000    0.0000    0.0000   -0.0000   -0.0000   -0.0001    0.0002   -0.0000   -0.0000
       37 FE2    4d0       -0.1364   -0.0000   -0.0000   -0.0000    0.0000    0.0000   -0.0004   -0.0008    0.0000   -0.0000
       38 FE2    3d1+      -0.0000    0.0000   -0.0000    0.8916    0.4318   -0.0000   -0.0000   -0.0000    0.0000    0.0000
       39 FE2    4d1+       0.0000   -0.0000    0.0000   -0.1228   -0.0594    0.0000    0.0000   -0.0000   -0.0002   -0.0003
       40 FE2    3d2+      -0.0000    0.9902    0.0311   -0.0000    0.0000    0.0000    0.0000   -0.0000    0.0000   -0.0000
       41 FE2    4d2+       0.0000   -0.1363   -0.0043    0.0000   -0.0000    0.0000    0.0000   -0.0000    0.0000   -0.0000
       42 FE2    4f3-      -0.0000    0.0000   -0.0000    0.0000   -0.0000   -0.0000   -0.0000   -0.0000    0.0000    0.0000
       43 FE2    4f2-      -0.0000   -0.0000    0.0000    0.0000    0.0000    0.0000   -0.0000    0.0000    0.0000   -0.0000
       44 FE2    4f1-       0.0000   -0.0000    0.0000   -0.0000    0.0000    0.0000    0.0000    0.0000   -0.0000    0.0000
       45 FE2    4f0        0.0000    0.0000    0.0000    0.0000   -0.0000    0.0000   -0.0000   -0.0000    0.0000   -0.0000
       46 FE2    4f1+       0.0000    0.0000   -0.0000    0.0000    0.0000    0.0000    0.0000   -0.0000   -0.0000   -0.0000
       47 FE2    4f2+      -0.0000    0.0000    0.0000   -0.0000    0.0000   -0.0000    0.0000   -0.0000   -0.0000   -0.0000
       48 FE2    4f3+       0.0000   -0.0000    0.0000    0.0000   -0.0000   -0.0000   -0.0000    0.0000    0.0000    0.0000
 
          Orbital           21        22        23        24    
          Energy           -0.4822   -0.2487   -0.1000   -0.1000
          Occ. No.          0.0000    0.0000    0.0000    0.0000
 
        1 O1     1s        -0.0007   -0.0022    0.0000   -0.0000
        2 O1     2s        -0.0107   -0.0299   -0.0000    0.0000
        3 O1     3s        -0.0045   -0.0057    0.0000   -0.0000
        4 O1     2px        0.0000    0.0000    0.9440   -0.0400
        5 O1     3px        0.0000    0.0000    0.3270   -0.0139
        6 O1     2py       -0.0000   -0.0000    0.0400    0.9440
        7 O1     3py       -0.0000   -0.0000    0.0139    0.3270
        8 O1     2pz        0.0260    0.0398   -0.0000    0.0000
        9 O1     3pz        0.0096    0.0072   -0.0000    0.0000
       10 O1     3d2-       0.0000    0.0000    0.0000   -0.0000
       11 O1     3d1-       0.0000    0.0000   -0.0002   -0.0043
       12 O1     3d0       -0.0001    0.0001    0.0000   -0.0000
       13 O1     3d1+      -0.0000   -0.0000   -0.0043    0.0002
       14 O1     3d2+      -0.0000   -0.0000   -0.0000   -0.0000
       15 FE2    1s         0.0000    0.0000    0.0000    0.0000
       16 FE2    2s         0.0000   -0.0002   -0.0000    0.0000
       17 FE2    3s         0.0001   -0.0047   -0.0000    0.0000
       18 FE2    4s         0.0029    0.3711   -0.0000    0.0000
       19 FE2    5s        -0.0008    0.9309   -0.0000    0.0000
       20 FE2    2px       -0.0000   -0.0000   -0.0000    0.0000
       21 FE2    3px       -0.0000    0.0000   -0.0002    0.0000
       22 FE2    4px       -0.0000    0.0000   -0.0065    0.0003
       23 FE2    5px       -0.0000   -0.0000    0.0014   -0.0001
       24 FE2    2py        0.0000   -0.0000   -0.0000   -0.0000
       25 FE2    3py        0.0000    0.0000   -0.0000   -0.0002
       26 FE2    4py        0.0000    0.0000   -0.0003   -0.0065
       27 FE2    5py        0.0000   -0.0000    0.0001    0.0014
       28 FE2    2pz        0.0005    0.0000   -0.0000    0.0000
       29 FE2    3pz        0.0186    0.0001   -0.0000    0.0000
       30 FE2    4pz        1.0002    0.0026   -0.0000    0.0000
       31 FE2    5pz        0.0324   -0.0003    0.0000   -0.0000
       32 FE2    3d2-       0.0000   -0.0000    0.0000    0.0000
       33 FE2    4d2-       0.0000   -0.0000    0.0000    0.0000
       34 FE2    3d1-       0.0000   -0.0000    0.0000    0.0010
       35 FE2    4d1-      -0.0000   -0.0000    0.0003    0.0082
       36 FE2    3d0        0.0000   -0.0001    0.0000   -0.0000
       37 FE2    4d0       -0.0006   -0.0009    0.0000   -0.0000
       38 FE2    3d1+      -0.0000   -0.0000    0.0010   -0.0000
       39 FE2    4d1+       0.0000    0.0000    0.0082   -0.0003
       40 FE2    3d2+      -0.0000    0.0000   -0.0000   -0.0000
       41 FE2    4d2+      -0.0000    0.0000   -0.0000   -0.0000
       42 FE2    4f3-       0.0000   -0.0000   -0.0000    0.0000
       43 FE2    4f2-       0.0000   -0.0000    0.0000   -0.0000
       44 FE2    4f1-      -0.0000    0.0000    0.0000    0.0001
       45 FE2    4f0       -0.0000   -0.0000    0.0000   -0.0000
       46 FE2    4f1+       0.0000   -0.0000    0.0001   -0.0000
       47 FE2    4f2+       0.0000   -0.0000   -0.0000   -0.0000
       48 FE2    4f3+      -0.0000    0.0000    0.0000    0.0000
--
 
 
  Input file to MOLDEN was generated!
 
 
++    Static properties:
      ------------------
 
 
      LoProp Charges per center
 

                   O1       FE2   
      Nuclear      8.0000  26.0000
      Electronic  -8.0001 -23.9999
 
      Total       -0.0001   2.0001
--
 
 
      All orbitals with orbital energies smaller than  E(LUMO)+0.5 are printed
 
++    Molecular orbitals:
      -------------------
 
      Title: UHF orbitals (beta)

      Molecular orbitals for symmetry species 1: a  
 
          Orbital            1         2         3         4         5         6         7         8         9        10    
          Energy         -264.6095  -33.3183  -28.3863  -28.3863  -28.3863  -20.9092   -4.9690   -3.4205   -3.4205   -3.4205
          Occ. No.          1.0000    1.0000    1.0000    1.0000    1.0000    1.0000    1.0000    1.0000    1.0000    1.0000
 
        1 O1     1s         0.0000    0.0000    0.0000    0.0000   -0.0000    1.0000   -0.0000   -0.0000   -0.0000    0.0000
        2 O1     2s         0.0000    0.0000    0.0000    0.0000   -0.0000    0.0019   -0.0001   -0.0000   -0.0000    0.0001
        3 O1     3s         0.0000    0.0000    0.0000    0.0000   -0.0000   -0.0017   -0.0001   -0.0000   -0.0000    0.0001
        4 O1     2px       -0.0000   -0.0000    0.0000    0.0000    0.0000   -0.0000    0.0000    0.0000    0.0000    0.0000
        5 O1     3px        0.0000    0.0000    0.0000    0.0000    0.0000   -0.0000   -0.0000    0.0000    0.0001    0.0000
        6 O1     2py       -0.0000    0.0000   -0.0000    0.0000   -0.0000    0.0000   -0.0000    0.0000   -0.0000    0.0000
        7 O1     3py        0.0000   -0.0000   -0.0000    0.0000   -0.0000   -0.0000   -0.0000    0.0001   -0.0000    0.0000
        8 O1     2pz        0.0000   -0.0000   -0.0000   -0.0000    0.0000   -0.0001    0.0001    0.0000    0.0000   -0.0001
        9 O1     3pz        0.0000   -0.0000   -0.0001   -0.0000    0.0000    0.0001    0.0002    0.0000    0.0000   -0.0002
       10 O1     3d2-       0.0000    0.0000    0.0000   -0.0000    0.0000   -0.0000    0.0000   -0.0000   -0.0000   -0.0000
       11 O1     3d1-      -0.0000    0.0000    0.0000   -0.0000    0.0000    0.0000    0.0000   -0.0000    0.0000   -0.0000
       12 O1     3d0       -0.0000    0.0000    0.0000    0.0000   -0.0000   -0.0004   -0.0000   -0.0000   -0.0000    0.0000
       13 O1     3d1+       0.0000   -0.0000   -0.0000   -0.0000   -0.0000   -0.0000   -0.0000   -0.0000   -0.0000   -0.0000
       14 O1     3d2+       0.0000   -0.0000   -0.0000   -0.0000   -0.0000   -0.0000   -0.0000    0.0000    0.0000   -0.0000
       15 FE2    1s         1.0000   -0.0000   -0.0000   -0.0000    0.0000    0.0000    0.0000    0.0000    0.0000   -0.0000
       16 FE2    2s         0.0000    1.0000   -0.0000   -0.0000    0.0000    0.0000    0.0011    0.0000    0.0000   -0.0000
       17 FE2    3s        -0.0000   -0.0011    0.0000    0.0000   -0.0000    0.0000    1.0000    0.0000    0.0000   -0.0001
       18 FE2    4s         0.0000    0.0002   -0.0000   -0.0000    0.0000    0.0000   -0.0028    0.0000    0.0000   -0.0000
       19 FE2    5s        -0.0000   -0.0002   -0.0000   -0.0000    0.0000    0.0000    0.0033    0.0000    0.0000   -0.0000
       20 FE2    2px        0.0000   -0.0000    0.0000    0.0995    0.9950   -0.0000   -0.0000    0.0003    0.0032    0.0000
       21 FE2    3px       -0.0000   -0.0000   -0.0000   -0.0003   -0.0032   -0.0000    0.0000    0.0875    0.9961    0.0000
       22 FE2    4px       -0.0000    0.0000    0.0000    0.0000    0.0004    0.0000    0.0000   -0.0010   -0.0114   -0.0000
       23 FE2    5px       -0.0000   -0.0000   -0.0000   -0.0001   -0.0011   -0.0000    0.0000    0.0005    0.0055    0.0000
       24 FE2    2py       -0.0000    0.0000   -0.0000    0.9950   -0.0995   -0.0000   -0.0000    0.0032   -0.0003    0.0000
       25 FE2    3py       -0.0000   -0.0000    0.0000   -0.0032    0.0003   -0.0000    0.0000    0.9961   -0.0875    0.0000
       26 FE2    4py        0.0000   -0.0000   -0.0000    0.0004   -0.0000    0.0000   -0.0000   -0.0114    0.0010   -0.0000
       27 FE2    5py        0.0000   -0.0000    0.0000   -0.0011    0.0001   -0.0000    0.0000    0.0055   -0.0005    0.0000
       28 FE2    2pz        0.0000    0.0000    1.0000    0.0000   -0.0000    0.0000   -0.0000   -0.0000   -0.0000    0.0032
       29 FE2    3pz       -0.0000    0.0000   -0.0032   -0.0000    0.0000    0.0000    0.0001   -0.0000   -0.0000    0.9999
       30 FE2    4pz        0.0000   -0.0000    0.0004    0.0000   -0.0000    0.0000    0.0000    0.0000    0.0000   -0.0115
       31 FE2    5pz        0.0000   -0.0000   -0.0011   -0.0000    0.0000    0.0000    0.0000   -0.0000   -0.0000    0.0055
       32 FE2    3d2-      -0.0000   -0.0000   -0.0000    0.0000    0.0000    0.0000    0.0000    0.0000   -0.0000    0.0000
       33 FE2    4d2-      -0.0000    0.0000    0.0000   -0.0000   -0.0000   -0.0000   -0.0000   -0.0000    0.0000   -0.0000
       34 FE2    3d1-       0.0000    0.0000   -0.0000    0.0000   -0.0000   -0.0000    0.0000    0.0000   -0.0000    0.0000
       35 FE2    4d1-       0.0000   -0.0000    0.0000   -0.0000    0.0000    0.0000    0.0000   -0.0000    0.0000   -0.0000
       36 FE2    3d0        0.0000   -0.0000    0.0000    0.0000    0.0000    0.0000   -0.0000   -0.0000   -0.0000    0.0000
       37 FE2    4d0        0.0000   -0.0000   -0.0000   -0.0000    0.0000    0.0000    0.0000    0.0000    0.0000   -0.0000
       38 FE2    3d1+      -0.0000   -0.0000    0.0000    0.0000    0.0000    0.0000   -0.0000    0.0000    0.0000    0.0000
       39 FE2    4d1+      -0.0000    0.0000   -0.0000   -0.0000   -0.0000   -0.0000    0.0000   -0.0000   -0.0000   -0.0000
       40 FE2    3d2+       0.0000    0.0000    0.0000    0.0000    0.0000    0.0000    0.0000   -0.0000   -0.0000   -0.0000
       41 FE2    4d2+       0.0000   -0.0000   -0.0000    0.0000   -0.0000   -0.0000    0.0000   -0.0000    0.0000    0.0000
       42 FE2    4f3-       0.0000   -0.0000   -0.0000    0.0000    0.0000    0.0000   -0.0000    0.0000   -0.0000    0.0000
       43 FE2    4f2-      -0.0000    0.0000   -0.0000   -0.0000    0.0000    0.0000    0.0000    0.0000    0.0000   -0.0000
       44 FE2    4f1-      -0.0000    0.0000    0.0000   -0.0000    0.0000   -0.0000   -0.0000   -0.0000    0.0000   -0.0000
       45 FE2    4f0        0.0000   -0.0000   -0.0000   -0.0000    0.0000    0.0000   -0.0000    0.0000    0.0000   -0.0000
       46 FE2    4f1+      -0.0000    0.0000   -0.0000   -0.0000   -0.0000   -0.0000   -0.0000   -0.0000   -0.0000   -0.0000
       47 FE2    4f2+      -0.0000    0.0000    0.0000   -0.0000   -0.0000    0.0000   -0.0000    0.0000   -0.0000    0.0000
       48 FE2    4f3+       0.0000    0.0000    0.0000   -0.0000   -0.0000    0.0000    0.0000    0.0000    0.0000    0.0000
 
          Orbital           11        12        13        14        15        16        17        18        19        20    
          Energy           -1.6114   -0.9018   -0.9018   -0.8034   -0.5743   -0.5724   -0.5724   -0.5723   -0.5723   -0.5723
          Occ. No.          1.0000    1.0000    1.0000    1.0000    0.0000    0.0000    0.0000    0.0000    0.0000    0.0000
 
        1 O1     1s        -0.0020    0.0000   -0.0000    0.0000    0.0001   -0.0000    0.0000   -0.0000   -0.0000   -0.0000
        2 O1     2s         0.9993   -0.0000   -0.0000    0.0109    0.0006   -0.0000    0.0000   -0.0000   -0.0000   -0.0009
        3 O1     3s        -0.0284    0.0000   -0.0000   -0.0084    0.0010    0.0000    0.0000   -0.0000   -0.0000   -0.0004
        4 O1     2px       -0.0000    0.9972   -0.0573    0.0000    0.0000   -0.0000    0.0000   -0.0004   -0.0000    0.0000
        5 O1     3px       -0.0000   -0.0470    0.0027   -0.0000    0.0000   -0.0000    0.0000   -0.0004   -0.0000    0.0000
        6 O1     2py        0.0000    0.0573    0.9972   -0.0000   -0.0000   -0.0000   -0.0000    0.0000   -0.0004   -0.0000
        7 O1     3py       -0.0000   -0.0027   -0.0470    0.0000    0.0000   -0.0000   -0.0000    0.0000   -0.0004    0.0000
        8 O1     2pz       -0.0113   -0.0000    0.0000    0.9999    0.0044    0.0000   -0.0000    0.0000    0.0000    0.0037
        9 O1     3pz       -0.0024    0.0000   -0.0000   -0.0093   -0.0017    0.0000   -0.0000    0.0000    0.0000    0.0015
       10 O1     3d2-       0.0000    0.0000   -0.0000    0.0000   -0.0000   -0.0000    0.0000   -0.0000   -0.0000    0.0000
       11 O1     3d1-       0.0000   -0.0002   -0.0040   -0.0000   -0.0000   -0.0000    0.0000   -0.0000    0.0000    0.0000
       12 O1     3d0       -0.0212    0.0000   -0.0000   -0.0053    0.0001   -0.0000    0.0000   -0.0000   -0.0000   -0.0000
       13 O1     3d1+      -0.0000   -0.0040    0.0002   -0.0000    0.0000   -0.0000   -0.0000    0.0000    0.0000   -0.0000
       14 O1     3d2+      -0.0000   -0.0000   -0.0000    0.0000    0.0000    0.0000    0.0000    0.0000   -0.0000   -0.0000
       15 FE2    1s        -0.0000    0.0000    0.0000    0.0000   -0.0000   -0.0000    0.0000    0.0000   -0.0000   -0.0000
       16 FE2    2s        -0.0000    0.0000   -0.0000    0.0000   -0.0002   -0.0000    0.0000    0.0000   -0.0000   -0.0000
       17 FE2    3s        -0.0000   -0.0000    0.0000    0.0002    0.0035    0.0000   -0.0000    0.0000    0.0000    0.0002
       18 FE2    4s        -0.0002   -0.0000    0.0000   -0.0012    0.9678    0.0000   -0.0000   -0.0000    0.0000    0.0429
       19 FE2    5s        -0.0007   -0.0000    0.0000    0.0014   -0.2474   -0.0000    0.0000    0.0000   -0.0000   -0.0108
       20 FE2    2px        0.0000   -0.0000    0.0000   -0.0000   -0.0000   -0.0000    0.0000   -0.0000   -0.0000   -0.0000
       21 FE2    3px       -0.0000   -0.0000    0.0000    0.0000    0.0000   -0.0000    0.0000   -0.0000   -0.0000    0.0000
       22 FE2    4px        0.0000   -0.0003    0.0000    0.0000    0.0000    0.0000   -0.0000    0.0000    0.0000    0.0000
       23 FE2    5px        0.0000   -0.0001    0.0000   -0.0000   -0.0000   -0.0000   -0.0000   -0.0000   -0.0000   -0.0000
       24 FE2    2py        0.0000   -0.0000   -0.0000   -0.0000    0.0000   -0.0000   -0.0000    0.0000   -0.0000    0.0000
       25 FE2    3py       -0.0000   -0.0000   -0.0000    0.0000   -0.0000    0.0000   -0.0000    0.0000   -0.0000    0.0000
       26 FE2    4py       -0.0000   -0.0000   -0.0003    0.0000   -0.0000    0.0000   -0.0000   -0.0000    0.0000   -0.0000
       27 FE2    5py        0.0000   -0.0000   -0.0001   -0.0000   -0.0000    0.0000   -0.0000    0.0000   -0.0000    0.0000
       28 FE2    2pz       -0.0000    0.0000   -0.0000    0.0000    0.0000   -0.0000    0.0000   -0.0000    0.0000   -0.0000
       29 FE2    3pz       -0.0000   -0.0000    0.0000    0.0001   -0.0000    0.0000    0.0000   -0.0000   -0.0000   -0.0000
       30 FE2    4pz       -0.0004   -0.0000    0.0000   -0.0002   -0.0009    0.0000    0.0000    0.0000   -0.0000   -0.0003
       31 FE2    5pz       -0.0002   -0.0000    0.0000    0.0001   -0.0002   -0.0000    0.0000    0.0000   -0.0000   -0.0000
       32 FE2    3d2-      -0.0000    0.0000   -0.0000    0.0000   -0.0000   -0.0214    0.9917    0.0000   -0.0000    0.0000
       33 FE2    4d2-       0.0000    0.0000   -0.0000   -0.0000   -0.0000   -0.0027    0.1265    0.0000   -0.0000    0.0000
       34 FE2    3d1-      -0.0000   -0.0000   -0.0000    0.0000   -0.0000    0.0000    0.0000   -0.1022    0.9867   -0.0000
       35 FE2    4d1-       0.0000   -0.0000   -0.0001    0.0000   -0.0000    0.0000    0.0000   -0.0130    0.1258   -0.0000
       36 FE2    3d0       -0.0000    0.0000    0.0000   -0.0009   -0.0438    0.0000   -0.0000    0.0000    0.0000    0.9910
       37 FE2    4d0       -0.0001    0.0000    0.0000   -0.0002   -0.0058    0.0000   -0.0000    0.0000    0.0000    0.1263
       38 FE2    3d1+       0.0000   -0.0000    0.0000   -0.0000    0.0000    0.0000   -0.0000    0.9867    0.1022   -0.0000
       39 FE2    4d1+       0.0000   -0.0001    0.0000   -0.0000    0.0000    0.0000   -0.0000    0.1258    0.0130   -0.0000
       40 FE2    3d2+      -0.0000    0.0000    0.0000    0.0000   -0.0000    0.9917    0.0214   -0.0000   -0.0000   -0.0000
       41 FE2    4d2+       0.0000   -0.0000   -0.0000    0.0000   -0.0000    0.1265    0.0027   -0.0000   -0.0000   -0.0000
       42 FE2    4f3-      -0.0000   -0.0000    0.0000   -0.0000   -0.0000    0.0000   -0.0000    0.0000   -0.0000   -0.0000
       43 FE2    4f2-       0.0000    0.0000   -0.0000    0.0000    0.0000   -0.0000    0.0000    0.0000   -0.0000    0.0000
       44 FE2    4f1-       0.0000    0.0000    0.0000    0.0000    0.0000   -0.0000    0.0000   -0.0000    0.0000   -0.0000
       45 FE2    4f0       -0.0000    0.0000   -0.0000   -0.0000   -0.0000   -0.0000   -0.0000    0.0000    0.0000    0.0000
       46 FE2    4f1+       0.0000    0.0000   -0.0000   -0.0000    0.0000    0.0000   -0.0000    0.0000    0.0000   -0.0000
       47 FE2    4f2+      -0.0000   -0.0000   -0.0000   -0.0000    0.0000    0.0000    0.0000   -0.0000   -0.0000   -0.0000
       48 FE2    4f3+      -0.0000    0.0000    0.0000    0.0000   -0.0000   -0.0000   -0.0000   -0.0000   -0.0000    0.0000
 
          Orbital           21        22        23        24    
          Energy           -0.3924   -0.3924   -0.3920   -0.2270
          Occ. No.          0.0000    0.0000    0.0000    0.0000
 
        1 O1     1s         0.0000    0.0000   -0.0008   -0.0022
        2 O1     2s         0.0000    0.0000   -0.0096   -0.0263
        3 O1     3s         0.0000    0.0000   -0.0026   -0.0025
        4 O1     2px       -0.0014    0.0013    0.0000    0.0000
        5 O1     3px       -0.0006    0.0006    0.0000    0.0000
        6 O1     2py       -0.0013   -0.0014   -0.0000   -0.0000
        7 O1     3py       -0.0006   -0.0006   -0.0000   -0.0000
        8 O1     2pz       -0.0000   -0.0000    0.0160    0.0310
        9 O1     3pz       -0.0000   -0.0000    0.0026    0.0018
       10 O1     3d2-      -0.0000   -0.0000    0.0000    0.0000
       11 O1     3d1-      -0.0000   -0.0000   -0.0000   -0.0000
       12 O1     3d0        0.0000   -0.0000    0.0003    0.0007
       13 O1     3d1+      -0.0000    0.0000   -0.0000    0.0000
       14 O1     3d2+       0.0000    0.0000   -0.0000   -0.0000
       15 FE2    1s        -0.0000   -0.0000    0.0000    0.0000
       16 FE2    2s        -0.0000    0.0000    0.0000    0.0002
       17 FE2    3s        -0.0000    0.0000    0.0000   -0.0024
       18 FE2    4s        -0.0000    0.0000    0.0004    0.2479
       19 FE2    5s        -0.0000    0.0000   -0.0021    0.9701
       20 FE2    2px       -0.0002    0.0002    0.0000   -0.0000
       21 FE2    3px        0.0082   -0.0074   -0.0000    0.0000
       22 FE2    4px        0.7406   -0.6680   -0.0000    0.0000
       23 FE2    5px        0.0535   -0.0483   -0.0000    0.0000
       24 FE2    2py       -0.0002   -0.0002   -0.0000   -0.0000
       25 FE2    3py        0.0074    0.0082    0.0000    0.0000
       26 FE2    4py        0.6680    0.7406    0.0000    0.0000
       27 FE2    5py        0.0483    0.0535    0.0000   -0.0000
       28 FE2    2pz        0.0000    0.0000   -0.0003   -0.0000
       29 FE2    3pz       -0.0000   -0.0000    0.0110    0.0001
       30 FE2    4pz       -0.0000   -0.0000    0.9978    0.0035
       31 FE2    5pz       -0.0000   -0.0000    0.0720   -0.0000
       32 FE2    3d2-       0.0000   -0.0000    0.0000   -0.0000
       33 FE2    4d2-       0.0000   -0.0000    0.0000   -0.0000
       34 FE2    3d1-       0.0000    0.0000    0.0000    0.0000
       35 FE2    4d1-      -0.0000   -0.0000   -0.0000   -0.0000
       36 FE2    3d0       -0.0000   -0.0000    0.0005    0.0003
       37 FE2    4d0        0.0000    0.0000   -0.0002   -0.0005
       38 FE2    3d1+       0.0000   -0.0000   -0.0000   -0.0000
       39 FE2    4d1+      -0.0000    0.0000    0.0000   -0.0000
       40 FE2    3d2+      -0.0000    0.0000   -0.0000   -0.0000
       41 FE2    4d2+       0.0000    0.0000   -0.0000    0.0000
       42 FE2    4f3-       0.0000   -0.0000    0.0000   -0.0000
       43 FE2    4f2-      -0.0000    0.0000    0.0000   -0.0000
       44 FE2    4f1-      -0.0000   -0.0000   -0.0000    0.0000
       45 FE2    4f0       -0.0000    0.0000   -0.0000   -0.0000
       46 FE2    4f1+      -0.0000    0.0000    0.0000   -0.0000
       47 FE2    4f2+      -0.0000    0.0000    0.0000   -0.0000
       48 FE2    4f3+       0.0000   -0.0000   -0.0000    0.0000
--
 
 
++    Molecular charges:
      ------------------
 
      Mulliken charges per centre and basis function type
      ---------------------------------------------------
 
                            O1                      FE2   
                     alpha        beta       alpha        beta
      1s           1.0000      1.0000      1.0000      1.0000
      2s           0.9986      0.9988      1.0000      1.0000
      2px          0.0000      0.9978      1.0000      1.0000
      2pz          0.9972      0.9998      1.0000      1.0000
      2py          0.0000      0.9978      1.0000      1.0000
      3s           0.0006      0.0009      1.0000      1.0000
      3px          0.0000      0.0022      0.9993      0.9998
      3pz          0.0027      0.0001      0.9993      0.9998
      3py          0.0000      0.0022      0.9993      0.9998
      4s           0.0000      0.0000      0.8624      0.0000
      3d2+        -0.0000      0.0000      0.9814      0.0000
      3d1+        -0.0000      0.0000      0.9814     -0.0000
      3d0          0.0009      0.0005      0.9814      0.0000
      3d1-        -0.0000      0.0000      0.9814     -0.0000
      3d2-        -0.0000      0.0000      0.9814      0.0000
      4px          0.0000      0.0000      0.0004      0.0001
      4pz          0.0000      0.0000      0.0005      0.0001
      4py          0.0000      0.0000      0.0004      0.0001
      5s           0.0000      0.0000      0.1374     -0.0000
      4d2+         0.0000      0.0000      0.0186      0.0000
      4d1+         0.0000      0.0000      0.0186     -0.0000
      4d0          0.0000      0.0000      0.0186      0.0000
      4d1-         0.0000      0.0000      0.0186     -0.0000
      4d2-         0.0000      0.0000      0.0186      0.0000
      5px          0.0000      0.0000      0.0003      0.0000
      5pz          0.0000      0.0000      0.0003      0.0000
      5py          0.0000      0.0000      0.0003      0.0000
      4f3+         0.0000      0.0000      0.0000      0.0000
      4f2+         0.0000      0.0000      0.0000      0.0000
      4f1+         0.0000      0.0000      0.0000      0.0000
      4f0          0.0000      0.0000      0.0000      0.0000
      4f1-         0.0000      0.0000      0.0000      0.0000
      4f2-         0.0000      0.0000      0.0000      0.0000
      4f3-         0.0000      0.0000      0.0000      0.0000
      Total        2.9999      5.0000     15.0001      9.0000
      Total              8.0000                 24.0000
 
      Charge            0.0000                  2.0000
 
      Total electronic charge=   32.000000
 
      Total            charge=    2.000000
--
 
 
  Input file to MOLDEN was generated!
 
 
++    Static properties:
      ------------------
 
 
      LoProp Charges per center
 

                   O1       FE2   
      Nuclear      8.0000  26.0000
      Electronic  -8.0001 -23.9999
 
      Total       -0.0001   2.0001
--
 
 
++    Natural Bond Order analysis
      ---------------------------
      Based on LoProp computed density
      -------------------------------------------------------------------------------------
      Atom A       Atom B       Bond Order
      -------------------------------------------------------------------------------------
      NBO located     20.000 core electrons.
      NBO located      3.996 lone pair electrons.
      NBO located      1.000 non-bonded electrons on atom O1        
      NBO located      1.000 non-bonded electrons on atom O1        
      The remaining    6.005 electrons are to be considered as diffuse
--
 
 
++    Molecular orbitals:
      -------------------
 
      Title: Natural orbitals

      Molecular orbitals for symmetry species 1: a  
 
          Orbital            1         2         3         4         5         6         7         8         9        10    
          Energy         -264.6134  -33.0550  -27.6828  -27.7126  -27.7118  -20.8550   -5.5759   -4.4620   -4.4614   -4.4622
          Occ. No.          2.0000    2.0000    2.0000    2.0000    2.0000    2.0000    2.0000    1.9999    1.9999    1.9999
 
        1 O1     1s         0.0000    0.0036    0.0653    0.0000   -0.0000   -0.9967   -0.0341   -0.0014   -0.0000   -0.0000
        2 O1     2s         0.0000   -0.0001   -0.0021   -0.0000    0.0000    0.0335    0.0007   -0.0012    0.0000    0.0000
        3 O1     3s         0.0000    0.0000   -0.0000   -0.0000    0.0000    0.0005   -0.0002    0.0001    0.0000   -0.0000
        4 O1     2px       -0.0000   -0.0000    0.0000   -0.0000   -0.0000    0.0000    0.0000   -0.0000   -0.0000   -0.0000
        5 O1     3px        0.0000    0.0000    0.0000   -0.0000   -0.0000    0.0000    0.0000   -0.0000   -0.0000   -0.0000
        6 O1     2py       -0.0000    0.0000   -0.0000   -0.0000    0.0000   -0.0000   -0.0000    0.0000   -0.0000    0.0000
        7 O1     3py        0.0000   -0.0000    0.0000   -0.0000    0.0000   -0.0000   -0.0000    0.0000   -0.0000    0.0000
        8 O1     2pz        0.0000   -0.0000    0.0006    0.0000   -0.0000    0.0006    0.0026   -0.0130   -0.0000    0.0000
        9 O1     3pz        0.0000   -0.0000    0.0000    0.0000   -0.0000   -0.0002    0.0004   -0.0003   -0.0000    0.0000
       10 O1     3d2-       0.0000    0.0000    0.0000    0.0000    0.0000    0.0000    0.0000   -0.0000   -0.0000   -0.0000
       11 O1     3d1-      -0.0000   -0.0000   -0.0000    0.0000   -0.0000    0.0000    0.0000    0.0000    0.0000   -0.0000
       12 O1     3d0       -0.0000    0.0000    0.0000    0.0000   -0.0000   -0.0002   -0.0000    0.0001    0.0000   -0.0000
       13 O1     3d1+       0.0000   -0.0000    0.0000    0.0000    0.0000   -0.0000   -0.0000    0.0000    0.0000    0.0000
       14 O1     3d2+       0.0000   -0.0000   -0.0000   -0.0000   -0.0000    0.0000   -0.0000   -0.0000    0.0000    0.0000
       15 FE2    1s         1.0000   -0.0000    0.0000   -0.0000    0.0000   -0.0000    0.0000    0.0000    0.0000    0.0000
       16 FE2    2s         0.0000    0.9939    0.0010   -0.0000   -0.0000   -0.0001    0.1105    0.0002    0.0000   -0.0000
       17 FE2    3s        -0.0000   -0.1105    0.0009    0.0000   -0.0000   -0.0343    0.9933    0.0013    0.0000    0.0000
       18 FE2    4s         0.0000    0.0005   -0.0000   -0.0000    0.0000    0.0001   -0.0022    0.0000   -0.0000   -0.0000
       19 FE2    5s        -0.0000   -0.0006    0.0000    0.0000   -0.0000   -0.0002    0.0045   -0.0000   -0.0000   -0.0000
       20 FE2    2px       -0.0000    0.0000    0.0000    0.1090    0.9785   -0.0000    0.0000    0.0000    0.0141    0.1745
       21 FE2    3px        0.0000   -0.0000   -0.0000   -0.0194   -0.1740    0.0000   -0.0000    0.0000    0.0796    0.9811
       22 FE2    4px       -0.0000    0.0000    0.0000    0.0003    0.0026   -0.0000    0.0000   -0.0000   -0.0012   -0.0150
       23 FE2    5px       -0.0000   -0.0000   -0.0000   -0.0002   -0.0019    0.0000   -0.0000    0.0000    0.0009    0.0117
       24 FE2    2py        0.0000    0.0000   -0.0000    0.9785   -0.1090    0.0000    0.0000   -0.0000    0.1745   -0.0142
       25 FE2    3py       -0.0000   -0.0000    0.0000   -0.1739    0.0194   -0.0000   -0.0000   -0.0000    0.9812   -0.0796
       26 FE2    4py        0.0000    0.0000   -0.0000    0.0026   -0.0003    0.0000    0.0000    0.0000   -0.0150    0.0012
       27 FE2    5py       -0.0000   -0.0000    0.0000   -0.0019    0.0002   -0.0000   -0.0000   -0.0000    0.0117   -0.0009
       28 FE2    2pz       -0.0000   -0.0012    0.9824    0.0000   -0.0000    0.0641    0.0009    0.1752    0.0000   -0.0000
       29 FE2    3pz       -0.0000    0.0001   -0.1747   -0.0000    0.0000   -0.0127   -0.0015    0.9843    0.0000   -0.0000
       30 FE2    4pz        0.0000   -0.0000    0.0026    0.0000   -0.0000    0.0002    0.0000   -0.0151   -0.0000    0.0000
       31 FE2    5pz        0.0000   -0.0000   -0.0019   -0.0000    0.0000   -0.0001    0.0000    0.0117    0.0000   -0.0000
       32 FE2    3d2-      -0.0000   -0.0000   -0.0000   -0.0000   -0.0000   -0.0000    0.0000   -0.0000    0.0000   -0.0000
       33 FE2    4d2-      -0.0000    0.0000    0.0000    0.0000   -0.0000    0.0000   -0.0000    0.0000   -0.0000    0.0000
       34 FE2    3d1-       0.0000    0.0000    0.0000   -0.0000    0.0000   -0.0000    0.0000   -0.0000    0.0000   -0.0000
       35 FE2    4d1-       0.0000   -0.0000   -0.0000    0.0000   -0.0000    0.0000    0.0000    0.0000   -0.0000    0.0000
       36 FE2    3d0        0.0000   -0.0000   -0.0000   -0.0000    0.0000   -0.0000   -0.0000    0.0000    0.0000   -0.0000
       37 FE2    4d0        0.0000   -0.0000    0.0000    0.0000   -0.0000   -0.0000    0.0000   -0.0000   -0.0000   -0.0000
       38 FE2    3d1+      -0.0000   -0.0000   -0.0000   -0.0000   -0.0000    0.0000   -0.0000    0.0000    0.0000    0.0000
       39 FE2    4d1+      -0.0000    0.0000    0.0000    0.0000    0.0000   -0.0000    0.0000   -0.0000   -0.0000   -0.0000
       40 FE2    3d2+      -0.0000    0.0000    0.0000    0.0000    0.0000   -0.0000    0.0000   -0.0000   -0.0000   -0.0000
       41 FE2    4d2+       0.0000   -0.0000   -0.0000    0.0000   -0.0000    0.0000   -0.0000    0.0000    0.0000    0.0000
       42 FE2    4f3-       0.0000   -0.0000   -0.0000    0.0000    0.0000   -0.0000    0.0000    0.0000    0.0000   -0.0000
       43 FE2    4f2-      -0.0000    0.0000   -0.0000   -0.0000    0.0000   -0.0000    0.0000   -0.0000    0.0000    0.0000
       44 FE2    4f1-      -0.0000    0.0000   -0.0000    0.0000   -0.0000    0.0000   -0.0000    0.0000   -0.0000    0.0000
       45 FE2    4f0        0.0000   -0.0000    0.0000    0.0000   -0.0000    0.0000   -0.0000   -0.0000   -0.0000    0.0000
       46 FE2    4f1+      -0.0000    0.0000    0.0000    0.0000    0.0000   -0.0000   -0.0000    0.0000   -0.0000   -0.0000
       47 FE2    4f2+      -0.0000    0.0000    0.0000   -0.0000   -0.0000   -0.0000   -0.0000    0.0000    0.0000   -0.0000
       48 FE2    4f3+       0.0000    0.0000    0.0000   -0.0000   -0.0000   -0.0000    0.0000    0.0000    0.0000    0.0000
 
          Orbital           11        12        13        14        15        16        17        18        19        20    
          Energy           -0.7640   -1.4503   -0.7706   -0.7706   -1.0843   -1.0844   -1.0844   -0.7597   -0.7706   -0.7706
          Occ. No.          1.9982    1.9974    1.0000    1.0000    1.0000    1.0000    1.0000    1.0000    1.0000    1.0000
 
        1 O1     1s        -0.0046   -0.0333   -0.0000    0.0000   -0.0000    0.0000    0.0000    0.0004   -0.0000    0.0000
        2 O1     2s        -0.1190   -0.9923   -0.0000    0.0000   -0.0002    0.0000    0.0000    0.0040   -0.0000    0.0000
        3 O1     3s         0.0091    0.0022   -0.0000    0.0000   -0.0003    0.0000    0.0000    0.0040   -0.0000    0.0000
        4 O1     2px       -0.0000    0.0000    0.6359    0.3076    0.0000    0.0000    0.0000   -0.0000   -0.6359   -0.3074
        5 O1     3px       -0.0000    0.0000   -0.0298   -0.0144    0.0000   -0.0000   -0.0000    0.0000    0.0302    0.0146
        6 O1     2py        0.0000   -0.0000   -0.3076    0.6359    0.0000    0.0000   -0.0000   -0.0000    0.3074   -0.6359
        7 O1     3py        0.0000    0.0000    0.0144   -0.0298    0.0000   -0.0000    0.0000   -0.0000   -0.0146    0.0302
        8 O1     2pz       -0.9925    0.1191   -0.0000    0.0000   -0.0007    0.0000    0.0000    0.0005    0.0000   -0.0000
        9 O1     3pz       -0.0198    0.0059    0.0000   -0.0000    0.0007   -0.0000   -0.0000   -0.0061    0.0000   -0.0000
       10 O1     3d2-      -0.0000    0.0000    0.0000   -0.0000   -0.0000   -0.0000   -0.0000    0.0000   -0.0000    0.0000
       11 O1     3d1-       0.0000    0.0000    0.0012   -0.0026   -0.0000   -0.0000    0.0000    0.0000   -0.0012    0.0025
       12 O1     3d0        0.0044   -0.0046   -0.0000    0.0000   -0.0001    0.0000    0.0000    0.0002   -0.0000    0.0000
       13 O1     3d1+       0.0000   -0.0000   -0.0026   -0.0012   -0.0000   -0.0000   -0.0000   -0.0000    0.0025    0.0012
       14 O1     3d2+      -0.0000   -0.0000   -0.0000   -0.0000    0.0000    0.0000   -0.0000   -0.0000    0.0000    0.0000
       15 FE2    1s        -0.0000    0.0000    0.0000   -0.0000    0.0000   -0.0000   -0.0000   -0.0000    0.0000   -0.0000
       16 FE2    2s         0.0002   -0.0000    0.0000   -0.0000    0.0000   -0.0000   -0.0000   -0.0003    0.0000   -0.0000
       17 FE2    3s         0.0021   -0.0006   -0.0000    0.0000   -0.0000    0.0000    0.0000    0.0038   -0.0000    0.0000
       18 FE2    4s         0.0008    0.0001   -0.0000    0.0000    0.0001    0.0000    0.0000    0.9284   -0.0000    0.0000
       19 FE2    5s        -0.0007    0.0006    0.0000   -0.0000    0.0001   -0.0000   -0.0000   -0.3712    0.0000   -0.0000
       20 FE2    2px       -0.0000   -0.0000   -0.0000   -0.0000   -0.0000   -0.0000   -0.0000   -0.0000   -0.0000   -0.0000
       21 FE2    3px        0.0000    0.0000   -0.0000   -0.0000   -0.0000    0.0000   -0.0000   -0.0000   -0.0000   -0.0000
       22 FE2    4px       -0.0000   -0.0000   -0.0002   -0.0001   -0.0000   -0.0000   -0.0000   -0.0000    0.0001    0.0001
       23 FE2    5px        0.0000   -0.0000   -0.0001   -0.0000   -0.0000   -0.0000   -0.0000   -0.0000    0.0001    0.0000
       24 FE2    2py       -0.0000    0.0000    0.0000   -0.0000   -0.0000    0.0000    0.0000    0.0000    0.0000   -0.0000
       25 FE2    3py        0.0000    0.0000    0.0000   -0.0000   -0.0000    0.0000    0.0000    0.0000    0.0000   -0.0000
       26 FE2    4py       -0.0000    0.0000    0.0001   -0.0002   -0.0000    0.0000    0.0000    0.0000   -0.0001    0.0001
       27 FE2    5py        0.0000   -0.0000    0.0000   -0.0001   -0.0000    0.0000    0.0000    0.0000   -0.0000    0.0001
       28 FE2    2pz       -0.0017    0.0001   -0.0000   -0.0000    0.0000    0.0000    0.0000    0.0000   -0.0000   -0.0000
       29 FE2    3pz       -0.0131    0.0004    0.0000   -0.0000    0.0000   -0.0000   -0.0000   -0.0001    0.0000   -0.0000
       30 FE2    4pz        0.0036   -0.0001    0.0000   -0.0000    0.0002   -0.0000   -0.0000   -0.0034    0.0000   -0.0000
       31 FE2    5pz       -0.0001    0.0001    0.0000   -0.0000    0.0000   -0.0000   -0.0000   -0.0003    0.0000   -0.0000
       32 FE2    3d2-      -0.0000    0.0000    0.0000   -0.0000    0.0000   -0.0311   -0.9902    0.0000    0.0000   -0.0000
       33 FE2    4d2-       0.0000   -0.0000   -0.0000    0.0000   -0.0000    0.0043    0.1363   -0.0000   -0.0000    0.0000
       34 FE2    3d1-      -0.0000    0.0000   -0.3050    0.6306    0.0000   -0.0000   -0.0000   -0.0000   -0.3049    0.6307
       35 FE2    4d1-      -0.0000    0.0000    0.0420   -0.0869   -0.0000    0.0000    0.0000    0.0000    0.0419   -0.0868
       36 FE2    3d0        0.0009   -0.0001    0.0000    0.0000   -0.9906    0.0000   -0.0000   -0.0001    0.0000    0.0000
       37 FE2    4d0        0.0004    0.0000   -0.0000   -0.0000    0.1364   -0.0000    0.0000   -0.0004   -0.0000   -0.0000
       38 FE2    3d1+       0.0000   -0.0000    0.6306    0.3050    0.0000   -0.0000    0.0000    0.0000    0.6307    0.3049
       39 FE2    4d1+       0.0000   -0.0000   -0.0869   -0.0420   -0.0000    0.0000   -0.0000   -0.0000   -0.0868   -0.0419
       40 FE2    3d2+      -0.0000    0.0000   -0.0000    0.0000    0.0000    0.9902   -0.0311   -0.0000   -0.0000    0.0000
       41 FE2    4d2+       0.0000   -0.0000    0.0000   -0.0000   -0.0000   -0.1363    0.0043    0.0000    0.0000   -0.0000
       42 FE2    4f3-       0.0000    0.0000    0.0000   -0.0000    0.0000    0.0000    0.0000   -0.0000    0.0000   -0.0000
       43 FE2    4f2-      -0.0000   -0.0000    0.0000   -0.0000    0.0000   -0.0000   -0.0000    0.0000    0.0000   -0.0000
       44 FE2    4f1-      -0.0000   -0.0000   -0.0000    0.0000    0.0000   -0.0000   -0.0000   -0.0000   -0.0000    0.0000
       45 FE2    4f0        0.0000   -0.0000    0.0000    0.0000   -0.0000   -0.0000   -0.0000   -0.0000    0.0000    0.0000
       46 FE2    4f1+       0.0000   -0.0000    0.0000    0.0000    0.0000   -0.0000    0.0000    0.0000    0.0000    0.0000
       47 FE2    4f2+       0.0000    0.0000   -0.0000    0.0000    0.0000    0.0000   -0.0000   -0.0000   -0.0000    0.0000
       48 FE2    4f3+      -0.0000    0.0000    0.0000   -0.0000   -0.0000   -0.0000   -0.0000   -0.0000    0.0000   -0.0000
 
          Orbital           21        22        23        24        25        26        27        28        29        30    
          Energy            1.3136    0.3837    0.9456    0.9456    0.9569   -0.2238    1.0281   -0.0422   -0.0422    0.2990
          Occ. No.          0.0026    0.0018    0.0001    0.0001    0.0001    0.0000    0.0000    0.0000    0.0000    0.0000
 
        1 O1     1s         0.0002    0.0001   -0.0000    0.0000   -0.0008    0.0022    0.0012    0.0000   -0.0000    0.0008
        2 O1     2s        -0.0013    0.0047   -0.0000    0.0000   -0.0102    0.0280    0.0128    0.0000   -0.0000    0.0120
        3 O1     3s         0.7023    0.0792   -0.0000    0.0000   -0.0187    0.0687    0.6368    0.0000   -0.0000   -0.3089
        4 O1     2px       -0.0000   -0.0000   -0.0009   -0.0020    0.0000   -0.0000   -0.0000   -0.0026   -0.0035    0.0000
        5 O1     3px       -0.0000    0.0000   -0.0032   -0.0074   -0.0000   -0.0000    0.0000   -0.0175   -0.0236   -0.0000
        6 O1     2py       -0.0000    0.0000   -0.0020    0.0009    0.0000    0.0000    0.0000   -0.0035    0.0026   -0.0000
        7 O1     3py        0.0000   -0.0000   -0.0074    0.0032    0.0000    0.0000    0.0000   -0.0236    0.0175    0.0000
        8 O1     2pz        0.0127   -0.0217    0.0000   -0.0000    0.0083   -0.0325   -0.0102   -0.0000    0.0000   -0.0222
        9 O1     3pz       -0.1237    0.9751    0.0000   -0.0000   -0.0243   -0.1478   -0.0829   -0.0000    0.0000   -0.1857
       10 O1     3d2-       0.0000   -0.0000   -0.0000    0.0000    0.0000    0.0000   -0.0000   -0.0000   -0.0000    0.0000
       11 O1     3d1-      -0.0000   -0.0000    0.0006   -0.0002    0.0000   -0.0000    0.0000    0.0029   -0.0022   -0.0000
       12 O1     3d0        0.6994    0.1046   -0.0000    0.0000   -0.0058    0.0089   -0.6128   -0.0000    0.0000    0.3505
       13 O1     3d1+       0.0000    0.0000    0.0002    0.0006   -0.0000   -0.0000   -0.0000    0.0022    0.0029    0.0000
       14 O1     3d2+       0.0000    0.0000   -0.0000    0.0000   -0.0000    0.0000    0.0000   -0.0000   -0.0000   -0.0000
       15 FE2    1s        -0.0000    0.0001    0.0000   -0.0000   -0.0000   -0.0000   -0.0000   -0.0000    0.0000   -0.0000
       16 FE2    2s        -0.0001    0.0005    0.0000    0.0000   -0.0000   -0.0000   -0.0000   -0.0000    0.0000   -0.0001
       17 FE2    3s        -0.0004    0.0026   -0.0000   -0.0000   -0.0001    0.0030   -0.0003   -0.0000    0.0000   -0.0004
       18 FE2    4s         0.0015    0.0127    0.0000    0.0000    0.0001   -0.3771   -0.0022   -0.0000   -0.0000   -0.0111
       19 FE2    5s         0.0068   -0.0203    0.0000    0.0000    0.0065   -0.9388   -0.0013   -0.0000   -0.0000   -0.0113
       20 FE2    2px        0.0000    0.0000   -0.0001   -0.0002    0.0000    0.0000    0.0000   -0.0000   -0.0000   -0.0000
       21 FE2    3px       -0.0000    0.0000   -0.0072   -0.0166    0.0000   -0.0000   -0.0000    0.0042    0.0056    0.0000
       22 FE2    4px        0.0000    0.0000   -0.2060   -0.4733    0.0000   -0.0000   -0.0000    0.5102    0.6879    0.0000
       23 FE2    5px        0.0000   -0.0000    0.3418    0.7852   -0.0000    0.0000   -0.0000    0.3078    0.4150    0.0000
       24 FE2    2py        0.0000   -0.0000   -0.0002    0.0001    0.0000    0.0000    0.0000   -0.0000    0.0000    0.0000
       25 FE2    3py       -0.0000    0.0000   -0.0166    0.0072    0.0000   -0.0000   -0.0000    0.0056   -0.0042   -0.0000
       26 FE2    4py       -0.0000    0.0000   -0.4733    0.2060    0.0000    0.0000   -0.0000    0.6879   -0.5102   -0.0000
       27 FE2    5py        0.0000   -0.0000    0.7852   -0.3418   -0.0000    0.0000   -0.0000    0.4150   -0.3078   -0.0000
       28 FE2    2pz       -0.0000    0.0001   -0.0000    0.0000   -0.0002   -0.0000    0.0000    0.0000    0.0000    0.0000
       29 FE2    3pz       -0.0001    0.0002   -0.0000    0.0000   -0.0180   -0.0003   -0.0036   -0.0000    0.0000   -0.0065
       30 FE2    4pz        0.0132   -0.1066   -0.0000    0.0000   -0.5087   -0.0027   -0.4185   -0.0000    0.0000   -0.7492
       31 FE2    5pz        0.0022   -0.0020    0.0000   -0.0000    0.8599   -0.0019   -0.2547   -0.0000    0.0000   -0.4518
       32 FE2    3d2-       0.0000   -0.0000   -0.0000   -0.0000   -0.0000    0.0000   -0.0000    0.0000    0.0000    0.0000
       33 FE2    4d2-       0.0000   -0.0000   -0.0000   -0.0000   -0.0000    0.0000   -0.0000    0.0000    0.0000    0.0000
       34 FE2    3d1-       0.0000    0.0000   -0.0001    0.0000   -0.0000    0.0000   -0.0000    0.0005   -0.0003    0.0000
       35 FE2    4d1-       0.0000   -0.0000   -0.0004    0.0002   -0.0000    0.0000   -0.0000    0.0030   -0.0022    0.0000
       36 FE2    3d0        0.0002    0.0007    0.0000    0.0000    0.0000   -0.0012   -0.0068   -0.0000   -0.0000    0.0016
       37 FE2    4d0        0.0024   -0.0076    0.0000    0.0000    0.0013   -0.0065   -0.0477   -0.0000   -0.0000    0.0143
       38 FE2    3d1+      -0.0000    0.0000   -0.0000   -0.0001    0.0000    0.0000    0.0000    0.0003    0.0005    0.0000
       39 FE2    4d1+      -0.0000    0.0000   -0.0002   -0.0004    0.0000   -0.0000    0.0000    0.0022    0.0030   -0.0000
       40 FE2    3d2+       0.0000   -0.0000   -0.0000   -0.0000    0.0000    0.0000   -0.0000    0.0000   -0.0000    0.0000
       41 FE2    4d2+       0.0000   -0.0000   -0.0000   -0.0000   -0.0000    0.0000   -0.0000    0.0000   -0.0000    0.0000
       42 FE2    4f3-      -0.0000   -0.0000    0.0000   -0.0000   -0.0000    0.0000   -0.0000    0.0000    0.0000    0.0000
       43 FE2    4f2-       0.0000   -0.0000   -0.0000   -0.0000    0.0000    0.0000    0.0000    0.0000   -0.0000    0.0000
       44 FE2    4f1-       0.0000   -0.0000   -0.0000    0.0000    0.0000   -0.0000   -0.0000    0.0002   -0.0002   -0.0000
       45 FE2    4f0        0.0001   -0.0003    0.0000    0.0000    0.0000   -0.0002   -0.0017   -0.0000   -0.0000    0.0001
       46 FE2    4f1+       0.0000    0.0000   -0.0000   -0.0000    0.0000   -0.0000    0.0000    0.0002    0.0002   -0.0000
       47 FE2    4f2+       0.0000   -0.0000    0.0000    0.0000    0.0000    0.0000    0.0000    0.0000   -0.0000    0.0000
       48 FE2    4f3+       0.0000   -0.0000    0.0000   -0.0000   -0.0000    0.0000   -0.0000   -0.0000   -0.0000    0.0000
 
          Orbital           31        32        33        34        35        36        37        38        39        40    
          Energy            0.2752    0.3930    0.2685    0.3926    0.2685    0.2698    0.2697    3.1055    1.9277    2.4368
          Occ. No.          0.0000    0.0000    0.0000    0.0000    0.0000    0.0000    0.0000    0.0000    0.0000    0.0000
 
        1 O1     1s         0.0002    0.0000   -0.0000    0.0000    0.0000    0.0000    0.0000   -0.0000   -0.0000    0.0000
        2 O1     2s         0.0043    0.0000   -0.0000    0.0000    0.0000   -0.0000   -0.0000    0.0001   -0.0000    0.0000
        3 O1     3s        -0.0193   -0.0000    0.0000   -0.0000    0.0000    0.0000    0.0000   -0.0006    0.0000   -0.0000
        4 O1     2px       -0.0000    0.0469   -0.0001    0.0030   -0.0001   -0.0004   -0.0034    0.0000   -0.0006    0.0032
        5 O1     3px       -0.0000    0.9961   -0.0020    0.0638   -0.0022   -0.0066   -0.0358    0.0000   -0.0003    0.0043
        6 O1     2py        0.0000    0.0030   -0.0001   -0.0469    0.0009    0.0040    0.0001   -0.0000    0.0041    0.0006
        7 O1     3py        0.0000    0.0643   -0.0017   -0.9955    0.0194    0.0471    0.0044   -0.0000    0.0028    0.0030
        8 O1     2pz       -0.0110   -0.0000    0.0000   -0.0000    0.0000    0.0000    0.0000   -0.0004    0.0000   -0.0000
        9 O1     3pz       -0.0563   -0.0000    0.0000   -0.0000    0.0000    0.0000    0.0000   -0.0024    0.0000   -0.0000
       10 O1     3d2-      -0.0000   -0.0006    0.0010   -0.0017    0.0016    0.0030   -0.0080    0.0000    0.0000    0.0236
       11 O1     3d1-      -0.0000   -0.0007    0.0005    0.0035   -0.0006    0.0000    0.0012   -0.0000    0.9894    0.1093
       12 O1     3d0        0.0401    0.0000   -0.0000    0.0000   -0.0000   -0.0000   -0.0000    0.0012    0.0000    0.0000
       13 O1     3d1+      -0.0000   -0.0059   -0.0001    0.0033    0.0001   -0.0019    0.0083   -0.0000   -0.1454    0.7435
       14 O1     3d2+      -0.0000   -0.0002    0.0008   -0.0005   -0.0012   -0.0004    0.0004   -0.0001   -0.0000    0.0482
       15 FE2    1s        -0.0000   -0.0000    0.0000   -0.0000    0.0000    0.0000    0.0000   -0.0000    0.0000   -0.0000
       16 FE2    2s        -0.0000   -0.0000    0.0000   -0.0000    0.0000    0.0000    0.0000   -0.0000    0.0000   -0.0000
       17 FE2    3s        -0.0001   -0.0000    0.0000   -0.0000    0.0000    0.0000    0.0000   -0.0000    0.0000   -0.0000
       18 FE2    4s        -0.0017   -0.0000    0.0000   -0.0000    0.0000    0.0000    0.0000   -0.0001    0.0000   -0.0000
       19 FE2    5s        -0.0010   -0.0000   -0.0000   -0.0000    0.0000    0.0000    0.0000   -0.0001   -0.0000   -0.0000
       20 FE2    2px        0.0000   -0.0000    0.0000   -0.0000    0.0000    0.0000    0.0000   -0.0000    0.0000   -0.0000
       21 FE2    3px        0.0000   -0.0002    0.0000   -0.0000    0.0000   -0.0000   -0.0000   -0.0000    0.0000   -0.0000
       22 FE2    4px       -0.0000    0.0052   -0.0000    0.0003   -0.0000   -0.0002   -0.0033   -0.0000    0.0002   -0.0011
       23 FE2    5px       -0.0000    0.0020   -0.0000    0.0001   -0.0000   -0.0001   -0.0013   -0.0000    0.0001   -0.0004
       24 FE2    2py       -0.0000   -0.0000    0.0000    0.0000   -0.0000   -0.0000   -0.0000    0.0000   -0.0000   -0.0000
       25 FE2    3py       -0.0000   -0.0000    0.0000    0.0002   -0.0000    0.0000   -0.0000    0.0000   -0.0000   -0.0000
       26 FE2    4py        0.0000    0.0003   -0.0000   -0.0051    0.0001    0.0034   -0.0002    0.0000   -0.0015   -0.0001
       27 FE2    5py        0.0000    0.0001   -0.0000   -0.0019    0.0000    0.0013   -0.0001    0.0000   -0.0005   -0.0000
       28 FE2    2pz       -0.0000   -0.0000    0.0000   -0.0000    0.0000    0.0000    0.0000   -0.0000    0.0000   -0.0000
       29 FE2    3pz       -0.0001   -0.0000    0.0000   -0.0000    0.0000    0.0000    0.0000   -0.0000    0.0000   -0.0000
       30 FE2    4pz        0.0051    0.0000    0.0000    0.0000   -0.0000   -0.0000   -0.0000    0.0004   -0.0000    0.0000
       31 FE2    5pz        0.0021    0.0000    0.0000    0.0000   -0.0000   -0.0000   -0.0000    0.0002   -0.0000    0.0000
       32 FE2    3d2-      -0.0000   -0.0003   -0.1361    0.0004    0.0082    0.0002    0.0000    0.0000    0.0001    0.0000
       33 FE2    4d2-      -0.0000   -0.0020   -0.9889    0.0028    0.0597    0.0017    0.0002    0.0002    0.0005    0.0003
       34 FE2    3d1-       0.0000   -0.0004   -0.0003   -0.0040   -0.0005   -0.1361    0.0077   -0.0000    0.0002   -0.0002
       35 FE2    4d1-       0.0000   -0.0025   -0.0019   -0.0315   -0.0032   -0.9887    0.0559   -0.0002    0.0020   -0.0017
       36 FE2    3d0       -0.1365   -0.0000    0.0000   -0.0000   -0.0000   -0.0000   -0.0000    0.0003    0.0000   -0.0000
       37 FE2    4d0       -0.9908   -0.0000    0.0000   -0.0000   -0.0000   -0.0000   -0.0000    0.0021    0.0000   -0.0000
       38 FE2    3d1+      -0.0000    0.0024    0.0000    0.0011   -0.0001    0.0077    0.1362    0.0000   -0.0000   -0.0007
       39 FE2    4d1+      -0.0000    0.0201    0.0003    0.0082   -0.0011    0.0557    0.9889    0.0001   -0.0003   -0.0048
       40 FE2    3d2+       0.0000   -0.0002   -0.0082   -0.0026   -0.1361    0.0005   -0.0002   -0.0001   -0.0001   -0.0001
       41 FE2    4d2+       0.0000   -0.0011   -0.0597   -0.0190   -0.9887    0.0039   -0.0011   -0.0004   -0.0005   -0.0005
       42 FE2    4f3-      -0.0000    0.0001   -0.0005    0.0003    0.0008    0.0005   -0.0015    0.0001    0.0000    0.5584
       43 FE2    4f2-       0.0000   -0.0001   -0.0000   -0.0001   -0.0000    0.0000    0.0000   -0.0000   -0.0000   -0.0001
       44 FE2    4f1-       0.0000   -0.0009   -0.0013   -0.0022    0.0010    0.0008   -0.0009    0.0000   -0.0001   -0.0421
       45 FE2    4f0       -0.0021    0.0000   -0.0002    0.0001    0.0004    0.0002    0.0001   -1.0000   -0.0000   -0.0000
       46 FE2    4f1+      -0.0000   -0.0008    0.0010   -0.0016   -0.0023   -0.0011    0.0027   -0.0001    0.0000    0.1159
       47 FE2    4f2+       0.0000   -0.0000   -0.0000   -0.0001   -0.0000    0.0000    0.0000   -0.0000    0.0000   -0.0001
       48 FE2    4f3+      -0.0000   -0.0002    0.0012   -0.0006   -0.0022   -0.0011    0.0015   -0.0001    0.0000    0.3245
 
          Orbital           41        42        43        44        45        46        47        48    
          Energy            2.5975    1.9217    2.9872    2.1737    3.1055    2.9706    3.1055    3.1055
          Occ. No.          0.0000    0.0000    0.0000    0.0000    0.0000    0.0000    0.0000    0.0000
 
        1 O1     1s         0.0000   -0.0000   -0.0000   -0.0000   -0.0000   -0.0000   -0.0000   -0.0000
        2 O1     2s         0.0000   -0.0000    0.0000   -0.0000   -0.0000   -0.0000   -0.0000   -0.0000
        3 O1     3s        -0.0000    0.0000   -0.0000    0.0000    0.0000    0.0000    0.0000    0.0000
        4 O1     2px       -0.0028    0.0002   -0.0002   -0.0000    0.0000   -0.0005   -0.0000   -0.0000
        5 O1     3px       -0.0037   -0.0002   -0.0001    0.0000    0.0010   -0.0010   -0.0000   -0.0001
        6 O1     2py       -0.0005    0.0001   -0.0000   -0.0000   -0.0002   -0.0001    0.0000    0.0000
        7 O1     3py       -0.0027    0.0020   -0.0007   -0.0002   -0.0034   -0.0003    0.0001    0.0001
        8 O1     2pz       -0.0000    0.0000   -0.0000    0.0000    0.0000    0.0000    0.0000    0.0000
        9 O1     3pz       -0.0000    0.0000   -0.0000    0.0000    0.0000    0.0000    0.0000    0.0000
       10 O1     3d2-      -0.0445   -0.9818   -0.0594    0.1641    0.0000    0.0551   -0.0000    0.0000
       11 O1     3d1-      -0.0944    0.0062   -0.0042   -0.0006    0.0004   -0.0151   -0.0000   -0.0000
       12 O1     3d0        0.0000   -0.0000    0.0000   -0.0000   -0.0000   -0.0000   -0.0000   -0.0000
       13 O1     3d1+      -0.6425    0.0422   -0.0281   -0.0040    0.0012   -0.1023   -0.0000   -0.0001
       14 O1     3d2+       0.0860   -0.1849    0.3091   -0.8719    0.0001   -0.3166    0.0000   -0.0000
       15 FE2    1s        -0.0000    0.0000   -0.0000    0.0000    0.0000    0.0000    0.0000    0.0000
       16 FE2    2s        -0.0000    0.0000   -0.0000    0.0000    0.0000    0.0000    0.0000    0.0000
       17 FE2    3s        -0.0000    0.0000   -0.0000    0.0000    0.0000    0.0000    0.0000    0.0000
       18 FE2    4s        -0.0000    0.0000   -0.0000    0.0000    0.0000    0.0000    0.0000    0.0000
       19 FE2    5s         0.0000   -0.0000   -0.0000   -0.0000   -0.0000   -0.0000   -0.0000   -0.0000
       20 FE2    2px        0.0000    0.0000    0.0000   -0.0000   -0.0000    0.0000    0.0000    0.0000
       21 FE2    3px        0.0000   -0.0000   -0.0000    0.0000   -0.0000    0.0000    0.0000    0.0000
       22 FE2    4px        0.0010   -0.0000   -0.0001    0.0000   -0.0001   -0.0000   -0.0000   -0.0000
       23 FE2    5px        0.0003   -0.0000   -0.0000    0.0000   -0.0000   -0.0000   -0.0000   -0.0000
       24 FE2    2py        0.0000   -0.0000    0.0000    0.0000    0.0000    0.0000   -0.0000   -0.0000
       25 FE2    3py        0.0000   -0.0000    0.0000    0.0000   -0.0000    0.0000   -0.0000   -0.0000
       26 FE2    4py        0.0001    0.0000    0.0001   -0.0000   -0.0003    0.0001    0.0000    0.0000
       27 FE2    5py        0.0000    0.0000    0.0000   -0.0000   -0.0001    0.0000    0.0000    0.0000
       28 FE2    2pz       -0.0000    0.0000   -0.0000    0.0000    0.0000    0.0000    0.0000    0.0000
       29 FE2    3pz       -0.0000    0.0000   -0.0000    0.0000    0.0000    0.0000    0.0000    0.0000
       30 FE2    4pz       -0.0000   -0.0000    0.0000   -0.0000   -0.0000   -0.0000   -0.0000   -0.0000
       31 FE2    5pz       -0.0000   -0.0000    0.0000   -0.0000   -0.0000   -0.0000   -0.0000   -0.0000
       32 FE2    3d2-       0.0000   -0.0001    0.0003    0.0000   -0.0001    0.0000    0.0000    0.0000
       33 FE2    4d2-       0.0003   -0.0008    0.0022    0.0001   -0.0009    0.0000    0.0000    0.0000
       34 FE2    3d1-       0.0001   -0.0004   -0.0003    0.0000    0.0000    0.0000   -0.0000   -0.0000
       35 FE2    4d1-       0.0009   -0.0033   -0.0021    0.0003    0.0003    0.0003   -0.0000   -0.0000
       36 FE2    3d0       -0.0000    0.0000    0.0000    0.0000    0.0000    0.0000    0.0000    0.0000
       37 FE2    4d0       -0.0000    0.0000    0.0000    0.0000    0.0000    0.0000    0.0000    0.0000
       38 FE2    3d1+       0.0006   -0.0011   -0.0005    0.0001   -0.0000    0.0001    0.0000    0.0000
       39 FE2    4d1+       0.0041   -0.0078   -0.0036    0.0008   -0.0000    0.0005    0.0000    0.0000
       40 FE2    3d2+      -0.0001   -0.0002   -0.0005    0.0000    0.0000    0.0000    0.0000    0.0000
       41 FE2    4d2+      -0.0007   -0.0013   -0.0035    0.0003    0.0001    0.0001    0.0000    0.0000
       42 FE2    4f3-       0.6144    0.0000   -0.4207   -0.1744    0.0009    0.3214   -0.0000   -0.0000
       43 FE2    4f2-      -0.0000   -0.0000    0.0000    0.0000   -0.0000    0.0000    0.1238   -0.9923
       44 FE2    4f1-       0.0000   -0.0000   -0.2307    0.0000    0.9442   -0.2314    0.0000    0.0000
       45 FE2    4f0       -0.0000   -0.0000   -0.0002   -0.0000    0.0000    0.0000   -0.0000   -0.0000
       46 FE2    4f1+       0.0001   -0.0000    0.6616    0.0000    0.3295    0.6636   -0.0000   -0.0000
       47 FE2    4f2+       0.0000   -0.0000    0.0000   -0.0000   -0.0000   -0.0000   -0.9923   -0.1238
       48 FE2    4f3+       0.4374   -0.0000    0.4819    0.4271    0.0005   -0.5374   -0.0000   -0.0000
--
 
 
++    Molecular properties:
      ---------------------
 
      Charge (e):
                      =    2.0000
      Dipole Moment (Debye):
      Origin of the operator (Ang)=    0.0000    0.0000    0.0000
                   X= -1.0100E-12               Y=  1.3939E-12               Z= -1.9041E+01           Total=  1.9041E+01
      Center of Charge (Ang)
                     X=   -0.00000000               Y=    0.00000000               Z=   -1.98213526
      Quadrupole Moment (Debye*Ang):
      Origin of the operator (Ang)=    0.0000    0.0000   -0.7527
                  XX= -1.4216E+01              XY= -1.0564E-13              XZ= -2.7169E-11              YY= -1.4216E+01
                  YZ=  5.5646E-11              ZZ=  1.2235E-01
      In traceless form (Debye*Ang)
                  XX= -7.1689E+00              XY= -1.5847E-13              XZ= -4.0754E-11              YY= -7.1689E+00
                  YZ=  8.3469E-11              ZZ=  1.4338E+01
--
 
 
  Input file to MOLDEN was generated!
 
 ###############################################################################
 ###############################################################################
 ###                                                                         ###
 ###                                                                         ###
 ###    RunFile label nBas                                                   ###
 ###    was used       86 times                                              ###
 ###                                                                         ###
 ###                                                                         ###
 ###############################################################################
 ###############################################################################
--- Stop Module: scf at Sun Dec 22 16:42:53 2024 /rc=_RC_ALL_IS_WELL_ ---
*** files: 5.59.LprOrb 5.59.LoProp.molden 5.59.scf.molden 5.59.scf.h5 5.59.UhfOrb 5.59.UnaOrb xmldump
    saved to directory /home/grierjones/DDCASPT2/iron_oxo_DDCASPT2/cluster/5.59

>>> COPY /tmp/5.59/5.59.scf.h5 /home/grierjones/DDCASPT2/iron_oxo_DDCASPT2/cluster/5.59/

*** symbolic link created: INPORB -> 5.59.UnaOrb
--- Start Module: rasscf at Sun Dec 22 16:42:53 2024 ---
 
()()()()()()()()()()()()()()()()()()()()()()()()()()()()()()()()()()()()()()()()()()()()()()()()()()

                                              &RASSCF

                                   only a single process is used
                       available to each process: 2.0 GB of memory, 1 thread?
()()()()()()()()()()()()()()()()()()()()()()()()()()()()()()()()()()()()()()()()()()()()()()()()()()
 
 ###############################################################################
 ###############################################################################
 ###                                                                         ###
 ###                                                                         ###
 ###    LUMORB input error.                                                  ###
 ###                                                                         ###
 ###                                                                         ###
 ###############################################################################
 ###############################################################################
  Keyword LUMORB used with file name StartOrbFile=
 /home/grierjones/DDCASPT2/iron_oxo_DDCASPT2/cluster/5.58/5.58.RasOrb           
                                                  
  but that file cannot be used. Perhaps it does
  not exist?
 
 *************** WARNING ****************
 ###############################################################################
 ###############################################################################
 ###                                                                         ###
 ###                                                                         ###
 ###    Too many macro-iterations.                                           ###
 ###                                                                         ###
 ###                                                                         ###
 ###############################################################################
 ###############################################################################
 Too many macro-iterations requested.
 Reset to maximum, new MAXIT=     200
 ****************************************
 
 *************** WARNING ****************
 ###############################################################################
 ###############################################################################
 ###                                                                         ###
 ###                                                                         ###
 ###    Too many SX-iterations.                                              ###
 ###                                                                         ###
 ###                                                                         ###
 ###############################################################################
 ###############################################################################
 Too many SX-iterations requested.
 Reset to maximum, new ITMAX=     100
 ****************************************
 
      Header of the ONEINT file:
      --------------------------
      
      Integrals generated by seward 4.2.0  , Sun Dec 22 16:42:52 2024
 
 
      OrdInt status: non-squared
 
 
      Cartesian coordinates in Angstrom:
      -----------------------------------------------------
      No.  Label        X            Y            Z        
      -----------------------------------------------------
       1   O1         0.00000000   0.00000000   3.59639000
       2   FE2        0.00000000   0.00000000  -1.99639000
      -----------------------------------------------------
      Nuclear repulsion energy =   19.68052736
 
++    Wave function specifications:
      -----------------------------
 
      Number of closed shell electrons          22
      Number of electrons in active shells      10
      Max number of holes in RAS1 space          0
      Max nr of electrons in RAS3 space          0
      Number of inactive orbitals               11
      Number of active orbitals                 14
      Number of secondary orbitals              23
      Spin quantum number                      2.0
      State symmetry                             1
--
 
++    Orbital specifications:
      -----------------------
 
      Symmetry species                           1
                                                 a
      Frozen orbitals                            0
      Inactive orbitals                         11
      Active orbitals                           14
      RAS1 orbitals                              0
      RAS2 orbitals                             14
      RAS3 orbitals                              0
      Secondary orbitals                        23
      Deleted orbitals                           0
      Number of basis functions                 48
--
 
++    CI expansion specifications:
      ----------------------------
 
      Number of CSFs                        975975
      Number of determinants               1249248
      Number of root(s) required                 1
      Root chosen for geometry opt.              1
      CI root used                               1
         
      highest root included in the CI            1
      max. size of the explicit Hamiltonian    200
--
 
++    Optimization specifications:
      ----------------------------
 
      RASSCF algorithm: Conventional
      Maximum number of macro iterations       200
      Maximum number of SX iterations          100
      Threshold for RASSCF energy            0.100E-07
      Threshold for max MO rotation          0.100E+00
      Threshold for max BLB element          0.100E-03
      Level shift parameter                  0.500E+00
      Make Quasi-Newton update
--
 
 RdVec: File 
 /home/grierjones/DDCASPT2/iron_oxo_DDCASPT2/cluster/5.58/5.58.RasOrb 
  not found!
[ process      0]: xquit (rc =    128): _INTERNAL_ERROR_
abort: 
--- Stop Module: rasscf at Sun Dec 22 16:42:53 2024 /rc=_RC_FLOATING_EXCEPTION_ ---
*** files: xmldump
    saved to directory /home/grierjones/DDCASPT2/iron_oxo_DDCASPT2/cluster/5.59

.########################.
.# Non-zero return code #.
.########################.

    Timing: Wall=1.68 User=1.39 System=0.29
************************************
*** WorkDir at /tmp/5.59 cleaned ***
************************************
