[Molden Format]
[N_Atoms]
                     2
[Atoms] (AU)
B1          1      5           0.00000000      0.00000000      0.00000000
F2          2      9           0.00000000      0.00000000      4.53534270
[Charge] (Mulliken)
   1.92412523106529     
  7.587476893466949E-002
[GTO] (AU)
   1
   s  14
  3.336021700E+04  1.039699991E-04
  4.972095200E+03  5.254399956E-04
  1.125641700E+03  2.509059979E-03
  3.164913600E+02  1.031887991E-02
  1.020072600E+02  3.636632969E-02
  3.629587300E+01  1.064607991E-01
  1.397141000E+01  2.403999880E-01
  5.741156000E+00  3.748581168E-01
  2.494268000E+00  3.100066974E-01
  1.114202000E+00  7.922455933E-02
  4.215490000E-01 -4.947589958E-03
  1.696330000E-01 -7.737119935E-03
  6.853500000E-02 -1.501079987E-03
  2.398700000E-02 -1.333299989E-04
   s  14
  3.336021700E+04 -2.030000008E-05
  4.972095200E+03 -1.025700004E-04
  1.125641700E+03 -4.911300020E-04
  3.164913600E+02 -2.026570008E-03
  1.020072600E+02 -7.261010030E-03
  3.629587300E+01 -2.197722009E-02
  1.397141000E+01 -5.408428022E-02
  5.741156000E+00 -1.022402604E-01
  2.494268000E+00 -1.423595206E-01
  1.114202000E+00 -4.658690019E-02
  4.215490000E-01  3.799402916E-01
  1.696330000E-01  5.890463624E-01
  6.853500000E-02  1.749075107E-01
  2.398700000E-02 -1.142030005E-03
   p   9
  5.500000000E+01  1.229800005E-03
  1.336610100E+01  8.827380035E-03
  4.135394000E+00  3.843340015E-02
  1.481256000E+00  1.150031805E-01
  6.021360000E-01  2.733674011E-01
  2.556360000E-01  4.061972116E-01
  1.111510000E-01  3.014967912E-01
  4.764800000E-02  7.684809030E-02
  1.667700000E-02 -8.170000032E-06
 
   2
   s  14
  1.031094600E+05  1.713099991E-04
  1.528100700E+04  7.123999962E-04
  3.441539200E+03  2.990479984E-03
  9.670948300E+02  1.164036994E-02
  3.140353400E+02  3.968642979E-02
  1.134423000E+02  1.128546094E-01
  4.464472700E+01  2.473650687E-01
  1.894287400E+01  3.672702681E-01
  8.532743000E+00  2.896286985E-01
  3.919401000E+00  7.786681959E-02
  1.568157000E+00  4.562139976E-03
  6.232900000E-01  2.468879987E-03
  2.408610000E-01  1.106309994E-03
  8.430100000E-02  1.739699991E-04
   s  14
  1.031094600E+05 -4.044999995E-05
  1.528100700E+04 -1.682299998E-04
  3.441539200E+03 -7.084299991E-04
  9.670948300E+02 -2.767999996E-03
  3.140353400E+02 -9.611379987E-03
  1.134423000E+02 -2.833957996E-02
  4.464472700E+01 -6.839343991E-02
  1.894287400E+01 -1.237379298E-01
  8.532743000E+00 -1.512859698E-01
  3.919401000E+00 -9.099909988E-03
  1.568157000E+00  3.716257695E-01
  6.232900000E-01  5.500214393E-01
  2.408610000E-01  2.092318697E-01
  8.430100000E-02  8.074639989E-03
   p   9
  2.453302900E+02  1.024860004E-03
  5.691900500E+01  8.344290032E-03
  1.760456800E+01  4.078927016E-02
  6.274995000E+00  1.351370605E-01
  2.447030000E+00  2.798830811E-01
  9.950600000E-01  3.597966414E-01
  4.039730000E-01  3.055347412E-01
  1.548100000E-01  1.354703905E-01
  5.418400000E-02  2.804449011E-02
 
[MO]
Sym=     1a  
Ene=   -26.9870
Spin= Alpha
Occup=    2.00000
   1        -0.00000552
   2        -0.00008398
   3        -0.00000000
   4         0.00000000
   5        -0.00007602
   6         0.99999503
   7        -0.00352594
   8        -0.00000017
   9         0.00000001
  10        -0.00017810
Sym=     2a  
Ene=    -8.8726
Spin= Alpha
Occup=    2.00000
   1         0.99992418
   2         0.01212693
   3        -0.00000009
   4         0.00000000
   5        -0.00017790
   6        -0.00000256
   7        -0.00001739
   8         0.00000055
   9        -0.00000002
  10        -0.00027979
Sym=     3a  
Ene=    -2.0944
Spin= Alpha
Occup=    2.00000
   1        -0.00173115
   2         0.01924346
   3        -0.00000052
   4         0.00000002
   5         0.01000828
   6         0.00331068
   7         0.99472311
   8         0.00001900
   9        -0.00000068
  10        -0.06608651
Sym=     4a  
Ene=    -1.2124
Spin= Alpha
Occup=    2.00000
   1         0.00001636
   2        -0.00035148
   3         0.01426323
   4        -0.00051052
   5        -0.00023077
   6         0.00000521
   7         0.00015627
   8         0.99845581
   9        -0.03573752
  10         0.00153771
Sym=     5a  
Ene=    -1.2124
Spin= Alpha
Occup=    2.00000
   1        -0.00000000
   2         0.00000000
   3         0.00051052
   4         0.01426324
   5         0.00000000
   6        -0.00000000
   7        -0.00000000
   8         0.03573756
   9         0.99845719
  10        -0.00000000
Sym=     6a  
Ene=    -1.1020
Spin= Alpha
Occup=    1.46487
   1        -0.01368139
   2         0.71493220
   3         0.00003094
   4        -0.00000111
   5         0.05882260
   6        -0.00440675
   7        -0.11807705
   8         0.00138806
   9        -0.00004968
  10        -0.61341792
Sym=     7a  
Ene=    -0.0026
Spin= Alpha
Occup=    0.53513
   1         0.00216903
   2        -0.71124273
   3        -0.00006815
   4         0.00000244
   5         0.04854932
   6         0.00252863
   7         0.00413066
   8         0.00091146
   9        -0.00003262
  10        -0.77798676
Sym=     8a  
Ene=    -0.6915
Spin= Alpha
Occup=    0.00000
   1         0.00000065
   2        -0.00006340
   3         1.00083961
   4        -0.03582154
   5         0.00012438
   6        -0.00000121
   7        -0.00001451
   8        -0.07047352
   9         0.00252235
  10        -0.00003020
Sym=     9a  
Ene=    -0.6915
Spin= Alpha
Occup=    0.00000
   1         0.00000000
   2        -0.00000000
   3        -0.03582154
   4        -1.00083962
   5         0.00000000
   6        -0.00000000
   7        -0.00000000
   8         0.00252235
   9         0.07047358
  10        -0.00000000
Sym=    10a  
Ene=    -0.6697
Spin= Alpha
Occup=    0.00000
   1        -0.00188533
   2        -0.01796038
   3         0.00011771
   4        -0.00000421
   5        -1.01682656
   6         0.01226892
   7         0.14224562
   8        -0.00011122
   9         0.00000398
  10        -0.21900459
