   This run of MOLCAS is using the pymolcas driver

                             OPE
                             OPE          NMOL  CASOP  ENMOLC A   SO
                 OPE        NMOLC        AS  OP EN  MO LC     AS  OP
                OPENM       OL CA        SO  PE NM  OL CA     SOP EN
                OP EN      MO   LC       AS  OP ENMOL  CASO   PENMOL
                OP  EN     MO   LC       AS  OP EN     MO     LC ASO
               OP   E  NMOL  C  AS       OP  EN MO     LC     AS  OP
               OP  E   NMO   LC AS        OPEN  MO     LCASOP EN   M
               O  PEN   MO  LCA  SO
            OPE   NMO   L   CAS    OP
        OPENMOL  CASOP     ENMOL   CASOPE
     OPENMOLCA   SOPENMOLCASOPEN   MOLCASOPE
    OPENMOLCAS   OP           EN   MOL    CAS
    OPENMOLCAS       OP  ENM        O     LCA
    OPENMOLCAS    OPEN  MOLCASO     P  E  NMO
    OPENMOLCAS     OP               E  N  MOL
    OPENMOLCA   SO           PENM   O  L  CAS    OPEN    MO    LCAS
    OPENMOLCA   SOP           ENM   O  L  CAS   OP  EN  MOLC  AS   O
    OPENMOLCA   SOPE           NM      O  LCA   S      OP  EN MO
    OPENMOLC                AS         O  PEN   M      OL  CA  SOPE
    OPENMO        LCASOPE  NMOL        C  ASO   P      ENMOLC     AS
    OPE     NMO      LCA  SO     P     E   NM   OL  CA SO  PE N   MO
          OPENMOLCA            SOPE   NMO        LCAS  O    P  ENMO
     OPENMOLCASOPENMOLCASOPENMOLCASOPENMOLCA
        OPENMOLCASOPENMOLCASOPENMOLCASOPE
            OPENMOLCASOPENMOLCASOPENM
               OPENMOLCASOPENMOLCA        version: f37762c57
                   OPENMOLCASO
                       OPE                tag:

 OpenMolcas is free software; you can redistribute it and/or modify it
 under the terms of the GNU Lesser General Public License version 2.1.
 OpenMolcas is distributed in the hope that it will be useful, but it
 is provided "as is" and without any express or implied warranties.
 For more details see the full text of the license in the file
 LICENSE or in <http://www.gnu.org/licenses/>.

                 Copyright (C) The OpenMolcas Authors
           For the author list and the recommended citation,
                   consult the file CONTRIBUTORS.md

           *************************************************
           * pymolcas version py2.28                       *
           *   build c4a6d18ded8cb6cad61d2372a9abd97c      *
           *   (after the EMIL interpreter by V. Veryazov) *
           *************************************************

configuration info
------------------
C Compiler ID: Intel
C flags: -std=gnu99 -gcc-sys
Fortran Compiler ID: IntelLLVM
Fortran flags: -standard-semantics -fltconsistency -fpp -i8 -heap-arrays
Definitions: _MOLCAS_;_I8_;_LINUX_
Parallel: OFF (GA=OFF)


   -------------------------------------------------------------------------------------------
  |
  |              Project: ozone_128.75
  |       Submitted from: /home/grierjones/DDCASPT2/ozone/multistate/ANO-RCC-VTZP/ozone_128.75
  |         Scratch area: /tmp/ozone_128.75
  |      Save outputs to: /home/grierjones/DDCASPT2/ozone/multistate/ANO-RCC-VTZP/ozone_128.75
  |               Molcas: /home/grierjones/Test/build
  |
  | Scratch area is empty
  |
  |       MOLCAS_DRIVER = /usr/local/pymolcas
  | MOLCAS_KEEP_WORKDIR = NO
  |  MOLCAS_NEW_WORKDIR = YES
  |       MOLCAS_NPROCS = 1
  |        MOLCAS_PRINT = NORMAL
  |       MOLCAS_SOURCE = /home/grierjones/Test
  |    MOLCAS_STRUCTURE = 0
  |
   -------------------------------------------------------------------------------------------

++ ---------   Input file   ---------

&GATEWAY
coord=ozone_128.75.xyz
Basis = ANO-RCC-VTZP
Group = nosymm
End of Input

&SEWARD
End of Input

&SCF
FileOrb
/home/grierjones/DDCASPT2/ozone/multistate/ANO-RCC-VTZP/ozone_128.50/ozone_128.50.ScfOrb

>>> COPY $WorkDir/ozone_128.75.scf.h5 $CurrDir/

&RASSCF
Title= RASSCF
FileOrb
/home/grierjones/DDCASPT2/ozone/multistate/ANO-RCC-VTZP/ozone_128.50/ozone_128.50.RasOrb
CIROOT
3 3 1
NACTEL
4 0 0
Inactive
10
RAS2
3
Symmetry
1
Spin
1
orblisting
all

>>> COPY $WorkDir/ozone_128.75.rasscf.h5 $CurrDir/

>>> COPY $WorkDir/GMJ_Fock_MO.csv $CurrDir/ozone_128.75.GMJ_Fock_MO.csv

&MOTRA
Frozen=0
LUMORB

>>> COPY $WorkDir/GMJ_one_int_indx.csv $CurrDir/ozone_128.75.GMJ_one_int_indx.csv

>>> COPY $WorkDir/GMJ_one_int.csv $CurrDir/ozone_128.75.GMJ_one_int.csv

>>> COPY $WorkDir/GMJ_two_int_indx.csv $CurrDir/ozone_128.75.GMJ_two_int_indx.csv

>>> COPY $WorkDir/GMJ_two_int.csv $CurrDir/ozone_128.75.GMJ_two_int.csv

&CASPT2
Frozen
0

MAXITER
50

>>> FOREACH k IN (1,2,3)

  >>> FOREACH i IN (B,E,F,G,H)

    >>> FOREACH j IN (P,M)

      >>> IF (-FILE GMJ_e2_${i}_${j}_${k}_.csv)

        >>> COPY $WorkDir/GMJ_RHS_${i}_${j}_${k}_.csv $CurrDir/GMJ_RHS_${i}_${j}_${k}_.csv

        >>> COPY $WorkDir/GMJ_IVECW_${i}_${j}_${k}_.csv $CurrDir/GMJ_IVECW_${i}_${j}_${k}_.csv

        >>> COPY $WorkDir/GMJ_IVECX_${i}_${j}_${k}_.csv $CurrDir/GMJ_IVECX_${i}_${j}_${k}_.csv

        >>> COPY $WorkDir/GMJ_IVECC2_${i}_${j}_${k}_.csv $CurrDir/GMJ_IVECC2_${i}_${j}_${k}_.csv

        >>> COPY $WorkDir/GMJ_e2_${i}_${j}_${k}_.csv $CurrDir/GMJ_e2_${i}_${j}_${k}_.csv

      >>> END IF

    >>> END FOREACH

  >>> END FOREACH

>>> END FOREACH

>>> FOREACH j IN (1,2,3)

  >>> FOREACH i IN (A,C,D)

    >>> IF (-FILE GMJ_e2_${i}_${j}_.csv)

      >>> COPY $WorkDir/GMJ_RHS_${i}_${j}_.csv $CurrDir/GMJ_RHS_${i}_${j}_.csv

      >>> COPY $WorkDir/GMJ_IVECW_${i}_${j}_.csv $CurrDir/GMJ_IVECW_${i}_${j}_.csv

      >>> COPY $WorkDir/GMJ_IVECX_${i}_${j}_.csv $CurrDir/GMJ_IVECX_${i}_${j}_.csv

      >>> COPY $WorkDir/GMJ_IVECC2_${i}_${j}_.csv $CurrDir/GMJ_IVECC2_${i}_${j}_.csv

      >>> COPY $WorkDir/GMJ_e2_${i}_${j}_.csv $CurrDir/GMJ_e2_${i}_${j}_.csv

    >>> END IF

  >>> END FOREACH

>>> END FOREACH

-- ----------------------------------

--- Start Module: gateway at Fri Apr 11 18:57:28 2025 ---
 
()()()()()()()()()()()()()()()()()()()()()()()()()()()()()()()()()()()()()()()()()()()()()()()()()()

                                              &GATEWAY

                                   only a single process is used
                       available to each process: 2.0 GB of memory, 1 thread?
()()()()()()()()()()()()()()()()()()()()()()()()()()()()()()()()()()()()()()()()()()()()()()()()()()
 
 
++    Symmetry information:
      ---------------------
 
                    Character Table for C1 
 
                             E  
                    a        1  x, y, xy, Rz, z, xz, Ry, yz, Rx, I
--
 
 
++    Basis set information:
      ----------------------
 
 
      Basis set label: O.ANO-RCC...4S3P2D1F.
 
      Electronic valence basis set:
      ------------------
      Associated Effective Charge   8.000000 au
      Associated Actual Charge      8.000000 au
      Nuclear Model: Point charge
 
      Shell  nPrim  nBasis  Cartesian Spherical Contaminant
         s      14       4        X                  
         p       9       3        X                  
         d       4       2                 X         
         f       3       1                 X         
--
 
 
++    Molecular structure info:
      -------------------------
 
                    ************************************************ 
                    **** Cartesian Coordinates / Bohr, Angstrom **** 
                    ************************************************ 
 
     Center  Label                x              y              z                     x              y              z
        1      O1               1.044467       2.177533       0.000000              0.552708       1.152301       0.000000
        2      O2               0.000000       0.000000       0.000000              0.000000       0.000000       0.000000
        3      O3               1.044467      -2.177533       0.000000              0.552708      -1.152301       0.000000
 
                    *************************************** 
                    *    InterNuclear Distances / Bohr    * 
                    *************************************** 
 
               1 O1            2 O2            3 O3    
    1 O1       0.000000
    2 O2       2.415070        0.000000
    3 O3       4.355067        2.415070        0.000000
 
                    ******************************************* 
                    *    InterNuclear Distances / Angstrom    * 
                    ******************************************* 
 
               1 O1            2 O2            3 O3    
    1 O1       0.000000
    2 O2       1.278000        0.000000
    3 O3       2.304602        1.278000        0.000000
 
                    ************************************** 
                    *    Valence Bond Angles / Degree    * 
                    ************************************** 
                          Atom centers                 Phi
                      1 O1       2 O2       3 O3       128.75
--
 
 
            Nuclear Potential Energy             67.69606606 au
 
--- Stop Module: gateway at Fri Apr 11 18:57:28 2025 /rc=_RC_ALL_IS_WELL_ ---
*** files: xmldump
    saved to directory /home/grierjones/DDCASPT2/ozone/multistate/ANO-RCC-VTZP/ozone_128.75

--- Start Module: seward at Fri Apr 11 18:57:28 2025 ---
 
()()()()()()()()()()()()()()()()()()()()()()()()()()()()()()()()()()()()()()()()()()()()()()()()()()

                                              &SEWARD

                                   only a single process is used
                       available to each process: 2.0 GB of memory, 1 thread?
()()()()()()()()()()()()()()()()()()()()()()()()()()()()()()()()()()()()()()()()()()()()()()()()()()
 
               SEWARD will generate:
                  Multipole Moment integrals up to order  2
                  Kinetic Energy integrals
                  Nuclear Attraction integrals (point charge)
                  One-Electron Hamiltonian integrals
                  Velocity integrals
                  Relativistic Douglas-Kroll-Hess integrals:
                    - Parametrization         : EXP
                    - DKH order of Hamiltonian: 2
                    - DKH order of Properties : 0
                         - multipole moment operators
                         - electric potential operators
                         - contact operators
                  Atomic mean-field integrals
                  Two-Electron Repulsion integrals
 
                   Integrals are discarded if absolute value <: 0.10E-13
                   Integral cutoff threshold is set to       <: 0.10E-15
 
            Nuclear Potential Energy             67.69606606 au
 
 
      Basis set specifications :
      Symmetry species         a  
      Basis functions           90
 
 
  Input file to MOLDEN was generated!
 
forrtl: warning (525): IEEE_DIVIDE_BY_ZERO is signaling
forrtl: warning (526): IEEE_INVALID is signaling
forrtl: warning (528): IEEE_UNDERFLOW is signaling
--- Stop Module: seward at Fri Apr 11 18:57:31 2025 /rc=_RC_ALL_IS_WELL_ ---
*** files: ozone_128.75.GssOrb ozone_128.75.guessorb.h5 ozone_128.75.guessorb.molden xmldump
    saved to directory /home/grierjones/DDCASPT2/ozone/multistate/ANO-RCC-VTZP/ozone_128.75
--- Module seward spent 2 seconds ---

*** symbolic link created: INPORB -> ozone_128.75.GssOrb
--- Start Module: scf at Fri Apr 11 18:57:31 2025 ---
 
()()()()()()()()()()()()()()()()()()()()()()()()()()()()()()()()()()()()()()()()()()()()()()()()()()

                                                &SCF

                                   only a single process is used
                       available to each process: 2.0 GB of memory, 1 thread?
()()()()()()()()()()()()()()()()()()()()()()()()()()()()()()()()()()()()()()()()()()()()()()()()()()
 
++    Input section:
      --------------
 
      Header of the integral files:
      
       Integrals generated by seward 4.2.0  , Fri Apr 11 18:57:28 2025
 
 
      Cartesian coordinates in Angstrom:
      -----------------------------------------------------
      No.  Label        X            Y            Z        
      -----------------------------------------------------
       1   O1         0.55270800   1.15230100   0.00000000
       2   O2         0.00000000   0.00000000   0.00000000
       3   O3         0.55270800  -1.15230100   0.00000000
      -----------------------------------------------------
      Nuclear repulsion energy =   67.69606606
--
 
++    Orbital specifications:
      -----------------------
 
      Symmetry species               1
                                     a
      Frozen orbitals                0
      Occupied orbitals             12
      Secondary orbitals            78
      Deleted orbitals               0
      Total number of orbitals      90
      Number of basis functions     90
--
 
      Molecular charge                           0.000
 
++    Optimization specifications:
      ----------------------------
 
      SCF Algorithm: Conventional
      Minimized density differences are used
      Number of density matrices in core                5
      Maximum number of NDDO SCF iterations           400
      Maximum number of HF SCF iterations             400
      Threshold for SCF energy change            0.10E-08
      Threshold for density matrix               0.10E-03
      Threshold for Fock matrix                  0.15E-03
      Threshold for linear dependence            0.10E-08
      Threshold at which DIIS is turned on       0.15E+00
      Threshold at which QNR/C2DIIS is turned on 0.75E-01
      Threshold for Norm(delta) (QNR/C2DIIS)     0.20E-04
      DIIS extrapolation of the SCF procedure
      All orbitals punched on: SCFORB
--
 
      Input vectors read from INPORB
      Orbital file label: * SCF orbitals
 
 
++ Convergence information
                                   SCF        iterations: Energy and convergence statistics
 
Iter     Tot. SCF        One-elec.       Two-elec.     Energy      Max Dij or  Max Fij      DNorm      TNorm      AccCon     Time
         Energy          Energy          Energy        Change      Delta Norm                                                in Sec.
   1  -224.505382880  -443.019438441   150.817989496   0.00E+00    0.12E-02*   0.63E-03*    0.75E+01   0.11E+03   None         0.
   2  -224.505388133  -443.019001343   150.817547146  -0.53E-05*   0.62E-03*   0.33E-03*    0.70E-02   0.11E+03   EDIIS        0.
   3  -224.505389180  -443.019732569   150.818277326  -0.10E-05*   0.42E-03*   0.32E-03*    0.11E-02   0.11E+03   c2DIIS       0.
   4  -224.505389522  -443.018828437   150.817372851  -0.34E-06*   0.29E-03*   0.13E-03     0.13E-02   0.11E+03   QNRc2DIIS    0.
   5  -224.505389531  -443.020196383   150.818740788  -0.85E-08*   0.15E-03*   0.15E-03     0.57E-03   0.11E+03   QNRc2DIIS    0.
   6  -224.505389635  -443.019533466   150.818077768  -0.10E-06*   0.70E-04*   0.13E-04     0.50E-04   0.11E+03   QNRc2DIIS    0.
   7  -224.505389639  -443.019481686   150.818025984  -0.41E-08*   0.39E-05    0.98E-06     0.70E-04   0.11E+03   QNRc2DIIS    0.
   8  -224.505389639  -443.019513885   150.818058182  -0.19E-10    0.14E-05    0.79E-06     0.15E-03   0.11E+03   QNRc2DIIS    0.
 
       Convergence after  8 Macro Iterations
--
 
 *****************************************************************************************************************************
 *                                                                                                                           *
 *                                             SCF/KS-DFT Program, Final results                                             *
 *                                                                                                                           *
 *                                                                                                                           *
 *                                                                                                                           *
 *                                                       Final Results                                                       *
 *                                                                                                                           *
 *****************************************************************************************************************************
 
::    Total SCF energy                               -224.5053896390
      One-electron energy                            -443.0195138852
      Two-electron energy                             150.8180581825
      Nuclear repulsion energy                         67.6960660637
      Kinetic energy (interpolated)                   225.0314982383
      Virial theorem                                    0.9976620669
      Total spin, S(S+1)                                0.0000000000
      Total spin, S                                     0.0000000000
      Max non-diagonal density matrix element           0.0000018911
      Max non-diagonal Fock matrix element              0.0000003590
 
 
      All orbitals with orbital energies smaller than  E(LUMO)+0.5 are printed
 
++    Molecular orbitals:
      -------------------
 
      Title: SCF orbitals

      Molecular orbitals for symmetry species 1: a  
 
          Orbital            1         2         3         4         5         6         7         8         9        10    
          Energy          -20.9266  -20.7327  -20.7327   -1.7391   -1.4477   -1.0876   -0.8321   -0.8035   -0.7760   -0.5817
          Occ. No.          2.0000    2.0000    2.0000    2.0000    2.0000    2.0000    2.0000    2.0000    2.0000    2.0000
 
        1 O1     1s         0.0023   -0.6731    0.7381   -0.0131    0.0120    0.0110   -0.0104   -0.0231   -0.0000    0.0072
        2 O1     2s         0.0032    0.0049   -0.0057    0.3375   -0.5669    0.6104   -0.2237   -0.4302    0.0000    0.0675
        3 O1     3s         0.0018    0.0035   -0.0040   -0.0090    0.0197    0.0185   -0.0193   -0.0512   -0.0000    0.0178
        4 O1     4s         0.0003    0.0007   -0.0008   -0.0004    0.0040    0.0030   -0.0039   -0.0109   -0.0000    0.0041
        5 O1     2px       -0.0007   -0.0012    0.0011   -0.0439    0.0553    0.0973    0.2011   -0.3029    0.0000   -0.5766
        6 O1     3px       -0.0005   -0.0012    0.0010    0.0118   -0.0077   -0.0163   -0.0114    0.0270    0.0000   -0.0074
        7 O1     4px       -0.0000    0.0005   -0.0007    0.0024    0.0001    0.0007   -0.0006    0.0017    0.0000    0.0042
        8 O1     2py       -0.0019   -0.0020    0.0026   -0.1122    0.0759    0.1104   -0.3121   -0.2918    0.0000    0.4256
        9 O1     3py       -0.0011   -0.0021    0.0026    0.0138   -0.0160   -0.0186    0.0299    0.0403    0.0000   -0.0049
       10 O1     4py        0.0005    0.0013   -0.0015    0.0011   -0.0037    0.0011    0.0039    0.0034    0.0000   -0.0031
       11 O1     2pz       -0.0000   -0.0000   -0.0000   -0.0000    0.0000   -0.0000    0.0000    0.0000    0.3830   -0.0000
       12 O1     3pz        0.0000    0.0000    0.0000    0.0000   -0.0000   -0.0000    0.0000   -0.0000   -0.0174   -0.0000
       13 O1     4pz       -0.0000   -0.0000   -0.0000   -0.0000    0.0000   -0.0000   -0.0000   -0.0000   -0.0068    0.0000
       14 O1     3d2-       0.0003    0.0008   -0.0009    0.0139   -0.0137   -0.0118   -0.0015    0.0258   -0.0000    0.0025
       15 O1     4d2-       0.0001    0.0005   -0.0005    0.0014   -0.0016   -0.0008    0.0001    0.0022    0.0000    0.0010
       16 O1     3d1-      -0.0000   -0.0000   -0.0000   -0.0000   -0.0000    0.0000    0.0000   -0.0000   -0.0290   -0.0000
       17 O1     4d1-      -0.0000    0.0000    0.0000   -0.0000   -0.0000    0.0000    0.0000   -0.0000   -0.0046    0.0000
       18 O1     3d0       -0.0003   -0.0005    0.0006   -0.0105    0.0092    0.0045   -0.0086   -0.0146    0.0000    0.0049
       19 O1     4d0       -0.0002   -0.0004    0.0004   -0.0005    0.0010   -0.0000   -0.0007   -0.0009    0.0000    0.0005
       20 O1     3d1+      -0.0000   -0.0000   -0.0000   -0.0000    0.0000    0.0000   -0.0000   -0.0000   -0.0140    0.0000
       21 O1     4d1+       0.0000    0.0000   -0.0000   -0.0000    0.0000    0.0000   -0.0000   -0.0000   -0.0028    0.0000
       22 O1     3d2+      -0.0005   -0.0007    0.0009   -0.0148    0.0084    0.0053   -0.0259   -0.0127   -0.0000    0.0180
       23 O1     4d2+      -0.0002   -0.0003    0.0004   -0.0020    0.0011    0.0009   -0.0025   -0.0008   -0.0000    0.0029
       24 O1     4f3-       0.0001    0.0001   -0.0000    0.0022   -0.0007    0.0008    0.0074   -0.0002    0.0000   -0.0057
       25 O1     4f2-       0.0000    0.0000    0.0000    0.0000   -0.0000   -0.0000    0.0000   -0.0000    0.0053    0.0000
       26 O1     4f1-       0.0000    0.0001   -0.0002    0.0031   -0.0028   -0.0010    0.0022    0.0033   -0.0000   -0.0010
       27 O1     4f0       -0.0000   -0.0000   -0.0000    0.0000    0.0000    0.0000    0.0000   -0.0000   -0.0038   -0.0000
       28 O1     4f1+       0.0000    0.0001   -0.0001    0.0013   -0.0014   -0.0007    0.0003    0.0015   -0.0000   -0.0011
       29 O1     4f2+      -0.0000   -0.0000   -0.0000   -0.0000   -0.0000    0.0000    0.0000    0.0000   -0.0048    0.0000
       30 O1     4f3+       0.0000    0.0002   -0.0002    0.0052   -0.0053   -0.0028    0.0012    0.0070   -0.0000   -0.0005
       31 O2     1s         0.9991   -0.0000   -0.0008   -0.0276    0.0000   -0.0167   -0.0077    0.0000   -0.0000    0.0000
       32 O2     2s        -0.0063    0.0005    0.0112    0.6207   -0.0000   -0.6569   -0.0824    0.0000   -0.0000    0.0000
       33 O2     3s        -0.0044    0.0003    0.0064   -0.0692    0.0000   -0.0162   -0.0140    0.0000   -0.0000    0.0000
       34 O2     4s        -0.0010    0.0000    0.0010   -0.0125    0.0000   -0.0042   -0.0044   -0.0000    0.0000    0.0000
       35 O2     2px       -0.0010    0.0002    0.0033    0.0895   -0.0000    0.2138    0.6786    0.0000   -0.0000   -0.0000
       36 O2     3px       -0.0018    0.0001    0.0021   -0.0368    0.0000   -0.0288   -0.0718   -0.0000    0.0000    0.0000
       37 O2     4px        0.0016   -0.0000   -0.0007   -0.0032    0.0000    0.0012   -0.0093   -0.0000   -0.0000   -0.0000
       38 O2     2py       -0.0000   -0.0060    0.0003   -0.0000   -0.3322    0.0000   -0.0000    0.5515   -0.0000   -0.1436
       39 O2     3py        0.0000   -0.0039    0.0002    0.0000    0.0640   -0.0000    0.0000   -0.0571    0.0000   -0.0077
       40 O2     4py       -0.0000    0.0012   -0.0001   -0.0000   -0.0019   -0.0000    0.0000   -0.0092    0.0000   -0.0004
       41 O2     2pz       -0.0000   -0.0000   -0.0000   -0.0000   -0.0000    0.0000    0.0000    0.0000    0.6782    0.0000
       42 O2     3pz       -0.0000   -0.0000    0.0000   -0.0000   -0.0000    0.0000    0.0000    0.0000   -0.0465    0.0000
       43 O2     4pz       -0.0000    0.0000    0.0000   -0.0000   -0.0000    0.0000   -0.0000    0.0000   -0.0165    0.0000
       44 O2     3d2-       0.0000   -0.0013    0.0001   -0.0000   -0.0374    0.0000   -0.0000    0.0263    0.0000   -0.0431
       45 O2     4d2-       0.0000   -0.0006    0.0000   -0.0000   -0.0041    0.0000   -0.0000    0.0024    0.0000   -0.0076
       46 O2     3d1-      -0.0000   -0.0000   -0.0000    0.0000    0.0000    0.0000    0.0000    0.0000   -0.0000   -0.0000
       47 O2     4d1-      -0.0000   -0.0000   -0.0000    0.0000    0.0000    0.0000    0.0000    0.0000   -0.0000   -0.0000
       48 O2     3d0        0.0005   -0.0000   -0.0011   -0.0149    0.0000   -0.0058   -0.0140   -0.0000    0.0000    0.0000
       49 O2     4d0        0.0005   -0.0000   -0.0006    0.0009   -0.0000   -0.0002   -0.0007   -0.0000    0.0000    0.0000
       50 O2     3d1+      -0.0000   -0.0000   -0.0000    0.0000    0.0000    0.0000    0.0000    0.0000    0.0291    0.0000
       51 O2     4d1+       0.0000   -0.0000   -0.0000    0.0000    0.0000    0.0000    0.0000   -0.0000    0.0042   -0.0000
       52 O2     3d2+       0.0005   -0.0000   -0.0011   -0.0155    0.0000   -0.0016    0.0183    0.0000   -0.0000    0.0000
       53 O2     4d2+       0.0002   -0.0000   -0.0005   -0.0016    0.0000   -0.0005    0.0016    0.0000   -0.0000    0.0000
       54 O2     4f3-      -0.0000    0.0000   -0.0000    0.0000    0.0029   -0.0000    0.0000   -0.0055   -0.0000   -0.0086
       55 O2     4f2-      -0.0000   -0.0000    0.0000    0.0000    0.0000   -0.0000    0.0000    0.0000   -0.0000   -0.0000
       56 O2     4f1-      -0.0000    0.0001   -0.0000    0.0000    0.0052   -0.0000    0.0000   -0.0044    0.0000    0.0011
       57 O2     4f0       -0.0000    0.0000    0.0000   -0.0000   -0.0000    0.0000   -0.0000   -0.0000   -0.0061   -0.0000
       58 O2     4f1+       0.0001   -0.0000   -0.0001   -0.0026    0.0000   -0.0003   -0.0017   -0.0000   -0.0000   -0.0000
       59 O2     4f2+      -0.0000   -0.0000   -0.0000   -0.0000    0.0000    0.0000   -0.0000   -0.0000   -0.0069   -0.0000
       60 O2     4f3+       0.0001   -0.0000   -0.0002   -0.0096    0.0000   -0.0012   -0.0060   -0.0000   -0.0000    0.0000
       61 O3     1s         0.0023    0.7381    0.6731   -0.0131   -0.0120    0.0110   -0.0104    0.0231    0.0000   -0.0072
       62 O3     2s         0.0032   -0.0054   -0.0052    0.3375    0.5669    0.6104   -0.2238    0.4302   -0.0000   -0.0675
       63 O3     3s         0.0018   -0.0039   -0.0036   -0.0090   -0.0197    0.0185   -0.0193    0.0512    0.0000   -0.0178
       64 O3     4s         0.0003   -0.0008   -0.0007   -0.0004   -0.0040    0.0030   -0.0039    0.0109    0.0000   -0.0041
       65 O3     2px       -0.0007    0.0013    0.0010   -0.0439   -0.0553    0.0973    0.2011    0.3029   -0.0000    0.5766
       66 O3     3px       -0.0005    0.0013    0.0009    0.0118    0.0077   -0.0163   -0.0114   -0.0270   -0.0000    0.0074
       67 O3     4px       -0.0000   -0.0005   -0.0006    0.0024   -0.0001    0.0007   -0.0006   -0.0017   -0.0000   -0.0042
       68 O3     2py        0.0019   -0.0022   -0.0024    0.1122    0.0759   -0.1104    0.3121   -0.2918    0.0000    0.4256
       69 O3     3py        0.0011   -0.0023   -0.0024   -0.0138   -0.0160    0.0186   -0.0299    0.0403    0.0000   -0.0049
       70 O3     4py       -0.0005    0.0015    0.0014   -0.0011   -0.0037   -0.0011   -0.0039    0.0034    0.0000   -0.0031
       71 O3     2pz        0.0000    0.0000   -0.0000    0.0000    0.0000   -0.0000   -0.0000    0.0000    0.3830    0.0000
       72 O3     3pz        0.0000    0.0000    0.0000    0.0000    0.0000   -0.0000   -0.0000   -0.0000   -0.0174   -0.0000
       73 O3     4pz        0.0000    0.0000    0.0000    0.0000    0.0000   -0.0000   -0.0000   -0.0000   -0.0068   -0.0000
       74 O3     3d2-      -0.0003    0.0009    0.0009   -0.0139   -0.0137    0.0118    0.0015    0.0258   -0.0000    0.0025
       75 O3     4d2-      -0.0001    0.0005    0.0005   -0.0014   -0.0016    0.0008   -0.0001    0.0022   -0.0000    0.0010
       76 O3     3d1-      -0.0000    0.0000    0.0000   -0.0000    0.0000   -0.0000   -0.0000    0.0000    0.0290   -0.0000
       77 O3     4d1-      -0.0000    0.0000    0.0000   -0.0000    0.0000   -0.0000   -0.0000   -0.0000    0.0046   -0.0000
       78 O3     3d0       -0.0003    0.0005    0.0005   -0.0105   -0.0092    0.0045   -0.0086    0.0146   -0.0000   -0.0049
       79 O3     4d0       -0.0002    0.0004    0.0004   -0.0005   -0.0010   -0.0000   -0.0007    0.0009   -0.0000   -0.0005
       80 O3     3d1+       0.0000    0.0000    0.0000   -0.0000   -0.0000   -0.0000   -0.0000   -0.0000   -0.0140    0.0000
       81 O3     4d1+       0.0000   -0.0000    0.0000   -0.0000   -0.0000   -0.0000   -0.0000   -0.0000   -0.0028    0.0000
       82 O3     3d2+      -0.0005    0.0008    0.0008   -0.0148   -0.0084    0.0053   -0.0259    0.0127   -0.0000   -0.0180
       83 O3     4d2+      -0.0002    0.0004    0.0004   -0.0020   -0.0011    0.0009   -0.0025    0.0008    0.0000   -0.0029
       84 O3     4f3-      -0.0001    0.0001    0.0000   -0.0022   -0.0007   -0.0008   -0.0074   -0.0002    0.0000   -0.0057
       85 O3     4f2-       0.0000   -0.0000    0.0000   -0.0000   -0.0000    0.0000   -0.0000   -0.0000   -0.0053    0.0000
       86 O3     4f1-      -0.0000    0.0002    0.0001   -0.0031   -0.0028    0.0010   -0.0022    0.0033    0.0000   -0.0010
       87 O3     4f0        0.0000    0.0000   -0.0000   -0.0000    0.0000   -0.0000   -0.0000   -0.0000   -0.0038    0.0000
       88 O3     4f1+       0.0000   -0.0001   -0.0001    0.0013    0.0014   -0.0007    0.0003   -0.0015   -0.0000    0.0011
       89 O3     4f2+       0.0000   -0.0000    0.0000    0.0000   -0.0000    0.0000    0.0000   -0.0000   -0.0048    0.0000
       90 O3     4f3+       0.0000   -0.0002   -0.0002    0.0052    0.0053   -0.0028    0.0012   -0.0070    0.0000    0.0005
 
          Orbital           11        12        13        14        15        16        17        18        19        20    
          Energy           -0.5359   -0.4962   -0.0454    0.1745    0.1836    0.2359    0.2543    0.3494    0.3548    0.3788
          Occ. No.          2.0000    2.0000    0.0000    0.0000    0.0000    0.0000    0.0000    0.0000    0.0000    0.0000
 
        1 O1     1s         0.0044    0.0000   -0.0000   -0.2012   -0.1282    0.0000   -0.0115   -0.0197    0.0727   -0.0000
        2 O1     2s         0.0249    0.0000    0.0000   -1.4784   -0.9685    0.0000    0.0133   -0.0499    0.4107   -0.0000
        3 O1     3s         0.0171    0.0000   -0.0000   -0.8608   -0.5263    0.0000   -0.1301   -0.0345    0.5672   -0.0000
        4 O1     4s         0.0050    0.0000   -0.0000   -0.1937   -0.1092    0.0000   -0.0413   -0.0019    0.1596   -0.0000
        5 O1     2px        0.6610    0.0000   -0.0000    0.4164    0.1967    0.0000   -0.1347   -0.2254   -0.0246    0.0000
        6 O1     3px        0.0122   -0.0000    0.0000    0.3941    0.2886   -0.0000    0.2674   -0.7683    0.2199    0.0000
        7 O1     4px       -0.0044   -0.0000    0.0000    0.0416    0.0706   -0.0000    0.1403   -0.3055    0.1271    0.0000
        8 O1     2py       -0.0521   -0.0000   -0.0000    0.5608    0.8744    0.0000   -0.3819   -0.2649   -0.0910    0.0000
        9 O1     3py       -0.0156   -0.0000    0.0000    0.7192    0.7080    0.0000   -0.2438   -0.1735   -0.7435    0.0000
       10 O1     4py       -0.0012   -0.0000   -0.0000    0.1110    0.0850    0.0000   -0.1010   -0.0352   -0.1796    0.0000
       11 O1     2pz        0.0000   -0.7023    0.6686    0.0000   -0.0000   -0.1486   -0.0000   -0.0000   -0.0000   -0.1663
       12 O1     3pz        0.0000   -0.0326    0.1661    0.0000    0.0000    0.3330    0.0000   -0.0000   -0.0000   -0.9162
       13 O1     4pz        0.0000    0.0068    0.0259    0.0000    0.0000    0.1926    0.0000   -0.0000   -0.0000   -0.3685
       14 O1     3d2-      -0.0112    0.0000   -0.0000   -0.0736   -0.0435    0.0000   -0.0079    0.0004    0.0330   -0.0000
       15 O1     4d2-      -0.0012    0.0000    0.0000   -0.0475   -0.0290    0.0000   -0.0038    0.0144    0.0210   -0.0000
       16 O1     3d1-      -0.0000    0.0234    0.0090   -0.0000    0.0000    0.0117    0.0000    0.0000    0.0000    0.0024
       17 O1     4d1-      -0.0000    0.0057    0.0003   -0.0000    0.0000    0.0034    0.0000    0.0000    0.0000    0.0099
       18 O1     3d0        0.0052   -0.0000    0.0000    0.0524    0.0425   -0.0000    0.0178   -0.0065   -0.0419    0.0000
       19 O1     4d0        0.0003   -0.0000    0.0000    0.0338    0.0287   -0.0000    0.0080   -0.0108   -0.0241    0.0000
       20 O1     3d1+      -0.0000    0.0107    0.0052    0.0000   -0.0000    0.0036    0.0000   -0.0000   -0.0000    0.0147
       21 O1     4d1+       0.0000    0.0025    0.0001    0.0000   -0.0000   -0.0003    0.0000   -0.0000   -0.0000    0.0126
       22 O1     3d2+       0.0033    0.0000    0.0000    0.0537    0.0495   -0.0000    0.0400    0.0029   -0.1009    0.0000
       23 O1     4d2+      -0.0008    0.0000   -0.0000    0.0316    0.0365   -0.0000    0.0153   -0.0007   -0.0622    0.0000
       24 O1     4f3-       0.0013   -0.0000    0.0000   -0.0035   -0.0009   -0.0000    0.0024   -0.0034    0.0105   -0.0000
       25 O1     4f2-       0.0000   -0.0039   -0.0000    0.0000    0.0000    0.0019    0.0000    0.0000   -0.0000   -0.0057
       26 O1     4f1-      -0.0015    0.0000   -0.0000   -0.0056   -0.0047    0.0000   -0.0005    0.0053    0.0081   -0.0000
       27 O1     4f0        0.0000    0.0016    0.0015    0.0000   -0.0000   -0.0017   -0.0000    0.0000    0.0000    0.0059
       28 O1     4f1+       0.0004   -0.0000   -0.0000   -0.0017   -0.0027    0.0000   -0.0008    0.0046    0.0020   -0.0000
       29 O1     4f2+      -0.0000    0.0035   -0.0006    0.0000    0.0000   -0.0011   -0.0000   -0.0000    0.0000    0.0028
       30 O1     4f3+      -0.0034    0.0000   -0.0000   -0.0086   -0.0055    0.0000    0.0010    0.0091    0.0069   -0.0000
       31 O2     1s         0.0216   -0.0000    0.0000   -0.0000    0.3131   -0.0000   -0.0295   -0.0000   -0.1970    0.0000
       32 O2     2s         0.2615   -0.0000    0.0000   -0.0000    2.2921   -0.0000   -0.3472   -0.0000   -1.1420    0.0000
       33 O2     3s         0.0527   -0.0000    0.0000   -0.0000    1.2277   -0.0000   -0.0123   -0.0000   -0.7640    0.0000
       34 O2     4s         0.0130   -0.0000    0.0000   -0.0000    0.2616   -0.0000   -0.0051   -0.0000   -0.1281    0.0000
       35 O2     2px       -0.5170   -0.0000    0.0000   -0.0000    0.7378    0.0000   -0.3193   -0.0000   -0.2260    0.0000
       36 O2     3px       -0.0086   -0.0000    0.0000   -0.0000    0.7207   -0.0000    0.2624   -0.0000   -0.7615    0.0000
       37 O2     4px       -0.0020    0.0000    0.0000   -0.0000    0.1210   -0.0000    0.1438   -0.0000   -0.1070   -0.0000
       38 O2     2py        0.0000   -0.0000   -0.0000    1.4139    0.0000   -0.0000   -0.0000   -0.1172    0.0000    0.0000
       39 O2     3py        0.0000   -0.0000   -0.0000    1.3948    0.0000   -0.0000   -0.0000    0.4454   -0.0000    0.0000
       40 O2     4py        0.0000    0.0000   -0.0000    0.1420    0.0000   -0.0000   -0.0000    0.2120   -0.0000    0.0000
       41 O2     2pz       -0.0000   -0.0000   -0.8674   -0.0000   -0.0000    0.0045   -0.0000    0.0000    0.0000   -0.0000
       42 O2     3pz       -0.0000    0.0000   -0.1872    0.0000    0.0000    0.3563    0.0000    0.0000    0.0000   -0.0000
       43 O2     4pz       -0.0000    0.0000   -0.0212    0.0000    0.0000    0.1974    0.0000    0.0000    0.0000   -0.0000
       44 O2     3d2-       0.0000   -0.0000    0.0000    0.1332    0.0000   -0.0000   -0.0000    0.0856   -0.0000    0.0000
       45 O2     4d2-       0.0000   -0.0000   -0.0000    0.0822    0.0000   -0.0000   -0.0000    0.0630   -0.0000    0.0000
       46 O2     3d1-       0.0000   -0.0596    0.0000    0.0000   -0.0000    0.0000    0.0000    0.0000    0.0000    0.1011
       47 O2     4d1-      -0.0000   -0.0140    0.0000   -0.0000   -0.0000    0.0000    0.0000    0.0000    0.0000    0.0607
       48 O2     3d0        0.0189    0.0000   -0.0000    0.0000   -0.0618    0.0000   -0.0598    0.0000    0.1577   -0.0000
       49 O2     4d0        0.0023    0.0000   -0.0000    0.0000   -0.0422    0.0000   -0.0294    0.0000    0.0786   -0.0000
       50 O2     3d1+       0.0000   -0.0000    0.0037   -0.0000   -0.0000   -0.0265   -0.0000   -0.0000   -0.0000    0.0000
       51 O2     4d1+       0.0000   -0.0000    0.0010   -0.0000   -0.0000   -0.0109   -0.0000   -0.0000   -0.0000   -0.0000
       52 O2     3d2+       0.0394    0.0000   -0.0000    0.0000   -0.0534    0.0000   -0.0907    0.0000    0.0703   -0.0000
       53 O2     4d2+       0.0081    0.0000   -0.0000    0.0000   -0.0326    0.0000   -0.0376    0.0000    0.0127   -0.0000
       54 O2     4f3-       0.0000    0.0000   -0.0000   -0.0079   -0.0000    0.0000    0.0000    0.0013   -0.0000   -0.0000
       55 O2     4f2-       0.0000   -0.0078    0.0000   -0.0000   -0.0000    0.0000   -0.0000    0.0000    0.0000    0.0066
       56 O2     4f1-      -0.0000    0.0000   -0.0000   -0.0090   -0.0000    0.0000    0.0000   -0.0111    0.0000   -0.0000
       57 O2     4f0        0.0000    0.0000   -0.0020    0.0000    0.0000   -0.0019   -0.0000    0.0000   -0.0000    0.0000
       58 O2     4f1+      -0.0006    0.0000   -0.0000    0.0000   -0.0042    0.0000   -0.0048    0.0000    0.0098   -0.0000
       59 O2     4f2+      -0.0000    0.0000    0.0009   -0.0000    0.0000   -0.0018   -0.0000   -0.0000   -0.0000    0.0000
       60 O2     4f3+       0.0050    0.0000   -0.0000    0.0000   -0.0100    0.0000   -0.0085    0.0000    0.0148   -0.0000
       61 O3     1s         0.0044   -0.0000   -0.0000    0.2012   -0.1282   -0.0000   -0.0115    0.0197    0.0727    0.0000
       62 O3     2s         0.0249   -0.0000   -0.0000    1.4784   -0.9685   -0.0000    0.0133    0.0500    0.4107    0.0000
       63 O3     3s         0.0171   -0.0000   -0.0000    0.8608   -0.5263    0.0000   -0.1301    0.0345    0.5672   -0.0000
       64 O3     4s         0.0050   -0.0000   -0.0000    0.1937   -0.1092    0.0000   -0.0413    0.0019    0.1596   -0.0000
       65 O3     2px        0.6609    0.0000    0.0000   -0.4164    0.1966    0.0000   -0.1347    0.2254   -0.0246    0.0000
       66 O3     3px        0.0122   -0.0000    0.0000   -0.3941    0.2886   -0.0000    0.2674    0.7683    0.2199   -0.0000
       67 O3     4px       -0.0044    0.0000   -0.0000   -0.0416    0.0706   -0.0000    0.1403    0.3055    0.1270   -0.0000
       68 O3     2py        0.0521   -0.0000   -0.0000    0.5608   -0.8744   -0.0000    0.3819   -0.2649    0.0911   -0.0000
       69 O3     3py        0.0156   -0.0000   -0.0000    0.7192   -0.7080   -0.0000    0.2438   -0.1734    0.7435   -0.0000
       70 O3     4py        0.0012   -0.0000    0.0000    0.1110   -0.0850   -0.0000    0.1010   -0.0352    0.1796   -0.0000
       71 O3     2pz        0.0000    0.7023    0.6686   -0.0000   -0.0000   -0.1486   -0.0000    0.0000    0.0000    0.1663
       72 O3     3pz        0.0000    0.0326    0.1661    0.0000    0.0000    0.3330    0.0000    0.0000    0.0000    0.9162
       73 O3     4pz        0.0000   -0.0068    0.0259    0.0000    0.0000    0.1926    0.0000    0.0000    0.0000    0.3685
       74 O3     3d2-       0.0112   -0.0000   -0.0000   -0.0736    0.0435   -0.0000    0.0079    0.0004   -0.0330    0.0000
       75 O3     4d2-       0.0012   -0.0000    0.0000   -0.0475    0.0289   -0.0000    0.0038    0.0144   -0.0210    0.0000
       76 O3     3d1-       0.0000    0.0234   -0.0090   -0.0000    0.0000   -0.0117   -0.0000   -0.0000   -0.0000    0.0024
       77 O3     4d1-       0.0000    0.0057   -0.0003   -0.0000    0.0000   -0.0034    0.0000   -0.0000   -0.0000    0.0099
       78 O3     3d0        0.0052    0.0000    0.0000   -0.0524    0.0425   -0.0000    0.0178    0.0065   -0.0419   -0.0000
       79 O3     4d0        0.0003    0.0000    0.0000   -0.0338    0.0287   -0.0000    0.0080    0.0108   -0.0241   -0.0000
       80 O3     3d1+       0.0000   -0.0107    0.0052    0.0000    0.0000    0.0036    0.0000   -0.0000   -0.0000   -0.0147
       81 O3     4d1+       0.0000   -0.0025    0.0001    0.0000    0.0000   -0.0003   -0.0000   -0.0000   -0.0000   -0.0126
       82 O3     3d2+       0.0033    0.0000    0.0000   -0.0537    0.0495   -0.0000    0.0400   -0.0029   -0.1009    0.0000
       83 O3     4d2+      -0.0008    0.0000    0.0000   -0.0316    0.0365   -0.0000    0.0153    0.0007   -0.0622    0.0000
       84 O3     4f3-      -0.0013   -0.0000    0.0000   -0.0035    0.0009    0.0000   -0.0024   -0.0034   -0.0105    0.0000
       85 O3     4f2-       0.0000   -0.0039    0.0000    0.0000    0.0000   -0.0019   -0.0000   -0.0000   -0.0000   -0.0057
       86 O3     4f1-       0.0015   -0.0000    0.0000   -0.0056    0.0047    0.0000    0.0005    0.0053   -0.0081    0.0000
       87 O3     4f0       -0.0000   -0.0016    0.0015    0.0000   -0.0000   -0.0017   -0.0000   -0.0000   -0.0000   -0.0059
       88 O3     4f1+       0.0004   -0.0000    0.0000    0.0017   -0.0027    0.0000   -0.0008   -0.0046    0.0020    0.0000
       89 O3     4f2+       0.0000   -0.0035   -0.0006    0.0000   -0.0000   -0.0011   -0.0000   -0.0000    0.0000   -0.0028
       90 O3     4f3+      -0.0034    0.0000   -0.0000    0.0086   -0.0055   -0.0000    0.0010   -0.0091    0.0069   -0.0000
 
          Orbital           21    
          Energy            0.4259
          Occ. No.          0.0000
 
        1 O1     1s        -0.0069
        2 O1     2s        -0.0309
        3 O1     3s         0.2098
        4 O1     4s         0.1089
        5 O1     2px        0.3031
        6 O1     3px        0.6982
        7 O1     4px        0.1876
        8 O1     2py       -0.0646
        9 O1     3py        0.4827
       10 O1     4py        0.1638
       11 O1     2pz       -0.0000
       12 O1     3pz       -0.0000
       13 O1     4pz       -0.0000
       14 O1     3d2-      -0.1115
       15 O1     4d2-      -0.0760
       16 O1     3d1-       0.0000
       17 O1     4d1-       0.0000
       18 O1     3d0        0.0358
       19 O1     4d0        0.0245
       20 O1     3d1+       0.0000
       21 O1     4d1+      -0.0000
       22 O1     3d2+       0.0320
       23 O1     4d2+       0.0176
       24 O1     4f3-       0.0031
       25 O1     4f2-      -0.0000
       26 O1     4f1-      -0.0055
       27 O1     4f0        0.0000
       28 O1     4f1+      -0.0047
       29 O1     4f2+       0.0000
       30 O1     4f3+      -0.0129
       31 O2     1s         0.1081
       32 O2     2s         0.5695
       33 O2     3s         0.7508
       34 O2     4s         0.2097
       35 O2     2px       -0.5366
       36 O2     3px       -1.0364
       37 O2     4px       -0.3495
       38 O2     2py        0.0000
       39 O2     3py       -0.0000
       40 O2     4py       -0.0000
       41 O2     2pz        0.0000
       42 O2     3pz        0.0000
       43 O2     4pz        0.0000
       44 O2     3d2-      -0.0000
       45 O2     4d2-      -0.0000
       46 O2     3d1-      -0.0000
       47 O2     4d1-      -0.0000
       48 O2     3d0       -0.0416
       49 O2     4d0       -0.0058
       50 O2     3d1+       0.0000
       51 O2     4d1+       0.0000
       52 O2     3d2+      -0.0794
       53 O2     4d2+      -0.0377
       54 O2     4f3-       0.0000
       55 O2     4f2-       0.0000
       56 O2     4f1-       0.0000
       57 O2     4f0       -0.0000
       58 O2     4f1+       0.0042
       59 O2     4f2+      -0.0000
       60 O2     4f3+       0.0031
       61 O3     1s        -0.0069
       62 O3     2s        -0.0309
       63 O3     3s         0.2098
       64 O3     4s         0.1089
       65 O3     2px        0.3031
       66 O3     3px        0.6982
       67 O3     4px        0.1876
       68 O3     2py        0.0646
       69 O3     3py       -0.4827
       70 O3     4py       -0.1638
       71 O3     2pz       -0.0000
       72 O3     3pz       -0.0000
       73 O3     4pz       -0.0000
       74 O3     3d2-       0.1115
       75 O3     4d2-       0.0760
       76 O3     3d1-      -0.0000
       77 O3     4d1-      -0.0000
       78 O3     3d0        0.0358
       79 O3     4d0        0.0245
       80 O3     3d1+       0.0000
       81 O3     4d1+       0.0000
       82 O3     3d2+       0.0320
       83 O3     4d2+       0.0176
       84 O3     4f3-      -0.0031
       85 O3     4f2-       0.0000
       86 O3     4f1-       0.0055
       87 O3     4f0        0.0000
       88 O3     4f1+      -0.0047
       89 O3     4f2+       0.0000
       90 O3     4f3+      -0.0129
--
 
 
++    Molecular charges:
      ------------------
 
      Mulliken charges per centre and basis function type
      ---------------------------------------------------
 
                O1      O2      O3    
      1s       1.9979  1.9982  1.9979
      2s       1.9467  1.7009  1.9467
      2px      1.8137  1.5833  1.8137
      2pz      1.3773  1.1582  1.3773
      2py      1.0055  1.0377  1.0055
      3s      -0.0019 -0.0255 -0.0019
      3px     -0.0123 -0.0196 -0.0123
      3pz     -0.0097 -0.0141 -0.0097
      3py      0.0036  0.0037  0.0036
      4s       0.0043  0.0023  0.0043
      3d2+     0.0148  0.0376  0.0148
      3d1+     0.0029  0.0072  0.0029
      3d0      0.0057  0.0075  0.0057
      3d1-     0.0123  0.0487  0.0123
      3d2-     0.0139  0.0414  0.0139
      4px      0.0006  0.0015  0.0006
      4pz      0.0013  0.0017  0.0013
      4py      0.0027  0.0032  0.0027
      4d2+     0.0008  0.0065  0.0008
      4d1+     0.0006  0.0010  0.0006
      4d0     -0.0000 -0.0002 -0.0000
      4d1-     0.0015  0.0124  0.0015
      4d2-     0.0004  0.0050  0.0004
      4f3+     0.0027  0.0029  0.0027
      4f2+     0.0009  0.0015  0.0009
      4f1+     0.0003  0.0004  0.0003
      4f0      0.0009  0.0016  0.0009
      4f1-     0.0010  0.0012  0.0010
      4f2-     0.0012  0.0035  0.0012
      4f3-     0.0023  0.0068  0.0023
      Total    8.1918  7.6165  8.1918
 
      N-E     -0.1918  0.3835 -0.1918
 
      Total electronic charge=   24.000000
 
      Total            charge=   -0.000000
--
 
 
  Input file to MOLDEN was generated!
 
 
++    Static properties:
      ------------------
 
 
      LoProp Charges per center
 

                   O1       O2       O3    
      Nuclear      8.0000   8.0000   8.0000
      Electronic  -8.2045  -7.5909  -8.2045
 
      Total       -0.2045   0.4091  -0.2045
--
 
 
++    Natural Bond Order analysis
      ---------------------------
      Based on LoProp computed density
      -------------------------------------------------------------------------------------
      Atom A       Atom B       Bond Order | Atom A       Atom B       Bond Order
        O1           O2             1.997  |   O2           O3             1.997
      -------------------------------------------------------------------------------------
      NBO located     11.999 core electrons.
      NBO located      3.936 lone pair electrons.
      NBO located      7.987 electrons involved in    2 bonds.
      The remaining    0.078 electrons are to be considered as diffuse
--
 
 
++    Molecular properties:
      ---------------------
 
      Charge (e):
                      =   -0.0000
      Dipole Moment (Debye):
      Origin of the operator (Ang)=    0.0000    0.0000    0.0000
                   X= -5.7594E-01               Y=  4.3706E-06               Z=  1.8495E-13           Total=  5.7594E-01
      Quadrupole Moment (Debye*Ang):
      Origin of the operator (Ang)=    0.3685    0.0000    0.0000
                  XX= -1.6031E+01              XY=  8.4952E-07              XZ= -1.2129E-13              YY= -1.7180E+01
                  YZ=  1.2204E-13              ZZ= -1.4915E+01
      In traceless form (Debye*Ang)
                  XX=  1.6441E-02              XY=  1.2743E-06              XZ= -1.8193E-13              YY= -1.7074E+00
                  YZ=  1.8306E-13              ZZ=  1.6910E+00
--
 
 
  Input file to MOLDEN was generated!
 
 ###############################################################################
 ###############################################################################
 ###                                                                         ###
 ###                                                                         ###
 ###    RunFile label nBas                                                   ###
 ###    was used       78 times                                              ###
 ###                                                                         ###
 ###                                                                         ###
 ###############################################################################
 ###############################################################################
forrtl: warning (528): IEEE_UNDERFLOW is signaling
--- Stop Module: scf at Fri Apr 11 18:57:32 2025 /rc=_RC_ALL_IS_WELL_ ---
*** files: ozone_128.75.LprOrb ozone_128.75.LoProp.molden ozone_128.75.scf.molden ozone_128.75.ScfOrb ozone_128.75.scf.h5 xmldump
    saved to directory /home/grierjones/DDCASPT2/ozone/multistate/ANO-RCC-VTZP/ozone_128.75

>>> COPY /tmp/ozone_128.75/ozone_128.75.scf.h5 /home/grierjones/DDCASPT2/ozone/multistate/ANO-RCC-VTZP/ozone_128.75/

*** symbolic link created: INPORB -> ozone_128.75.ScfOrb
--- Start Module: rasscf at Fri Apr 11 18:57:32 2025 ---
 
()()()()()()()()()()()()()()()()()()()()()()()()()()()()()()()()()()()()()()()()()()()()()()()()()()

                                              &RASSCF

                                   only a single process is used
                       available to each process: 2.0 GB of memory, 1 thread?
()()()()()()()()()()()()()()()()()()()()()()()()()()()()()()()()()()()()()()()()()()()()()()()()()()
 
 
      Header of the ONEINT file:
      --------------------------
      
      Integrals generated by seward 4.2.0  , Fri Apr 11 18:57:28 2025
 
 
      OrdInt status: non-squared
 
 
      Cartesian coordinates in Angstrom:
      -----------------------------------------------------
      No.  Label        X            Y            Z        
      -----------------------------------------------------
       1   O1         0.55270800   1.15230100   0.00000000
       2   O2         0.00000000   0.00000000   0.00000000
       3   O3         0.55270800  -1.15230100   0.00000000
      -----------------------------------------------------
      Nuclear repulsion energy =   67.69606606
 
++    Wave function specifications:
      -----------------------------
 
      Number of closed shell electrons          20
      Number of electrons in active shells       4
      Max number of holes in RAS1 space          0
      Max nr of electrons in RAS3 space          0
      Number of inactive orbitals               10
      Number of active orbitals                  3
      Number of secondary orbitals              77
      Spin quantum number                      0.0
      State symmetry                             1
--
 
++    Orbital specifications:
      -----------------------
 
      Symmetry species                           1
                                                 a
      Frozen orbitals                            0
      Inactive orbitals                         10
      Active orbitals                            3
      RAS1 orbitals                              0
      RAS2 orbitals                              3
      RAS3 orbitals                              0
      Secondary orbitals                        77
      Deleted orbitals                           0
      Number of basis functions                 90
--
 
++    CI expansion specifications:
      ----------------------------
 
      Number of CSFs                             6
      Number of determinants                     6
      Number of root(s) required                 3
      Root chosen for geometry opt.              3
      CI roots used                              1     2     3
      weights                                0.333 0.333 0.333
      highest root included in the CI            3
      max. size of the explicit Hamiltonian      6
--
 
++    Optimization specifications:
      ----------------------------
 
      RASSCF algorithm: Conventional
      Maximum number of macro iterations       200
      Maximum number of SX iterations          100
      Threshold for RASSCF energy            0.100E-07
      Threshold for max MO rotation          0.100E+00
      Threshold for max BLB element          0.100E-03
      Level shift parameter                  0.500E+00
      Make Quasi-Newton update
--
 
      The MO-coefficients are taken from the file:
      /home/grierjones/DDCASPT2/ozone/multistate/ANO-RCC-VTZP/ozone_128.50/ozone_128.50.RasOrb                                        
      Title: RASSCF average (pseudo-natural) orbitals                                      
 
      Total molecular charge    0.00
 
      ************************************************************************************************************************
      *                                                                                                                      *
      *                                            Wave function control section                                             *
      *                                                                                                                      *
      ************************************************************************************************************************
 
 
                                         RASSCF iterations: Energy and convergence statistics
                                         ----------------------------------------------------
 
      Iter CI   SX   CI       RASSCF       Energy    max ROT     max BLB   max BLB  Level Ln srch  Step   QN   Walltime
          iter iter root      energy       change     param      element    value   shift minimum  type update hh:mm:ss
 Nr of preliminary CI iterations:   1
        1   1    4    0  -224.46944811    0.00E+00   0.88E-03   12  24 1 -0.99E-03*  0.29   0.00    SX    NO    0:00:00
        2   1    4    0  -224.46945335   -0.52E-05*  0.60E-03    8  19 1 -0.48E-03*  0.29   0.00    SX    NO    0:00:00
        3   1    4    0  -224.46945477   -0.14E-05*  0.44E-03   12  24 1 -0.29E-03*  0.29   0.00    SX    NO    0:00:00
        4   1    4    0  -224.46945532   -0.55E-06*  0.31E-03    8  19 1 -0.16E-03*  0.29   0.00    SX    NO    0:00:00
        5   1    4    0  -224.46945556   -0.24E-06*  0.47E-03    8  11 1  0.11E-03*  0.29   2.50    LS   YES    0:00:00
        6   1    4    0  -224.46945569   -0.14E-06* -0.38E-03   10  37 1 -0.11E-03*  0.29   1.00    QN   YES    0:00:00
        7   1    4    0  -224.46945580   -0.11E-06*  0.15E-03   12  24 1  0.11E-03*  0.29   0.91    QN   YES    0:00:00
        8   1    4    0  -224.46945584   -0.39E-07*  0.22E-03   12  24 1  0.74E-04   0.29   2.50    LS   YES    0:00:00
        9   1    4    0  -224.46945588   -0.36E-07*  0.48E-03   10  11 1 -0.42E-04   0.29   1.67    QN   YES    0:00:00
       10   1    4    0  -224.46945592   -0.40E-07*  0.41E-03   10  11 1 -0.34E-04   0.29   1.38    QN   YES    0:00:00
       11   1    3    0  -224.46945594   -0.24E-07*  0.65E-03   12  24 1 -0.39E-04   0.29   1.81    QN   YES    0:00:00
       12   1    4    0  -224.46945597   -0.33E-07*  0.76E-03   12  24 1 -0.44E-04   0.29   1.69    QN   YES    0:00:00
       13   1    4    0  -224.46945601   -0.34E-07*  0.11E-02   10  13 1  0.34E-04   0.29   2.50    LS   YES    0:00:00
       14   1    4    0  -224.46945600    0.12E-07*  0.54E-03   10  37 1  0.66E-04   0.29   0.31    LS   YES    0:00:00
       15   1    4    0  -224.46945601   -0.15E-07*  0.10E-02   10  37 1  0.90E-04   0.29   1.41    QN   YES    0:00:00
       16   1    4    0  -224.46945600    0.12E-07*  0.43E-03   12  24 1 -0.40E-04   0.29   0.39    LS   YES    0:00:00
       17   1    3    0  -224.46945602   -0.24E-07* -0.53E-03    8  19 1 -0.35E-04   0.29   1.37    QN   YES    0:00:00
       18   1    3    0  -224.46945605   -0.24E-07* -0.80E-03    9  18 1 -0.15E-04   0.29   2.50    LS   YES    0:00:00
       19   1    4    0  -224.46945603    0.15E-07* -0.43E-03    8  19 1  0.49E-04   0.29   0.24    LS   YES    0:00:00
       20   1    4    0  -224.46945605   -0.16E-07* -0.97E-03    9  19 1 -0.52E-04   0.29   1.46    QN   YES    0:00:00
       21   1    4    0  -224.46945601    0.42E-07* -0.51E-03   10  37 1 -0.51E-04   0.29   0.25    LS   YES    0:00:00
       22   1    3    0  -224.46945605   -0.45E-07* -0.51E-03   10  37 1 -0.31E-04   0.29   1.45    QN   YES    0:00:00
       23   1    3    0  -224.46945605   -0.95E-09  -0.90E-04    8  19 1  0.27E-04   0.29   0.45    QN   YES    0:00:00
      Convergence after 23 iterations
 
  Dmat in MO in SXCTL bf call to SXHAM                                                                                    
  mat. size =     3x    3
 
        1.2731048812001196
       -0.0024612874116321      1.7528342385118889
       -0.0003544810454131      0.0004157461958094      0.9740608802879915
       24   1    3    0  -224.46945606   -0.84E-08  -0.90E-04    8  24 1  0.20E-04   0.29   0.45    QN   YES    0:00:00
 
      ************************************************************************************************************************
                                                      Wave function printout:
                       occupation of active orbitals, and spin coupling of open shells (u,d: Spin up or down)
      ************************************************************************************************************************
 
      Note: transformation to natural orbitals
      has been made, which may change the order of the CSFs.
 
      printout of CI-coefficients larger than  0.05 for root  1
      energy=    -224.490509
      conf/sym  111     Coeff  Weight
             1  220   0.89641 0.80356
             3  202  -0.09792 0.00959
             4  u2d  -0.41131 0.16917
             5  ud2  -0.11981 0.01435
 
      printout of CI-coefficients larger than  0.05 for root  2
      energy=    -224.481959
      conf/sym  111     Coeff  Weight
             1  220  -0.23491 0.05518
             2  2ud   0.27147 0.07370
             3  202  -0.38473 0.14802
             4  u2d  -0.37465 0.14036
             5  ud2  -0.46630 0.21743
             6  022   0.60441 0.36531
 
      printout of CI-coefficients larger than  0.05 for root  3
      energy=    -224.435900
      conf/sym  111     Coeff  Weight
             1  220   0.36986 0.13679
             2  2ud   0.28944 0.08378
             3  202  -0.12738 0.01623
             4  u2d   0.78643 0.61846
             5  ud2  -0.05700 0.00325
             6  022   0.37615 0.14149
 
      Natural orbitals and occupation numbers for root  1
      sym 1:   1.917967   1.998926   0.083108
 
      Natural orbitals and occupation numbers for root  2
      sym 1:   0.727580   1.426051   1.846368
 
      Natural orbitals and occupation numbers for root  3
      sym 1:   1.774824   1.999701   0.225474
 
      ************************************************************************************************************************
      *                                                                                                                      *
      *                                                    Final results                                                     *
      *                                                                                                                      *
      ************************************************************************************************************************
 
 
++    Wave function specifications:
      -----------------------------
 
      Number of closed shell electrons          20
      Number of electrons in active shells       4
      Max number of holes in RAS1 space          0
      Max nr of electrons in RAS3 space          0
      Number of inactive orbitals               10
      Number of active orbitals                  3
      Number of secondary orbitals              77
      Spin quantum number                      0.0
      State symmetry                             1
--
 
++    Orbital specifications:
      -----------------------
 
      Symmetry species                           1
                                                 a
      Frozen orbitals                            0
      Inactive orbitals                         10
      Active orbitals                            3
      RAS1 orbitals                              0
      RAS2 orbitals                              3
      RAS3 orbitals                              0
      Secondary orbitals                        77
      Deleted orbitals                           0
      Number of basis functions                 90
--
 
++    CI expansion specifications:
      ----------------------------
 
      Number of CSFs                             6
      Number of determinants                     6
      Number of root(s) required                 3
      CI roots used                              1     2     3
      weights                                0.333 0.333 0.333
      highest root included in the CI            3
      Root passed to geometry opt.               3
--
 
++    Final optimization conditions:
      ------------------------------
 
      Average CI energy                            -224.46945606
      RASSCF energy for state  3                   -224.43590012
      Super-CI energy                                -0.00000000
      RASSCF energy change                           -0.00000001
      Max change in MO coefficients               0.833E-04
      Max non-diagonal density matrix element    -0.900E-04
      Maximum BLB matrix element                  0.200E-04
      (orbital pair   8,  24 in symmetry   1)
      Norm of electronic gradient            0.169E+00
--
 
 
      Final state energy(ies):
      ------------------------
 
::    RASSCF root number  1 Total energy:   -224.49050904
::    RASSCF root number  2 Total energy:   -224.48195902
::    RASSCF root number  3 Total energy:   -224.43590012
 
++    Molecular orbitals:
      -------------------
 
      Pseudonatural active orbitals and approximate occupation numbers
 
 
 
 
      Molecular orbitals for symmetry species 1: a  
 
 
      Orbital                1         2         3         4         5         6         7         8         9        10
      Energy          -20.8311  -20.7433  -20.7322   -1.7079   -1.4345   -1.0715   -0.7873   -0.7788   -0.7720   -0.5551
      Occ. No.          2.0000    2.0000    2.0000    2.0000    2.0000    2.0000    2.0000    2.0000    2.0000    2.0000
 
    1 O1     1s         0.0040    0.9989    0.0019   -0.0132    0.0106    0.0132   -0.0006   -0.0122    0.0216   -0.0003
    2 O1     2s         0.0034   -0.0075   -0.0003    0.3618   -0.5864    0.6210   -0.0132   -0.2193    0.3626   -0.0026
    3 O1     3s         0.0019   -0.0053   -0.0001   -0.0115    0.0192    0.0215   -0.0007   -0.0257    0.0483    0.0003
    4 O1     4s         0.0003   -0.0010    0.0000   -0.0010    0.0041    0.0034   -0.0002   -0.0058    0.0104    0.0002
    5 O1     2px       -0.0007    0.0016   -0.0001   -0.0353    0.0385    0.0850    0.0882    0.1034    0.1792    0.2129
    6 O1     3px       -0.0006    0.0016   -0.0002    0.0117   -0.0063   -0.0162   -0.0062   -0.0071   -0.0257    0.0047
    7 O1     4px        0.0000   -0.0009   -0.0001    0.0021    0.0002    0.0000   -0.0007   -0.0015   -0.0017   -0.0017
    8 O1     2py       -0.0021    0.0033    0.0003   -0.1183    0.0789    0.1466   -0.0644   -0.3868    0.3619   -0.0916
    9 O1     3py       -0.0012    0.0033    0.0002    0.0154   -0.0155   -0.0230    0.0044    0.0332   -0.0353   -0.0023
   10 O1     4py        0.0005   -0.0020   -0.0000    0.0010   -0.0038    0.0011    0.0010    0.0062   -0.0039    0.0005
   11 O1     2pz        0.0000    0.0000   -0.0000    0.0013   -0.0036   -0.0039   -0.3885    0.0721    0.0061   -0.7199
   12 O1     3pz       -0.0000    0.0000    0.0000   -0.0001    0.0001    0.0003    0.0272   -0.0065   -0.0035   -0.0107
   13 O1     4pz       -0.0000   -0.0000   -0.0000   -0.0000    0.0000   -0.0000    0.0050   -0.0013   -0.0003    0.0065
   14 O1     3d2-       0.0003   -0.0012   -0.0000    0.0135   -0.0128   -0.0125   -0.0031    0.0006   -0.0246   -0.0028
   15 O1     4d2-       0.0001   -0.0007    0.0000    0.0012   -0.0016   -0.0008   -0.0003   -0.0004   -0.0021   -0.0005
   16 O1     3d1-      -0.0000    0.0000   -0.0000   -0.0000   -0.0001    0.0002    0.0246   -0.0065   -0.0023    0.0147
   17 O1     4d1-      -0.0000   -0.0000   -0.0000   -0.0000   -0.0000    0.0000    0.0031   -0.0009   -0.0003    0.0026
   18 O1     3d0       -0.0004    0.0010    0.0000   -0.0111    0.0084    0.0078   -0.0009   -0.0116    0.0151   -0.0002
   19 O1     4d0       -0.0002    0.0005   -0.0000   -0.0008    0.0011    0.0006   -0.0001   -0.0009    0.0011   -0.0002
   20 O1     3d1+      -0.0000   -0.0001   -0.0000   -0.0003    0.0005   -0.0004    0.0111   -0.0029   -0.0012    0.0059
   21 O1     4d1+      -0.0000    0.0000   -0.0000   -0.0000    0.0001   -0.0002    0.0015   -0.0004   -0.0002    0.0007
   22 O1     3d2+      -0.0005    0.0009    0.0000   -0.0152    0.0089    0.0063   -0.0061   -0.0296    0.0124   -0.0028
   23 O1     4d2+      -0.0003    0.0006    0.0001   -0.0020    0.0012    0.0006   -0.0007   -0.0034    0.0009   -0.0006
   24 O1     4f3-       0.0001   -0.0001    0.0000    0.0020   -0.0007    0.0005    0.0018    0.0063    0.0005    0.0009
   25 O1     4f2-       0.0000    0.0000    0.0000   -0.0001    0.0000    0.0001   -0.0044    0.0007    0.0007   -0.0026
   26 O1     4f1-       0.0001   -0.0002    0.0000    0.0038   -0.0032   -0.0016    0.0005    0.0036   -0.0039    0.0004
   27 O1     4f0       -0.0000   -0.0000   -0.0000   -0.0000    0.0000   -0.0000    0.0049   -0.0014   -0.0005    0.0032
   28 O1     4f1+       0.0000   -0.0001   -0.0000    0.0017   -0.0016   -0.0011   -0.0009   -0.0002   -0.0023   -0.0011
   29 O1     4f2+      -0.0000    0.0000    0.0000   -0.0001    0.0000    0.0002    0.0037   -0.0009   -0.0001    0.0018
   30 O1     4f3+       0.0000   -0.0003    0.0000    0.0047   -0.0047   -0.0027   -0.0002    0.0021   -0.0057   -0.0001
   31 O2     1s         0.9991   -0.0023   -0.0019   -0.0281   -0.0000   -0.0153   -0.0030   -0.0141   -0.0010    0.0035
   32 O2     2s        -0.0062    0.0079    0.0080    0.6007    0.0136   -0.6661   -0.0409   -0.1891   -0.0090    0.0437
   33 O2     3s        -0.0047    0.0046    0.0046   -0.0605   -0.0002   -0.0254   -0.0063   -0.0304   -0.0022    0.0088
   34 O2     4s        -0.0009    0.0007    0.0007   -0.0121   -0.0000   -0.0047   -0.0016   -0.0077   -0.0006    0.0021
   35 O2     2px       -0.0011    0.0023    0.0023    0.0837   -0.0005    0.1533    0.1675    0.6832    0.0996   -0.0757
   36 O2     3px       -0.0018    0.0015    0.0015   -0.0347   -0.0004   -0.0179   -0.0142   -0.0490   -0.0081   -0.0022
   37 O2     4px        0.0016   -0.0005   -0.0005   -0.0037   -0.0001    0.0014   -0.0033   -0.0112   -0.0019    0.0001
   38 O2     2py       -0.0001    0.0042   -0.0043    0.0030   -0.3021   -0.0084   -0.0370    0.0897   -0.5384    0.0140
   39 O2     3py       -0.0001    0.0027   -0.0027   -0.0006    0.0597    0.0007    0.0042   -0.0091    0.0459    0.0025
   40 O2     4py        0.0001   -0.0008    0.0008   -0.0001   -0.0011    0.0001    0.0007   -0.0016    0.0096    0.0005
   41 O2     2pz        0.0000   -0.0000    0.0000    0.0014    0.0013    0.0009   -0.6762    0.1930    0.0949    0.1034
   42 O2     3pz        0.0000   -0.0000    0.0000   -0.0000   -0.0001   -0.0002    0.0466   -0.0114   -0.0054    0.0035
   43 O2     4pz       -0.0000    0.0000   -0.0000    0.0000   -0.0000    0.0000    0.0125   -0.0032   -0.0016   -0.0009
   44 O2     3d2-      -0.0000    0.0009   -0.0009    0.0004   -0.0354   -0.0002   -0.0025    0.0086   -0.0362    0.0096
   45 O2     4d2-      -0.0000    0.0004   -0.0004    0.0000   -0.0036    0.0001   -0.0003    0.0013   -0.0043    0.0018
   46 O2     3d1-      -0.0000   -0.0000   -0.0000   -0.0001   -0.0002    0.0004   -0.0012    0.0004   -0.0017   -0.0432
   47 O2     4d1-       0.0000   -0.0000   -0.0000   -0.0001   -0.0000    0.0002   -0.0001    0.0002   -0.0003   -0.0082
   48 O2     3d0        0.0008   -0.0008   -0.0008   -0.0160    0.0004   -0.0048   -0.0039   -0.0169   -0.0016    0.0029
   49 O2     4d0        0.0005   -0.0004   -0.0004    0.0001    0.0001   -0.0001   -0.0003   -0.0013   -0.0000    0.0003
   50 O2     3d1+       0.0000    0.0000   -0.0000    0.0002   -0.0002   -0.0003   -0.0234    0.0061    0.0028    0.0016
   51 O2     4d1+      -0.0000    0.0000    0.0000    0.0000   -0.0001   -0.0001   -0.0025    0.0007    0.0003    0.0003
   52 O2     3d2+       0.0006   -0.0008   -0.0008   -0.0153    0.0002    0.0013    0.0060    0.0165    0.0042    0.0040
   53 O2     4d2+       0.0003   -0.0004   -0.0004   -0.0013    0.0001    0.0008    0.0009    0.0026    0.0007    0.0007
   54 O2     4f3-       0.0000   -0.0000    0.0000    0.0000    0.0023    0.0001    0.0003   -0.0003    0.0029    0.0020
   55 O2     4f2-       0.0000    0.0000    0.0000    0.0001    0.0000   -0.0000   -0.0002   -0.0000   -0.0002   -0.0065
   56 O2     4f1-       0.0000   -0.0001    0.0001   -0.0002    0.0067    0.0002    0.0005   -0.0011    0.0063   -0.0002
   57 O2     4f0       -0.0000   -0.0000   -0.0000   -0.0000    0.0000    0.0000    0.0079   -0.0020   -0.0010   -0.0004
   58 O2     4f1+       0.0001   -0.0001   -0.0001   -0.0034    0.0000   -0.0006   -0.0011   -0.0042   -0.0006    0.0002
   59 O2     4f2+      -0.0000    0.0000   -0.0000    0.0000    0.0000   -0.0001    0.0058   -0.0015   -0.0007   -0.0003
   60 O2     4f3+       0.0002   -0.0002   -0.0002   -0.0090   -0.0000   -0.0005   -0.0015   -0.0062   -0.0008    0.0008
   61 O3     1s         0.0036   -0.0020    0.9989   -0.0130   -0.0111    0.0126   -0.0037   -0.0044   -0.0248    0.0013
   62 O3     2s         0.0032   -0.0003   -0.0076    0.3484    0.5847    0.6197   -0.0710   -0.0856   -0.4299    0.0061
   63 O3     3s         0.0018   -0.0001   -0.0054   -0.0106   -0.0188    0.0210   -0.0077   -0.0086   -0.0546    0.0045
   64 O3     4s         0.0003    0.0000   -0.0010   -0.0008   -0.0040    0.0033   -0.0017   -0.0021   -0.0118    0.0013
   65 O3     2px       -0.0006   -0.0001    0.0017   -0.0376   -0.0325    0.0834    0.0408    0.1452   -0.1084   -0.0508
   66 O3     3px       -0.0006   -0.0002    0.0016    0.0115    0.0068   -0.0156   -0.0009   -0.0185    0.0229   -0.0010
   67 O3     4px       -0.0000   -0.0001   -0.0009    0.0022   -0.0003    0.0001   -0.0005   -0.0013    0.0008    0.0007
   68 O3     2py        0.0020   -0.0003   -0.0033    0.1128    0.0826   -0.1342    0.1147    0.2258    0.4555   -0.0959
   69 O3     3py        0.0011   -0.0002   -0.0033   -0.0146   -0.0156    0.0215   -0.0098   -0.0195   -0.0426    0.0021
   70 O3     4py       -0.0005    0.0000    0.0020   -0.0009   -0.0038   -0.0012   -0.0018   -0.0040   -0.0053    0.0011
   71 O3     2pz       -0.0000   -0.0000    0.0000   -0.0025    0.0013    0.0029   -0.3181    0.0802    0.0604    0.6369
   72 O3     3pz       -0.0000   -0.0000   -0.0000    0.0001    0.0002   -0.0002    0.0234   -0.0071   -0.0024    0.0074
   73 O3     4pz        0.0000    0.0000    0.0000    0.0000   -0.0000    0.0000    0.0047   -0.0012   -0.0010   -0.0072
   74 O3     3d2-      -0.0003    0.0000    0.0012   -0.0132   -0.0127    0.0120   -0.0004    0.0069   -0.0233   -0.0004
   75 O3     4d2-      -0.0001   -0.0000    0.0007   -0.0012   -0.0015    0.0008    0.0001    0.0007   -0.0019   -0.0004
   76 O3     3d1-      -0.0000   -0.0000   -0.0000   -0.0002   -0.0001    0.0000   -0.0239    0.0063    0.0038    0.0191
   77 O3     4d1-      -0.0000   -0.0000   -0.0000   -0.0000   -0.0000    0.0000   -0.0032    0.0008    0.0006    0.0035
   78 O3     3d0       -0.0003    0.0000    0.0009   -0.0109   -0.0091    0.0065   -0.0033   -0.0057   -0.0176    0.0015
   79 O3     4d0       -0.0002   -0.0000    0.0005   -0.0007   -0.0012    0.0003   -0.0003   -0.0006   -0.0014    0.0001
   80 O3     3d1+      -0.0000    0.0000    0.0000    0.0000    0.0001    0.0003    0.0108   -0.0028   -0.0018   -0.0078
   81 O3     4d1+       0.0000    0.0000   -0.0000   -0.0000    0.0000    0.0001    0.0016   -0.0003   -0.0003   -0.0010
   82 O3     3d2+      -0.0005    0.0000    0.0010   -0.0147   -0.0090    0.0062   -0.0082   -0.0224   -0.0210    0.0049
   83 O3     4d2+      -0.0002    0.0001    0.0006   -0.0020   -0.0012    0.0006   -0.0009   -0.0025   -0.0020    0.0007
   84 O3     4f3-      -0.0001   -0.0000    0.0001   -0.0020   -0.0008   -0.0005   -0.0019   -0.0062   -0.0018    0.0011
   85 O3     4f2-      -0.0000    0.0000    0.0000   -0.0000   -0.0000    0.0001    0.0043   -0.0012   -0.0008   -0.0033
   86 O3     4f1-      -0.0001   -0.0000    0.0002   -0.0036   -0.0032    0.0013   -0.0010   -0.0018   -0.0043    0.0006
   87 O3     4f0        0.0000    0.0000    0.0000   -0.0000   -0.0000    0.0000    0.0042   -0.0011   -0.0007   -0.0031
   88 O3     4f1+       0.0000   -0.0000   -0.0001    0.0016    0.0016   -0.0009    0.0001   -0.0008    0.0020   -0.0002
   89 O3     4f2+       0.0000    0.0000    0.0000    0.0000    0.0000   -0.0000    0.0038   -0.0011   -0.0006   -0.0026
   90 O3     4f3+       0.0000    0.0000   -0.0003    0.0047    0.0048   -0.0027    0.0007    0.0000    0.0064   -0.0004
 
 
      Orbital               11        12        13        14        15        16        17        18        19        20
      Energy            0.0000    0.0000    0.0000    0.1750    0.1877    0.2371    0.2608    0.3511    0.3618    0.3768
      Occ. No.          1.2731    1.7528    0.9741    0.0000    0.0000    0.0000    0.0000    0.0000    0.0000    0.0000
 
    1 O1     1s        -0.0024    0.0002    0.0001   -0.2080   -0.1193   -0.0006   -0.0012   -0.0188    0.0738   -0.0006
    2 O1     2s        -0.0035    0.0478    0.0030   -1.5257   -0.9014   -0.0057   -0.0939   -0.0502    0.4146   -0.0038
    3 O1     3s        -0.0124   -0.0033   -0.0005   -0.8872   -0.4835   -0.0022    0.0615   -0.0376    0.5846   -0.0030
    4 O1     4s        -0.0040   -0.0015   -0.0002   -0.1987   -0.0986   -0.0004    0.0238   -0.0035    0.1633   -0.0006
    5 O1     2px       -0.8073    0.3957    0.0462    0.4251    0.1807    0.0028    0.1205   -0.2259   -0.0331    0.0003
    6 O1     3px       -0.0071    0.0002   -0.0027    0.4266    0.2936   -0.0026   -0.3095   -0.7967    0.1354    0.0013
    7 O1     4px        0.0082   -0.0046   -0.0016    0.0511    0.0788   -0.0026   -0.1613   -0.3173    0.0970   -0.0009
    8 O1     2py        0.1587   -0.2851   -0.0270    0.5955    0.8296    0.0057    0.4118   -0.2307   -0.0744    0.0029
    9 O1     3py        0.0099   -0.0054    0.0009    0.7654    0.6710    0.0066    0.3312   -0.1279   -0.7614    0.0084
   10 O1     4py       -0.0001    0.0028    0.0005    0.1188    0.0779    0.0023    0.1187   -0.0214   -0.1802    0.0024
   11 O1     2pz       -0.1375    0.1002    0.5977   -0.0003    0.0037    0.0598    0.0017   -0.0006    0.0050   -0.1908
   12 O1     3pz        0.0029   -0.0000    0.0425    0.0028    0.0006   -0.4022    0.0091    0.0008   -0.0015   -0.9240
   13 O1     4pz        0.0025   -0.0017    0.0028    0.0010    0.0003   -0.2089    0.0037   -0.0002   -0.0006   -0.3647
   14 O1     3d2-       0.0145   -0.0080   -0.0014   -0.0780   -0.0409   -0.0004    0.0061    0.0003    0.0388   -0.0005
   15 O1     4d2-       0.0020   -0.0019   -0.0003   -0.0506   -0.0276   -0.0002    0.0030    0.0140    0.0244   -0.0004
   16 O1     3d1-       0.0047   -0.0034    0.0096   -0.0002    0.0001   -0.0074    0.0002    0.0000   -0.0003    0.0049
   17 O1     4d1-       0.0009   -0.0007    0.0018   -0.0001   -0.0000   -0.0003    0.0000   -0.0001   -0.0003    0.0109
   18 O1     3d0       -0.0037   -0.0014    0.0002    0.0546    0.0407    0.0001   -0.0135   -0.0066   -0.0510    0.0003
   19 O1     4d0       -0.0000   -0.0003    0.0001    0.0351    0.0277    0.0001   -0.0051   -0.0106   -0.0298    0.0002
   20 O1     3d1+       0.0015   -0.0016    0.0071    0.0002    0.0001   -0.0030    0.0002    0.0001    0.0006    0.0152
   21 O1     4d1+       0.0002   -0.0002    0.0017    0.0003    0.0000    0.0007    0.0000    0.0001    0.0006    0.0125
   22 O1     3d2+       0.0018   -0.0133   -0.0012    0.0575    0.0466   -0.0003   -0.0318    0.0056   -0.1094    0.0008
   23 O1     4d2+       0.0010   -0.0022   -0.0001    0.0347    0.0349   -0.0001   -0.0093    0.0014   -0.0654    0.0005
   24 O1     4f3-      -0.0013    0.0034   -0.0001   -0.0036    0.0002   -0.0001   -0.0030   -0.0043    0.0112   -0.0001
   25 O1     4f2-       0.0002    0.0003   -0.0013   -0.0000    0.0002   -0.0024    0.0002   -0.0001    0.0003   -0.0061
   26 O1     4f1-       0.0005    0.0010    0.0001   -0.0060   -0.0051   -0.0001   -0.0008    0.0053    0.0081   -0.0001
   27 O1     4f0        0.0022   -0.0011    0.0004   -0.0001    0.0000    0.0017   -0.0001   -0.0001    0.0001    0.0056
   28 O1     4f1+       0.0025   -0.0011   -0.0003   -0.0021   -0.0029    0.0001    0.0001    0.0044    0.0026    0.0001
   29 O1     4f2+      -0.0009    0.0002    0.0006    0.0000    0.0001    0.0019    0.0002    0.0000    0.0000    0.0034
   30 O1     4f3+       0.0016    0.0003    0.0004   -0.0090   -0.0048   -0.0000   -0.0005    0.0088    0.0083   -0.0001
   31 O2     1s        -0.0214   -0.0064   -0.0006    0.0167    0.3144    0.0001    0.0565    0.0066   -0.2054    0.0021
   32 O2     2s        -0.2461   -0.0778   -0.0067    0.1220    2.3047    0.0026    0.5267    0.0398   -1.1750    0.0122
   33 O2     3s        -0.0570   -0.0168   -0.0014    0.0683    1.2548   -0.0014    0.1312    0.0304   -0.8248    0.0097
   34 O2     4s        -0.0136   -0.0040   -0.0003    0.0149    0.2678   -0.0003    0.0270    0.0064   -0.1442    0.0021
   35 O2     2px        0.4283    0.1223    0.0093    0.0391    0.7264    0.0056    0.4163    0.0099   -0.1586    0.0018
   36 O2     3px        0.0209    0.0078    0.0009    0.0326    0.7144   -0.0042   -0.1172    0.0304   -0.7240    0.0014
   37 O2     4px        0.0015    0.0006    0.0000    0.0042    0.1179   -0.0022   -0.1220    0.0067   -0.1055   -0.0008
   38 O2     2py       -0.0030   -0.0446   -0.0051    1.4007   -0.0696    0.0035   -0.0061   -0.1317    0.0182    0.0002
   39 O2     3py       -0.0044    0.0216    0.0022    1.3953   -0.0807    0.0073   -0.0107    0.3801    0.0162   -0.0014
   40 O2     4py       -0.0006    0.0033    0.0002    0.1391   -0.0098    0.0009   -0.0007    0.1991    0.0067   -0.0004
   41 O2     2pz       -0.0318    0.0259   -0.7732    0.0005   -0.0043    0.1024   -0.0045    0.0001   -0.0088    0.0101
   42 O2     3pz       -0.0016    0.0038   -0.0789   -0.0005   -0.0015   -0.2610    0.0023   -0.0013   -0.0066    0.0254
   43 O2     4pz        0.0001    0.0001   -0.0023    0.0001   -0.0003   -0.1722    0.0024   -0.0003   -0.0014    0.0091
   44 O2     3d2-      -0.0094    0.0318    0.0017    0.1367   -0.0082    0.0015   -0.0002    0.0811   -0.0000   -0.0001
   45 O2     4d2-      -0.0017    0.0064    0.0004    0.0831   -0.0051    0.0007   -0.0002    0.0606    0.0006   -0.0001
   46 O2     3d1-      -0.0080    0.0079   -0.0055   -0.0000   -0.0001    0.0005    0.0001    0.0001    0.0003    0.0946
   47 O2     4d1-      -0.0014    0.0015   -0.0013   -0.0000   -0.0001    0.0004   -0.0000    0.0001    0.0002    0.0587
   48 O2     3d0       -0.0157   -0.0052   -0.0004   -0.0034   -0.0641    0.0010    0.0435   -0.0046    0.1593   -0.0012
   49 O2     4d0       -0.0017   -0.0006   -0.0001   -0.0021   -0.0423    0.0005    0.0212   -0.0025    0.0786   -0.0005
   50 O2     3d1+      -0.0009    0.0005    0.0006    0.0001    0.0001    0.0249   -0.0002    0.0003    0.0002   -0.0004
   51 O2     4d1+      -0.0001    0.0001    0.0008    0.0000    0.0000    0.0111   -0.0001    0.0002    0.0001    0.0000
   52 O2     3d2+      -0.0346   -0.0106    0.0001   -0.0029   -0.0595    0.0015    0.0836   -0.0024    0.0834   -0.0004
   53 O2     4d2+      -0.0059   -0.0018   -0.0001   -0.0018   -0.0352    0.0007    0.0364   -0.0008    0.0193   -0.0001
   54 O2     4f3-      -0.0024    0.0091    0.0005   -0.0078    0.0004    0.0000    0.0002    0.0017   -0.0000   -0.0000
   55 O2     4f2-      -0.0012    0.0012   -0.0005   -0.0000   -0.0000    0.0001    0.0000    0.0000    0.0001    0.0060
[...]

>>> COPY /tmp/ozone_128.75/GMJ_IVECC2_E_P_2_.csv /home/grierjones/DDCASPT2/ozone/multistate/ANO-RCC-VTZP/ozone_128.75/GMJ_IVECC2_E_P_2_.csv

>>> COPY /tmp/ozone_128.75/GMJ_e2_E_P_2_.csv /home/grierjones/DDCASPT2/ozone/multistate/ANO-RCC-VTZP/ozone_128.75/GMJ_e2_E_P_2_.csv

>>> END FOREACH

>>> EXPORT j = M

>>> IF (-FILE GMJ_e2_${i}_${j}_${k}_.csv)

>>> COPY /tmp/ozone_128.75/GMJ_RHS_E_M_2_.csv /home/grierjones/DDCASPT2/ozone/multistate/ANO-RCC-VTZP/ozone_128.75/GMJ_RHS_E_M_2_.csv

>>> COPY /tmp/ozone_128.75/GMJ_IVECW_E_M_2_.csv /home/grierjones/DDCASPT2/ozone/multistate/ANO-RCC-VTZP/ozone_128.75/GMJ_IVECW_E_M_2_.csv

>>> COPY /tmp/ozone_128.75/GMJ_IVECX_E_M_2_.csv /home/grierjones/DDCASPT2/ozone/multistate/ANO-RCC-VTZP/ozone_128.75/GMJ_IVECX_E_M_2_.csv

>>> COPY /tmp/ozone_128.75/GMJ_IVECC2_E_M_2_.csv /home/grierjones/DDCASPT2/ozone/multistate/ANO-RCC-VTZP/ozone_128.75/GMJ_IVECC2_E_M_2_.csv

>>> COPY /tmp/ozone_128.75/GMJ_e2_E_M_2_.csv /home/grierjones/DDCASPT2/ozone/multistate/ANO-RCC-VTZP/ozone_128.75/GMJ_e2_E_M_2_.csv

>>> END FOREACH

>>> END FOREACH

>>> EXPORT i = F

>>> EXPORT j = P

>>> IF (-FILE GMJ_e2_${i}_${j}_${k}_.csv)

>>> COPY /tmp/ozone_128.75/GMJ_RHS_F_P_2_.csv /home/grierjones/DDCASPT2/ozone/multistate/ANO-RCC-VTZP/ozone_128.75/GMJ_RHS_F_P_2_.csv

>>> COPY /tmp/ozone_128.75/GMJ_IVECW_F_P_2_.csv /home/grierjones/DDCASPT2/ozone/multistate/ANO-RCC-VTZP/ozone_128.75/GMJ_IVECW_F_P_2_.csv

>>> COPY /tmp/ozone_128.75/GMJ_IVECX_F_P_2_.csv /home/grierjones/DDCASPT2/ozone/multistate/ANO-RCC-VTZP/ozone_128.75/GMJ_IVECX_F_P_2_.csv

>>> COPY /tmp/ozone_128.75/GMJ_IVECC2_F_P_2_.csv /home/grierjones/DDCASPT2/ozone/multistate/ANO-RCC-VTZP/ozone_128.75/GMJ_IVECC2_F_P_2_.csv

>>> COPY /tmp/ozone_128.75/GMJ_e2_F_P_2_.csv /home/grierjones/DDCASPT2/ozone/multistate/ANO-RCC-VTZP/ozone_128.75/GMJ_e2_F_P_2_.csv

>>> END FOREACH

>>> EXPORT j = M

>>> IF (-FILE GMJ_e2_${i}_${j}_${k}_.csv)

>>> COPY /tmp/ozone_128.75/GMJ_RHS_F_M_2_.csv /home/grierjones/DDCASPT2/ozone/multistate/ANO-RCC-VTZP/ozone_128.75/GMJ_RHS_F_M_2_.csv

>>> COPY /tmp/ozone_128.75/GMJ_IVECW_F_M_2_.csv /home/grierjones/DDCASPT2/ozone/multistate/ANO-RCC-VTZP/ozone_128.75/GMJ_IVECW_F_M_2_.csv

>>> COPY /tmp/ozone_128.75/GMJ_IVECX_F_M_2_.csv /home/grierjones/DDCASPT2/ozone/multistate/ANO-RCC-VTZP/ozone_128.75/GMJ_IVECX_F_M_2_.csv

>>> COPY /tmp/ozone_128.75/GMJ_IVECC2_F_M_2_.csv /home/grierjones/DDCASPT2/ozone/multistate/ANO-RCC-VTZP/ozone_128.75/GMJ_IVECC2_F_M_2_.csv

>>> COPY /tmp/ozone_128.75/GMJ_e2_F_M_2_.csv /home/grierjones/DDCASPT2/ozone/multistate/ANO-RCC-VTZP/ozone_128.75/GMJ_e2_F_M_2_.csv

>>> END FOREACH

>>> END FOREACH

>>> EXPORT i = G

>>> EXPORT j = P

>>> IF (-FILE GMJ_e2_${i}_${j}_${k}_.csv)

>>> COPY /tmp/ozone_128.75/GMJ_RHS_G_P_2_.csv /home/grierjones/DDCASPT2/ozone/multistate/ANO-RCC-VTZP/ozone_128.75/GMJ_RHS_G_P_2_.csv

>>> COPY /tmp/ozone_128.75/GMJ_IVECW_G_P_2_.csv /home/grierjones/DDCASPT2/ozone/multistate/ANO-RCC-VTZP/ozone_128.75/GMJ_IVECW_G_P_2_.csv

>>> COPY /tmp/ozone_128.75/GMJ_IVECX_G_P_2_.csv /home/grierjones/DDCASPT2/ozone/multistate/ANO-RCC-VTZP/ozone_128.75/GMJ_IVECX_G_P_2_.csv

>>> COPY /tmp/ozone_128.75/GMJ_IVECC2_G_P_2_.csv /home/grierjones/DDCASPT2/ozone/multistate/ANO-RCC-VTZP/ozone_128.75/GMJ_IVECC2_G_P_2_.csv

>>> COPY /tmp/ozone_128.75/GMJ_e2_G_P_2_.csv /home/grierjones/DDCASPT2/ozone/multistate/ANO-RCC-VTZP/ozone_128.75/GMJ_e2_G_P_2_.csv

>>> END FOREACH

>>> EXPORT j = M

>>> IF (-FILE GMJ_e2_${i}_${j}_${k}_.csv)

>>> COPY /tmp/ozone_128.75/GMJ_RHS_G_M_2_.csv /home/grierjones/DDCASPT2/ozone/multistate/ANO-RCC-VTZP/ozone_128.75/GMJ_RHS_G_M_2_.csv

>>> COPY /tmp/ozone_128.75/GMJ_IVECW_G_M_2_.csv /home/grierjones/DDCASPT2/ozone/multistate/ANO-RCC-VTZP/ozone_128.75/GMJ_IVECW_G_M_2_.csv

>>> COPY /tmp/ozone_128.75/GMJ_IVECX_G_M_2_.csv /home/grierjones/DDCASPT2/ozone/multistate/ANO-RCC-VTZP/ozone_128.75/GMJ_IVECX_G_M_2_.csv

>>> COPY /tmp/ozone_128.75/GMJ_IVECC2_G_M_2_.csv /home/grierjones/DDCASPT2/ozone/multistate/ANO-RCC-VTZP/ozone_128.75/GMJ_IVECC2_G_M_2_.csv

>>> COPY /tmp/ozone_128.75/GMJ_e2_G_M_2_.csv /home/grierjones/DDCASPT2/ozone/multistate/ANO-RCC-VTZP/ozone_128.75/GMJ_e2_G_M_2_.csv

>>> END FOREACH

>>> END FOREACH

>>> EXPORT i = H

>>> EXPORT j = P

>>> IF (-FILE GMJ_e2_${i}_${j}_${k}_.csv)

>>> COPY /tmp/ozone_128.75/GMJ_RHS_H_P_2_.csv /home/grierjones/DDCASPT2/ozone/multistate/ANO-RCC-VTZP/ozone_128.75/GMJ_RHS_H_P_2_.csv

>>> COPY /tmp/ozone_128.75/GMJ_IVECW_H_P_2_.csv /home/grierjones/DDCASPT2/ozone/multistate/ANO-RCC-VTZP/ozone_128.75/GMJ_IVECW_H_P_2_.csv

>>> COPY /tmp/ozone_128.75/GMJ_IVECX_H_P_2_.csv /home/grierjones/DDCASPT2/ozone/multistate/ANO-RCC-VTZP/ozone_128.75/GMJ_IVECX_H_P_2_.csv

>>> COPY /tmp/ozone_128.75/GMJ_IVECC2_H_P_2_.csv /home/grierjones/DDCASPT2/ozone/multistate/ANO-RCC-VTZP/ozone_128.75/GMJ_IVECC2_H_P_2_.csv

>>> COPY /tmp/ozone_128.75/GMJ_e2_H_P_2_.csv /home/grierjones/DDCASPT2/ozone/multistate/ANO-RCC-VTZP/ozone_128.75/GMJ_e2_H_P_2_.csv

>>> END FOREACH

>>> EXPORT j = M

>>> IF (-FILE GMJ_e2_${i}_${j}_${k}_.csv)

>>> COPY /tmp/ozone_128.75/GMJ_RHS_H_M_2_.csv /home/grierjones/DDCASPT2/ozone/multistate/ANO-RCC-VTZP/ozone_128.75/GMJ_RHS_H_M_2_.csv

>>> COPY /tmp/ozone_128.75/GMJ_IVECW_H_M_2_.csv /home/grierjones/DDCASPT2/ozone/multistate/ANO-RCC-VTZP/ozone_128.75/GMJ_IVECW_H_M_2_.csv

>>> COPY /tmp/ozone_128.75/GMJ_IVECX_H_M_2_.csv /home/grierjones/DDCASPT2/ozone/multistate/ANO-RCC-VTZP/ozone_128.75/GMJ_IVECX_H_M_2_.csv

>>> COPY /tmp/ozone_128.75/GMJ_IVECC2_H_M_2_.csv /home/grierjones/DDCASPT2/ozone/multistate/ANO-RCC-VTZP/ozone_128.75/GMJ_IVECC2_H_M_2_.csv

>>> COPY /tmp/ozone_128.75/GMJ_e2_H_M_2_.csv /home/grierjones/DDCASPT2/ozone/multistate/ANO-RCC-VTZP/ozone_128.75/GMJ_e2_H_M_2_.csv

>>> END FOREACH

>>> END FOREACH

>>> END FOREACH

>>> EXPORT k = 3

>>> EXPORT i = B

>>> EXPORT j = P

>>> IF (-FILE GMJ_e2_${i}_${j}_${k}_.csv)

>>> COPY /tmp/ozone_128.75/GMJ_RHS_B_P_3_.csv /home/grierjones/DDCASPT2/ozone/multistate/ANO-RCC-VTZP/ozone_128.75/GMJ_RHS_B_P_3_.csv

>>> COPY /tmp/ozone_128.75/GMJ_IVECW_B_P_3_.csv /home/grierjones/DDCASPT2/ozone/multistate/ANO-RCC-VTZP/ozone_128.75/GMJ_IVECW_B_P_3_.csv

>>> COPY /tmp/ozone_128.75/GMJ_IVECX_B_P_3_.csv /home/grierjones/DDCASPT2/ozone/multistate/ANO-RCC-VTZP/ozone_128.75/GMJ_IVECX_B_P_3_.csv

>>> COPY /tmp/ozone_128.75/GMJ_IVECC2_B_P_3_.csv /home/grierjones/DDCASPT2/ozone/multistate/ANO-RCC-VTZP/ozone_128.75/GMJ_IVECC2_B_P_3_.csv

>>> COPY /tmp/ozone_128.75/GMJ_e2_B_P_3_.csv /home/grierjones/DDCASPT2/ozone/multistate/ANO-RCC-VTZP/ozone_128.75/GMJ_e2_B_P_3_.csv

>>> END FOREACH

>>> EXPORT j = M

>>> IF (-FILE GMJ_e2_${i}_${j}_${k}_.csv)
(Skipped)

>>> END FOREACH

>>> END FOREACH

>>> EXPORT i = E

>>> EXPORT j = P

>>> IF (-FILE GMJ_e2_${i}_${j}_${k}_.csv)

>>> COPY /tmp/ozone_128.75/GMJ_RHS_E_P_3_.csv /home/grierjones/DDCASPT2/ozone/multistate/ANO-RCC-VTZP/ozone_128.75/GMJ_RHS_E_P_3_.csv

>>> COPY /tmp/ozone_128.75/GMJ_IVECW_E_P_3_.csv /home/grierjones/DDCASPT2/ozone/multistate/ANO-RCC-VTZP/ozone_128.75/GMJ_IVECW_E_P_3_.csv

>>> COPY /tmp/ozone_128.75/GMJ_IVECX_E_P_3_.csv /home/grierjones/DDCASPT2/ozone/multistate/ANO-RCC-VTZP/ozone_128.75/GMJ_IVECX_E_P_3_.csv

>>> COPY /tmp/ozone_128.75/GMJ_IVECC2_E_P_3_.csv /home/grierjones/DDCASPT2/ozone/multistate/ANO-RCC-VTZP/ozone_128.75/GMJ_IVECC2_E_P_3_.csv

>>> COPY /tmp/ozone_128.75/GMJ_e2_E_P_3_.csv /home/grierjones/DDCASPT2/ozone/multistate/ANO-RCC-VTZP/ozone_128.75/GMJ_e2_E_P_3_.csv

>>> END FOREACH

>>> EXPORT j = M

>>> IF (-FILE GMJ_e2_${i}_${j}_${k}_.csv)

>>> COPY /tmp/ozone_128.75/GMJ_RHS_E_M_3_.csv /home/grierjones/DDCASPT2/ozone/multistate/ANO-RCC-VTZP/ozone_128.75/GMJ_RHS_E_M_3_.csv

>>> COPY /tmp/ozone_128.75/GMJ_IVECW_E_M_3_.csv /home/grierjones/DDCASPT2/ozone/multistate/ANO-RCC-VTZP/ozone_128.75/GMJ_IVECW_E_M_3_.csv

>>> COPY /tmp/ozone_128.75/GMJ_IVECX_E_M_3_.csv /home/grierjones/DDCASPT2/ozone/multistate/ANO-RCC-VTZP/ozone_128.75/GMJ_IVECX_E_M_3_.csv

>>> COPY /tmp/ozone_128.75/GMJ_IVECC2_E_M_3_.csv /home/grierjones/DDCASPT2/ozone/multistate/ANO-RCC-VTZP/ozone_128.75/GMJ_IVECC2_E_M_3_.csv

>>> COPY /tmp/ozone_128.75/GMJ_e2_E_M_3_.csv /home/grierjones/DDCASPT2/ozone/multistate/ANO-RCC-VTZP/ozone_128.75/GMJ_e2_E_M_3_.csv

>>> END FOREACH

>>> END FOREACH

>>> EXPORT i = F

>>> EXPORT j = P

>>> IF (-FILE GMJ_e2_${i}_${j}_${k}_.csv)

>>> COPY /tmp/ozone_128.75/GMJ_RHS_F_P_3_.csv /home/grierjones/DDCASPT2/ozone/multistate/ANO-RCC-VTZP/ozone_128.75/GMJ_RHS_F_P_3_.csv

>>> COPY /tmp/ozone_128.75/GMJ_IVECW_F_P_3_.csv /home/grierjones/DDCASPT2/ozone/multistate/ANO-RCC-VTZP/ozone_128.75/GMJ_IVECW_F_P_3_.csv

>>> COPY /tmp/ozone_128.75/GMJ_IVECX_F_P_3_.csv /home/grierjones/DDCASPT2/ozone/multistate/ANO-RCC-VTZP/ozone_128.75/GMJ_IVECX_F_P_3_.csv

>>> COPY /tmp/ozone_128.75/GMJ_IVECC2_F_P_3_.csv /home/grierjones/DDCASPT2/ozone/multistate/ANO-RCC-VTZP/ozone_128.75/GMJ_IVECC2_F_P_3_.csv

>>> COPY /tmp/ozone_128.75/GMJ_e2_F_P_3_.csv /home/grierjones/DDCASPT2/ozone/multistate/ANO-RCC-VTZP/ozone_128.75/GMJ_e2_F_P_3_.csv

>>> END FOREACH

>>> EXPORT j = M

>>> IF (-FILE GMJ_e2_${i}_${j}_${k}_.csv)

>>> COPY /tmp/ozone_128.75/GMJ_RHS_F_M_3_.csv /home/grierjones/DDCASPT2/ozone/multistate/ANO-RCC-VTZP/ozone_128.75/GMJ_RHS_F_M_3_.csv

>>> COPY /tmp/ozone_128.75/GMJ_IVECW_F_M_3_.csv /home/grierjones/DDCASPT2/ozone/multistate/ANO-RCC-VTZP/ozone_128.75/GMJ_IVECW_F_M_3_.csv

>>> COPY /tmp/ozone_128.75/GMJ_IVECX_F_M_3_.csv /home/grierjones/DDCASPT2/ozone/multistate/ANO-RCC-VTZP/ozone_128.75/GMJ_IVECX_F_M_3_.csv

>>> COPY /tmp/ozone_128.75/GMJ_IVECC2_F_M_3_.csv /home/grierjones/DDCASPT2/ozone/multistate/ANO-RCC-VTZP/ozone_128.75/GMJ_IVECC2_F_M_3_.csv

>>> COPY /tmp/ozone_128.75/GMJ_e2_F_M_3_.csv /home/grierjones/DDCASPT2/ozone/multistate/ANO-RCC-VTZP/ozone_128.75/GMJ_e2_F_M_3_.csv

>>> END FOREACH

>>> END FOREACH

>>> EXPORT i = G

>>> EXPORT j = P

>>> IF (-FILE GMJ_e2_${i}_${j}_${k}_.csv)

>>> COPY /tmp/ozone_128.75/GMJ_RHS_G_P_3_.csv /home/grierjones/DDCASPT2/ozone/multistate/ANO-RCC-VTZP/ozone_128.75/GMJ_RHS_G_P_3_.csv

>>> COPY /tmp/ozone_128.75/GMJ_IVECW_G_P_3_.csv /home/grierjones/DDCASPT2/ozone/multistate/ANO-RCC-VTZP/ozone_128.75/GMJ_IVECW_G_P_3_.csv

>>> COPY /tmp/ozone_128.75/GMJ_IVECX_G_P_3_.csv /home/grierjones/DDCASPT2/ozone/multistate/ANO-RCC-VTZP/ozone_128.75/GMJ_IVECX_G_P_3_.csv

>>> COPY /tmp/ozone_128.75/GMJ_IVECC2_G_P_3_.csv /home/grierjones/DDCASPT2/ozone/multistate/ANO-RCC-VTZP/ozone_128.75/GMJ_IVECC2_G_P_3_.csv

>>> COPY /tmp/ozone_128.75/GMJ_e2_G_P_3_.csv /home/grierjones/DDCASPT2/ozone/multistate/ANO-RCC-VTZP/ozone_128.75/GMJ_e2_G_P_3_.csv

>>> END FOREACH

>>> EXPORT j = M

>>> IF (-FILE GMJ_e2_${i}_${j}_${k}_.csv)

>>> COPY /tmp/ozone_128.75/GMJ_RHS_G_M_3_.csv /home/grierjones/DDCASPT2/ozone/multistate/ANO-RCC-VTZP/ozone_128.75/GMJ_RHS_G_M_3_.csv

>>> COPY /tmp/ozone_128.75/GMJ_IVECW_G_M_3_.csv /home/grierjones/DDCASPT2/ozone/multistate/ANO-RCC-VTZP/ozone_128.75/GMJ_IVECW_G_M_3_.csv

>>> COPY /tmp/ozone_128.75/GMJ_IVECX_G_M_3_.csv /home/grierjones/DDCASPT2/ozone/multistate/ANO-RCC-VTZP/ozone_128.75/GMJ_IVECX_G_M_3_.csv

>>> COPY /tmp/ozone_128.75/GMJ_IVECC2_G_M_3_.csv /home/grierjones/DDCASPT2/ozone/multistate/ANO-RCC-VTZP/ozone_128.75/GMJ_IVECC2_G_M_3_.csv

>>> COPY /tmp/ozone_128.75/GMJ_e2_G_M_3_.csv /home/grierjones/DDCASPT2/ozone/multistate/ANO-RCC-VTZP/ozone_128.75/GMJ_e2_G_M_3_.csv

>>> END FOREACH

>>> END FOREACH

>>> EXPORT i = H

>>> EXPORT j = P

>>> IF (-FILE GMJ_e2_${i}_${j}_${k}_.csv)

>>> COPY /tmp/ozone_128.75/GMJ_RHS_H_P_3_.csv /home/grierjones/DDCASPT2/ozone/multistate/ANO-RCC-VTZP/ozone_128.75/GMJ_RHS_H_P_3_.csv

>>> COPY /tmp/ozone_128.75/GMJ_IVECW_H_P_3_.csv /home/grierjones/DDCASPT2/ozone/multistate/ANO-RCC-VTZP/ozone_128.75/GMJ_IVECW_H_P_3_.csv

>>> COPY /tmp/ozone_128.75/GMJ_IVECX_H_P_3_.csv /home/grierjones/DDCASPT2/ozone/multistate/ANO-RCC-VTZP/ozone_128.75/GMJ_IVECX_H_P_3_.csv

>>> COPY /tmp/ozone_128.75/GMJ_IVECC2_H_P_3_.csv /home/grierjones/DDCASPT2/ozone/multistate/ANO-RCC-VTZP/ozone_128.75/GMJ_IVECC2_H_P_3_.csv

>>> COPY /tmp/ozone_128.75/GMJ_e2_H_P_3_.csv /home/grierjones/DDCASPT2/ozone/multistate/ANO-RCC-VTZP/ozone_128.75/GMJ_e2_H_P_3_.csv

>>> END FOREACH

>>> EXPORT j = M

>>> IF (-FILE GMJ_e2_${i}_${j}_${k}_.csv)

>>> COPY /tmp/ozone_128.75/GMJ_RHS_H_M_3_.csv /home/grierjones/DDCASPT2/ozone/multistate/ANO-RCC-VTZP/ozone_128.75/GMJ_RHS_H_M_3_.csv

>>> COPY /tmp/ozone_128.75/GMJ_IVECW_H_M_3_.csv /home/grierjones/DDCASPT2/ozone/multistate/ANO-RCC-VTZP/ozone_128.75/GMJ_IVECW_H_M_3_.csv

>>> COPY /tmp/ozone_128.75/GMJ_IVECX_H_M_3_.csv /home/grierjones/DDCASPT2/ozone/multistate/ANO-RCC-VTZP/ozone_128.75/GMJ_IVECX_H_M_3_.csv

>>> COPY /tmp/ozone_128.75/GMJ_IVECC2_H_M_3_.csv /home/grierjones/DDCASPT2/ozone/multistate/ANO-RCC-VTZP/ozone_128.75/GMJ_IVECC2_H_M_3_.csv

>>> COPY /tmp/ozone_128.75/GMJ_e2_H_M_3_.csv /home/grierjones/DDCASPT2/ozone/multistate/ANO-RCC-VTZP/ozone_128.75/GMJ_e2_H_M_3_.csv

>>> END FOREACH

>>> END FOREACH

>>> END FOREACH

>>> EXPORT j = 1

>>> EXPORT i = A

>>> IF (-FILE GMJ_e2_${i}_${j}_.csv)

>>> COPY /tmp/ozone_128.75/GMJ_RHS_A_1_.csv /home/grierjones/DDCASPT2/ozone/multistate/ANO-RCC-VTZP/ozone_128.75/GMJ_RHS_A_1_.csv

>>> COPY /tmp/ozone_128.75/GMJ_IVECW_A_1_.csv /home/grierjones/DDCASPT2/ozone/multistate/ANO-RCC-VTZP/ozone_128.75/GMJ_IVECW_A_1_.csv

>>> COPY /tmp/ozone_128.75/GMJ_IVECX_A_1_.csv /home/grierjones/DDCASPT2/ozone/multistate/ANO-RCC-VTZP/ozone_128.75/GMJ_IVECX_A_1_.csv

>>> COPY /tmp/ozone_128.75/GMJ_IVECC2_A_1_.csv /home/grierjones/DDCASPT2/ozone/multistate/ANO-RCC-VTZP/ozone_128.75/GMJ_IVECC2_A_1_.csv

>>> COPY /tmp/ozone_128.75/GMJ_e2_A_1_.csv /home/grierjones/DDCASPT2/ozone/multistate/ANO-RCC-VTZP/ozone_128.75/GMJ_e2_A_1_.csv

>>> END FOREACH

>>> EXPORT i = C

>>> IF (-FILE GMJ_e2_${i}_${j}_.csv)

>>> COPY /tmp/ozone_128.75/GMJ_RHS_C_1_.csv /home/grierjones/DDCASPT2/ozone/multistate/ANO-RCC-VTZP/ozone_128.75/GMJ_RHS_C_1_.csv

>>> COPY /tmp/ozone_128.75/GMJ_IVECW_C_1_.csv /home/grierjones/DDCASPT2/ozone/multistate/ANO-RCC-VTZP/ozone_128.75/GMJ_IVECW_C_1_.csv

>>> COPY /tmp/ozone_128.75/GMJ_IVECX_C_1_.csv /home/grierjones/DDCASPT2/ozone/multistate/ANO-RCC-VTZP/ozone_128.75/GMJ_IVECX_C_1_.csv

>>> COPY /tmp/ozone_128.75/GMJ_IVECC2_C_1_.csv /home/grierjones/DDCASPT2/ozone/multistate/ANO-RCC-VTZP/ozone_128.75/GMJ_IVECC2_C_1_.csv

>>> COPY /tmp/ozone_128.75/GMJ_e2_C_1_.csv /home/grierjones/DDCASPT2/ozone/multistate/ANO-RCC-VTZP/ozone_128.75/GMJ_e2_C_1_.csv

>>> END FOREACH

>>> EXPORT i = D

>>> IF (-FILE GMJ_e2_${i}_${j}_.csv)

>>> COPY /tmp/ozone_128.75/GMJ_RHS_D_1_.csv /home/grierjones/DDCASPT2/ozone/multistate/ANO-RCC-VTZP/ozone_128.75/GMJ_RHS_D_1_.csv

>>> COPY /tmp/ozone_128.75/GMJ_IVECW_D_1_.csv /home/grierjones/DDCASPT2/ozone/multistate/ANO-RCC-VTZP/ozone_128.75/GMJ_IVECW_D_1_.csv

>>> COPY /tmp/ozone_128.75/GMJ_IVECX_D_1_.csv /home/grierjones/DDCASPT2/ozone/multistate/ANO-RCC-VTZP/ozone_128.75/GMJ_IVECX_D_1_.csv

>>> COPY /tmp/ozone_128.75/GMJ_IVECC2_D_1_.csv /home/grierjones/DDCASPT2/ozone/multistate/ANO-RCC-VTZP/ozone_128.75/GMJ_IVECC2_D_1_.csv

>>> COPY /tmp/ozone_128.75/GMJ_e2_D_1_.csv /home/grierjones/DDCASPT2/ozone/multistate/ANO-RCC-VTZP/ozone_128.75/GMJ_e2_D_1_.csv

>>> END FOREACH

>>> END FOREACH

>>> EXPORT j = 2

>>> EXPORT i = A

>>> IF (-FILE GMJ_e2_${i}_${j}_.csv)

>>> COPY /tmp/ozone_128.75/GMJ_RHS_A_2_.csv /home/grierjones/DDCASPT2/ozone/multistate/ANO-RCC-VTZP/ozone_128.75/GMJ_RHS_A_2_.csv

>>> COPY /tmp/ozone_128.75/GMJ_IVECW_A_2_.csv /home/grierjones/DDCASPT2/ozone/multistate/ANO-RCC-VTZP/ozone_128.75/GMJ_IVECW_A_2_.csv

>>> COPY /tmp/ozone_128.75/GMJ_IVECX_A_2_.csv /home/grierjones/DDCASPT2/ozone/multistate/ANO-RCC-VTZP/ozone_128.75/GMJ_IVECX_A_2_.csv

>>> COPY /tmp/ozone_128.75/GMJ_IVECC2_A_2_.csv /home/grierjones/DDCASPT2/ozone/multistate/ANO-RCC-VTZP/ozone_128.75/GMJ_IVECC2_A_2_.csv

>>> COPY /tmp/ozone_128.75/GMJ_e2_A_2_.csv /home/grierjones/DDCASPT2/ozone/multistate/ANO-RCC-VTZP/ozone_128.75/GMJ_e2_A_2_.csv

>>> END FOREACH

>>> EXPORT i = C

>>> IF (-FILE GMJ_e2_${i}_${j}_.csv)

>>> COPY /tmp/ozone_128.75/GMJ_RHS_C_2_.csv /home/grierjones/DDCASPT2/ozone/multistate/ANO-RCC-VTZP/ozone_128.75/GMJ_RHS_C_2_.csv

>>> COPY /tmp/ozone_128.75/GMJ_IVECW_C_2_.csv /home/grierjones/DDCASPT2/ozone/multistate/ANO-RCC-VTZP/ozone_128.75/GMJ_IVECW_C_2_.csv

>>> COPY /tmp/ozone_128.75/GMJ_IVECX_C_2_.csv /home/grierjones/DDCASPT2/ozone/multistate/ANO-RCC-VTZP/ozone_128.75/GMJ_IVECX_C_2_.csv

>>> COPY /tmp/ozone_128.75/GMJ_IVECC2_C_2_.csv /home/grierjones/DDCASPT2/ozone/multistate/ANO-RCC-VTZP/ozone_128.75/GMJ_IVECC2_C_2_.csv

>>> COPY /tmp/ozone_128.75/GMJ_e2_C_2_.csv /home/grierjones/DDCASPT2/ozone/multistate/ANO-RCC-VTZP/ozone_128.75/GMJ_e2_C_2_.csv

>>> END FOREACH

>>> EXPORT i = D

>>> IF (-FILE GMJ_e2_${i}_${j}_.csv)

>>> COPY /tmp/ozone_128.75/GMJ_RHS_D_2_.csv /home/grierjones/DDCASPT2/ozone/multistate/ANO-RCC-VTZP/ozone_128.75/GMJ_RHS_D_2_.csv

>>> COPY /tmp/ozone_128.75/GMJ_IVECW_D_2_.csv /home/grierjones/DDCASPT2/ozone/multistate/ANO-RCC-VTZP/ozone_128.75/GMJ_IVECW_D_2_.csv

>>> COPY /tmp/ozone_128.75/GMJ_IVECX_D_2_.csv /home/grierjones/DDCASPT2/ozone/multistate/ANO-RCC-VTZP/ozone_128.75/GMJ_IVECX_D_2_.csv

>>> COPY /tmp/ozone_128.75/GMJ_IVECC2_D_2_.csv /home/grierjones/DDCASPT2/ozone/multistate/ANO-RCC-VTZP/ozone_128.75/GMJ_IVECC2_D_2_.csv

>>> COPY /tmp/ozone_128.75/GMJ_e2_D_2_.csv /home/grierjones/DDCASPT2/ozone/multistate/ANO-RCC-VTZP/ozone_128.75/GMJ_e2_D_2_.csv

>>> END FOREACH

>>> END FOREACH

>>> EXPORT j = 3

>>> EXPORT i = A

>>> IF (-FILE GMJ_e2_${i}_${j}_.csv)

>>> COPY /tmp/ozone_128.75/GMJ_RHS_A_3_.csv /home/grierjones/DDCASPT2/ozone/multistate/ANO-RCC-VTZP/ozone_128.75/GMJ_RHS_A_3_.csv

>>> COPY /tmp/ozone_128.75/GMJ_IVECW_A_3_.csv /home/grierjones/DDCASPT2/ozone/multistate/ANO-RCC-VTZP/ozone_128.75/GMJ_IVECW_A_3_.csv

>>> COPY /tmp/ozone_128.75/GMJ_IVECX_A_3_.csv /home/grierjones/DDCASPT2/ozone/multistate/ANO-RCC-VTZP/ozone_128.75/GMJ_IVECX_A_3_.csv

>>> COPY /tmp/ozone_128.75/GMJ_IVECC2_A_3_.csv /home/grierjones/DDCASPT2/ozone/multistate/ANO-RCC-VTZP/ozone_128.75/GMJ_IVECC2_A_3_.csv

>>> COPY /tmp/ozone_128.75/GMJ_e2_A_3_.csv /home/grierjones/DDCASPT2/ozone/multistate/ANO-RCC-VTZP/ozone_128.75/GMJ_e2_A_3_.csv

>>> END FOREACH

>>> EXPORT i = C

>>> IF (-FILE GMJ_e2_${i}_${j}_.csv)

>>> COPY /tmp/ozone_128.75/GMJ_RHS_C_3_.csv /home/grierjones/DDCASPT2/ozone/multistate/ANO-RCC-VTZP/ozone_128.75/GMJ_RHS_C_3_.csv

>>> COPY /tmp/ozone_128.75/GMJ_IVECW_C_3_.csv /home/grierjones/DDCASPT2/ozone/multistate/ANO-RCC-VTZP/ozone_128.75/GMJ_IVECW_C_3_.csv

>>> COPY /tmp/ozone_128.75/GMJ_IVECX_C_3_.csv /home/grierjones/DDCASPT2/ozone/multistate/ANO-RCC-VTZP/ozone_128.75/GMJ_IVECX_C_3_.csv

>>> COPY /tmp/ozone_128.75/GMJ_IVECC2_C_3_.csv /home/grierjones/DDCASPT2/ozone/multistate/ANO-RCC-VTZP/ozone_128.75/GMJ_IVECC2_C_3_.csv

>>> COPY /tmp/ozone_128.75/GMJ_e2_C_3_.csv /home/grierjones/DDCASPT2/ozone/multistate/ANO-RCC-VTZP/ozone_128.75/GMJ_e2_C_3_.csv

>>> END FOREACH

>>> EXPORT i = D

>>> IF (-FILE GMJ_e2_${i}_${j}_.csv)

>>> COPY /tmp/ozone_128.75/GMJ_RHS_D_3_.csv /home/grierjones/DDCASPT2/ozone/multistate/ANO-RCC-VTZP/ozone_128.75/GMJ_RHS_D_3_.csv

>>> COPY /tmp/ozone_128.75/GMJ_IVECW_D_3_.csv /home/grierjones/DDCASPT2/ozone/multistate/ANO-RCC-VTZP/ozone_128.75/GMJ_IVECW_D_3_.csv

>>> COPY /tmp/ozone_128.75/GMJ_IVECX_D_3_.csv /home/grierjones/DDCASPT2/ozone/multistate/ANO-RCC-VTZP/ozone_128.75/GMJ_IVECX_D_3_.csv

>>> COPY /tmp/ozone_128.75/GMJ_IVECC2_D_3_.csv /home/grierjones/DDCASPT2/ozone/multistate/ANO-RCC-VTZP/ozone_128.75/GMJ_IVECC2_D_3_.csv

>>> COPY /tmp/ozone_128.75/GMJ_e2_D_3_.csv /home/grierjones/DDCASPT2/ozone/multistate/ANO-RCC-VTZP/ozone_128.75/GMJ_e2_D_3_.csv

>>> END FOREACH

>>> END FOREACH

.########################.
.# Non-zero return code #.
.########################.

    Timing: Wall=25.90 User=16.99 System=8.90
********************************************
*** WorkDir at /tmp/ozone_128.75 cleaned ***
********************************************
