[Molden Format]
[N_Atoms]
                     2
[Atoms] (AU)
LI1         1      3           0.00000000      0.00000000      0.00000000
O2          2      8           0.00000000      0.00000000      1.13383567
[Charge] (Mulliken)
  0.333931284796289     
 -0.333931284796314     
[GTO] (AU)
   1
   s  14
  9.497934400E+03  9.668999974E-05
  1.416811200E+03  6.087099984E-04
  3.214599400E+02  3.101519992E-03
  9.112416300E+01  1.266904997E-02
  2.999989100E+01  4.248012989E-02
  1.101763100E+01  1.150183297E-01
  4.372801000E+00  2.398650094E-01
  1.831256000E+00  3.584300090E-01
  8.022610000E-01  3.048527792E-01
  3.626480000E-01  8.824261976E-02
  1.139950000E-01 -8.445899977E-04
  5.123700000E-02 -7.943959979E-03
  2.246800000E-02 -3.764419990E-03
  7.860000000E-03 -8.868999976E-05
   s  14
  9.497934400E+03 -1.244999993E-05
  1.416811200E+03 -7.838999954E-05
  3.214599400E+02 -4.007099976E-04
  9.112416300E+01 -1.645249990E-03
  2.999989100E+01 -5.634599967E-03
  1.101763100E+01 -1.590780991E-02
  4.372801000E+00 -3.612581979E-02
  1.831256000E+00 -6.459927962E-02
  8.022610000E-01 -1.008321794E-01
  3.626480000E-01 -9.757613942E-02
  1.139950000E-01  2.301215886E-01
  5.123700000E-02  6.102389764E-01
  2.246800000E-02  2.849406083E-01
  7.860000000E-03  4.026899976E-03
   p   9
  1.311950400E+01  1.524940000E-03
  3.077424200E+00  8.314830000E-03
  1.098800500E+00  1.933203000E-02
  4.357784000E-01  4.934293000E-02
  1.802432000E-01  1.623554000E-01
  7.613330000E-02  3.847505400E-01
  3.254650000E-02  4.336100400E-01
  1.401820000E-02  1.287005900E-01
  4.906400000E-03 -1.018520000E-03
 
   2
   s  14
  1.053749500E+05  1.238600013E-04
  1.567924000E+04  5.120100053E-04
  3.534544700E+03  2.152910022E-03
  9.873651600E+02  8.528440089E-03
  3.159787500E+02  3.018049031E-02
  1.116542800E+02  9.099702095E-02
  4.269945100E+01  2.177936423E-01
  1.739559600E+01  3.686245738E-01
  7.438309000E+00  3.366707335E-01
  3.222862000E+00  9.657630101E-02
  1.253877000E+00  2.144520022E-03
  4.951550000E-01  1.194350012E-03
  1.916650000E-01  5.390200056E-04
  6.708300000E-02  2.103400022E-04
   s  14
  1.053749500E+05 -2.815000008E-05
  1.567924000E+04 -1.163000003E-04
  3.534544700E+03 -4.909200013E-04
  9.873651600E+02 -1.946160005E-03
  3.159787500E+02 -7.005300019E-03
  1.116542800E+02 -2.167814006E-02
  4.269945100E+01 -5.641213015E-02
  1.739559600E+01 -1.127053003E-01
  7.438309000E+00 -1.589119704E-01
  3.222862000E+00 -3.355083009E-02
  1.253877000E+00  3.531902810E-01
  4.951550000E-01  5.534199315E-01
  1.916650000E-01  2.301839106E-01
  6.708300000E-02  1.127267003E-02
   p   9
  2.000000000E+02  9.173000030E-04
  4.653336700E+01  7.377140024E-03
  1.462180900E+01  3.483515011E-02
  5.313064000E+00  1.144397004E-01
  2.102525000E+00  2.554966408E-01
  8.502230000E-01  3.722557412E-01
  3.375970000E-01  3.323314911E-01
  1.288920000E-01  1.400847905E-01
  4.511200000E-02  2.395784008E-02
 
[MO]
Sym=     1a  
Ene=   -21.2520
Spin= Alpha
Occup=    1.00000
   1        -0.00139404
   2        -0.00094140
   3        -0.00000000
   4        -0.00000000
   5         0.00152109
   6         1.00004973
   7         0.00166623
   8        -0.00000000
   9         0.00000000
  10        -0.00658344
Sym=     1a  
Ene=   -21.2510
Spin= Beta
Occup=    1.00000
   1        -0.00140718
   2        -0.00095517
   3        -0.00000000
   4         0.00000000
   5         0.00151640
   6         1.00005149
   7         0.00170677
   8        -0.00000000
   9         0.00000000
  10        -0.00658672
Sym=     2a  
Ene=    -3.8321
Spin= Alpha
Occup=    1.00000
   1         0.89703161
   2        -0.02820289
   3        -0.00000000
   4         0.00000000
   5         0.03604403
   6        -0.08693235
   7         0.08896383
   8         0.00000000
   9        -0.00000000
  10        -0.10878325
Sym=     2a  
Ene=    -3.8284
Spin= Beta
Occup=    1.00000
   1         0.89720171
   2        -0.02916611
   3        -0.00000000
   4         0.00000000
   5         0.03677048
   6        -0.08697511
   7         0.08876723
   8         0.00000000
   9        -0.00000000
  10        -0.10863036
Sym=     3a  
Ene=    -1.2803
Spin= Alpha
Occup=    1.00000
   1        -0.38797460
   2        -0.02238712
   3         0.00000000
   4        -0.00000000
   5        -0.02494054
   6         0.03899706
   7         1.04070565
   8         0.00000000
   9         0.00000000
  10         0.28089189
Sym=     3a  
Ene=    -1.2782
Spin= Beta
Occup=    1.00000
   1        -0.38814824
   2        -0.02254331
   3         0.00000000
   4        -0.00000000
   5        -0.02441925
   6         0.03895958
   7         1.04080851
   8         0.00000000
   9         0.00000000
  10         0.28042139
Sym=     4a  
Ene=    -1.0130
Spin= Alpha
Occup=    1.00000
   1         0.00000000
   2        -0.00000000
   3        -0.07168481
   4        -0.01883737
   5        -0.00000000
   6         0.00000000
   7        -0.00000000
   8         0.99381533
   9         0.26115526
  10         0.00000000
Sym=     4a  
Ene=    -1.0119
Spin= Beta
Occup=    1.00000
   1         0.00000000
   2        -0.00000000
   3        -0.07981826
   4        -0.01703499
   5        -0.00000000
   6         0.00000000
   7        -0.00000000
   8         1.00739835
   9         0.21500123
  10         0.00000000
Sym=     5a  
Ene=    -1.0130
Spin= Alpha
Occup=    1.00000
   1         0.00000000
   2        -0.00000000
   3         0.01883737
   4        -0.07168481
   5        -0.00000000
   6         0.00000000
   7         0.00000000
   8        -0.26115526
   9         0.99381533
  10         0.00000000
Sym=     5a  
Ene=    -1.0119
Spin= Beta
Occup=    1.00000
   1         0.00000000
   2        -0.00000000
   3         0.01703499
   4        -0.07981826
   5        -0.00000000
   6         0.00000000
   7         0.00000000
   8        -0.21500123
   9         1.00739835
  10         0.00000000
Sym=     6a  
Ene=    -0.2363
Spin= Alpha
Occup=    1.00000
   1        -0.06860583
   2        -0.86762517
   3        -0.00000000
   4        -0.00000000
   5         0.51416955
   6        -0.00156279
   7         0.12297300
   8         0.00000000
   9         0.00000000
  10         0.02421148
Sym=     6a  
Ene=     0.0243
Spin= Beta
Occup=    0.00000
   1        -0.09622128
   2        -0.93680036
   3        -0.00000000
   4        -0.00000000
   5         0.40245685
   6         0.00880336
   7         0.19143133
   8         0.00000000
   9         0.00000000
  10         0.03744784
Sym=     7a  
Ene=     0.0667
Spin= Alpha
Occup=    0.00000
   1        -0.00000000
   2        -0.00000000
   3         1.07855769
   4         0.15798780
   5        -0.00000000
   6         0.00000000
   7         0.00000000
   8        -0.36738719
   9        -0.05381510
  10         0.00000000
Sym=     7a  
Ene=     0.1030
Spin= Beta
Occup=    0.00000
   1        -0.00000000
   2        -0.00000000
   3         1.07921124
   4         0.14960729
   5        -0.00000000
   6         0.00000000
   7         0.00000000
   8        -0.36077979
   9        -0.05001364
  10         0.00000000
Sym=     8a  
Ene=     0.0667
Spin= Alpha
Occup=    0.00000
   1         0.00000000
   2         0.00000000
   3        -0.15798780
   4         1.07855769
   5         0.00000000
   6        -0.00000000
   7        -0.00000000
   8         0.05381510
   9        -0.36738719
  10        -0.00000000
Sym=     8a  
Ene=     0.1030
Spin= Beta
Occup=    0.00000
   1         0.00000000
   2         0.00000000
   3        -0.14960729
   4         1.07921124
   5         0.00000000
   6        -0.00000000
   7        -0.00000000
   8         0.05001364
   9        -0.36077979
  10        -0.00000000
Sym=     9a  
Ene=     0.1226
Spin= Alpha
Occup=    0.00000
   1        -0.14858896
   2        -0.65114450
   3        -0.00000000
   4         0.00000000
   5        -0.97903305
   6         0.08374025
   7         0.56299948
   8         0.00000000
   9        -0.00000000
  10         0.22418568
Sym=     9a  
Ene=     0.1374
Spin= Beta
Occup=    0.00000
   1        -0.14433527
   2        -0.55053291
   3        -0.00000000
   4         0.00000000
   5        -1.02993724
   6         0.08374940
   7         0.54884988
   8         0.00000000
   9        -0.00000000
  10         0.21507824
Sym=    10a  
Ene=     0.7098
Spin= Alpha
Occup=    0.00000
   1         1.12459858
   2         0.18856760
   3        -0.00000000
   4         0.00000000
   5        -0.14022584
   6        -0.09547863
   7        -0.70821808
   8         0.00000000
   9        -0.00000000
  10         1.27011789
Sym=    10a  
Ene=     0.7130
Spin= Beta
Occup=    0.00000
   1         1.12293196
   2         0.17769810
   3        -0.00000000
   4         0.00000000
   5        -0.14060562
   6        -0.09503444
   7        -0.70399018
   8         0.00000000
   9        -0.00000000
  10         1.27148777
