   This run of MOLCAS is using the pymolcas driver

                             OPE
                             OPE          NMOL  CASOP  ENMOLC A   SO
                 OPE        NMOLC        AS  OP EN  MO LC     AS  OP
                OPENM       OL CA        SO  PE NM  OL CA     SOP EN
                OP EN      MO   LC       AS  OP ENMOL  CASO   PENMOL
                OP  EN     MO   LC       AS  OP EN     MO     LC ASO
               OP   E  NMOL  C  AS       OP  EN MO     LC     AS  OP
               OP  E   NMO   LC AS        OPEN  MO     LCASOP EN   M
               O  PEN   MO  LCA  SO
            OPE   NMO   L   CAS    OP
        OPENMOL  CASOP     ENMOL   CASOPE
     OPENMOLCA   SOPENMOLCASOPEN   MOLCASOPE
    OPENMOLCAS   OP           EN   MOL    CAS
    OPENMOLCAS       OP  ENM        O     LCA
    OPENMOLCAS    OPEN  MOLCASO     P  E  NMO
    OPENMOLCAS     OP               E  N  MOL
    OPENMOLCA   SO           PENM   O  L  CAS    OPEN    MO    LCAS
    OPENMOLCA   SOP           ENM   O  L  CAS   OP  EN  MOLC  AS   O
    OPENMOLCA   SOPE           NM      O  LCA   S      OP  EN MO
    OPENMOLC                AS         O  PEN   M      OL  CA  SOPE
    OPENMO        LCASOPE  NMOL        C  ASO   P      ENMOLC     AS
    OPE     NMO      LCA  SO     P     E   NM   OL  CA SO  PE N   MO
          OPENMOLCA            SOPE   NMO        LCAS  O    P  ENMO
     OPENMOLCASOPENMOLCASOPENMOLCASOPENMOLCA
        OPENMOLCASOPENMOLCASOPENMOLCASOPE
            OPENMOLCASOPENMOLCASOPENM
               OPENMOLCASOPENMOLCA        version: f37762c57
                   OPENMOLCASO
                       OPE                tag:

 OpenMolcas is free software; you can redistribute it and/or modify it
 under the terms of the GNU Lesser General Public License version 2.1.
 OpenMolcas is distributed in the hope that it will be useful, but it
 is provided "as is" and without any express or implied warranties.
 For more details see the full text of the license in the file
 LICENSE or in <http://www.gnu.org/licenses/>.

                 Copyright (C) The OpenMolcas Authors
           For the author list and the recommended citation,
                   consult the file CONTRIBUTORS.md

           *************************************************
           * pymolcas version py2.28                       *
           *   build c4a6d18ded8cb6cad61d2372a9abd97c      *
           *   (after the EMIL interpreter by V. Veryazov) *
           *************************************************

configuration info
------------------
C Compiler ID: Intel
C flags: -std=gnu99 -gcc-sys
Fortran Compiler ID: IntelLLVM
Fortran flags: -standard-semantics -fltconsistency -fpp -i8 -heap-arrays
Definitions: _MOLCAS_;_I8_;_LINUX_
Parallel: OFF (GA=OFF)


   ------------------------------------------------------------------------------------
  |
  |              Project: 2.38
  |       Submitted from: /home/grierjones/DDCASPT2/iron_oxo_DDCASPT2/MScaspt2iron/2.38
  |         Scratch area: /tmp/2.38
  |      Save outputs to: /home/grierjones/DDCASPT2/iron_oxo_DDCASPT2/MScaspt2iron/2.38
  |               Molcas: /home/grierjones/Test/build
  |
  | Scratch area is empty
  |
  |       MOLCAS_DRIVER = /usr/local/pymolcas
  | MOLCAS_KEEP_WORKDIR = NO
  |  MOLCAS_NEW_WORKDIR = YES
  |       MOLCAS_NPROCS = 1
  |        MOLCAS_PRINT = NORMAL
  |       MOLCAS_SOURCE = /home/grierjones/Test
  |    MOLCAS_STRUCTURE = 0
  |
   ------------------------------------------------------------------------------------

++ ---------   Input file   ---------

&GATEWAY
coord=2.38.xyz
Basis = ANO-RCC-VTZP
Group = nosymm
End of Input

&SEWARD
End of Input

&SCF
UHF
charge
2
spin
5
FileOrb
/home/grierjones/DDCASPT2/iron_oxo_DDCASPT2/MScaspt2iron/2.36/2.36.UhfOrb

>>> COPY $WorkDir/2.38.scf.h5 $CurrDir/

&RASSCF
Title= RASSCF
FileOrb
/home/grierjones/DDCASPT2/iron_oxo_DDCASPT2/MScaspt2iron/2.36/2.36.RasOrb
CIROOT
3 3 1
NACTEL
10 0 0
RAS2
14
Symmetry
1
Spin
5
charge
2
orblisting
all

>>> COPY $WorkDir/2.38.rasscf.h5 $CurrDir/

>>> COPY $WorkDir/GMJ_Fock_MO.csv $CurrDir/2.38.GMJ_Fock_MO.csv

&MOTRA
Frozen=0
LUMORB

>>> COPY $WorkDir/GMJ_one_int_indx.csv $CurrDir/2.38.GMJ_one_int_indx.csv

>>> COPY $WorkDir/GMJ_one_int.csv $CurrDir/2.38.GMJ_one_int.csv

>>> COPY $WorkDir/GMJ_two_int_indx.csv $CurrDir/2.38.GMJ_two_int_indx.csv

>>> COPY $WorkDir/GMJ_two_int.csv $CurrDir/2.38.GMJ_two_int.csv

&CASPT2

Imaginary Shift
0.2
IPEA
0.25

Frozen
0

MAXITER
50

>>> FOREACH k IN (1,2,3)

  >>> FOREACH i IN (B,E,F,G,H)

    >>> FOREACH j IN (P,M)

      >>> IF (-FILE GMJ_e2_${i}_${j}_${k}_.csv)

        >>> COPY $WorkDir/GMJ_RHS_${i}_${j}_${k}_.csv $CurrDir/GMJ_RHS_${i}_${j}_${k}_.csv

        >>> COPY $WorkDir/GMJ_IVECW_${i}_${j}_${k}_.csv $CurrDir/GMJ_IVECW_${i}_${j}_${k}_.csv

        >>> COPY $WorkDir/GMJ_IVECX_${i}_${j}_${k}_.csv $CurrDir/GMJ_IVECX_${i}_${j}_${k}_.csv

        >>> COPY $WorkDir/GMJ_IVECC2_${i}_${j}_${k}_.csv $CurrDir/GMJ_IVECC2_${i}_${j}_${k}_.csv

        >>> COPY $WorkDir/GMJ_e2_${i}_${j}_${k}_.csv $CurrDir/GMJ_e2_${i}_${j}_${k}_.csv

      >>> END IF

    >>> END FOREACH

  >>> END FOREACH

>>> END FOREACH

>>> FOREACH j IN (1,2,3)

  >>> FOREACH i IN (A,C,D)

    >>> IF (-FILE GMJ_e2_${i}_${j}_.csv)

      >>> COPY $WorkDir/GMJ_RHS_${i}_${j}_.csv $CurrDir/GMJ_RHS_${i}_${j}_.csv

      >>> COPY $WorkDir/GMJ_IVECW_${i}_${j}_.csv $CurrDir/GMJ_IVECW_${i}_${j}_.csv

      >>> COPY $WorkDir/GMJ_IVECX_${i}_${j}_.csv $CurrDir/GMJ_IVECX_${i}_${j}_.csv

      >>> COPY $WorkDir/GMJ_IVECC2_${i}_${j}_.csv $CurrDir/GMJ_IVECC2_${i}_${j}_.csv

      >>> COPY $WorkDir/GMJ_e2_${i}_${j}_.csv $CurrDir/GMJ_e2_${i}_${j}_.csv

    >>> END IF

  >>> END FOREACH

>>> END FOREACH

-- ----------------------------------

--- Start Module: gateway at Thu Apr 17 23:32:46 2025 ---
 
()()()()()()()()()()()()()()()()()()()()()()()()()()()()()()()()()()()()()()()()()()()()()()()()()()

                                              &GATEWAY

                                   only a single process is used
                       available to each process: 2.0 GB of memory, 1 thread?
()()()()()()()()()()()()()()()()()()()()()()()()()()()()()()()()()()()()()()()()()()()()()()()()()()
 
 
++    Symmetry information:
      ---------------------
 
                    Character Table for C1 
 
                             E  
                    a        1  x, y, xy, Rz, z, xz, Ry, yz, Rx, I
--
 
 
++    Basis set information:
      ----------------------
 
 
      Basis set label: O.ANO-RCC...4S3P2D1F.
 
      Electronic valence basis set:
      ------------------
      Associated Effective Charge   8.000000 au
      Associated Actual Charge      8.000000 au
      Nuclear Model: Point charge
 
      Shell  nPrim  nBasis  Cartesian Spherical Contaminant
         s      14       4        X                  
         p       9       3        X                  
         d       4       2                 X         
         f       3       1                 X         
 
 
      Basis set label: FE.ANO-RCC...6S5P3D2F1G.
 
      Electronic valence basis set:
      ------------------
      Associated Effective Charge  26.000000 au
      Associated Actual Charge     26.000000 au
      Nuclear Model: Point charge
 
      Shell  nPrim  nBasis  Cartesian Spherical Contaminant
         s      21       6        X                  
         p      15       5        X                  
         d      10       3                 X         
         f       6       2                 X         
         g       4       1                 X         
--
 
 
++    Molecular structure info:
      -------------------------
 
                    ************************************************ 
                    **** Cartesian Coordinates / Bohr, Angstrom **** 
                    ************************************************ 
 
     Center  Label                x              y              z                     x              y              z
        1      O1               0.000000       0.000000       3.760555              0.000000       0.000000       1.990000
        2      FE2              0.000000       0.000000      -0.736993              0.000000       0.000000      -0.390000
--
 
 
            Nuclear Potential Energy             46.24742009 au
 
--- Stop Module: gateway at Thu Apr 17 23:32:46 2025 /rc=_RC_ALL_IS_WELL_ ---
*** files: xmldump
    saved to directory /home/grierjones/DDCASPT2/iron_oxo_DDCASPT2/MScaspt2iron/2.38

--- Start Module: seward at Thu Apr 17 23:32:46 2025 ---
 
()()()()()()()()()()()()()()()()()()()()()()()()()()()()()()()()()()()()()()()()()()()()()()()()()()

                                              &SEWARD

                                   only a single process is used
                       available to each process: 2.0 GB of memory, 1 thread?
()()()()()()()()()()()()()()()()()()()()()()()()()()()()()()()()()()()()()()()()()()()()()()()()()()
 
               SEWARD will generate:
                  Multipole Moment integrals up to order  2
                  Kinetic Energy integrals
                  Nuclear Attraction integrals (point charge)
                  One-Electron Hamiltonian integrals
                  Velocity integrals
                  Relativistic Douglas-Kroll-Hess integrals:
                    - Parametrization         : EXP
                    - DKH order of Hamiltonian: 2
                    - DKH order of Properties : 0
                         - multipole moment operators
                         - electric potential operators
                         - contact operators
                  Atomic mean-field integrals
                  Two-Electron Repulsion integrals
 
                   Integrals are discarded if absolute value <: 0.10E-13
                   Integral cutoff threshold is set to       <: 0.10E-15
 
            Nuclear Potential Energy             46.24742009 au
 
 
      Basis set specifications :
      Symmetry species         a  
      Basis functions           89
 
 
  Input file to MOLDEN was generated!
 
forrtl: warning (525): IEEE_DIVIDE_BY_ZERO is signaling
forrtl: warning (526): IEEE_INVALID is signaling
forrtl: warning (528): IEEE_UNDERFLOW is signaling
--- Stop Module: seward at Thu Apr 17 23:32:49 2025 /rc=_RC_ALL_IS_WELL_ ---
*** files: 2.38.GssOrb 2.38.guessorb.h5 2.38.guessorb.molden xmldump
    saved to directory /home/grierjones/DDCASPT2/iron_oxo_DDCASPT2/MScaspt2iron/2.38
--- Module seward spent 3 seconds ---

*** symbolic link created: INPORB -> 2.38.GssOrb
--- Start Module: scf at Thu Apr 17 23:32:49 2025 ---
 
()()()()()()()()()()()()()()()()()()()()()()()()()()()()()()()()()()()()()()()()()()()()()()()()()()

                                                &SCF

                                   only a single process is used
                       available to each process: 2.0 GB of memory, 1 thread?
()()()()()()()()()()()()()()()()()()()()()()()()()()()()()()()()()()()()()()()()()()()()()()()()()()
 
 *** Possible bug in opening file
 *** isFreeUnit resets the unit number
++    Input section:
      --------------
 
      Header of the integral files:
      
       Integrals generated by seward 4.2.0  , Thu Apr 17 23:32:46 2025
 
 
      Cartesian coordinates in Angstrom:
      -----------------------------------------------------
      No.  Label        X            Y            Z        
      -----------------------------------------------------
       1   O1         0.00000000   0.00000000   1.99000000
       2   FE2        0.00000000   0.00000000  -0.39000000
      -----------------------------------------------------
      Nuclear repulsion energy =   46.24742009
--
 
++    Orbital specifications:
      -----------------------
 
      Symmetry species               1
                                     a
      Frozen orbitals                0
      Occupied orbitals alpha       18
      Occupied orbitals beta        14
      Secondary orbitals alpha      71
      Secondary orbitals beta       75
      Deleted orbitals               0
      Total number of orbitals      89
      Number of basis functions     89
--
 
      Molecular charge                           2.000
 
++    Optimization specifications:
      ----------------------------
 
      SCF Algorithm: Conventional USCF
      D(i)-D(i-1) density differences are used
      Number of density matrices in core                5
      Maximum number of NDDO SCF iterations           400
      Maximum number of HF SCF iterations             400
      Threshold for SCF energy change            0.10E-08
      Threshold for density matrix               0.10E-03
      Threshold for Fock matrix                  0.15E-03
      Threshold for linear dependence            0.10E-08
      Threshold at which DIIS is turned on       0.15E+00
      Threshold at which QNR/C2DIIS is turned on 0.75E-01
      Threshold for Norm(delta) (QNR/C2DIIS)     0.20E-04
      DIIS extrapolation of the SCF procedure
      All orbitals punched on: UHFORB
--
 
      Input vectors read from INPORB
      Orbital file label: * UHF orbitals
 
 
++ Convergence information
                               UHF SCF        iterations: Energy and convergence statistics
 
Iter     Tot. SCF        One-elec.       Two-elec.     Energy      Max Dij or  Max Fij      DNorm      TNorm      AccCon     Time
         Energy          Energy          Energy        Change      Delta Norm                                                in Sec.
 
 The total and one-electron energies are shifted by a value of      1000. a.u.
 
   1  -345.199963832  -932.668158881   541.220774957   0.00E+00    0.96E-02*   0.13E-02*    0.81E+01   0.22E+03   None         0.
   2  -345.199983325  -932.752748674   541.305345257  -0.19E-04*   0.31E-02*   0.13E-02*    0.16E-01   0.22E+03   EDIIS        0.
   3  -345.199984995  -932.635109616   541.187704529  -0.17E-05*   0.25E-02*   0.63E-03*    0.96E-02   0.22E+03   c2DIIS       0.
   4  -345.199997980  -932.723017137   541.275599065  -0.13E-04*   0.50E-02*   0.45E-03*    0.56E-02   0.22E+03   QNRc2DIIS    0.
   5  -345.200002016  -932.751744829   541.304322721  -0.40E-05*   0.17E-01*   0.43E-03*    0.55E-02   0.22E+03   QNRc2DIIS    0.
   6  -345.200007848  -932.777659299   541.330231359  -0.58E-05*   0.25E-02*   0.50E-03*    0.20E-01   0.22E+03   QNRc2DIIS    0.
   7  -345.200008897  -932.799108572   541.351679583  -0.10E-05*   0.61E-03*   0.12E-03     0.33E-02   0.22E+03   QNRc2DIIS    0.
   8  -345.200008964  -932.791213124   541.343784068  -0.67E-07*   0.31E-03*   0.35E-04     0.74E-03   0.22E+03   QNRc2DIIS    0.
   9  -345.200008974  -932.792135674   541.344706608  -0.10E-07*   0.63E-04*   0.79E-05     0.40E-03   0.22E+03   QNRc2DIIS    0.
  10  -345.200008975  -932.792259745   541.344830678  -0.65E-09    0.47E-04*   0.63E-05     0.94E-04   0.22E+03   QNRc2DIIS    0.
  11  -345.200008976  -932.792244505   541.344815437  -0.64E-09    0.10E-03*   0.12E-04     0.66E-04   0.22E+03   QNRc2DIIS    0.
  12  -345.200008975  -932.792223260   541.344794193   0.80E-09    0.44E-05    0.83E-06     0.14E-03   0.22E+03   QNRc2DIIS    0.
 
       Convergence after 12 Macro Iterations
--
 
 *****************************************************************************************************************************
 *                                                                                                                           *
 *                                             SCF/KS-DFT Program, Final results                                             *
 *                                                                                                                           *
 *                                                                                                                           *
 *                                                                                                                           *
 *                                                       Final Results                                                       *
 *                                                                                                                           *
 *****************************************************************************************************************************
 
::    Total SCF energy                              -1345.2000089748
      One-electron energy                           -1932.7922232596
      Two-electron energy                             541.3447941926
      Nuclear repulsion energy                         46.2474200922
      Kinetic energy (interpolated)                  1398.9824905611
      Virial theorem                                    0.9615560009
      Total spin, S(S+1)                                7.1043191302
      Total spin, S                                     2.2118847929
      Max non-diagonal density matrix element           0.0000019150
      Max non-diagonal Fock matrix element              0.0000003216
 
 
      All orbitals with orbital energies smaller than  E(LUMO)+0.5 are printed
 
++    Molecular orbitals:
      -------------------
 
      Title: UHF orbitals (alpha)

      Molecular orbitals for symmetry species 1: a  
 
          Orbital            1         2         3         4         5         6         7         8         9        10    
          Energy         -264.2300  -33.0352  -28.1132  -28.1132  -28.0947  -21.3771   -4.9540   -3.5220   -3.5220   -3.4773
          Occ. No.          1.0000    1.0000    1.0000    1.0000    1.0000    1.0000    1.0000    1.0000    1.0000    1.0000
 
        1 O1     1s         0.0000    0.0000   -0.0000    0.0000   -0.0000    1.0000   -0.0001    0.0000   -0.0000    0.0000
        2 O1     2s        -0.0000    0.0001   -0.0000    0.0000   -0.0001    0.0003   -0.0005    0.0000   -0.0000    0.0021
        3 O1     3s        -0.0000    0.0001   -0.0000    0.0000   -0.0001   -0.0005   -0.0005    0.0000   -0.0000    0.0006
        4 O1     4s        -0.0000    0.0000   -0.0000    0.0000   -0.0000    0.0003   -0.0002    0.0000   -0.0000    0.0002
        5 O1     2px       -0.0000    0.0000    0.0000    0.0000    0.0000    0.0000    0.0000   -0.0000   -0.0000   -0.0000
        6 O1     3px       -0.0000    0.0000    0.0000    0.0000    0.0000    0.0000    0.0000    0.0002    0.0003   -0.0000
        7 O1     4px       -0.0000    0.0000   -0.0000   -0.0000    0.0000   -0.0000    0.0000    0.0003    0.0004    0.0000
        8 O1     2py        0.0000   -0.0000   -0.0000    0.0000   -0.0000   -0.0000   -0.0000    0.0000   -0.0000    0.0000
        9 O1     3py        0.0000   -0.0000   -0.0000    0.0000   -0.0000   -0.0000   -0.0000   -0.0003    0.0002    0.0000
       10 O1     4py        0.0000   -0.0000    0.0000   -0.0000   -0.0000    0.0000   -0.0000   -0.0004    0.0003   -0.0000
       11 O1     2pz        0.0000   -0.0000    0.0000   -0.0000    0.0001   -0.0004    0.0002   -0.0000    0.0000   -0.0019
       12 O1     3pz        0.0000   -0.0000    0.0000   -0.0000    0.0001   -0.0004    0.0000   -0.0000    0.0000   -0.0012
       13 O1     4pz       -0.0000    0.0000   -0.0000    0.0000    0.0000   -0.0002   -0.0003   -0.0000    0.0000   -0.0001
       14 O1     3d2-      -0.0000   -0.0000   -0.0000   -0.0000    0.0000   -0.0000   -0.0000   -0.0000   -0.0000   -0.0000
       15 O1     4d2-      -0.0000   -0.0000   -0.0000   -0.0000    0.0000    0.0000   -0.0000   -0.0000   -0.0000   -0.0000
       16 O1     3d1-       0.0000   -0.0000    0.0000   -0.0000    0.0000   -0.0000   -0.0000   -0.0002    0.0002   -0.0000
       17 O1     4d1-       0.0000   -0.0000    0.0000   -0.0000    0.0000    0.0000   -0.0000   -0.0002    0.0002   -0.0000
       18 O1     3d0       -0.0000    0.0000   -0.0000    0.0000   -0.0000   -0.0012   -0.0000    0.0000   -0.0000    0.0005
       19 O1     4d0       -0.0000    0.0000   -0.0000    0.0000   -0.0000    0.0013   -0.0000    0.0000   -0.0000    0.0003
       20 O1     3d1+      -0.0000    0.0000   -0.0000   -0.0000   -0.0000    0.0000    0.0000    0.0002    0.0002    0.0000
       21 O1     4d1+      -0.0000    0.0000   -0.0000   -0.0000   -0.0000   -0.0000    0.0000    0.0002    0.0002    0.0000
       22 O1     3d2+      -0.0000   -0.0000   -0.0000    0.0000    0.0000   -0.0000   -0.0000   -0.0000    0.0000   -0.0000
       23 O1     4d2+      -0.0000   -0.0000   -0.0000    0.0000    0.0000    0.0000   -0.0000   -0.0000    0.0000   -0.0000
       24 O1     4f3-       0.0000    0.0000   -0.0000   -0.0000   -0.0000   -0.0000    0.0000    0.0000    0.0000   -0.0000
       25 O1     4f2-      -0.0000   -0.0000    0.0000    0.0000   -0.0000    0.0000    0.0000    0.0000    0.0000    0.0000
       26 O1     4f1-      -0.0000    0.0000   -0.0000    0.0000   -0.0000   -0.0000    0.0000    0.0001   -0.0001    0.0000
       27 O1     4f0        0.0000    0.0000    0.0000   -0.0000   -0.0000   -0.0000   -0.0001    0.0000   -0.0000    0.0000
       28 O1     4f1+       0.0000   -0.0000    0.0000    0.0000    0.0000    0.0000   -0.0000   -0.0001   -0.0001   -0.0000
       29 O1     4f2+      -0.0000   -0.0000    0.0000   -0.0000   -0.0000    0.0000    0.0000    0.0000   -0.0000    0.0000
       30 O1     4f3+       0.0000    0.0000   -0.0000    0.0000   -0.0000   -0.0000    0.0000    0.0000   -0.0000   -0.0000
       31 FE2    1s         1.0000   -0.0000    0.0000   -0.0000   -0.0000   -0.0000   -0.0000   -0.0000    0.0000   -0.0000
       32 FE2    2s         0.0000    1.0000   -0.0000    0.0000   -0.0009   -0.0000   -0.0027   -0.0000    0.0000   -0.0001
       33 FE2    3s         0.0000    0.0027    0.0000   -0.0000    0.0001   -0.0002    1.0000    0.0000   -0.0000   -0.0037
       34 FE2    4s         0.0000   -0.0003    0.0000   -0.0000    0.0001   -0.0005    0.0016   -0.0000    0.0000   -0.0016
       35 FE2    5s        -0.0000    0.0002    0.0000   -0.0000    0.0000    0.0001    0.0000    0.0000   -0.0000    0.0007
       36 FE2    6s        -0.0000   -0.0001   -0.0000    0.0000   -0.0000    0.0000    0.0003   -0.0000    0.0000   -0.0001
       37 FE2    2px        0.0000   -0.0000   -0.6562   -0.7546    0.0000   -0.0000    0.0000    0.0016    0.0019   -0.0000
       38 FE2    3px       -0.0000   -0.0000   -0.0016   -0.0019    0.0000   -0.0000    0.0000   -0.6562   -0.7546    0.0000
       39 FE2    4px        0.0000    0.0000    0.0002    0.0002   -0.0000   -0.0000    0.0000    0.0045    0.0052    0.0000
       40 FE2    5px       -0.0000   -0.0000   -0.0006   -0.0006    0.0000   -0.0000   -0.0000   -0.0029   -0.0034   -0.0000
       41 FE2    6px        0.0000    0.0000    0.0003    0.0004   -0.0000   -0.0000   -0.0000   -0.0017   -0.0020   -0.0000
       42 FE2    2py       -0.0000    0.0000    0.7546   -0.6562   -0.0000    0.0000   -0.0000   -0.0019    0.0016    0.0000
       43 FE2    3py        0.0000    0.0000    0.0019   -0.0016   -0.0000    0.0000   -0.0000    0.7546   -0.6562   -0.0000
       44 FE2    4py       -0.0000   -0.0000   -0.0002    0.0002    0.0000    0.0000   -0.0000   -0.0052    0.0045   -0.0000
       45 FE2    5py        0.0000    0.0000    0.0006   -0.0006   -0.0000    0.0000    0.0000    0.0034   -0.0029    0.0000
       46 FE2    6py       -0.0000   -0.0000   -0.0004    0.0003    0.0000    0.0000    0.0000    0.0020   -0.0017    0.0000
       47 FE2    2pz        0.0000    0.0009    0.0000   -0.0000    1.0000   -0.0000   -0.0001   -0.0000    0.0000   -0.0022
       48 FE2    3pz       -0.0000    0.0000    0.0000   -0.0000    0.0022   -0.0001    0.0034    0.0000   -0.0000    0.9997
       49 FE2    4pz        0.0000   -0.0001    0.0000   -0.0000   -0.0001   -0.0004    0.0001   -0.0000    0.0000   -0.0064
       50 FE2    5pz       -0.0000    0.0000    0.0000   -0.0000    0.0007    0.0000    0.0008    0.0000   -0.0000    0.0031
       51 FE2    6pz       -0.0000   -0.0000   -0.0000    0.0000   -0.0004    0.0001    0.0000    0.0000   -0.0000    0.0019
       52 FE2    3d2-      -0.0000   -0.0000    0.0000    0.0000    0.0000   -0.0000   -0.0000    0.0000    0.0000    0.0000
       53 FE2    4d2-      -0.0000   -0.0000    0.0000    0.0000   -0.0000   -0.0000    0.0000    0.0000    0.0000   -0.0000
       54 FE2    5d2-       0.0000    0.0000   -0.0000   -0.0000   -0.0000   -0.0000    0.0000   -0.0000   -0.0000   -0.0000
       55 FE2    3d1-      -0.0000    0.0000    0.0001   -0.0001    0.0000    0.0000    0.0000    0.0013   -0.0011    0.0000
       56 FE2    4d1-       0.0000   -0.0000   -0.0000    0.0000   -0.0000    0.0000   -0.0000   -0.0007    0.0006   -0.0000
       57 FE2    5d1-      -0.0000    0.0000    0.0000   -0.0000    0.0000    0.0000    0.0000    0.0005   -0.0005    0.0000
       58 FE2    3d0       -0.0000   -0.0003    0.0000   -0.0000    0.0001   -0.0001   -0.0078    0.0000   -0.0000    0.0006
       59 FE2    4d0        0.0000    0.0002    0.0000   -0.0000    0.0000   -0.0002    0.0032   -0.0000    0.0000   -0.0006
       60 FE2    5d0       -0.0000   -0.0002    0.0000   -0.0000    0.0001    0.0000    0.0000    0.0000   -0.0000    0.0001
       61 FE2    3d1+       0.0000   -0.0000   -0.0001   -0.0001   -0.0000   -0.0000   -0.0000   -0.0011   -0.0013   -0.0000
       62 FE2    4d1+      -0.0000    0.0000    0.0000    0.0000    0.0000   -0.0000    0.0000    0.0006    0.0007    0.0000
       63 FE2    5d1+       0.0000   -0.0000   -0.0000   -0.0000   -0.0000   -0.0000   -0.0000   -0.0005   -0.0005   -0.0000
       64 FE2    3d2+      -0.0000   -0.0000    0.0000   -0.0000    0.0000   -0.0000   -0.0000    0.0000   -0.0000    0.0000
       65 FE2    4d2+      -0.0000   -0.0000    0.0000   -0.0000   -0.0000   -0.0000    0.0000    0.0000   -0.0000   -0.0000
       66 FE2    5d2+       0.0000    0.0000   -0.0000    0.0000   -0.0000   -0.0000    0.0000   -0.0000    0.0000   -0.0000
       67 FE2    4f3-      -0.0000    0.0000   -0.0000   -0.0000   -0.0000   -0.0000    0.0000   -0.0000   -0.0000   -0.0000
       68 FE2    5f3-       0.0000   -0.0000    0.0000    0.0000    0.0000   -0.0000   -0.0000    0.0000    0.0000    0.0000
       69 FE2    4f2-       0.0000    0.0000   -0.0000   -0.0000    0.0000   -0.0000    0.0000    0.0000    0.0000    0.0000
       70 FE2    5f2-       0.0000    0.0000    0.0000    0.0000   -0.0000   -0.0000    0.0000    0.0000    0.0000   -0.0000
       71 FE2    4f1-      -0.0000    0.0000   -0.0001    0.0001   -0.0000    0.0000    0.0000   -0.0036    0.0032   -0.0000
       72 FE2    5f1-       0.0000   -0.0000    0.0001   -0.0001    0.0000    0.0000   -0.0000    0.0006   -0.0006   -0.0000
       73 FE2    4f0        0.0000   -0.0000   -0.0000    0.0000   -0.0000   -0.0000    0.0000   -0.0000    0.0000   -0.0010
       74 FE2    5f0        0.0000   -0.0000    0.0000   -0.0000    0.0001   -0.0001    0.0003    0.0000   -0.0000    0.0002
       75 FE2    4f1+       0.0000   -0.0000    0.0001    0.0001    0.0000   -0.0000   -0.0000    0.0032    0.0036    0.0000
       76 FE2    5f1+      -0.0000    0.0000   -0.0001   -0.0001   -0.0000   -0.0000    0.0000   -0.0006   -0.0006    0.0000
       77 FE2    4f2+      -0.0000    0.0000   -0.0000    0.0000    0.0000   -0.0000    0.0000    0.0000   -0.0000    0.0000
       78 FE2    5f2+       0.0000    0.0000    0.0000   -0.0000   -0.0000   -0.0000    0.0000    0.0000   -0.0000   -0.0000
       79 FE2    4f3+       0.0000    0.0000   -0.0000    0.0000   -0.0000   -0.0000    0.0000   -0.0000    0.0000   -0.0000
       80 FE2    5f3+      -0.0000   -0.0000    0.0000   -0.0000    0.0000    0.0000   -0.0000    0.0000   -0.0000    0.0000
       81 FE2    5g4-       0.0000    0.0000   -0.0000   -0.0000   -0.0000    0.0000    0.0000   -0.0000   -0.0000    0.0000
       82 FE2    5g3-       0.0000   -0.0000   -0.0000   -0.0000    0.0000    0.0000   -0.0000   -0.0000   -0.0000    0.0000
       83 FE2    5g2-       0.0000    0.0000   -0.0000   -0.0000   -0.0000   -0.0000    0.0000   -0.0000   -0.0000   -0.0000
       84 FE2    5g1-       0.0000   -0.0000   -0.0000    0.0000    0.0000    0.0000   -0.0000   -0.0001    0.0000    0.0000
       85 FE2    5g0        0.0000    0.0001   -0.0000    0.0000   -0.0000   -0.0000    0.0018   -0.0000    0.0000   -0.0000
       86 FE2    5g1+      -0.0000    0.0000    0.0000    0.0000   -0.0000   -0.0000    0.0000    0.0000    0.0001   -0.0000
       87 FE2    5g2+       0.0000    0.0000   -0.0000    0.0000   -0.0000   -0.0000    0.0000   -0.0000    0.0000   -0.0000
       88 FE2    5g3+      -0.0000   -0.0000   -0.0000    0.0000    0.0000    0.0000   -0.0000   -0.0000    0.0000    0.0000
       89 FE2    5g4+      -0.0000   -0.0000   -0.0000    0.0000    0.0000    0.0000   -0.0000   -0.0000    0.0000   -0.0000
 
          Orbital           11        12        13        14        15        16        17        18        19        20    
          Energy           -1.8997   -1.2726   -1.2726   -1.2351   -1.2351   -1.2108   -1.1876   -1.1876   -0.5432   -0.4463
          Occ. No.          1.0000    1.0000    1.0000    1.0000    1.0000    1.0000    1.0000    1.0000    0.0000    0.0000
 
        1 O1     1s        -0.0002   -0.0000    0.0000   -0.0000   -0.0000   -0.0026   -0.0000    0.0000   -0.0116   -0.0058
        2 O1     2s         0.9955   -0.0000    0.0000   -0.0000   -0.0000   -0.0562   -0.0000    0.0000   -0.1526   -0.0498
        3 O1     3s        -0.0497    0.0000   -0.0000   -0.0000   -0.0000   -0.0012    0.0000   -0.0000   -0.0176   -0.0110
        4 O1     4s        -0.0080    0.0000   -0.0000   -0.0000   -0.0000   -0.0002    0.0000   -0.0000   -0.0038   -0.0020
        5 O1     2px       -0.0000    0.7423    0.6457   -0.0000    0.0000    0.0000    0.0818    0.0940    0.0000   -0.0000
        6 O1     3px        0.0000   -0.0815   -0.0709    0.0000   -0.0000   -0.0000   -0.0121   -0.0140    0.0000   -0.0000
        7 O1     4px       -0.0000   -0.0079   -0.0068    0.0000   -0.0000   -0.0000   -0.0029   -0.0033   -0.0000   -0.0000
        8 O1     2py        0.0000    0.6457   -0.7423    0.0000    0.0000   -0.0000   -0.0940    0.0818   -0.0000    0.0000
        9 O1     3py       -0.0000   -0.0709    0.0815   -0.0000   -0.0000    0.0000    0.0140   -0.0121   -0.0000    0.0000
       10 O1     4py        0.0000   -0.0068    0.0079   -0.0000   -0.0000    0.0000    0.0033   -0.0029    0.0000    0.0000
       11 O1     2pz       -0.0436   -0.0000    0.0000   -0.0000   -0.0000   -0.0272    0.0000   -0.0000   -0.7021    0.5976
       12 O1     3pz       -0.0009    0.0000   -0.0000    0.0000    0.0000    0.0111   -0.0000    0.0000   -0.0809    0.1074
       13 O1     4pz        0.0034    0.0000   -0.0000    0.0000    0.0000    0.0031    0.0000   -0.0000    0.0069    0.0034
       14 O1     3d2-      -0.0000   -0.0000   -0.0000    0.0006   -0.0001   -0.0000   -0.0000   -0.0000   -0.0000    0.0000
       15 O1     4d2-       0.0000   -0.0000   -0.0000    0.0004   -0.0000   -0.0000   -0.0000   -0.0000    0.0000    0.0000
       16 O1     3d1-      -0.0000   -0.0100    0.0115    0.0000    0.0000    0.0000    0.0004   -0.0003    0.0000   -0.0000
       17 O1     4d1-       0.0000   -0.0041    0.0047    0.0000    0.0000    0.0000    0.0006   -0.0005    0.0000   -0.0000
       18 O1     3d0       -0.0403    0.0000   -0.0000    0.0000    0.0000    0.0047    0.0000   -0.0000    0.0224   -0.0099
       19 O1     4d0        0.0037    0.0000   -0.0000   -0.0000   -0.0000   -0.0001   -0.0000    0.0000    0.0084   -0.0058
       20 O1     3d1+       0.0000   -0.0115   -0.0100   -0.0000    0.0000   -0.0000   -0.0003   -0.0004   -0.0000    0.0000
       21 O1     4d1+      -0.0000   -0.0047   -0.0041   -0.0000    0.0000   -0.0000   -0.0005   -0.0006   -0.0000    0.0000
       22 O1     3d2+      -0.0000    0.0000   -0.0000    0.0001    0.0006   -0.0000   -0.0000    0.0000   -0.0000    0.0000
       23 O1     4d2+       0.0000    0.0000   -0.0000    0.0000    0.0004   -0.0000   -0.0000    0.0000    0.0000    0.0000
       24 O1     4f3-      -0.0000   -0.0000   -0.0000    0.0000    0.0000   -0.0000   -0.0000   -0.0000   -0.0000    0.0000
       25 O1     4f2-       0.0000   -0.0000   -0.0000   -0.0000    0.0000    0.0000   -0.0000   -0.0000   -0.0000    0.0000
       26 O1     4f1-       0.0000   -0.0045    0.0052   -0.0000   -0.0000    0.0000    0.0009   -0.0008    0.0000   -0.0000
       27 O1     4f0        0.0002    0.0000   -0.0000   -0.0000   -0.0000   -0.0002   -0.0000    0.0000    0.0059   -0.0047
       28 O1     4f1+      -0.0000   -0.0052   -0.0045    0.0000   -0.0000   -0.0000   -0.0008   -0.0009   -0.0000    0.0000
       29 O1     4f2+       0.0000    0.0000   -0.0000   -0.0000   -0.0000    0.0000   -0.0000    0.0000   -0.0000    0.0000
       30 O1     4f3+      -0.0000    0.0000   -0.0000   -0.0000    0.0000   -0.0000   -0.0000    0.0000    0.0000   -0.0000
       31 FE2    1s        -0.0001   -0.0000    0.0000    0.0000    0.0000    0.0000    0.0000   -0.0000   -0.0008    0.0010
       32 FE2    2s        -0.0006   -0.0000    0.0000    0.0000    0.0000    0.0006    0.0000   -0.0000   -0.0059    0.0072
       33 FE2    3s        -0.0055   -0.0000    0.0000    0.0000    0.0000    0.0097    0.0000   -0.0000   -0.0330    0.0358
       34 FE2    4s         0.0034    0.0000   -0.0000    0.0000    0.0000    0.0067   -0.0000    0.0000    0.5343    0.8767
       35 FE2    5s        -0.0027   -0.0000    0.0000   -0.0000   -0.0000   -0.0028    0.0000   -0.0000   -0.1152   -0.0957
       36 FE2    6s         0.0008   -0.0000    0.0000   -0.0000   -0.0000   -0.0011   -0.0000    0.0000    0.0053   -0.0152
       37 FE2    2px        0.0000   -0.0001   -0.0001   -0.0000    0.0000   -0.0000    0.0000    0.0001   -0.0000    0.0000
       38 FE2    3px        0.0000   -0.0027   -0.0024    0.0000   -0.0000   -0.0000    0.0011    0.0012   -0.0000    0.0000
       39 FE2    4px        0.0000    0.0074    0.0064   -0.0000    0.0000   -0.0000    0.0043    0.0049    0.0000   -0.0000
       40 FE2    5px        0.0000    0.0011    0.0009    0.0000   -0.0000    0.0000   -0.0005   -0.0006    0.0000   -0.0000
       41 FE2    6px        0.0000    0.0006    0.0005    0.0000   -0.0000   -0.0000    0.0004    0.0005   -0.0000    0.0000
       42 FE2    2py       -0.0000   -0.0001    0.0001    0.0000    0.0000    0.0000   -0.0001    0.0000    0.0000   -0.0000
       43 FE2    3py       -0.0000   -0.0024    0.0027   -0.0000   -0.0000    0.0000   -0.0012    0.0011    0.0000   -0.0000
       44 FE2    4py       -0.0000    0.0064   -0.0074    0.0000    0.0000    0.0000   -0.0049    0.0043   -0.0000    0.0000
       45 FE2    5py       -0.0000    0.0009   -0.0011   -0.0000   -0.0000   -0.0000    0.0006   -0.0005   -0.0000    0.0000
       46 FE2    6py       -0.0000    0.0005   -0.0006   -0.0000   -0.0000    0.0000   -0.0005    0.0004    0.0000   -0.0000
       47 FE2    2pz       -0.0003   -0.0000    0.0000   -0.0000   -0.0000   -0.0000   -0.0000    0.0000   -0.0011    0.0012
       48 FE2    3pz       -0.0107   -0.0000    0.0000   -0.0000   -0.0000   -0.0002    0.0000   -0.0000   -0.0245    0.0267
       49 FE2    4pz        0.0030    0.0000   -0.0000    0.0000    0.0000    0.0065   -0.0000    0.0000    0.1211   -0.2245
       50 FE2    5pz       -0.0024   -0.0000    0.0000   -0.0000   -0.0000   -0.0016    0.0000   -0.0000   -0.0014   -0.0046
       51 FE2    6pz       -0.0021   -0.0000    0.0000   -0.0000   -0.0000   -0.0031    0.0000   -0.0000   -0.0075    0.0082
       52 FE2    3d2-       0.0000    0.0000    0.0000    0.9922   -0.0935   -0.0000    0.0000    0.0000   -0.0000   -0.0000
       53 FE2    4d2-      -0.0000   -0.0000   -0.0000   -0.0750    0.0071    0.0000    0.0000    0.0000   -0.0000   -0.0000
       54 FE2    5d2-      -0.0000   -0.0000   -0.0000   -0.0315    0.0030    0.0000   -0.0000   -0.0000    0.0000   -0.0000
       55 FE2    3d1-      -0.0000    0.0711   -0.0817   -0.0000   -0.0000   -0.0000    0.7479   -0.6504    0.0000    0.0000
       56 FE2    4d1-      -0.0000   -0.0009    0.0011    0.0000    0.0000    0.0000   -0.0500    0.0435   -0.0000    0.0000
       57 FE2    5d1-      -0.0000   -0.0006    0.0007    0.0000    0.0000    0.0000   -0.0243    0.0211   -0.0000    0.0000
       58 FE2    3d0        0.0178    0.0000   -0.0000    0.0000    0.0000    0.9960    0.0000   -0.0000   -0.0631    0.0547
       59 FE2    4d0       -0.0002   -0.0000    0.0000   -0.0000   -0.0000   -0.0672   -0.0000    0.0000    0.0178   -0.0385
       60 FE2    5d0       -0.0015   -0.0000    0.0000   -0.0000   -0.0000   -0.0319   -0.0000    0.0000    0.0089   -0.0155
       61 FE2    3d1+       0.0000    0.0817    0.0711    0.0000   -0.0000    0.0000   -0.6504   -0.7479   -0.0000   -0.0000
       62 FE2    4d1+       0.0000   -0.0011   -0.0009   -0.0000    0.0000   -0.0000    0.0435    0.0500    0.0000   -0.0000
       63 FE2    5d1+       0.0000   -0.0007   -0.0006   -0.0000    0.0000   -0.0000    0.0211    0.0243    0.0000   -0.0000
       64 FE2    3d2+       0.0000   -0.0000    0.0000    0.0935    0.9922   -0.0000    0.0000   -0.0000   -0.0000   -0.0000
       65 FE2    4d2+      -0.0000    0.0000   -0.0000   -0.0071   -0.0750    0.0000    0.0000   -0.0000   -0.0000   -0.0000
       66 FE2    5d2+      -0.0000    0.0000   -0.0000   -0.0030   -0.0315    0.0000   -0.0000    0.0000    0.0000   -0.0000
       67 FE2    4f3-       0.0000   -0.0000   -0.0000   -0.0000   -0.0000    0.0000    0.0000    0.0000   -0.0000   -0.0000
       68 FE2    5f3-      -0.0000    0.0000    0.0000   -0.0000   -0.0000    0.0000    0.0000    0.0000   -0.0000   -0.0000
       69 FE2    4f2-       0.0000   -0.0000   -0.0000   -0.0001    0.0000    0.0000    0.0000    0.0000    0.0000    0.0000
       70 FE2    5f2-       0.0000   -0.0000   -0.0000   -0.0007    0.0001    0.0000    0.0000    0.0000   -0.0000    0.0000
       71 FE2    4f1-      -0.0000    0.0014   -0.0016   -0.0000   -0.0000   -0.0000   -0.0000    0.0000   -0.0000    0.0000
       72 FE2    5f1-      -0.0000    0.0012   -0.0013    0.0000    0.0000   -0.0000   -0.0004    0.0003   -0.0000    0.0000
       73 FE2    4f0        0.0015    0.0000   -0.0000    0.0000    0.0000    0.0012    0.0000   -0.0000    0.0054   -0.0043
       74 FE2    5f0        0.0012    0.0000   -0.0000    0.0000    0.0000    0.0006    0.0000   -0.0000    0.0039   -0.0030
       75 FE2    4f1+       0.0000    0.0016    0.0014    0.0000   -0.0000    0.0000    0.0000    0.0000    0.0000   -0.0000
       76 FE2    5f1+       0.0000    0.0013    0.0012   -0.0000    0.0000    0.0000    0.0003    0.0004    0.0000   -0.0000
       77 FE2    4f2+       0.0000    0.0000   -0.0000   -0.0000   -0.0001    0.0000    0.0000   -0.0000    0.0000    0.0000
       78 FE2    5f2+       0.0000    0.0000   -0.0000   -0.0001   -0.0007    0.0000    0.0000   -0.0000   -0.0000    0.0000
       79 FE2    4f3+       0.0000    0.0000   -0.0000    0.0000   -0.0000   -0.0000    0.0000   -0.0000   -0.0000   -0.0000
       80 FE2    5f3+      -0.0000   -0.0000    0.0000    0.0000   -0.0000    0.0000    0.0000   -0.0000   -0.0000   -0.0000
       81 FE2    5g4-       0.0000   -0.0000   -0.0000    0.0000    0.0000   -0.0000    0.0000    0.0000   -0.0000   -0.0000
       82 FE2    5g3-       0.0000    0.0000    0.0000    0.0000    0.0000    0.0000   -0.0000   -0.0000   -0.0000   -0.0000
       83 FE2    5g2-       0.0000   -0.0000   -0.0000   -0.0035    0.0003    0.0000    0.0000    0.0000    0.0000   -0.0000
       84 FE2    5g1-      -0.0000    0.0000   -0.0000    0.0000    0.0000   -0.0000   -0.0017    0.0015   -0.0000    0.0000
       85 FE2    5g0        0.0002   -0.0000    0.0000   -0.0000   -0.0000   -0.0013   -0.0000    0.0000    0.0006   -0.0002
       86 FE2    5g1+       0.0000    0.0000    0.0000   -0.0000    0.0000    0.0000    0.0015    0.0017    0.0000   -0.0000
       87 FE2    5g2+       0.0000    0.0000   -0.0000   -0.0003   -0.0035    0.0000    0.0000   -0.0000    0.0000   -0.0000
       88 FE2    5g3+       0.0000   -0.0000    0.0000   -0.0000    0.0000    0.0000   -0.0000    0.0000   -0.0000   -0.0000
       89 FE2    5g4+       0.0000    0.0000   -0.0000   -0.0000    0.0000    0.0000    0.0000   -0.0000    0.0000    0.0000
 
          Orbital           21        22        23        24        25        26        27        28        29        30    
          Energy           -0.3363   -0.3363   -0.2855   -0.2064   -0.1185   -0.1185   -0.0996   -0.0996   -0.0934   -0.0691
          Occ. No.          0.0000    0.0000    0.0000    0.0000    0.0000    0.0000    0.0000    0.0000    0.0000    0.0000
 
        1 O1     1s         0.0000   -0.0000   -0.0440   -0.0107    0.0000   -0.0000   -0.0000    0.0000   -0.0434   -0.0490
        2 O1     2s         0.0000   -0.0000   -0.3972   -0.0889    0.0000   -0.0000   -0.0000    0.0000   -0.3658   -0.4027
        3 O1     3s         0.0000   -0.0000   -0.1116   -0.0453    0.0000   -0.0000   -0.0000    0.0000   -0.0874   -0.1146
        4 O1     4s         0.0000   -0.0000   -0.0240   -0.0118    0.0000   -0.0000   -0.0000    0.0000   -0.0130   -0.0188
        5 O1     2px        0.0660    0.0759   -0.0000    0.0000   -0.0191   -0.0166    0.0000   -0.0000    0.0000    0.0000
        6 O1     3px       -0.0082   -0.0094   -0.0000    0.0000    0.4207    0.3657    0.0000   -0.0000   -0.0000   -0.0000
        7 O1     4px       -0.0038   -0.0043   -0.0000    0.0000    0.1708    0.1485    0.0000   -0.0000   -0.0000   -0.0000
        8 O1     2py       -0.0759    0.0660    0.0000   -0.0000   -0.0166    0.0191    0.0000    0.0000   -0.0000   -0.0000
        9 O1     3py        0.0094   -0.0082    0.0000   -0.0000    0.3657   -0.4207    0.0000    0.0000    0.0000    0.0000
       10 O1     4py        0.0043   -0.0038    0.0000   -0.0000    0.1485   -0.1708    0.0000    0.0000    0.0000    0.0000
       11 O1     2pz       -0.0000    0.0000    0.3981   -0.1856   -0.0000    0.0000    0.0000   -0.0000    0.1562    0.0427
       12 O1     3pz       -0.0000    0.0000    0.1683   -0.0021   -0.0000    0.0000    0.0000   -0.0000    0.6605    0.4287
       13 O1     4pz       -0.0000    0.0000    0.0226    0.0111   -0.0000    0.0000    0.0000   -0.0000    0.2547    0.1551
       14 O1     3d2-      -0.0000   -0.0000    0.0000    0.0000   -0.0000   -0.0000    0.0291   -0.0030   -0.0000    0.0000
       15 O1     4d2-       0.0000    0.0000    0.0000    0.0000   -0.0000   -0.0000    0.0170   -0.0017    0.0000    0.0000
       16 O1     3d1-      -0.0073    0.0064    0.0000    0.0000   -0.0065    0.0075   -0.0000   -0.0000   -0.0000    0.0000
       17 O1     4d1-      -0.0029    0.0026   -0.0000    0.0000   -0.0034    0.0039   -0.0000   -0.0000   -0.0000   -0.0000
       18 O1     3d0        0.0000   -0.0000   -0.0109   -0.0105    0.0000   -0.0000   -0.0000    0.0000   -0.0105   -0.0445
       19 O1     4d0        0.0000   -0.0000   -0.0125   -0.0056    0.0000   -0.0000   -0.0000    0.0000   -0.0184   -0.0359
       20 O1     3d1+       0.0064    0.0073   -0.0000   -0.0000   -0.0075   -0.0065   -0.0000    0.0000    0.0000   -0.0000
       21 O1     4d1+       0.0026    0.0029    0.0000   -0.0000   -0.0039   -0.0034   -0.0000    0.0000    0.0000    0.0000
       22 O1     3d2+      -0.0000    0.0000    0.0000    0.0000    0.0000   -0.0000   -0.0030   -0.0291   -0.0000    0.0000
       23 O1     4d2+       0.0000   -0.0000    0.0000    0.0000    0.0000   -0.0000   -0.0017   -0.0170    0.0000    0.0000
       24 O1     4f3-       0.0000    0.0000   -0.0000   -0.0000   -0.0000   -0.0000    0.0000    0.0000   -0.0000   -0.0000
       25 O1     4f2-      -0.0000   -0.0000    0.0000   -0.0000    0.0000    0.0000   -0.0019    0.0002   -0.0000   -0.0000
       26 O1     4f1-       0.0006   -0.0005   -0.0000    0.0000    0.0002   -0.0003    0.0000    0.0000    0.0000    0.0000
       27 O1     4f0        0.0000   -0.0000   -0.0009    0.0016   -0.0000    0.0000    0.0000   -0.0000    0.0051    0.0074
       28 O1     4f1+      -0.0005   -0.0006    0.0000   -0.0000    0.0003    0.0002    0.0000   -0.0000   -0.0000   -0.0000
       29 O1     4f2+      -0.0000    0.0000    0.0000   -0.0000   -0.0000    0.0000    0.0002    0.0019   -0.0000   -0.0000
       30 O1     4f3+       0.0000   -0.0000   -0.0000    0.0000    0.0000   -0.0000    0.0000   -0.0000    0.0000    0.0000
       31 FE2    1s        -0.0000    0.0000    0.0013   -0.0000   -0.0000    0.0000    0.0000   -0.0000    0.0042    0.0028
       32 FE2    2s        -0.0000    0.0000    0.0098   -0.0002   -0.0000    0.0000    0.0000   -0.0000    0.0304    0.0201
       33 FE2    3s        -0.0000    0.0000    0.0508   -0.0009   -0.0000    0.0000    0.0000   -0.0000    0.1424    0.0966
       34 FE2    4s        -0.0000    0.0000    0.3604    0.1303   -0.0000    0.0000    0.0000   -0.0000    0.4423    0.3851
       35 FE2    5s        -0.0000    0.0000    0.1210    0.9289    0.0000   -0.0000   -0.0000    0.0000   -0.3114    0.2293
       36 FE2    6s         0.0000   -0.0000    0.0158    0.3484    0.0000   -0.0000   -0.0000    0.0000    0.3860   -0.8648
       37 FE2    2px       -0.0001   -0.0002    0.0000   -0.0000   -0.0009   -0.0008   -0.0000    0.0000    0.0000    0.0000
       38 FE2    3px       -0.0039   -0.0045    0.0000   -0.0000   -0.0184   -0.0160   -0.0000    0.0000    0.0000    0.0000
       39 FE2    4px       -0.6435   -0.7400   -0.0000   -0.0000   -0.2127   -0.1849   -0.0000    0.0000    0.0000    0.0000
       40 FE2    5px       -0.1125   -0.1294   -0.0000    0.0000   -0.0246   -0.0213    0.0000   -0.0000   -0.0000    0.0000
       41 FE2    6px       -0.0640   -0.0736   -0.0000    0.0000   -0.0072   -0.0062    0.0000   -0.0000   -0.0000    0.0000
       42 FE2    2py        0.0002   -0.0001   -0.0000    0.0000   -0.0008    0.0009   -0.0000   -0.0000   -0.0000   -0.0000
       43 FE2    3py        0.0045   -0.0039   -0.0000    0.0000   -0.0160    0.0184   -0.0000   -0.0000   -0.0000   -0.0000
       44 FE2    4py        0.7400   -0.6435    0.0000    0.0000   -0.1849    0.2127   -0.0000   -0.0000   -0.0000   -0.0000
       45 FE2    5py        0.1294   -0.1125    0.0000   -0.0000   -0.0213    0.0246    0.0000    0.0000    0.0000   -0.0000
       46 FE2    6py        0.0736   -0.0640    0.0000   -0.0000   -0.0062    0.0072    0.0000    0.0000    0.0000   -0.0000
       47 FE2    2pz       -0.0000    0.0000    0.0019   -0.0001   -0.0000    0.0000    0.0000   -0.0000    0.0038    0.0027
       48 FE2    3pz       -0.0000    0.0000    0.0405   -0.0022   -0.0000    0.0000    0.0000   -0.0000    0.0672    0.0488
       49 FE2    4pz       -0.0000    0.0000    1.0744   -0.0992   -0.0000    0.0000    0.0000   -0.0000    0.2675    0.2237
       50 FE2    5pz       -0.0000    0.0000    0.2637   -0.0193   -0.0000    0.0000    0.0000   -0.0000    0.1455    0.1378
       51 FE2    6pz       -0.0000    0.0000    0.1733   -0.0118   -0.0000    0.0000    0.0000   -0.0000    0.1124    0.1080
       52 FE2    3d2-      -0.0000   -0.0000    0.0000    0.0000   -0.0000   -0.0000    0.0788   -0.0081   -0.0000   -0.0000
       53 FE2    4d2-       0.0000    0.0000    0.0000    0.0000   -0.0000   -0.0000    0.8167   -0.0837   -0.0000   -0.0000
       54 FE2    5d2-       0.0000    0.0000    0.0000    0.0000   -0.0000   -0.0000    0.5545   -0.0568   -0.0000   -0.0000
       55 FE2    3d1-       0.0031   -0.0027    0.0000   -0.0000    0.0061   -0.0070    0.0000    0.0000    0.0000    0.0000
       56 FE2    4d1-       0.0084   -0.0073   -0.0000   -0.0000    0.3282   -0.3776    0.0000    0.0000    0.0000    0.0000
       57 FE2    5d1-       0.0065   -0.0057   -0.0000   -0.0000    0.2240   -0.2577    0.0000    0.0000    0.0000    0.0000
       58 FE2    3d0       -0.0000    0.0000    0.0503   -0.0010   -0.0000    0.0000    0.0000   -0.0000    0.0873    0.0700
       59 FE2    4d0        0.0000   -0.0000   -0.0572    0.0578   -0.0000    0.0000    0.0000   -0.0000    0.5334    0.3777
       60 FE2    5d0        0.0000   -0.0000   -0.0307    0.0335   -0.0000    0.0000    0.0000   -0.0000    0.3576    0.2482
       61 FE2    3d1+      -0.0027   -0.0031   -0.0000    0.0000    0.0070    0.0061    0.0000   -0.0000   -0.0000   -0.0000
       62 FE2    4d1+      -0.0073   -0.0084    0.0000    0.0000    0.3776    0.3282    0.0000   -0.0000   -0.0000   -0.0000
       63 FE2    5d1+      -0.0057   -0.0065    0.0000    0.0000    0.2577    0.2240    0.0000   -0.0000   -0.0000   -0.0000
       64 FE2    3d2+      -0.0000    0.0000    0.0000    0.0000    0.0000   -0.0000   -0.0081   -0.0788   -0.0000   -0.0000
       65 FE2    4d2+       0.0000   -0.0000    0.0000    0.0000    0.0000   -0.0000   -0.0837   -0.8167   -0.0000   -0.0000
       66 FE2    5d2+       0.0000   -0.0000    0.0000    0.0000    0.0000   -0.0000   -0.0568   -0.5545   -0.0000   -0.0000
       67 FE2    4f3-       0.0000    0.0000   -0.0000    0.0000    0.0000    0.0000    0.0000    0.0000    0.0000    0.0000
       68 FE2    5f3-       0.0000    0.0000   -0.0000    0.0000    0.0000    0.0000    0.0000    0.0000    0.0000    0.0000
       69 FE2    4f2-       0.0000    0.0000   -0.0000    0.0000   -0.0000   -0.0000    0.0010   -0.0001    0.0000    0.0000
       70 FE2    5f2-       0.0000    0.0000   -0.0000    0.0000   -0.0000   -0.0000    0.0013   -0.0001    0.0000    0.0000
       71 FE2    4f1-      -0.0014    0.0012   -0.0000    0.0000   -0.0006    0.0006   -0.0000   -0.0000   -0.0000   -0.0000
       72 FE2    5f1-      -0.0018    0.0016   -0.0000    0.0000   -0.0011    0.0013   -0.0000   -0.0000   -0.0000   -0.0000
       73 FE2    4f0        0.0000   -0.0000   -0.0055    0.0021   -0.0000    0.0000   -0.0000    0.0000    0.0063    0.0019
       74 FE2    5f0        0.0000   -0.0000   -0.0039    0.0021   -0.0000    0.0000   -0.0000    0.0000    0.0069    0.0031
       75 FE2    4f1+       0.0012    0.0014    0.0000   -0.0000   -0.0006   -0.0006   -0.0000    0.0000    0.0000    0.0000
       76 FE2    5f1+       0.0016    0.0018    0.0000   -0.0000   -0.0013   -0.0011   -0.0000    0.0000    0.0000    0.0000
       77 FE2    4f2+       0.0000   -0.0000   -0.0000    0.0000    0.0000   -0.0000   -0.0001   -0.0010    0.0000    0.0000
       78 FE2    5f2+       0.0000   -0.0000   -0.0000    0.0000    0.0000   -0.0000   -0.0001   -0.0013    0.0000    0.0000
       79 FE2    4f3+       0.0000   -0.0000   -0.0000    0.0000   -0.0000    0.0000    0.0000   -0.0000    0.0000    0.0000
       80 FE2    5f3+       0.0000   -0.0000   -0.0000    0.0000   -0.0000    0.0000    0.0000   -0.0000    0.0000    0.0000
       81 FE2    5g4-       0.0000    0.0000    0.0000   -0.0000    0.0000    0.0000    0.0000   -0.0000    0.0000   -0.0000
       82 FE2    5g3-      -0.0000   -0.0000   -0.0000    0.0000    0.0000    0.0000    0.0000    0.0000   -0.0000    0.0000
       83 FE2    5g2-       0.0000    0.0000   -0.0000    0.0000   -0.0000   -0.0000    0.0007   -0.0001    0.0000    0.0000
       84 FE2    5g1-       0.0001   -0.0000   -0.0000    0.0000   -0.0001    0.0001    0.0000    0.0000   -0.0000    0.0000
       85 FE2    5g0        0.0000   -0.0000   -0.0001    0.0000   -0.0000    0.0000   -0.0000    0.0000    0.0008    0.0002
       86 FE2    5g1+      -0.0000   -0.0001    0.0000   -0.0000   -0.0001   -0.0001    0.0000   -0.0000    0.0000   -0.0000
       87 FE2    5g2+       0.0000   -0.0000   -0.0000    0.0000    0.0000   -0.0000   -0.0001   -0.0007    0.0000    0.0000
       88 FE2    5g3+      -0.0000    0.0000   -0.0000    0.0000   -0.0000    0.0000    0.0000   -0.0000   -0.0000    0.0000
       89 FE2    5g4+       0.0000   -0.0000   -0.0000    0.0000   -0.0000    0.0000   -0.0000   -0.0000   -0.0000   -0.0000
--
 
 
  Input file to MOLDEN was generated!
 
 
++    Static properties:
      ------------------
 
 
      LoProp Charges per center
 

                   O1       FE2   
      Nuclear      8.0000  26.0000
      Electronic  -7.5562 -24.4438
 
      Total        0.4438   1.5562
--
 
 
      All orbitals with orbital energies smaller than  E(LUMO)+0.5 are printed
 
++    Molecular orbitals:
      -------------------
 
      Title: UHF orbitals (beta)

      Molecular orbitals for symmetry species 1: a  
 
          Orbital            1         2         3         4         5         6         7         8         9        10    
          Energy         -264.2283  -32.9192  -27.9922  -27.9922  -27.9921  -21.3456   -4.6204   -3.1273   -3.0927   -3.0927
          Occ. No.          1.0000    1.0000    1.0000    1.0000    1.0000    1.0000    1.0000    1.0000    1.0000    1.0000
 
        1 O1     1s         0.0000   -0.0000   -0.0000    0.0000   -0.0000    0.9999   -0.0001   -0.0002   -0.0000    0.0000
        2 O1     2s        -0.0000   -0.0000   -0.0000    0.0000   -0.0001   -0.0018   -0.0004    0.0049    0.0000   -0.0000
        3 O1     3s        -0.0000   -0.0000   -0.0000    0.0000   -0.0001   -0.0006   -0.0010   -0.0001   -0.0000    0.0000
        4 O1     4s        -0.0000   -0.0000   -0.0000    0.0000   -0.0000   -0.0008   -0.0004   -0.0001   -0.0000    0.0000
        5 O1     2px       -0.0000    0.0000   -0.0000   -0.0000    0.0000   -0.0000   -0.0000   -0.0000    0.0026    0.0022
        6 O1     3px       -0.0000    0.0000    0.0000    0.0000   -0.0000   -0.0000   -0.0000    0.0000    0.0001    0.0001
        7 O1     4px       -0.0000    0.0000    0.0000    0.0000   -0.0000   -0.0000   -0.0000    0.0000    0.0000    0.0000
        8 O1     2py        0.0000   -0.0000    0.0000   -0.0000   -0.0000    0.0000    0.0000    0.0000    0.0022   -0.0026
        9 O1     3py        0.0000   -0.0000   -0.0000    0.0000    0.0000    0.0000    0.0000   -0.0000    0.0001   -0.0001
       10 O1     4py        0.0000   -0.0000   -0.0000    0.0000    0.0000    0.0000    0.0000   -0.0000    0.0000   -0.0000
       11 O1     2pz        0.0000    0.0001   -0.0000    0.0000   -0.0000    0.0003    0.0007   -0.0028   -0.0000    0.0000
       12 O1     3pz        0.0000    0.0001   -0.0000    0.0000   -0.0001    0.0006    0.0012    0.0017    0.0000   -0.0000
       13 O1     4pz       -0.0000    0.0000   -0.0000    0.0000   -0.0001    0.0001   -0.0001    0.0007    0.0000   -0.0000
       14 O1     3d2-       0.0000    0.0000    0.0000    0.0000   -0.0000    0.0000    0.0000    0.0000   -0.0000   -0.0000
       15 O1     4d2-      -0.0000   -0.0000    0.0000    0.0000   -0.0000   -0.0000    0.0000    0.0000    0.0000    0.0000
       16 O1     3d1-      -0.0000    0.0000   -0.0000    0.0000    0.0000    0.0000    0.0000   -0.0000   -0.0004    0.0005
       17 O1     4d1-      -0.0000    0.0000   -0.0000    0.0000    0.0000   -0.0000    0.0000   -0.0000   -0.0001    0.0002
       18 O1     3d0       -0.0000   -0.0000    0.0000   -0.0000    0.0000    0.0010   -0.0004    0.0001    0.0000   -0.0000
       19 O1     4d0       -0.0000   -0.0000    0.0000   -0.0000    0.0000   -0.0013   -0.0004   -0.0003   -0.0000    0.0000
       20 O1     3d1+       0.0000   -0.0000    0.0000    0.0000   -0.0000   -0.0000   -0.0000    0.0000   -0.0005   -0.0004
       21 O1     4d1+       0.0000   -0.0000    0.0000    0.0000   -0.0000    0.0000   -0.0000    0.0000   -0.0002   -0.0001
       22 O1     3d2+      -0.0000    0.0000    0.0000   -0.0000   -0.0000    0.0000    0.0000    0.0000    0.0000   -0.0000
       23 O1     4d2+      -0.0000   -0.0000    0.0000   -0.0000   -0.0000   -0.0000    0.0000    0.0000   -0.0000    0.0000
       24 O1     4f3-       0.0000   -0.0000   -0.0000   -0.0000    0.0000    0.0000    0.0000    0.0000    0.0000    0.0000
       25 O1     4f2-      -0.0000   -0.0000   -0.0000   -0.0000    0.0000   -0.0000   -0.0000   -0.0000    0.0000    0.0000
       26 O1     4f1-       0.0000   -0.0000    0.0000   -0.0000   -0.0000    0.0000    0.0000    0.0000    0.0001   -0.0001
       27 O1     4f0        0.0000    0.0000    0.0000   -0.0000    0.0000    0.0001   -0.0000    0.0000   -0.0000    0.0000
       28 O1     4f1+      -0.0000    0.0000   -0.0000   -0.0000    0.0000   -0.0000   -0.0000   -0.0000    0.0001    0.0001
       29 O1     4f2+      -0.0000   -0.0000   -0.0000    0.0000    0.0000   -0.0000   -0.0000   -0.0000   -0.0000    0.0000
       30 O1     4f3+       0.0000    0.0000   -0.0000    0.0000    0.0000    0.0000    0.0000   -0.0000   -0.0000    0.0000
       31 FE2    1s         1.0000    0.0000   -0.0000    0.0000   -0.0000    0.0000    0.0000    0.0000    0.0000   -0.0000
       32 FE2    2s        -0.0000    1.0000   -0.0000    0.0000   -0.0008    0.0000    0.0007    0.0001    0.0000   -0.0000
       33 FE2    3s         0.0000   -0.0006   -0.0000    0.0000   -0.0001    0.0002    1.0003    0.0013    0.0000   -0.0000
       34 FE2    4s         0.0000    0.0002   -0.0000    0.0000    0.0000    0.0008    0.0059    0.0045    0.0000   -0.0000
       35 FE2    5s         0.0000   -0.0002    0.0000   -0.0000    0.0000   -0.0001   -0.0031   -0.0020   -0.0000    0.0000
       36 FE2    6s        -0.0000    0.0001    0.0000   -0.0000    0.0000   -0.0000    0.0015    0.0002   -0.0000    0.0000
       37 FE2    2px       -0.0000   -0.0000   -0.6367   -0.7711    0.0000    0.0000   -0.0000    0.0000    0.0019    0.0016
       38 FE2    3px       -0.0000    0.0000    0.0016    0.0019   -0.0000    0.0000    0.0000    0.0000    0.7545    0.6561
       39 FE2    4px        0.0000   -0.0000   -0.0003   -0.0003    0.0000    0.0000   -0.0000   -0.0000    0.0016    0.0014
       40 FE2    5px       -0.0000    0.0000    0.0006    0.0007   -0.0000    0.0000   -0.0000    0.0000   -0.0035   -0.0031
       41 FE2    6px        0.0000   -0.0000   -0.0003   -0.0004    0.0000    0.0000    0.0000    0.0000   -0.0002   -0.0002
       42 FE2    2py        0.0000    0.0000    0.7711   -0.6367   -0.0015   -0.0000    0.0000   -0.0000    0.0016   -0.0019
       43 FE2    3py        0.0000   -0.0000   -0.0019    0.0016    0.0000   -0.0000   -0.0000   -0.0000    0.6561   -0.7545
       44 FE2    4py       -0.0000    0.0000    0.0003   -0.0003   -0.0000   -0.0000    0.0000    0.0000    0.0014   -0.0016
       45 FE2    5py        0.0000   -0.0000   -0.0007    0.0006    0.0000   -0.0000    0.0000   -0.0000   -0.0031    0.0035
       46 FE2    6py       -0.0000    0.0000    0.0004   -0.0003   -0.0000   -0.0000   -0.0000   -0.0000   -0.0002    0.0002
       47 FE2    2pz        0.0000    0.0008    0.0012   -0.0009    1.0000    0.0000    0.0001    0.0019    0.0000   -0.0000
       48 FE2    3pz        0.0000   -0.0000   -0.0000    0.0000   -0.0019    0.0002   -0.0008    0.9999    0.0000   -0.0000
       49 FE2    4pz        0.0000    0.0001    0.0000   -0.0000    0.0004    0.0008    0.0021    0.0062    0.0000   -0.0000
       50 FE2    5pz       -0.0000   -0.0000   -0.0000    0.0000   -0.0008    0.0000   -0.0002   -0.0061   -0.0000    0.0000
       51 FE2    6pz       -0.0000   -0.0001    0.0000   -0.0000    0.0006   -0.0001   -0.0005   -0.0015   -0.0000    0.0000
       52 FE2    3d2-      -0.0000   -0.0000    0.0000    0.0000   -0.0000    0.0000   -0.0000   -0.0000   -0.0000   -0.0000
       53 FE2    4d2-      -0.0000   -0.0000   -0.0000   -0.0000   -0.0000    0.0000   -0.0000   -0.0000   -0.0000   -0.0000
       54 FE2    5d2-       0.0000    0.0000    0.0000    0.0000    0.0000    0.0000    0.0000    0.0000    0.0000    0.0000
       55 FE2    3d1-       0.0000    0.0000    0.0000   -0.0000   -0.0000   -0.0000   -0.0000   -0.0000   -0.0020    0.0024
       56 FE2    4d1-      -0.0000   -0.0000   -0.0000    0.0000    0.0000   -0.0000    0.0000    0.0000    0.0015   -0.0018
       57 FE2    5d1-      -0.0000    0.0000    0.0000   -0.0000   -0.0000   -0.0000   -0.0000   -0.0000   -0.0003    0.0004
       58 FE2    3d0        0.0000    0.0001    0.0000   -0.0000    0.0001    0.0002    0.0016    0.0023   -0.0000    0.0000
       59 FE2    4d0        0.0000    0.0000   -0.0000    0.0000   -0.0000    0.0003    0.0011   -0.0000    0.0000   -0.0000
       60 FE2    5d0       -0.0000   -0.0001    0.0000   -0.0000    0.0001    0.0001    0.0001    0.0000   -0.0000    0.0000
       61 FE2    3d1+      -0.0000   -0.0000   -0.0000   -0.0000    0.0000    0.0000    0.0000    0.0000   -0.0024   -0.0020
       62 FE2    4d1+       0.0000    0.0000    0.0000    0.0000   -0.0000    0.0000   -0.0000   -0.0000    0.0018    0.0015
       63 FE2    5d1+       0.0000   -0.0000   -0.0000   -0.0000    0.0000    0.0000    0.0000    0.0000   -0.0004   -0.0003
       64 FE2    3d2+      -0.0000   -0.0000    0.0000   -0.0000   -0.0000    0.0000   -0.0000   -0.0000    0.0000   -0.0000
       65 FE2    4d2+      -0.0000   -0.0000    0.0000   -0.0000   -0.0000    0.0000   -0.0000   -0.0000    0.0000   -0.0000
       66 FE2    5d2+       0.0000    0.0000    0.0000   -0.0000    0.0000    0.0000    0.0000    0.0000   -0.0000    0.0000
       67 FE2    4f3-       0.0000   -0.0000   -0.0000   -0.0000    0.0000    0.0000   -0.0000    0.0000    0.0000    0.0000
       68 FE2    5f3-      -0.0000    0.0000    0.0000    0.0000   -0.0000    0.0000    0.0000    0.0000   -0.0000   -0.0000
       69 FE2    4f2-      -0.0000   -0.0000    0.0000    0.0000   -0.0000    0.0000   -0.0000   -0.0000   -0.0000   -0.0000
       70 FE2    5f2-       0.0000   -0.0000   -0.0000   -0.0000    0.0000    0.0000   -0.0000   -0.0000    0.0000    0.0000
       71 FE2    4f1-       0.0000   -0.0000    0.0004   -0.0003   -0.0000   -0.0000   -0.0000    0.0000    0.0061   -0.0070
       72 FE2    5f1-      -0.0000    0.0000   -0.0002    0.0002    0.0000   -0.0000    0.0000    0.0000    0.0008   -0.0009
       73 FE2    4f0       -0.0000    0.0000   -0.0000    0.0000   -0.0006    0.0001    0.0005   -0.0136    0.0000   -0.0000
       74 FE2    5f0        0.0000   -0.0000    0.0000   -0.0000    0.0005    0.0001   -0.0000   -0.0002    0.0000   -0.0000
       75 FE2    4f1+      -0.0000    0.0000   -0.0003   -0.0004    0.0000    0.0000    0.0000   -0.0000    0.0070    0.0061
       76 FE2    5f1+       0.0000   -0.0000    0.0002    0.0002   -0.0000    0.0000   -0.0000   -0.0000    0.0009    0.0008
       77 FE2    4f2+      -0.0000   -0.0000    0.0000   -0.0000   -0.0000    0.0000   -0.0000   -0.0000    0.0000   -0.0000
       78 FE2    5f2+       0.0000   -0.0000   -0.0000    0.0000    0.0000    0.0000   -0.0000   -0.0000   -0.0000    0.0000
       79 FE2    4f3+       0.0000   -0.0000   -0.0000    0.0000    0.0000    0.0000   -0.0000    0.0000   -0.0000    0.0000
       80 FE2    5f3+      -0.0000    0.0000    0.0000   -0.0000   -0.0000    0.0000    0.0000    0.0000    0.0000   -0.0000
       81 FE2    5g4-       0.0000   -0.0000    0.0000    0.0000   -0.0000    0.0000   -0.0000   -0.0000   -0.0000   -0.0000
       82 FE2    5g3-       0.0000    0.0000    0.0000    0.0000   -0.0000    0.0000    0.0000    0.0000   -0.0000   -0.0000
       83 FE2    5g2-      -0.0000   -0.0000    0.0000    0.0000    0.0000    0.0000   -0.0000   -0.0000   -0.0000   -0.0000
       84 FE2    5g1-       0.0000    0.0000    0.0000   -0.0000   -0.0000   -0.0000    0.0000   -0.0000    0.0001   -0.0002
       85 FE2    5g0       -0.0000   -0.0002    0.0000   -0.0000    0.0000    0.0000   -0.0032   -0.0000    0.0000   -0.0000
       86 FE2    5g1+      -0.0000   -0.0000   -0.0000   -0.0000    0.0000    0.0000   -0.0000    0.0000    0.0002    0.0001
       87 FE2    5g2+      -0.0000   -0.0000    0.0000   -0.0000   -0.0000    0.0000   -0.0000   -0.0000    0.0000   -0.0000
       88 FE2    5g3+      -0.0000    0.0000    0.0000   -0.0000   -0.0000    0.0000    0.0000    0.0000    0.0000   -0.0000
       89 FE2    5g4+      -0.0000    0.0000    0.0000   -0.0000   -0.0000    0.0000    0.0000    0.0000    0.0000   -0.0000
 
          Orbital           11        12        13        14        15        16        17        18        19        20    
          Energy           -1.8008   -1.2768   -0.8412   -0.8412   -0.5644   -0.5644   -0.4600   -0.3198   -0.3198   -0.3076
          Occ. No.          1.0000    1.0000    1.0000    1.0000    0.0000    0.0000    0.0000    0.0000    0.0000    0.0000
 
        1 O1     1s         0.0010    0.0019   -0.0000    0.0000   -0.0000   -0.0000   -0.0158    0.0000   -0.0000   -0.0276
        2 O1     2s         0.9945    0.0528   -0.0000    0.0000   -0.0000   -0.0000   -0.1826    0.0000   -0.0000   -0.2639
        3 O1     3s        -0.0227   -0.0233   -0.0000    0.0000    0.0000    0.0000   -0.0311    0.0000   -0.0000   -0.0750
        4 O1     4s        -0.0051   -0.0036   -0.0000    0.0000    0.0000    0.0000   -0.0057    0.0000   -0.0000   -0.0154
        5 O1     2px        0.0000   -0.0000    0.3700    0.3218   -0.5545    0.6373    0.0000    0.1601    0.1841    0.0000
        6 O1     3px        0.0000    0.0000    0.0219    0.0191   -0.0755    0.0867    0.0000    0.0308    0.0354    0.0000
        7 O1     4px       -0.0000    0.0000   -0.0130   -0.0113    0.0008   -0.0009    0.0000    0.0009    0.0010    0.0000
        8 O1     2py       -0.0000    0.0000    0.3218   -0.3700    0.6373    0.5545   -0.0000   -0.1841    0.1601   -0.0000
        9 O1     3py       -0.0000   -0.0000    0.0191   -0.0219    0.0867    0.0755   -0.0000   -0.0354    0.0308   -0.0000
       10 O1     4py        0.0000   -0.0000   -0.0113    0.0130   -0.0009   -0.0008   -0.0000   -0.0010    0.0009   -0.0000
       11 O1     2pz       -0.0307    0.9764   -0.0000    0.0000   -0.0000   -0.0000    0.1603    0.0000   -0.0000    0.1212
       12 O1     3pz       -0.0165   -0.0890   -0.0000    0.0000   -0.0000   -0.0000   -0.0011    0.0000   -0.0000    0.0350
       13 O1     4pz        0.0050   -0.0181    0.0000   -0.0000    0.0000    0.0000   -0.0040    0.0000   -0.0000   -0.0029
       14 O1     3d2-       0.0000   -0.0000   -0.0000   -0.0000   -0.0000    0.0000   -0.0000    0.0000    0.0000   -0.0000
       15 O1     4d2-       0.0000   -0.0000   -0.0000   -0.0000    0.0000   -0.0000   -0.0000    0.0000    0.0000   -0.0000
       16 O1     3d1-       0.0000   -0.0000   -0.0179    0.0206   -0.0092   -0.0080    0.0000   -0.0074    0.0064   -0.0000
       17 O1     4d1-      -0.0000   -0.0000   -0.0098    0.0112   -0.0071   -0.0062    0.0000   -0.0025    0.0022   -0.0000
       18 O1     3d0        0.0540   -0.0167    0.0000   -0.0000    0.0000    0.0000    0.0006   -0.0000    0.0000   -0.0174
       19 O1     4d0        0.0036   -0.0115    0.0000   -0.0000    0.0000    0.0000    0.0013   -0.0000    0.0000   -0.0091
       20 O1     3d1+      -0.0000    0.0000   -0.0206   -0.0179    0.0080   -0.0092   -0.0000    0.0064    0.0074    0.0000
       21 O1     4d1+       0.0000    0.0000   -0.0112   -0.0098    0.0062   -0.0071   -0.0000    0.0022    0.0025    0.0000
       22 O1     3d2+       0.0000   -0.0000    0.0000   -0.0000   -0.0000   -0.0000   -0.0000    0.0000   -0.0000   -0.0000
       23 O1     4d2+       0.0000   -0.0000    0.0000   -0.0000    0.0000    0.0000   -0.0000    0.0000   -0.0000   -0.0000
       24 O1     4f3-       0.0000   -0.0000    0.0000    0.0000    0.0000   -0.0000    0.0000    0.0000    0.0000    0.0000
       25 O1     4f2-      -0.0000    0.0000    0.0000    0.0000   -0.0000    0.0000    0.0000    0.0000    0.0000    0.0000
       26 O1     4f1-      -0.0000    0.0000    0.0065   -0.0075    0.0078    0.0068   -0.0000   -0.0016    0.0014    0.0000
       27 O1     4f0       -0.0019    0.0165   -0.0000    0.0000   -0.0000   -0.0000    0.0021    0.0000   -0.0000    0.0031
       28 O1     4f1+       0.0000   -0.0000    0.0075    0.0065   -0.0068    0.0078    0.0000    0.0014    0.0016   -0.0000
       29 O1     4f2+      -0.0000   -0.0000   -0.0000    0.0000   -0.0000   -0.0000    0.0000    0.0000   -0.0000    0.0000
       30 O1     4f3+       0.0000   -0.0000   -0.0000    0.0000    0.0000    0.0000    0.0000    0.0000   -0.0000    0.0000
       31 FE2    1s        -0.0002    0.0004   -0.0000    0.0000   -0.0000   -0.0000    0.0002    0.0000   -0.0000    0.0004
       32 FE2    2s        -0.0016    0.0028   -0.0000    0.0000   -0.0000   -0.0000    0.0010    0.0000   -0.0000    0.0029
       33 FE2    3s        -0.0118    0.0196   -0.0000    0.0000   -0.0000   -0.0000    0.0027    0.0000   -0.0000    0.0159
       34 FE2    4s         0.0044   -0.0389    0.0000   -0.0000   -0.0000   -0.0000    1.0308    0.0000   -0.0000    0.1009
       35 FE2    5s        -0.0042    0.0137   -0.0000    0.0000    0.0000    0.0000   -0.0955    0.0000   -0.0000    0.0499
       36 FE2    6s         0.0014   -0.0003    0.0000   -0.0000   -0.0000   -0.0000   -0.0288   -0.0000    0.0000    0.0028
       37 FE2    2px       -0.0000    0.0000   -0.0002   -0.0002    0.0003   -0.0004   -0.0000    0.0001    0.0001   -0.0000
       38 FE2    3px        0.0000    0.0000   -0.0037   -0.0032    0.0099   -0.0113   -0.0000   -0.0015   -0.0017    0.0000
       39 FE2    4px       -0.0000   -0.0000    0.0684    0.0595   -0.0193    0.0222    0.0000   -0.6466   -0.7436   -0.0000
       40 FE2    5px        0.0000   -0.0000   -0.0037   -0.0033    0.0010   -0.0011    0.0000   -0.1437   -0.1652   -0.0000
       41 FE2    6px        0.0000   -0.0000   -0.0072   -0.0062    0.0035   -0.0040    0.0000   -0.0867   -0.0997   -0.0000
       42 FE2    2py        0.0000   -0.0000   -0.0002    0.0002   -0.0004   -0.0003    0.0000   -0.0001    0.0001    0.0000
       43 FE2    3py       -0.0000   -0.0000   -0.0032    0.0037   -0.0113   -0.0099    0.0000    0.0017   -0.0015   -0.0000
       44 FE2    4py        0.0000    0.0000    0.0595   -0.0684    0.0222    0.0193   -0.0000    0.7436   -0.6466    0.0000
       45 FE2    5py       -0.0000    0.0000   -0.0033    0.0037   -0.0011   -0.0010   -0.0000    0.1652   -0.1437    0.0000
       46 FE2    6py       -0.0000    0.0000   -0.0062    0.0072   -0.0040   -0.0035   -0.0000    0.0997   -0.0867    0.0000
       47 FE2    2pz       -0.0005    0.0010   -0.0000    0.0000   -0.0000   -0.0000    0.0003    0.0000   -0.0000    0.0004
       48 FE2    3pz       -0.0208    0.0294   -0.0000    0.0000   -0.0000   -0.0000    0.0052    0.0000   -0.0000    0.0117
       49 FE2    4pz        0.0069   -0.0313    0.0000   -0.0000    0.0000    0.0000    0.0014   -0.0000    0.0000    0.9522
       50 FE2    5pz       -0.0033    0.0071   -0.0000    0.0000    0.0000    0.0000    0.0056   -0.0000    0.0000    0.2262
       51 FE2    6pz       -0.0032    0.0083   -0.0000    0.0000   -0.0000   -0.0000    0.0055   -0.0000    0.0000    0.1415
       52 FE2    3d2-       0.0000    0.0000   -0.0000   -0.0000   -0.0000    0.0000   -0.0000    0.0000    0.0000   -0.0000
       53 FE2    4d2-       0.0000   -0.0000   -0.0000   -0.0000   -0.0000    0.0000   -0.0000    0.0000    0.0000   -0.0000
       54 FE2    5d2-       0.0000   -0.0000    0.0000    0.0000    0.0000   -0.0000   -0.0000    0.0000    0.0000   -0.0000
       55 FE2    3d1-       0.0000   -0.0000    0.5363   -0.6167   -0.4311   -0.3751   -0.0000   -0.0212    0.0185    0.0000
       56 FE2    4d1-       0.0000    0.0000    0.0654   -0.0752   -0.0370   -0.0322   -0.0000    0.0001   -0.0001    0.0000
       57 FE2    5d1-       0.0000    0.0000    0.0060   -0.0069    0.0007    0.0006   -0.0000    0.0023   -0.0020    0.0000
       58 FE2    3d0        0.0096   -0.0313    0.0000   -0.0000   -0.0000   -0.0000   -0.0376   -0.0000    0.0000   -0.3707
       59 FE2    4d0        0.0036   -0.0128    0.0000   -0.0000    0.0000    0.0000   -0.0207   -0.0000    0.0000   -0.1574
       60 FE2    5d0       -0.0005   -0.0008    0.0000   -0.0000    0.0000    0.0000   -0.0074   -0.0000    0.0000   -0.0643
       61 FE2    3d1+      -0.0000    0.0000    0.6167    0.5363    0.3751   -0.4311    0.0000    0.0185    0.0212   -0.0000
       62 FE2    4d1+      -0.0000   -0.0000    0.0752    0.0654    0.0322   -0.0370    0.0000   -0.0001   -0.0001   -0.0000
       63 FE2    5d1+      -0.0000   -0.0000    0.0069    0.0060   -0.0006    0.0007    0.0000   -0.0020   -0.0023   -0.0000
       64 FE2    3d2+       0.0000    0.0000    0.0000   -0.0000   -0.0000   -0.0000   -0.0000    0.0000   -0.0000   -0.0000
       65 FE2    4d2+       0.0000   -0.0000    0.0000   -0.0000   -0.0000   -0.0000   -0.0000    0.0000   -0.0000   -0.0000
       66 FE2    5d2+       0.0000   -0.0000   -0.0000    0.0000    0.0000    0.0000   -0.0000    0.0000   -0.0000   -0.0000
       67 FE2    4f3-       0.0000   -0.0000    0.0000    0.0000    0.0000   -0.0000    0.0000    0.0000    0.0000    0.0000
       68 FE2    5f3-       0.0000   -0.0000    0.0000    0.0000    0.0000   -0.0000    0.0000    0.0000    0.0000    0.0000
       69 FE2    4f2-       0.0000   -0.0000   -0.0000   -0.0000   -0.0000    0.0000   -0.0000   -0.0000   -0.0000   -0.0000
       70 FE2    5f2-       0.0000   -0.0000   -0.0000   -0.0000   -0.0000    0.0000   -0.0000   -0.0000   -0.0000   -0.0000
       71 FE2    4f1-       0.0000    0.0000    0.0070   -0.0081    0.0052    0.0045   -0.0000    0.0009   -0.0007    0.0000
       72 FE2    5f1-       0.0000    0.0000    0.0057   -0.0066    0.0042    0.0037   -0.0000    0.0006   -0.0005    0.0000
       73 FE2    4f0        0.0014   -0.0036    0.0000   -0.0000    0.0000    0.0000   -0.0037   -0.0000    0.0000   -0.0065
       74 FE2    5f0        0.0011   -0.0028    0.0000   -0.0000    0.0000    0.0000   -0.0026    0.0000   -0.0000   -0.0054
       75 FE2    4f1+      -0.0000   -0.0000    0.0081    0.0070   -0.0045    0.0052    0.0000   -0.0007   -0.0009   -0.0000
       76 FE2    5f1+      -0.0000   -0.0000    0.0066    0.0057   -0.0037    0.0042    0.0000   -0.0005   -0.0006   -0.0000
       77 FE2    4f2+       0.0000   -0.0000    0.0000   -0.0000   -0.0000   -0.0000   -0.0000   -0.0000    0.0000   -0.0000
       78 FE2    5f2+       0.0000   -0.0000    0.0000   -0.0000   -0.0000   -0.0000   -0.0000   -0.0000    0.0000   -0.0000
       79 FE2    4f3+       0.0000   -0.0000   -0.0000    0.0000    0.0000    0.0000    0.0000    0.0000   -0.0000    0.0000
       80 FE2    5f3+       0.0000   -0.0000   -0.0000    0.0000    0.0000    0.0000    0.0000    0.0000   -0.0000    0.0000
       81 FE2    5g4-      -0.0000    0.0000    0.0000    0.0000    0.0000   -0.0000   -0.0000   -0.0000   -0.0000    0.0000
       82 FE2    5g3-       0.0000   -0.0000   -0.0000   -0.0000    0.0000   -0.0000    0.0000   -0.0000   -0.0000    0.0000
       83 FE2    5g2-       0.0000   -0.0000    0.0000    0.0000    0.0000   -0.0000    0.0000    0.0000    0.0000   -0.0000
       84 FE2    5g1-       0.0000    0.0000   -0.0003    0.0004    0.0010    0.0009    0.0000   -0.0001    0.0001   -0.0000
       85 FE2    5g0        0.0001   -0.0001   -0.0000    0.0000    0.0000    0.0000   -0.0007   -0.0000    0.0000    0.0008
       86 FE2    5g1+      -0.0000   -0.0000   -0.0004   -0.0003   -0.0009    0.0010   -0.0000    0.0001    0.0001    0.0000
       87 FE2    5g2+       0.0000   -0.0000   -0.0000    0.0000    0.0000    0.0000    0.0000    0.0000   -0.0000   -0.0000
       88 FE2    5g3+       0.0000   -0.0000    0.0000   -0.0000    0.0000    0.0000    0.0000   -0.0000    0.0000   -0.0000
       89 FE2    5g4+       0.0000   -0.0000   -0.0000    0.0000    0.0000    0.0000    0.0000   -0.0000    0.0000   -0.0000
 
          Orbital           21        22        23        24        25        26        27        28    
          Energy           -0.3055   -0.3055   -0.2493   -0.2069   -0.0875   -0.0763   -0.0763   -0.0652
          Occ. No.          0.0000    0.0000    0.0000    0.0000    0.0000    0.0000    0.0000    0.0000
 
        1 O1     1s        -0.0000   -0.0000   -0.0487   -0.0151   -0.0397    0.0000   -0.0000   -0.0228
        2 O1     2s        -0.0000   -0.0000   -0.4578   -0.1171   -0.3347    0.0000   -0.0000   -0.1743
        3 O1     3s        -0.0000   -0.0000   -0.1224   -0.0607   -0.0981    0.0000   -0.0000   -0.0739
        4 O1     4s        -0.0000   -0.0000   -0.0251   -0.0149   -0.0166    0.0000   -0.0000   -0.0141
        5 O1     2px       -0.0000   -0.0000    0.0000   -0.0000    0.0000    0.1333    0.1489   -0.0000
        6 O1     3px       -0.0000   -0.0000    0.0000   -0.0000   -0.0000   -0.3427   -0.3831    0.0000
        7 O1     4px       -0.0000   -0.0000    0.0000   -0.0000   -0.0000   -0.1685   -0.1883    0.0000
        8 O1     2py       -0.0000    0.0000   -0.0000    0.0000   -0.0000   -0.1489    0.1333    0.0000
        9 O1     3py       -0.0000    0.0000   -0.0000    0.0000    0.0000    0.3831   -0.3427   -0.0000
       10 O1     4py       -0.0000    0.0000   -0.0000    0.0000    0.0000    0.1883   -0.1685   -0.0000
       11 O1     2pz        0.0000    0.0000    0.2705   -0.0537    0.2424   -0.0000    0.0000   -0.0007
       12 O1     3pz        0.0000    0.0000    0.0889    0.1323    0.9913   -0.0001    0.0000    0.1369
       13 O1     4pz       -0.0000   -0.0000    0.0191    0.0427    0.3542   -0.0000    0.0000    0.0320
       14 O1     3d2-       0.0077    0.0031   -0.0000   -0.0000    0.0000    0.0000    0.0000   -0.0000
       15 O1     4d2-       0.0044    0.0018   -0.0000   -0.0000    0.0000    0.0000    0.0000   -0.0000
       16 O1     3d1-      -0.0000    0.0000    0.0000   -0.0000   -0.0000   -0.0040    0.0036   -0.0000
       17 O1     4d1-      -0.0000    0.0000    0.0000   -0.0000   -0.0000   -0.0009    0.0008   -0.0000
       18 O1     3d0       -0.0000   -0.0000    0.0058   -0.0217   -0.0375    0.0000   -0.0000   -0.0461
       19 O1     4d0       -0.0000   -0.0000    0.0021   -0.0111   -0.0274    0.0000   -0.0000   -0.0267
       20 O1     3d1+      -0.0000   -0.0000   -0.0000    0.0000    0.0000    0.0036    0.0040    0.0000
       21 O1     4d1+      -0.0000   -0.0000   -0.0000    0.0000    0.0000    0.0008    0.0009    0.0000
       22 O1     3d2+      -0.0031    0.0077   -0.0000   -0.0000    0.0000    0.0000   -0.0000   -0.0000
       23 O1     4d2+      -0.0018    0.0044   -0.0000   -0.0000    0.0000    0.0000   -0.0000   -0.0000
       24 O1     4f3-       0.0000   -0.0000    0.0000   -0.0000   -0.0000    0.0000    0.0000   -0.0000
       25 O1     4f2-      -0.0014   -0.0006    0.0000   -0.0000   -0.0000    0.0000    0.0000    0.0000
       26 O1     4f1-      -0.0000    0.0000    0.0000   -0.0000   -0.0000   -0.0047    0.0042    0.0000
       27 O1     4f0        0.0000    0.0000    0.0018   -0.0005    0.0024    0.0000   -0.0000    0.0029
       28 O1     4f1+      -0.0000   -0.0000   -0.0000    0.0000    0.0000    0.0042    0.0047   -0.0000
       29 O1     4f2+       0.0006   -0.0014    0.0000   -0.0000   -0.0000    0.0000   -0.0000    0.0000
       30 O1     4f3+       0.0000    0.0000    0.0000   -0.0000    0.0000    0.0000   -0.0000   -0.0000
       31 FE2    1s         0.0000    0.0000    0.0009    0.0008    0.0062   -0.0000    0.0000    0.0009
       32 FE2    2s         0.0000    0.0000    0.0064    0.0062    0.0442   -0.0000    0.0000    0.0068
       33 FE2    3s         0.0000    0.0000    0.0323    0.0305    0.2084   -0.0000    0.0000    0.0349
       34 FE2    4s         0.0000    0.0000    0.2522    0.2043    0.6366   -0.0000    0.0000    0.1448
       35 FE2    5s         0.0000    0.0000    0.0279    0.8946   -0.3225    0.0000   -0.0000    0.3679
       36 FE2    6s         0.0000    0.0000    0.0143    0.3735   -0.0877   -0.0000    0.0000   -0.9333
       37 FE2    2px        0.0000    0.0000   -0.0000    0.0000    0.0000    0.0007    0.0008   -0.0000
       38 FE2    3px        0.0000    0.0000   -0.0000    0.0000    0.0000    0.0149    0.0167   -0.0000
       39 FE2    4px        0.0000    0.0000   -0.0000    0.0000    0.0000    0.1609    0.1798   -0.0000
       40 FE2    5px        0.0000    0.0000   -0.0000    0.0000    0.0000    0.0062    0.0069    0.0000
       41 FE2    6px        0.0000    0.0000   -0.0000    0.0000   -0.0000   -0.0073   -0.0082    0.0000
[...]
       68 FE2    5f3-       0.0000    0.0000    0.7173    0.0043   -0.3328   -0.0000    0.0034    0.0000    0.0008    0.0005
       69 FE2    4f2-       0.7844   -0.6034   -0.0000   -0.0000   -0.0000   -0.0092    0.0000    0.0841    0.0000   -0.0000
       70 FE2    5f2-       0.6075    0.7971    0.0000   -0.0000    0.0000   -0.0008   -0.0000    0.0266    0.0000    0.0000
       71 FE2    4f1-      -0.0000    0.0000   -0.0000    0.0000   -0.0000   -0.0000   -0.0000   -0.0000   -0.0000    0.0000
       72 FE2    5f1-      -0.0000    0.0000   -0.0000    0.0000   -0.0000   -0.0000    0.0000   -0.0000   -0.0000   -0.0000
       73 FE2    4f0       -0.0000   -0.0000    0.0000    0.0000   -0.0000   -0.0000    0.0000    0.0000    0.0000    0.0000
       74 FE2    5f0       -0.0000   -0.0000    0.0000    0.0000   -0.0000   -0.0000   -0.0000    0.0000    0.0000   -0.0000
       75 FE2    4f1+       0.0000   -0.0000   -0.0000   -0.0000    0.0000   -0.0000   -0.0000   -0.0000   -0.0000   -0.0000
       76 FE2    5f1+       0.0000   -0.0000   -0.0000   -0.0000    0.0000   -0.0000    0.0000   -0.0000   -0.0000    0.0000
       77 FE2    4f2+       0.0324   -0.0139   -0.0000    0.0000    0.0000    0.0816    0.0000   -0.0077    0.0000    0.0000
       78 FE2    5f2+       0.0251    0.0183    0.0000    0.0000   -0.0000    0.0070   -0.0000   -0.0025    0.0000   -0.0000
       79 FE2    4f3+      -0.0000   -0.0000    0.2576    0.0032    0.5553    0.0000    0.0004    0.0000   -0.0171   -0.0023
       80 FE2    5f3+      -0.0000    0.0000   -0.3328    0.0008   -0.7173   -0.0000   -0.0005    0.0000   -0.0043    0.0034
       81 FE2    5g4-       0.0000    0.0000   -0.0000   -0.0000   -0.0000    0.0000    0.0000   -0.0000    0.0000   -0.0000
       82 FE2    5g3-      -0.0000   -0.0000   -0.0038   -0.0040    0.0017   -0.0000    0.9878   -0.0000   -0.0008    0.1556
       83 FE2    5g2-      -0.0007   -0.0350   -0.0000    0.0000   -0.0000    0.0015   -0.0000   -0.0176   -0.0000    0.0000
       84 FE2    5g1-       0.0000   -0.0000    0.0000   -0.0000    0.0000    0.0000    0.0000   -0.0000    0.0000   -0.0000
       85 FE2    5g0       -0.0000   -0.0000    0.0000   -0.0000   -0.0000   -0.0000    0.0000   -0.0000   -0.0000    0.0000
       86 FE2    5g1+      -0.0000    0.0000    0.0000    0.0000   -0.0000    0.0000    0.0000   -0.0000    0.0000    0.0000
       87 FE2    5g2+      -0.0000   -0.0008   -0.0000   -0.0000    0.0000   -0.0135   -0.0000    0.0016   -0.0000   -0.0000
       88 FE2    5g3+       0.0000   -0.0000    0.0017   -0.0008    0.0038   -0.0000   -0.1556   -0.0000    0.0040    0.9878
       89 FE2    5g4+      -0.0000   -0.0000   -0.0000    0.0000    0.0000    0.0000    0.0000    0.0000    0.0000    0.0000
 
          Orbital           81        82        83    
          Energy            6.8419    7.4182    7.4182
          Occ. No.          0.0000    0.0000    0.0000
 
        1 O1     1s         0.0000    0.0000    0.0000
        2 O1     2s         0.0000    0.0000    0.0000
        3 O1     3s         0.0000    0.0000    0.0000
        4 O1     4s         0.0000    0.0000    0.0000
        5 O1     2px        0.0000    0.0000    0.0000
        6 O1     3px        0.0000    0.0000    0.0000
        7 O1     4px       -0.0000   -0.0000   -0.0000
        8 O1     2py        0.0000   -0.0000    0.0000
        9 O1     3py        0.0000   -0.0000    0.0000
       10 O1     4py       -0.0000    0.0000   -0.0000
       11 O1     2pz        0.0000   -0.0000   -0.0000
       12 O1     3pz        0.0000   -0.0000   -0.0000
       13 O1     4pz        0.0000    0.0000    0.0000
       14 O1     3d2-      -0.0003   -0.0000    0.0000
       15 O1     4d2-      -0.0021   -0.0000    0.0000
       16 O1     3d1-      -0.0000    0.0000   -0.0000
       17 O1     4d1-      -0.0000    0.0000   -0.0000
       18 O1     3d0        0.0000    0.0000    0.0000
       19 O1     4d0        0.0000   -0.0000    0.0000
       20 O1     3d1+      -0.0000   -0.0000   -0.0000
       21 O1     4d1+      -0.0000   -0.0000   -0.0000
       22 O1     3d2+       0.0127    0.0000    0.0000
       23 O1     4d2+       0.0903    0.0000    0.0000
       24 O1     4f3-      -0.0000   -0.0000   -0.0000
       25 O1     4f2-       0.0014    0.0000   -0.0000
       26 O1     4f1-       0.0000   -0.0000    0.0000
       27 O1     4f0       -0.0000   -0.0000   -0.0000
       28 O1     4f1+       0.0000    0.0000    0.0000
       29 O1     4f2+      -0.0621   -0.0000   -0.0000
       30 O1     4f3+      -0.0000   -0.0000    0.0000
       31 FE2    1s         0.0000   -0.0000   -0.0000
       32 FE2    2s         0.0000   -0.0000   -0.0000
       33 FE2    3s         0.0000   -0.0000   -0.0000
       34 FE2    4s         0.0000    0.0000    0.0000
       35 FE2    5s         0.0000    0.0000    0.0000
       36 FE2    6s         0.0000   -0.0000   -0.0000
       37 FE2    2px       -0.0000   -0.0000   -0.0000
       38 FE2    3px       -0.0000   -0.0000   -0.0000
       39 FE2    4px       -0.0000   -0.0000   -0.0000
       40 FE2    5px        0.0000    0.0000    0.0000
       41 FE2    6px        0.0000    0.0000    0.0000
       42 FE2    2py       -0.0000    0.0000   -0.0000
       43 FE2    3py       -0.0000    0.0000   -0.0000
       44 FE2    4py       -0.0000    0.0000   -0.0000
       45 FE2    5py        0.0000   -0.0000    0.0000
       46 FE2    6py        0.0000   -0.0000   -0.0000
       47 FE2    2pz        0.0000   -0.0000   -0.0000
       48 FE2    3pz        0.0000   -0.0000   -0.0000
       49 FE2    4pz       -0.0000   -0.0000   -0.0000
       50 FE2    5pz       -0.0000   -0.0000    0.0000
       51 FE2    6pz       -0.0000    0.0000    0.0000
       52 FE2    3d2-       0.0001   -0.0000    0.0000
       53 FE2    4d2-       0.0002    0.0000   -0.0000
       54 FE2    5d2-       0.0003    0.0000   -0.0000
       55 FE2    3d1-      -0.0000    0.0000   -0.0000
       56 FE2    4d1-       0.0000   -0.0000    0.0000
       57 FE2    5d1-       0.0000    0.0000   -0.0000
       58 FE2    3d0       -0.0000   -0.0000   -0.0000
       59 FE2    4d0       -0.0000   -0.0000   -0.0000
       60 FE2    5d0       -0.0000   -0.0000    0.0000
       61 FE2    3d1+      -0.0000   -0.0000   -0.0000
       62 FE2    4d1+       0.0000    0.0000    0.0000
       63 FE2    5d1+       0.0000   -0.0000   -0.0000
       64 FE2    3d2+      -0.0034    0.0000    0.0000
       65 FE2    4d2+      -0.0092   -0.0000   -0.0000
       66 FE2    5d2+      -0.0114   -0.0000   -0.0000
       67 FE2    4f3-      -0.0000    0.0000    0.0000
       68 FE2    5f3-       0.0000   -0.0000   -0.0000
       69 FE2    4f2-      -0.0139   -0.0000    0.0000
       70 FE2    5f2-       0.0183    0.0000   -0.0000
       71 FE2    4f1-      -0.0000    0.0000   -0.0000
       72 FE2    5f1-      -0.0000    0.0000   -0.0000
       73 FE2    4f0       -0.0000   -0.0000   -0.0000
       74 FE2    5f0       -0.0000   -0.0000   -0.0000
       75 FE2    4f1+      -0.0000   -0.0000   -0.0000
       76 FE2    5f1+      -0.0000   -0.0000   -0.0000
       77 FE2    4f2+       0.6034    0.0000    0.0000
       78 FE2    5f2+      -0.7971   -0.0000   -0.0000
       79 FE2    4f3+       0.0000    0.0000   -0.0000
       80 FE2    5f3+      -0.0000   -0.0000    0.0000
       81 FE2    5g4-      -0.0000   -0.0181   -0.9998
       82 FE2    5g3-      -0.0000    0.0000    0.0000
       83 FE2    5g2-      -0.0008    0.0000   -0.0000
       84 FE2    5g1-       0.0000    0.0000   -0.0000
       85 FE2    5g0        0.0000    0.0000    0.0000
       86 FE2    5g1+       0.0000   -0.0000   -0.0000
       87 FE2    5g2+       0.0350   -0.0000   -0.0000
       88 FE2    5g3+      -0.0000    0.0000   -0.0000
       89 FE2    5g4+      -0.0000   -0.9998    0.0181
--
 
 
++    Molecular properties:
      ---------------------
 
      Charge (e):
                      =    2.0000
      Dipole Moment (Debye):
      Origin of the operator (Ang)=    0.0000    0.0000    0.0000
                   X=  3.7519E-07               Y= -1.4952E-05               Z=  1.1608E+00           Total=  1.1608E+00
      Center of Charge (Ang)
                     X=    0.00000004               Y=   -0.00000156               Z=    0.12083080
      Quadrupole Moment (Debye*Ang):
      Origin of the operator (Ang)=    0.0000    0.0000    0.1392
                  XX= -1.2561E+01              XY= -8.2754E-08              XZ=  3.1475E-07              YY= -1.2561E+01
                  YZ= -1.2544E-05              ZZ= -2.8092E-01
      In traceless form (Debye*Ang)
                  XX= -6.1403E+00              XY= -1.2413E-07              XZ=  4.7213E-07              YY= -6.1403E+00
                  YZ= -1.8816E-05              ZZ=  1.2281E+01
--
 
 
  Input file to MOLDEN was generated!
 
 ###############################################################################
 ###############################################################################
 ###                                                                         ###
 ###                                                                         ###
 ###    RunFile label nBas                                                   ###
 ###    was used       86 times                                              ###
 ###                                                                         ###
 ###                                                                         ###
 ###############################################################################
 ###############################################################################
forrtl: warning (528): IEEE_UNDERFLOW is signaling
--- Stop Module: scf at Thu Apr 17 23:32:51 2025 /rc=_RC_ALL_IS_WELL_ ---
*** files: 2.38.LprOrb 2.38.LoProp.molden 2.38.scf.molden 2.38.scf.h5 2.38.UhfOrb 2.38.UnaOrb xmldump
    saved to directory /home/grierjones/DDCASPT2/iron_oxo_DDCASPT2/MScaspt2iron/2.38
--- Module scf spent 1 second ---

>>> COPY /tmp/2.38/2.38.scf.h5 /home/grierjones/DDCASPT2/iron_oxo_DDCASPT2/MScaspt2iron/2.38/

*** symbolic link created: INPORB -> 2.38.UnaOrb
--- Start Module: rasscf at Thu Apr 17 23:32:51 2025 ---
 
()()()()()()()()()()()()()()()()()()()()()()()()()()()()()()()()()()()()()()()()()()()()()()()()()()

                                              &RASSCF

                                   only a single process is used
                       available to each process: 2.0 GB of memory, 1 thread?
()()()()()()()()()()()()()()()()()()()()()()()()()()()()()()()()()()()()()()()()()()()()()()()()()()
 
 
      Header of the ONEINT file:
      --------------------------
      
      Integrals generated by seward 4.2.0  , Thu Apr 17 23:32:46 2025
 
 
      OrdInt status: non-squared
 
 
      Cartesian coordinates in Angstrom:
      -----------------------------------------------------
      No.  Label        X            Y            Z        
      -----------------------------------------------------
       1   O1         0.00000000   0.00000000   1.99000000
       2   FE2        0.00000000   0.00000000  -0.39000000
      -----------------------------------------------------
      Nuclear repulsion energy =   46.24742009
 
++    Wave function specifications:
      -----------------------------
 
      Number of closed shell electrons          22
      Number of electrons in active shells      10
      Max number of holes in RAS1 space          0
      Max nr of electrons in RAS3 space          0
      Number of inactive orbitals               11
      Number of active orbitals                 14
      Number of secondary orbitals              64
      Spin quantum number                      2.0
      State symmetry                             1
--
 
++    Orbital specifications:
      -----------------------
 
      Symmetry species                           1
                                                 a
      Frozen orbitals                            0
      Inactive orbitals                         11
      Active orbitals                           14
      RAS1 orbitals                              0
      RAS2 orbitals                             14
      RAS3 orbitals                              0
      Secondary orbitals                        64
      Deleted orbitals                           0
      Number of basis functions                 89
--
 
++    CI expansion specifications:
      ----------------------------
 
      Number of CSFs                        975975
      Number of determinants               1249248
      Number of root(s) required                 3
      Root chosen for geometry opt.              3
      CI roots used                              1     2     3
      weights                                0.333 0.333 0.333
      highest root included in the CI            3
      max. size of the explicit Hamiltonian    200
--
 
++    Optimization specifications:
      ----------------------------
 
      RASSCF algorithm: Conventional
      Maximum number of macro iterations       200
      Maximum number of SX iterations          100
      Threshold for RASSCF energy            0.100E-07
      Threshold for max MO rotation          0.100E+00
      Threshold for max BLB element          0.100E-03
      Level shift parameter                  0.500E+00
      Make Quasi-Newton update
--
 
      The MO-coefficients are taken from the file:
      /home/grierjones/DDCASPT2/iron_oxo_DDCASPT2/MScaspt2iron/2.36/2.36.RasOrb                                                       
      Title: RASSCF average (pseudo-natural) orbitals (Not final)                          
 
      Total molecular charge    2.00
 
      ************************************************************************************************************************
      *                                                                                                                      *
      *                                            Wave function control section                                             *
      *                                                                                                                      *
      ************************************************************************************************************************
 
 
                                         RASSCF iterations: Energy and convergence statistics
                                         ----------------------------------------------------
 
      Iter CI   SX   CI       RASSCF       Energy    max ROT     max BLB   max BLB  Level Ln srch  Step   QN   Walltime
          iter iter root      energy       change     param      element    value   shift minimum  type update hh:mm:ss
++ I/O STATISTICS
 
  I. General I/O information
  - - - - - - - - - - - - - - - - - - - - - - - - - - - - - - - - - - - - - - - - - - -
  Unit  Name          Flsize      Write/Read            MBytes           Write/Read
                      (MBytes)       Calls              In/Out           Time, sec.
  - - - - - - - - - - - - - - - - - - - - - - - - - - - - - - - - - - - - - - - - - - -
   1  RUNFILE          13.56 .     105/    1153 .      0.7/      8.3 .       0/       0
   2  ONEINT            0.00 .       0/      71 .      0.0/     20.7 .       0/       0
   3  ORDINT            0.00 .       0/     133 .      0.0/     33.0 .       0/       0
   4  TRAINT            0.00 .       1/       0 .      1.0/      0.0 .       0/       0
   5  TEMP01            0.00 .       0/       0 .      0.0/      0.0 .       0/       0
   6  TEMP02            0.00 .       0/       0 .      0.0/      0.0 .       0/       0
   7  JOBIPH            0.00 .      31/       0 .      0.2/      0.0 .       0/       0
   8  CIDIA             0.00 .       8/       8 .      9.5/      9.5 .       0/       0
   9  LUCVECT           0.00 .     240/     420 .    285.9/    571.9 .       0/       0
  10  HCFILE            0.00 .       0/       0 .      0.0/      0.0 .       0/       0
  11  LUSC1             0.00 .       0/       0 .      0.0/      0.0 .       0/       0
  12  LUSC2             0.00 .       0/       0 .      0.0/      0.0 .       0/       0
  13  LUSC3             0.00 .       0/       0 .      0.0/      0.0 .       0/       0
  14  LUSC34            0.00 .     240/     180 .    285.9/    285.9 .       0/       0
  15  LUSC35            0.00 .       0/       0 .      0.0/      0.0 .       0/       0
  16  LUSC36            0.00 .       0/       0 .      0.0/      0.0 .       0/       0
  17  LUSC37            0.00 .       0/       0 .      0.0/      0.0 .       0/       0
  18  LUSC38            0.00 .       0/       0 .      0.0/      0.0 .       0/       0
  19  LUSC39            0.00 .       0/       0 .      0.0/      0.0 .       0/       0
  20  LUSC40            0.00 .       0/       0 .      0.0/      0.0 .       0/       0
  21  LUMOUT            0.00 .       0/       0 .      0.0/      0.0 .       0/       0
  - - - - - - - - - - - - - - - - - - - - - - - - - - - - - - - - - - - - - - - - - - -
   *  TOTAL            13.56 .     625/    1965 .    583.3/    929.3 .       0/       0
  - - - - - - - - - - - - - - - - - - - - - - - - - - - - - - - - - - - - - - - - - - -
 
  II. I/O Access Patterns
  - - - - - - - - - - - - - - - - - - - -
  Unit  Name               % of random
                         Write/Read calls
  - - - - - - - - - - - - - - - - - - - -
   1  RUNFILE             28.6/  10.8
   2  ONEINT               0.0/  35.2
   3  ORDINT               0.0/   0.8
   4  TRAINT               0.0/   0.0
   5  TEMP01               0.0/   0.0
   6  TEMP02               0.0/   0.0
   7  JOBIPH             100.0/   0.0
   8  CIDIA                0.0/  12.5
   9  LUCVECT             12.1/  14.3
  10  HCFILE               0.0/   0.0
  11  LUSC1                0.0/   0.0
  12  LUSC2                0.0/   0.0
  13  LUSC3                0.0/   0.0
  14  LUSC34              12.1/  16.7
  15  LUSC35               0.0/   0.0
  16  LUSC36               0.0/   0.0
  17  LUSC37               0.0/   0.0
  18  LUSC38               0.0/   0.0
  19  LUSC39               0.0/   0.0
  20  LUSC40               0.0/   0.0
  21  LUMOUT               0.0/   0.0
  - - - - - - - - - - - - - - - - - - - -
--
 ###############################################################################
 ###############################################################################
 ###                                                                         ###
 ###                                                                         ###
 ###    Location: AixWr                                                      ###
 ###    File: JOBIPH                                                         ###
 ###                                                                         ###
 ###                                                                         ###
 ###    Premature abort while writing buffer to disk: Disk full?             ###
 ###                                                                         ###
 ###                                                                         ###
 ###############################################################################
 ###############################################################################
[ process      0]: xquit (rc =    161): _IO_ERROR_WRITE_
abort: 
--- Stop Module: rasscf at Thu Apr 17 23:34:00 2025 /rc=_RC_FLOATING_EXCEPTION_ ---
*** files: 2.38.rasscf.h5 xmldump
    saved to directory /home/grierjones/DDCASPT2/iron_oxo_DDCASPT2/MScaspt2iron/2.38
--- Module rasscf spent 1 minute 8 seconds ---

.########################.
.# Non-zero return code #.
.########################.

    Timing: Wall=73.48 User=72.40 System=1.07
************************************
*** WorkDir at /tmp/2.38 cleaned ***
************************************
