[Molden Format]
[N_Atoms]
                     2
[Atoms] (AU)
F1          1      9           0.00000000      0.00000000      0.00000000
F2          2      9           0.00000000      0.00000000      1.70075351
[Charge] (Mulliken)
  4.121147867408581E-013
 -4.209965709378594E-013
[GTO] (AU)
   1
   s  14
  1.031094600E+05  1.713099991E-04
  1.528100700E+04  7.123999962E-04
  3.441539200E+03  2.990479984E-03
  9.670948300E+02  1.164036994E-02
  3.140353400E+02  3.968642979E-02
  1.134423000E+02  1.128546094E-01
  4.464472700E+01  2.473650687E-01
  1.894287400E+01  3.672702681E-01
  8.532743000E+00  2.896286985E-01
  3.919401000E+00  7.786681959E-02
  1.568157000E+00  4.562139976E-03
  6.232900000E-01  2.468879987E-03
  2.408610000E-01  1.106309994E-03
  8.430100000E-02  1.739699991E-04
   s  14
  1.031094600E+05 -4.044999995E-05
  1.528100700E+04 -1.682299998E-04
  3.441539200E+03 -7.084299991E-04
  9.670948300E+02 -2.767999996E-03
  3.140353400E+02 -9.611379987E-03
  1.134423000E+02 -2.833957996E-02
  4.464472700E+01 -6.839343991E-02
  1.894287400E+01 -1.237379298E-01
  8.532743000E+00 -1.512859698E-01
  3.919401000E+00 -9.099909988E-03
  1.568157000E+00  3.716257695E-01
  6.232900000E-01  5.500214393E-01
  2.408610000E-01  2.092318697E-01
  8.430100000E-02  8.074639989E-03
   p   9
  2.453302900E+02  1.024860004E-03
  5.691900500E+01  8.344290032E-03
  1.760456800E+01  4.078927016E-02
  6.274995000E+00  1.351370605E-01
  2.447030000E+00  2.798830811E-01
  9.950600000E-01  3.597966414E-01
  4.039730000E-01  3.055347412E-01
  1.548100000E-01  1.354703905E-01
  5.418400000E-02  2.804449011E-02
 
   2
   s  14
  1.031094600E+05  1.713099991E-04
  1.528100700E+04  7.123999962E-04
  3.441539200E+03  2.990479984E-03
  9.670948300E+02  1.164036994E-02
  3.140353400E+02  3.968642979E-02
  1.134423000E+02  1.128546094E-01
  4.464472700E+01  2.473650687E-01
  1.894287400E+01  3.672702681E-01
  8.532743000E+00  2.896286985E-01
  3.919401000E+00  7.786681959E-02
  1.568157000E+00  4.562139976E-03
  6.232900000E-01  2.468879987E-03
  2.408610000E-01  1.106309994E-03
  8.430100000E-02  1.739699991E-04
   s  14
  1.031094600E+05 -4.044999995E-05
  1.528100700E+04 -1.682299998E-04
  3.441539200E+03 -7.084299991E-04
  9.670948300E+02 -2.767999996E-03
  3.140353400E+02 -9.611379987E-03
  1.134423000E+02 -2.833957996E-02
  4.464472700E+01 -6.839343991E-02
  1.894287400E+01 -1.237379298E-01
  8.532743000E+00 -1.512859698E-01
  3.919401000E+00 -9.099909988E-03
  1.568157000E+00  3.716257695E-01
  6.232900000E-01  5.500214393E-01
  2.408610000E-01  2.092318697E-01
  8.430100000E-02  8.074639989E-03
   p   9
  2.453302900E+02  1.024860004E-03
  5.691900500E+01  8.344290032E-03
  1.760456800E+01  4.078927016E-02
  6.274995000E+00  1.351370605E-01
  2.447030000E+00  2.798830811E-01
  9.950600000E-01  3.597966414E-01
  4.039730000E-01  3.055347412E-01
  1.548100000E-01  1.354703905E-01
  5.418400000E-02  2.804449011E-02
 
[MO]
Sym=     1a  
Ene=   -26.5850
Spin= Alpha
Occup=    2.00000
   1         0.70684784
   2        -0.00241278
   3         0.00000000
   4        -0.00000000
   5         0.00198665
   6         0.70684785
   7        -0.00241278
   8         0.00000000
   9         0.00000000
  10        -0.00198665
Sym=     2a  
Ene=   -26.5840
Spin= Alpha
Occup=    2.00000
   1        -0.70762620
   2        -0.00089012
   3         0.00000000
   4        -0.00000000
   5        -0.00330684
   6         0.70762618
   7         0.00089012
   8         0.00000000
   9         0.00000000
  10        -0.00330684
Sym=     3a  
Ene=    -2.4594
Spin= Alpha
Occup=    2.00000
   1        -0.04373715
   2         0.46842052
   3         0.00000000
   4         0.00000000
   5         0.26275347
   6        -0.04373715
   7         0.46842052
   8         0.00000000
   9         0.00000000
  10        -0.26275347
Sym=     4a  
Ene=    -1.3670
Spin= Alpha
Occup=    2.00000
   1        -0.01865075
   2        -0.74057364
   3         0.00000000
   4        -0.00000000
   5         0.20917193
   6         0.01865075
   7         0.74057364
   8         0.00000000
   9         0.00000000
  10         0.20917193
Sym=     5a  
Ene=    -1.1342
Spin= Alpha
Occup=    2.00000
   1        -0.00000000
   2        -0.00000000
   3        -0.03733338
   4         0.61375338
   5         0.00000000
   6        -0.00000000
   7        -0.00000000
   8        -0.03733338
   9         0.61375338
  10        -0.00000000
Sym=     6a  
Ene=    -1.1341
Spin= Alpha
Occup=    2.00000
   1        -0.00000000
   2        -0.00000000
   3         0.61375338
   4         0.03733338
   5         0.00000000
   6        -0.00000000
   7        -0.00000000
   8         0.61375338
   9         0.03733338
  10        -0.00000000
Sym=     7a  
Ene=    -0.9845
Spin= Alpha
Occup=    2.00000
   1         0.03751854
   2         0.42989110
   3         0.00000000
   4         0.00000000
   5        -0.63765730
   6         0.03751854
   7         0.42989110
   8         0.00000000
   9         0.00000000
  10         0.63765730
Sym=     8a  
Ene=    -0.5756
Spin= Alpha
Occup=    2.00000
   1         0.00000000
   2         0.00000000
   3         0.05215726
   4        -0.85745509
   5        -0.00000000
   6         0.00000000
   7         0.00000000
   8        -0.05215726
   9         0.85745509
  10         0.00000000
Sym=     9a  
Ene=    -0.5752
Spin= Alpha
Occup=    1.99857
   1         0.00000000
   2         0.00000000
   3        -0.85745509
   4        -0.05215726
   5        -0.00000000
   6        -0.00000000
   7        -0.00000000
   8         0.85745509
   9         0.05215726
  10        -0.00000000
Sym=    10a  
Ene=     0.0004
Spin= Alpha
Occup=    0.00143
   1         0.13455843
   2         0.97849979
   3        -0.00000000
   4        -0.00000000
   5         1.03998664
   6        -0.13455843
   7        -0.97849979
   8        -0.00000000
   9         0.00000000
  10         1.03998664
