[Molden Format]
[N_Atoms]
                     2
[Atoms] (AU)
F1          1      9           0.00000000      0.00000000      0.00000000
F2          2      9           0.00000000      0.00000000      1.70075351
[Charge] (Mulliken)
  4.440892098500626E-013
 -4.547473508864641E-013
[GTO] (AU)
   1
   s  14
  1.031094600E+05  1.713099991E-04
  1.528100700E+04  7.123999962E-04
  3.441539200E+03  2.990479984E-03
  9.670948300E+02  1.164036994E-02
  3.140353400E+02  3.968642979E-02
  1.134423000E+02  1.128546094E-01
  4.464472700E+01  2.473650687E-01
  1.894287400E+01  3.672702681E-01
  8.532743000E+00  2.896286985E-01
  3.919401000E+00  7.786681959E-02
  1.568157000E+00  4.562139976E-03
  6.232900000E-01  2.468879987E-03
  2.408610000E-01  1.106309994E-03
  8.430100000E-02  1.739699991E-04
   s  14
  1.031094600E+05 -4.044999995E-05
  1.528100700E+04 -1.682299998E-04
  3.441539200E+03 -7.084299991E-04
  9.670948300E+02 -2.767999996E-03
  3.140353400E+02 -9.611379987E-03
  1.134423000E+02 -2.833957996E-02
  4.464472700E+01 -6.839343991E-02
  1.894287400E+01 -1.237379298E-01
  8.532743000E+00 -1.512859698E-01
  3.919401000E+00 -9.099909988E-03
  1.568157000E+00  3.716257695E-01
  6.232900000E-01  5.500214393E-01
  2.408610000E-01  2.092318697E-01
  8.430100000E-02  8.074639989E-03
   p   9
  2.453302900E+02  1.024860004E-03
  5.691900500E+01  8.344290032E-03
  1.760456800E+01  4.078927016E-02
  6.274995000E+00  1.351370605E-01
  2.447030000E+00  2.798830811E-01
  9.950600000E-01  3.597966414E-01
  4.039730000E-01  3.055347412E-01
  1.548100000E-01  1.354703905E-01
  5.418400000E-02  2.804449011E-02
 
   2
   s  14
  1.031094600E+05  1.713099991E-04
  1.528100700E+04  7.123999962E-04
  3.441539200E+03  2.990479984E-03
  9.670948300E+02  1.164036994E-02
  3.140353400E+02  3.968642979E-02
  1.134423000E+02  1.128546094E-01
  4.464472700E+01  2.473650687E-01
  1.894287400E+01  3.672702681E-01
  8.532743000E+00  2.896286985E-01
  3.919401000E+00  7.786681959E-02
  1.568157000E+00  4.562139976E-03
  6.232900000E-01  2.468879987E-03
  2.408610000E-01  1.106309994E-03
  8.430100000E-02  1.739699991E-04
   s  14
  1.031094600E+05 -4.044999995E-05
  1.528100700E+04 -1.682299998E-04
  3.441539200E+03 -7.084299991E-04
  9.670948300E+02 -2.767999996E-03
  3.140353400E+02 -9.611379987E-03
  1.134423000E+02 -2.833957996E-02
  4.464472700E+01 -6.839343991E-02
  1.894287400E+01 -1.237379298E-01
  8.532743000E+00 -1.512859698E-01
  3.919401000E+00 -9.099909988E-03
  1.568157000E+00  3.716257695E-01
  6.232900000E-01  5.500214393E-01
  2.408610000E-01  2.092318697E-01
  8.430100000E-02  8.074639989E-03
   p   9
  2.453302900E+02  1.024860004E-03
  5.691900500E+01  8.344290032E-03
  1.760456800E+01  4.078927016E-02
  6.274995000E+00  1.351370605E-01
  2.447030000E+00  2.798830811E-01
  9.950600000E-01  3.597966414E-01
  4.039730000E-01  3.055347412E-01
  1.548100000E-01  1.354703905E-01
  5.418400000E-02  2.804449011E-02
 
[MO]
Sym=     1a  
Ene=   -26.5850
Spin= Alpha
Occup=    1.00000
   1         0.70684783
   2        -0.00241319
   3         0.00000000
   4        -0.00000000
   5         0.00198698
   6         0.70684784
   7        -0.00241319
   8         0.00000000
   9         0.00000000
  10        -0.00198698
Sym=     1a  
Ene=   -26.5850
Spin= Beta
Occup=    1.00000
   1         0.70684783
   2        -0.00241319
   3         0.00000000
   4        -0.00000000
   5         0.00198698
   6         0.70684784
   7        -0.00241319
   8         0.00000000
   9         0.00000000
  10        -0.00198698
Sym=     2a  
Ene=   -26.5840
Spin= Alpha
Occup=    1.00000
   1        -0.70762833
   2        -0.00090538
   3         0.00000000
   4        -0.00000000
   5        -0.00332343
   6         0.70762831
   7         0.00090538
   8         0.00000000
   9         0.00000000
  10        -0.00332343
Sym=     2a  
Ene=   -26.5840
Spin= Beta
Occup=    1.00000
   1        -0.70762833
   2        -0.00090538
   3         0.00000000
   4        -0.00000000
   5        -0.00332343
   6         0.70762831
   7         0.00090538
   8         0.00000000
   9         0.00000000
  10        -0.00332343
Sym=     3a  
Ene=    -2.4593
Spin= Alpha
Occup=    1.00000
   1        -0.04373502
   2         0.46844260
   3         0.00000000
   4         0.00000000
   5         0.26272072
   6        -0.04373502
   7         0.46844260
   8         0.00000000
   9         0.00000000
  10        -0.26272072
Sym=     3a  
Ene=    -2.4593
Spin= Beta
Occup=    1.00000
   1        -0.04373502
   2         0.46844260
   3         0.00000000
   4         0.00000000
   5         0.26272072
   6        -0.04373502
   7         0.46844260
   8         0.00000000
   9         0.00000000
  10        -0.26272072
Sym=     4a  
Ene=    -1.3670
Spin= Alpha
Occup=    1.00000
   1        -0.01873023
   2        -0.74114965
   3         0.00000000
   4        -0.00000000
   5         0.20855955
   6         0.01873023
   7         0.74114965
   8         0.00000000
   9         0.00000000
  10         0.20855955
Sym=     4a  
Ene=    -1.3670
Spin= Beta
Occup=    1.00000
   1        -0.01873023
   2        -0.74114965
   3         0.00000000
   4        -0.00000000
   5         0.20855955
   6         0.01873023
   7         0.74114965
   8         0.00000000
   9         0.00000000
  10         0.20855955
Sym=     5a  
Ene=    -1.1341
Spin= Alpha
Occup=    1.00000
   1        -0.00000000
   2        -0.00000000
   3         0.48514711
   4         0.37778205
   5         0.00000000
   6        -0.00000000
   7        -0.00000000
   8         0.48514711
   9         0.37778205
  10        -0.00000000
Sym=     5a  
Ene=    -1.1341
Spin= Beta
Occup=    1.00000
   1        -0.00000000
   2        -0.00000000
   3         0.48514711
   4         0.37778205
   5         0.00000000
   6        -0.00000000
   7        -0.00000000
   8         0.48514711
   9         0.37778205
  10        -0.00000000
Sym=     6a  
Ene=    -1.1341
Spin= Alpha
Occup=    1.00000
   1         0.00000000
   2        -0.00000000
   3        -0.37778205
   4         0.48514711
   5        -0.00000000
   6         0.00000000
   7         0.00000000
   8        -0.37778205
   9         0.48514711
  10         0.00000000
Sym=     6a  
Ene=    -1.1341
Spin= Beta
Occup=    1.00000
   1         0.00000000
   2        -0.00000000
   3        -0.37778205
   4         0.48514711
   5        -0.00000000
   6         0.00000000
   7         0.00000000
   8        -0.37778205
   9         0.48514711
  10         0.00000000
Sym=     7a  
Ene=    -0.9844
Spin= Alpha
Occup=    1.00000
   1         0.03752123
   2         0.42986703
   3         0.00000000
   4         0.00000000
   5        -0.63767080
   6         0.03752123
   7         0.42986703
   8         0.00000000
   9         0.00000000
  10         0.63767080
Sym=     7a  
Ene=    -0.9844
Spin= Beta
Occup=    1.00000
   1         0.03752123
   2         0.42986703
   3         0.00000000
   4         0.00000000
   5        -0.63767080
   6         0.03752123
   7         0.42986703
   8         0.00000000
   9         0.00000000
  10         0.63767080
Sym=     8a  
Ene=    -0.5756
Spin= Alpha
Occup=    1.00000
   1        -0.00000000
   2        -0.00000000
   3        -0.84668802
   4        -0.14515168
   5         0.00000000
   6         0.00000000
   7         0.00000000
   8         0.84668802
   9         0.14515168
  10        -0.00000000
Sym=     8a  
Ene=    -0.5756
Spin= Beta
Occup=    1.00000
   1        -0.00000000
   2        -0.00000000
   3        -0.84668802
   4        -0.14515168
   5         0.00000000
   6         0.00000000
   7         0.00000000
   8         0.84668802
   9         0.14515168
  10        -0.00000000
Sym=     9a  
Ene=    -0.5756
Spin= Alpha
Occup=    1.00000
   1         0.00000000
   2         0.00000000
   3         0.14515168
   4        -0.84668802
   5        -0.00000000
   6        -0.00000000
   7        -0.00000000
   8        -0.14515168
   9         0.84668802
  10         0.00000000
Sym=     9a  
Ene=    -0.5756
Spin= Beta
Occup=    1.00000
   1         0.00000000
   2         0.00000000
   3         0.14515168
   4        -0.84668802
   5        -0.00000000
   6        -0.00000000
   7        -0.00000000
   8        -0.14515168
   9         0.84668802
  10         0.00000000
Sym=    10a  
Ene=     1.0130
Spin= Alpha
Occup=    0.00000
   1         0.13453619
   2         0.97806355
   3        -0.00000000
   4         0.00000000
   5         1.04010957
   6        -0.13453619
   7        -0.97806355
   8        -0.00000000
   9        -0.00000000
  10         1.04010957
Sym=    10a  
Ene=     1.0130
Spin= Beta
Occup=    0.00000
   1         0.13453619
   2         0.97806355
   3        -0.00000000
   4         0.00000000
   5         1.04010957
   6        -0.13453619
   7        -0.97806355
   8        -0.00000000
   9        -0.00000000
  10         1.04010957
