[Molden Format]
[N_Atoms]
                     2
[Atoms] (AU)
BE1         1      4           0.00000000      0.00000000      0.00000000
F2          2      9           0.00000000      0.00000000      2.83458919
[Charge] (Mulliken)
  0.586483921366437     
 -0.586483921366458     
[GTO] (AU)
   1
   s  14
  2.262859900E+04  8.443999941E-05
  3.372318100E+03  4.601499968E-04
  7.603504000E+02  2.285389984E-03
  2.117404800E+02  9.648129932E-03
  6.722346800E+01  3.494469975E-02
  2.337217700E+01  1.061099893E-01
  8.721373000E+00  2.458240383E-01
  3.468091000E+00  3.862428773E-01
  1.452144000E+00  3.105526078E-01
  6.086150000E-01  6.415933955E-02
  2.576860000E-01 -2.265049984E-03
  1.041760000E-01 -5.217499963E-04
  4.242700000E-02 -8.757499938E-04
  1.484900000E-02  1.242199991E-04
   s  14
  2.262859900E+04 -1.586999994E-05
  3.372318100E+03 -8.656999968E-05
  7.603504000E+02 -4.302199984E-04
  2.117404800E+02 -1.825079993E-03
  6.722346800E+01 -6.682749976E-03
  2.337217700E+01 -2.095119992E-02
  8.721373000E+00 -5.200308981E-02
  3.468091000E+00 -9.849176964E-02
  1.452144000E+00 -1.355800695E-01
  6.086150000E-01 -6.429875976E-02
  2.576860000E-01  3.125414989E-01
  1.041760000E-01  6.270468577E-01
  4.242700000E-02  2.110231492E-01
  1.484900000E-02 -4.104669985E-03
   p   9
  3.371018400E+01  1.069960000E-03
  8.057649500E+00  6.828550001E-03
  2.836471400E+00  2.119065000E-02
  1.099965700E+00  5.843696001E-02
  4.433964000E-01  2.020920800E-01
  1.822264000E-01  4.582953101E-01
  7.572410000E-02  3.691239601E-01
  3.168540000E-02  6.611471001E-02
  1.108990000E-02  1.405160000E-03
 
   2
   s  14
  1.031094600E+05  1.713099991E-04
  1.528100700E+04  7.123999962E-04
  3.441539200E+03  2.990479984E-03
  9.670948300E+02  1.164036994E-02
  3.140353400E+02  3.968642979E-02
  1.134423000E+02  1.128546094E-01
  4.464472700E+01  2.473650687E-01
  1.894287400E+01  3.672702681E-01
  8.532743000E+00  2.896286985E-01
  3.919401000E+00  7.786681959E-02
  1.568157000E+00  4.562139976E-03
  6.232900000E-01  2.468879987E-03
  2.408610000E-01  1.106309994E-03
  8.430100000E-02  1.739699991E-04
   s  14
  1.031094600E+05 -4.044999995E-05
  1.528100700E+04 -1.682299998E-04
  3.441539200E+03 -7.084299991E-04
  9.670948300E+02 -2.767999996E-03
  3.140353400E+02 -9.611379987E-03
  1.134423000E+02 -2.833957996E-02
  4.464472700E+01 -6.839343991E-02
  1.894287400E+01 -1.237379298E-01
  8.532743000E+00 -1.512859698E-01
  3.919401000E+00 -9.099909988E-03
  1.568157000E+00  3.716257695E-01
  6.232900000E-01  5.500214393E-01
  2.408610000E-01  2.092318697E-01
  8.430100000E-02  8.074639989E-03
   p   9
  2.453302900E+02  1.024860004E-03
  5.691900500E+01  8.344290032E-03
  1.760456800E+01  4.078927016E-02
  6.274995000E+00  1.351370605E-01
  2.447030000E+00  2.798830811E-01
  9.950600000E-01  3.597966414E-01
  4.039730000E-01  3.055347412E-01
  1.548100000E-01  1.354703905E-01
  5.418400000E-02  2.804449011E-02
 
[MO]
Sym=     1a  
Ene=   -26.1090
Spin= Alpha
Occup=    1.00000
   1        -0.00013599
   2        -0.00052723
   3         0.00000000
   4        -0.00000000
   5        -0.00049938
   6         1.00004219
   7        -0.00220916
   8        -0.00000000
   9         0.00000000
  10        -0.00087237
Sym=     1a  
Ene=   -26.1100
Spin= Beta
Occup=    1.00000
   1        -0.00013922
   2        -0.00052177
   3         0.00000000
   4        -0.00000000
   5        -0.00051337
   6         1.00004287
   7        -0.00217812
   8        -0.00000000
   9         0.00000000
  10        -0.00086646
Sym=     2a  
Ene=    -4.8081
Spin= Alpha
Occup=    1.00000
   1         0.99970440
   2         0.00243171
   3        -0.00000000
   4         0.00000000
   5        -0.00026000
   6        -0.00018015
   7         0.00284695
   8         0.00000000
   9         0.00000000
  10        -0.00273870
Sym=     2a  
Ene=    -4.7870
Spin= Beta
Occup=    1.00000
   1         0.99973666
   2         0.00260397
   3        -0.00000000
   4         0.00000000
   5         0.00085157
   6        -0.00024564
   7         0.00226916
   8         0.00000000
   9         0.00000000
  10        -0.00251746
Sym=     3a  
Ene=    -1.4878
Spin= Alpha
Occup=    1.00000
   1        -0.03652383
   2         0.04485916
   3         0.00000000
   4         0.00000000
   5         0.05935524
   6        -0.00231933
   7         0.95292750
   8         0.00000000
   9        -0.00000000
  10        -0.09039600
Sym=     3a  
Ene=    -1.4885
Spin= Beta
Occup=    1.00000
   1        -0.03603471
   2         0.04415694
   3         0.00000000
   4         0.00000000
   5         0.05828898
   6        -0.00225450
   7         0.95443009
   8         0.00000000
   9        -0.00000000
  10        -0.08344894
Sym=     4a  
Ene=    -0.6182
Spin= Alpha
Occup=    1.00000
   1         0.06582298
   2        -0.17811419
   3         0.00000000
   4        -0.00000000
   5        -0.11729653
   6         0.01345990
   7         0.22170556
   8        -0.00000000
   9         0.00000000
  10         0.92241953
Sym=     4a  
Ene=    -0.6053
Spin= Beta
Occup=    1.00000
   1         0.06621344
   2        -0.14680538
   3         0.00000000
   4        -0.00000000
   5        -0.15024314
   6         0.01424139
   7         0.21971168
   8        -0.00000000
   9        -0.00000000
  10         0.92616316
Sym=     5a  
Ene=    -0.5598
Spin= Alpha
Occup=    1.00000
   1        -0.00000000
   2        -0.00000000
   3        -0.01284894
   4         0.15204318
   5        -0.00000000
   6         0.00000000
   7        -0.00000000
   8        -0.08028242
   9         0.94999206
  10        -0.00000000
Sym=     5a  
Ene=    -0.5685
Spin= Beta
Occup=    1.00000
   1         0.00000000
   2        -0.00000000
   3        -0.01606865
   4         0.11636896
   5        -0.00000000
   6         0.00000000
   7        -0.00000000
   8        -0.13214636
   9         0.95700222
  10         0.00000000
Sym=     6a  
Ene=    -0.5598
Spin= Alpha
Occup=    1.00000
   1         0.00000000
   2        -0.00000000
   3         0.15204318
   4         0.01284894
   5         0.00000000
   6         0.00000000
   7         0.00000000
   8         0.94999206
   9         0.08028242
  10         0.00000000
Sym=     6a  
Ene=    -0.5685
Spin= Beta
Occup=    1.00000
   1         0.00000000
   2        -0.00000000
   3         0.11636896
   4         0.01606865
   5        -0.00000000
   6         0.00000000
   7         0.00000000
   8         0.95700222
   9         0.13214636
  10         0.00000000
Sym=     7a  
Ene=    -0.3603
Spin= Alpha
Occup=    1.00000
   1         0.01367875
   2         0.86240669
   3        -0.00000000
   4        -0.00000000
   5        -0.51292408
   6         0.00017457
   7        -0.03578815
   8         0.00000000
   9         0.00000000
  10         0.19573320
Sym=     7a  
Ene=     0.0440
Spin= Beta
Occup=    0.00000
   1         0.01719689
   2         0.93864904
   3        -0.00000000
   4        -0.00000000
   5        -0.38863565
   6        -0.00939528
   7        -0.12378562
   8         0.00000000
   9         0.00000000
  10         0.20760759
Sym=     8a  
Ene=     0.0933
Spin= Alpha
Occup=    0.00000
   1        -0.00000000
   2        -0.00000000
   3        -0.12339649
   4         1.00940224
   5        -0.00000000
   6         0.00000000
   7         0.00000000
   8         0.04675619
   9        -0.38247285
  10         0.00000000
Sym=     8a  
Ene=     0.1517
Spin= Beta
Occup=    0.00000
   1        -0.00000000
   2        -0.00000000
   3        -0.19465997
   4         1.00285062
   5        -0.00000000
   6         0.00000000
   7         0.00000000
   8         0.06712286
   9        -0.34580402
  10        -0.00000000
Sym=     9a  
Ene=     0.0933
Spin= Alpha
Occup=    0.00000
   1         0.00000000
   2        -0.00000000
   3        -1.00940224
   4        -0.12339649
   5         0.00000000
   6        -0.00000000
   7        -0.00000000
   8         0.38247285
   9         0.04675619
  10         0.00000000
Sym=     9a  
Ene=     0.1517
Spin= Beta
Occup=    0.00000
   1        -0.00000000
   2         0.00000000
   3         1.00285062
   4         0.19465997
   5        -0.00000000
   6         0.00000000
   7        -0.00000000
   8        -0.34580402
   9        -0.06712286
  10        -0.00000000
Sym=    10a  
Ene=     0.3421
Spin= Alpha
Occup=    0.00000
   1         0.05387147
   2         0.66711102
   3         0.00000000
   4         0.00000000
   5         1.02951639
   6        -0.08001314
   7        -0.69918833
   8        -0.00000000
   9        -0.00000000
  10         0.46857552
Sym=    10a  
Ene=     0.3780
Spin= Beta
Occup=    0.00000
   1         0.05208601
   2         0.56387488
   3         0.00000000
   4         0.00000000
   5         1.07854888
   6        -0.07931663
   7        -0.68763325
   8         0.00000000
   9        -0.00000000
  10         0.45723305
