[Molden Format]
[N_Atoms]
                     2
[Atoms] (AU)
BE1         1      4           0.00000000      0.00000000      0.00000000
N2          2      7           0.00000000      0.00000000      2.26767135
[Charge] (Mulliken)
  0.380904110800929     
 -0.380904110800969     
[GTO] (AU)
   1
   s  14
  2.262859900E+04  8.443999941E-05
  3.372318100E+03  4.601499968E-04
  7.603504000E+02  2.285389984E-03
  2.117404800E+02  9.648129932E-03
  6.722346800E+01  3.494469975E-02
  2.337217700E+01  1.061099893E-01
  8.721373000E+00  2.458240383E-01
  3.468091000E+00  3.862428773E-01
  1.452144000E+00  3.105526078E-01
  6.086150000E-01  6.415933955E-02
  2.576860000E-01 -2.265049984E-03
  1.041760000E-01 -5.217499963E-04
  4.242700000E-02 -8.757499938E-04
  1.484900000E-02  1.242199991E-04
   s  14
  2.262859900E+04 -1.586999994E-05
  3.372318100E+03 -8.656999968E-05
  7.603504000E+02 -4.302199984E-04
  2.117404800E+02 -1.825079993E-03
  6.722346800E+01 -6.682749976E-03
  2.337217700E+01 -2.095119992E-02
  8.721373000E+00 -5.200308981E-02
  3.468091000E+00 -9.849176964E-02
  1.452144000E+00 -1.355800695E-01
  6.086150000E-01 -6.429875976E-02
  2.576860000E-01  3.125414989E-01
  1.041760000E-01  6.270468577E-01
  4.242700000E-02  2.110231492E-01
  1.484900000E-02 -4.104669985E-03
   p   9
  3.371018400E+01  1.069960000E-03
  8.057649500E+00  6.828550001E-03
  2.836471400E+00  2.119065000E-02
  1.099965700E+00  5.843696001E-02
  4.433964000E-01  2.020920800E-01
  1.822264000E-01  4.582953101E-01
  7.572410000E-02  3.691239601E-01
  3.168540000E-02  6.611471001E-02
  1.108990000E-02  1.405160000E-03
 
   2
   s  14
  7.476171500E+04  1.182599996E-04
  1.112365400E+04  5.172899983E-04
  2.512685700E+03  2.266659992E-03
  7.037772900E+02  9.145289970E-03
  2.254787900E+02  3.239342989E-02
  7.961581000E+01  9.770792967E-02
  3.023728300E+01  2.317036792E-01
  1.226362200E+01  3.768898887E-01
  5.265086000E+00  3.177420689E-01
  2.333471000E+00  8.211308973E-02
  9.018560000E-01  3.312089989E-03
  3.583360000E-01  3.720819988E-03
  1.410930000E-01  3.165419989E-03
  4.938300000E-02  4.595799985E-04
   s  14
  7.476171500E+04 -2.707000010E-05
  1.112365400E+04 -1.183700004E-04
  2.512685700E+03 -5.203800020E-04
  7.037772900E+02 -2.102930008E-03
  2.254787900E+02 -7.568200028E-03
  7.961581000E+01 -2.346767009E-02
  3.023728300E+01 -6.042901023E-02
  1.226362200E+01 -1.170549104E-01
  5.265086000E+00 -1.555321506E-01
  2.333471000E+00 -2.468935009E-02
  9.018560000E-01  3.625054514E-01
  3.583360000E-01  5.550845021E-01
  1.410930000E-01  2.148376908E-01
  4.938300000E-02  8.983850034E-03
   p   9
  1.266665700E+02  1.233630000E-03
  2.983738900E+01  9.493409996E-03
  9.394038000E+00  4.293961998E-02
  3.405104000E+00  1.362925399E-01
  1.350000000E+00  2.921362499E-01
  5.576960000E-01  3.887887598E-01
  2.324490000E-01  2.946801399E-01
  9.426400000E-02  8.012875997E-02
  3.299200000E-02  5.405199998E-04
 
[MO]
Sym=     1a  
Ene=   -15.6170
Spin= Alpha
Occup=    1.00000
   1        -0.00129314
   2        -0.00399293
   3        -0.00000000
   4        -0.00000000
   5        -0.00301537
   6         1.00061589
   7         0.00140750
   8        -0.00000000
   9        -0.00000000
  10        -0.00178712
Sym=     1a  
Ene=   -15.5450
Spin= Beta
Occup=    1.00000
   1        -0.00058248
   2        -0.00190430
   3         0.00000000
   4         0.00000000
   5        -0.00119710
   6         1.00024411
   7        -0.00537132
   8        -0.00000000
   9        -0.00000000
  10        -0.00134178
Sym=     2a  
Ene=    -4.7504
Spin= Alpha
Occup=    1.00000
   1         0.99679461
   2        -0.00073443
   3         0.00000000
   4         0.00000000
   5         0.00089706
   6        -0.00203459
   7         0.01043697
   8        -0.00000000
   9        -0.00000000
  10        -0.01077389
Sym=     2a  
Ene=    -4.7604
Spin= Beta
Occup=    1.00000
   1         0.99754103
   2         0.00065621
   3         0.00000000
   4         0.00000000
   5        -0.00017639
   6        -0.00186572
   7         0.00908760
   8         0.00000000
   9         0.00000000
  10        -0.00768462
Sym=     3a  
Ene=    -1.2020
Spin= Alpha
Occup=    1.00000
   1        -0.14302095
   2        -0.01225366
   3         0.00000000
   4         0.00000000
   5         0.04729642
   6        -0.00161555
   7         0.97729883
   8        -0.00000000
   9        -0.00000000
  10        -0.13559621
Sym=     3a  
Ene=    -0.9332
Spin= Beta
Occup=    1.00000
   1        -0.15147928
   2         0.08355951
   3        -0.00000000
   4        -0.00000000
   5         0.11156460
   6        -0.01132790
   7         0.85742497
   8         0.00000000
   9         0.00000000
  10        -0.25820824
Sym=     4a  
Ene=    -0.6612
Spin= Alpha
Occup=    1.00000
   1         0.16742192
   2        -0.02326484
   3        -0.00000000
   4        -0.00000000
   5        -0.11495342
   6         0.01463234
   7         0.19702964
   8        -0.00000000
   9        -0.00000000
  10         0.98872555
Sym=     4a  
Ene=    -0.4181
Spin= Beta
Occup=    1.00000
   1        -0.00000000
   2         0.00000000
   3        -0.16855811
   4         0.39822860
   5        -0.00000000
   6         0.00000000
   7        -0.00000000
   8        -0.29139809
   9         0.68844539
  10        -0.00000000
Sym=     5a  
Ene=    -0.6060
Spin= Alpha
Occup=    1.00000
   1        -0.00000000
   2        -0.00000000
   3        -0.13348291
   4        -0.05649928
   5        -0.00000000
   6         0.00000000
   7        -0.00000000
   8        -0.86022097
   9        -0.36410550
  10        -0.00000000
Sym=     5a  
Ene=    -0.3220
Spin= Beta
Occup=    1.00000
   1        -0.01603569
   2        -0.85195089
   3         0.00000000
   4         0.00000000
   5         0.53253846
   6         0.00148360
   7         0.18026299
   8         0.00000000
   9         0.00000000
  10         0.01084718
Sym=     6a  
Ene=    -0.5490
Spin= Alpha
Occup=    1.00000
   1         0.00000000
   2        -0.00000000
   3         0.06690081
   4        -0.15805715
   5         0.00000000
   6         0.00000000
   7        -0.00000000
   8         0.35860991
   9        -0.84723732
  10        -0.00000000
Sym=     6a  
Ene=    -0.0108
Spin= Beta
Occup=    0.00000
   1         0.00000000
   2         0.00000000
   3         0.67183772
   4         0.28436857
   5        -0.00000000
   6         0.00000000
   7        -0.00000000
   8         0.41888653
   9         0.17730199
  10         0.00000000
Sym=     7a  
Ene=     0.0938
Spin= Alpha
Occup=    0.00000
   1         0.05981157
   2         0.97714459
   3         0.00000000
   4         0.00000000
   5        -0.40826948
   6        -0.02309914
   7        -0.23926621
   8        -0.00000000
   9        -0.00000000
  10         0.18349153
Sym=     7a  
Ene=     0.1506
Spin= Beta
Occup=    0.00000
   1        -0.12644042
   2        -0.02890975
   3         0.00000000
   4         0.00000000
   5         0.28995660
   6        -0.03248373
   7        -0.42708247
   8        -0.00000000
   9        -0.00000000
  10        -0.92705509
Sym=     8a  
Ene=     0.2214
Spin= Alpha
Occup=    0.00000
   1         0.00000000
   2         0.00000000
   3        -0.99257601
   4        -0.42012738
   5        -0.00000000
   6        -0.00000000
   7        -0.00000000
   8         0.51287885
   9         0.21708609
  10         0.00000000
Sym=     8a  
Ene=     0.2327
Spin= Beta
Occup=    0.00000
   1         0.00000000
   2        -0.00000000
   3         0.38895674
   4        -0.91893352
   5        -0.00000000
   6         0.00000000
   7         0.00000000
   8        -0.30787389
   9         0.72737045
  10         0.00000000
Sym=     9a  
Ene=     0.2455
Spin= Alpha
Occup=    0.00000
   1        -0.00000000
   2        -0.00000000
   3         0.41859702
   4        -0.98896045
   5        -0.00000000
   6         0.00000000
   7         0.00000000
   8        -0.22604892
   9         0.53405407
  10        -0.00000000
Sym=     9a  
Ene=     0.3512
Spin= Beta
Occup=    0.00000
   1        -0.00000000
   2        -0.00000000
   3        -0.74273744
   4        -0.31437827
   5        -0.00000000
   6         0.00000000
   7         0.00000000
   8         0.90970264
   9         0.38504959
  10        -0.00000000
Sym=    10a  
Ene=     0.5001
Spin= Alpha
Occup=    0.00000
   1         0.23559771
   2         1.04187960
   3        -0.00000000
   4        -0.00000000
   5         1.38045504
   6        -0.22580944
   7        -1.37090685
   8        -0.00000000
   9        -0.00000000
  10         0.46539849
Sym=    10a  
Ene=     0.5158
Spin= Beta
Occup=    0.00000
   1         0.25863338
   2         1.14341164
   3        -0.00000000
   4        -0.00000000
   5         1.30678271
   6        -0.22649286
   7        -1.40730072
   8         0.00000000
   9         0.00000000
  10         0.56574514
