   This run of MOLCAS is using the pymolcas driver

                             OPE
                             OPE          NMOL  CASOP  ENMOLC A   SO
                 OPE        NMOLC        AS  OP EN  MO LC     AS  OP
                OPENM       OL CA        SO  PE NM  OL CA     SOP EN
                OP EN      MO   LC       AS  OP ENMOL  CASO   PENMOL
                OP  EN     MO   LC       AS  OP EN     MO     LC ASO
               OP   E  NMOL  C  AS       OP  EN MO     LC     AS  OP
               OP  E   NMO   LC AS        OPEN  MO     LCASOP EN   M
               O  PEN   MO  LCA  SO
            OPE   NMO   L   CAS    OP
        OPENMOL  CASOP     ENMOL   CASOPE
     OPENMOLCA   SOPENMOLCASOPEN   MOLCASOPE
    OPENMOLCAS   OP           EN   MOL    CAS
    OPENMOLCAS       OP  ENM        O     LCA
    OPENMOLCAS    OPEN  MOLCASO     P  E  NMO
    OPENMOLCAS     OP               E  N  MOL
    OPENMOLCA   SO           PENM   O  L  CAS    OPEN    MO    LCAS
    OPENMOLCA   SOP           ENM   O  L  CAS   OP  EN  MOLC  AS   O
    OPENMOLCA   SOPE           NM      O  LCA   S      OP  EN MO
    OPENMOLC                AS         O  PEN   M      OL  CA  SOPE
    OPENMO        LCASOPE  NMOL        C  ASO   P      ENMOLC     AS
    OPE     NMO      LCA  SO     P     E   NM   OL  CA SO  PE N   MO
          OPENMOLCA            SOPE   NMO        LCAS  O    P  ENMO
     OPENMOLCASOPENMOLCASOPENMOLCASOPENMOLCA
        OPENMOLCASOPENMOLCASOPENMOLCASOPE
            OPENMOLCASOPENMOLCASOPENM
               OPENMOLCASOPENMOLCA        version: 24.02
                   OPENMOLCASO
                       OPE                tag: 126-g611b04c8f

 OpenMolcas is free software; you can redistribute it and/or modify it
 under the terms of the GNU Lesser General Public License version 2.1.
 OpenMolcas is distributed in the hope that it will be useful, but it
 is provided "as is" and without any express or implied warranties.
 For more details see the full text of the license in the file
 LICENSE or in <http://www.gnu.org/licenses/>.

                 Copyright (C) The OpenMolcas Authors
           For the author list and the recommended citation,
                   consult the file CONTRIBUTORS.md

           *************************************************
           * pymolcas version py2.28                       *
           *   build c4a6d18ded8cb6cad61d2372a9abd97c      *
           *   (after the EMIL interpreter by V. Veryazov) *
           *************************************************

configuration info
------------------
Host name: debian (Linux)
C Compiler ID: GNU
C flags: -std=gnu99
Fortran Compiler ID: Intel
Fortran flags: -fpp -i8 -heap-arrays
Definitions: _MOLCAS_;_I8_;_LINUX_
Parallel: OFF (GA=OFF)


   ------------------------------------------------------------------
  |
  |              Project: 1.30
  |       Submitted from: /home/grierjones/DDCASPT2/delta_ML/BeH/1.30
  |         Scratch area: /tmp/1.30
  |      Save outputs to: /home/grierjones/DDCASPT2/delta_ML/BeH/1.30
  |               Molcas: /usr/local
  |
  | Scratch area is empty
  |
  |       MOLCAS_DRIVER = /usr/local/pymolcas
  | MOLCAS_KEEP_WORKDIR = NO
  |  MOLCAS_NEW_WORKDIR = YES
  |       MOLCAS_NPROCS = 1
  |       MOLCAS_SOURCE = /usr/local
  |    MOLCAS_STRUCTURE = 0
  |
   ------------------------------------------------------------------

++ ---------   Input file   ---------

&GATEWAY
coord=1.30.xyz
Basis = ANO-RCC-MB
Group = nosymm
End of Input

&SEWARD
End of Input

&SCF
UHF

&MBPT2
Frozen
0

&RASSCF
Title= RASSCF
FileOrb
/home/grierjones/DDCASPT2/delta_ML/BeH/1.20/1.20.RasOrb

NACTEL
1 0 0
Inactive
2
RAS2
2
Symmetry
1
Spin
2
orblisting
all
ITERation
200 100
CIMX
200
SDAV
500

&CASPT2
Imaginary Shift
0.0
Frozen
0

-- ----------------------------------

--- Start Module: gateway at Thu Apr 25 13:42:34 2024 ---
 
()()()()()()()()()()()()()()()()()()()()()()()()()()()()()()()()()()()()()()()()()()()()()()()()()()

                                              &GATEWAY

                                   only a single process is used
                       available to each process: 2.0 GB of memory, 1 thread?
                                            pid: 100659
()()()()()()()()()()()()()()()()()()()()()()()()()()()()()()()()()()()()()()()()()()()()()()()()()()
 
 
++    Symmetry information:
      ---------------------
 
                    Character Table for C1 
 
                             E  
                    a        1  x, y, xy, Rz, z, xz, Ry, yz, Rx, I
--
 
 
++    Basis set information:
      ----------------------
 
 
      Basis set label: BE.ANO-RCC...2S1P.
 
      Electronic valence basis set:
      ------------------
      Associated Effective Charge   4.000000 au
      Associated Actual Charge      4.000000 au
      Nuclear Model: Point charge
 
      Shell  nPrim  nBasis  Cartesian Spherical Contaminant
         s      14       2        X                  
         p       9       1        X                  
 
 
      Basis set label: H.ANO-RCC...1S.
 
      Electronic valence basis set:
      ------------------
      Associated Effective Charge   1.000000 au
      Associated Actual Charge      1.000000 au
      Nuclear Model: Point charge
 
      Shell  nPrim  nBasis  Cartesian Spherical Contaminant
         s       8       1        X                  
--
 
 
++    Molecular structure info:
      -------------------------
 
                    ************************************************ 
                    **** Cartesian Coordinates / Bohr, Angstrom **** 
                    ************************************************ 
 
     Center  Label                x              y              z                     x              y              z
        1      BE1              0.000000       0.000000       0.000000              0.000000       0.000000       0.000000
        2      H2               0.000000       0.000000       2.456644              0.000000       0.000000       1.300000
--
 
 
            Nuclear Potential Energy              1.62823757 au
 
--- Stop Module: gateway at Thu Apr 25 13:42:34 2024 /rc=_RC_ALL_IS_WELL_ ---
*** files: xmldump
    saved to directory /home/grierjones/DDCASPT2/delta_ML/BeH/1.30

--- Start Module: seward at Thu Apr 25 13:42:34 2024 ---
 
()()()()()()()()()()()()()()()()()()()()()()()()()()()()()()()()()()()()()()()()()()()()()()()()()()

                                              &SEWARD

                                   only a single process is used
                       available to each process: 2.0 GB of memory, 1 thread?
                                            pid: 100662
()()()()()()()()()()()()()()()()()()()()()()()()()()()()()()()()()()()()()()()()()()()()()()()()()()
 
               SEWARD will generate:
                  Multipole Moment integrals up to order  2
                  Kinetic Energy integrals
                  Nuclear Attraction integrals (point charge)
                  One-Electron Hamiltonian integrals
                  Velocity integrals
                  Relativistic Douglas-Kroll-Hess integrals:
                    - Parametrization         : EXP
                    - DKH order of Hamiltonian: 2
                    - DKH order of Properties : 0
                         - multipole moment operators
                         - electric potential operators
                         - contact operators
                  Orbital angular momentum around ( 0.0000  0.0000  0.2471 )
                  Velocity quadrupole around ( 0.0000  0.0000  0.2471 )
                  Atomic mean-field integrals
                  Two-Electron Repulsion integrals
 
                   Integrals are discarded if absolute value <: 1.00E-14
                   Integral cutoff threshold is set to       <: 1.00E-16
 
            Nuclear Potential Energy              1.62823757 au
 
 
      Basis set specifications :
      Symmetry species         a  
      Basis functions            6
 
 
      Input file to MOLDEN was generated!
 
--- Stop Module: seward at Thu Apr 25 13:42:35 2024 /rc=_RC_ALL_IS_WELL_ ---
*** files: 1.30.GssOrb 1.30.guessorb.h5 1.30.guessorb.molden xmldump
    saved to directory /home/grierjones/DDCASPT2/delta_ML/BeH/1.30

*** symbolic link created: INPORB -> 1.30.GssOrb
--- Start Module: scf at Thu Apr 25 13:42:35 2024 ---
 
()()()()()()()()()()()()()()()()()()()()()()()()()()()()()()()()()()()()()()()()()()()()()()()()()()

                                                &SCF

                                   only a single process is used
                       available to each process: 2.0 GB of memory, 1 thread?
                                            pid: 100666
()()()()()()()()()()()()()()()()()()()()()()()()()()()()()()()()()()()()()()()()()()()()()()()()()()
 
++    Input section:
      --------------
 
      Header of the integral files:
      
       Integrals generated by Gateway/Seward, Thu Apr 25 13:42:34 2024
 
 
      Cartesian coordinates in Angstrom:
      -----------------------------------------------------
      No.  Label        X            Y            Z        
      -----------------------------------------------------
       1   BE1        0.00000000   0.00000000   0.00000000
       2   H2         0.00000000   0.00000000   1.30000000
      -----------------------------------------------------
      Nuclear repulsion energy =    1.62823757
--
 
++    Orbital specifications:
      -----------------------
 
      Symmetry species               1
                                     a
      Frozen orbitals                0
      Occupied orbitals alpha        3
      Occupied orbitals beta         2
      Secondary orbitals alpha       3
      Secondary orbitals beta        4
      Deleted orbitals               0
      Total number of orbitals       6
      Number of basis functions      6
--
 
      Molecular charge                           0.000
 
++    Optimization specifications:
      ----------------------------
 
      SCF Algorithm: Conventional USCF
      D(i)-D(i-1) density differences are used
      Number of density matrices in core                 5
      Maximum number of NDDO SCF iterations            400
      Maximum number of HF SCF iterations              400
      Threshold for SCF energy change             1.00E-09
      Threshold for density matrix                1.00E-04
      Threshold for Fock matrix                   1.50E-04
      Threshold for linear dependence             1.00E-09
      Threshold at which DIIS is turned on        1.50E-01
      Maximum depth in the DIIS procedure                5
      Maximum depth in the BFGS Hessian update          30
      Threshold at which QNR/C2DIIS is turned on  7.50E-02
      Threshold for Norm(delta) (QNR/C2DIIS)      1.00E-03
      All orbitals punched on: UHFORB
--
 
      Input vectors read from INPORB
      Orbital file label: *Guess orbitals
 
 
++ Convergence information
                               UHF SCF        iterations: Energy and convergence statistics
 
Iter     Tot. SCF        One-elec.       Two-elec.     Energy      Max Dij or  Max Fij      DNorm      TNorm      AccCon     Time
         Energy          Energy          Energy        Change      Delta Norm                                                in Sec.
   1   -14.962005355   -22.646920790     6.056677863   0.00E+00    6.58E-01*   2.45E-01*    4.30E+00   5.52E+00   None         0.
   2   -15.119497755   -22.739184921     5.991449594  -1.57E-01*   1.78E-01*   7.24E-02*    2.72E+00   5.48E+00   EDIIS        0.
   3   -15.133692442   -22.744132752     5.982202738  -1.42E-02*   9.46E-02*   2.86E-02*    5.45E-01   5.48E+00   EDIIS        0.
   4   -15.137157566   -22.744494554     5.979099415  -3.47E-03*   2.00E-02*   3.24E-02*    2.09E-01   5.48E+00   c2DIIS       0.
   5   -15.138821020   -22.743622526     5.976563935  -1.66E-03*   1.53E-02*   5.35E-03*    8.15E-02   5.47E+00   QNRc2DIIS    0.
   6   -15.138910248   -22.744174414     5.977026594  -8.92E-05*   2.05E-02*   3.06E-03*    3.05E-02   5.47E+00   QNRc2DIIS    0.
   7   -15.138956327   -22.744572394     5.977378495  -4.61E-05*   6.42E-03*   9.99E-04*    3.66E-02   5.47E+00   QNRc2DIIS    0.
   8   -15.138959713   -22.744374805     5.977177520  -3.39E-06*   3.46E-04    6.03E-05     1.24E-02   5.47E+00   QNRc2DIIS    0.
   9   -15.138959728   -22.744374518     5.977177218  -1.52E-08*   5.47E-05    1.16E-05     5.93E-04   5.47E+00   QNRc2DIIS    0.
  10   -15.138959728   -22.744374960     5.977177660  -3.30E-10    5.56E-06    1.61E-06     7.32E-05   5.47E+00   QNRc2DIIS    0.
 
       Convergence after  10 Macro Iterations
--
 
 *****************************************************************************************************************************
 *                                                                                                                           *
 *                                             SCF/KS-DFT Program, Final results                                             *
 *                                                                                                                           *
 *                                                                                                                           *
 *                                                                                                                           *
 *                                                       Final Results                                                       *
 *                                                                                                                           *
 *****************************************************************************************************************************
 
::    Total SCF energy                                -15.1389597284
      One-electron energy                             -22.7443749601
      Two-electron energy                               5.9771776597
      Nuclear repulsion energy                          1.6282375720
      Kinetic energy (interpolated)                    15.1285230531
      Virial theorem                                    1.0006898674
      Total spin, S(S+1)                                0.7511902686
      Total spin, S                                     0.5005949573
      Max non-diagonal density matrix element           0.0000055116
      Max non-diagonal Fock matrix element              0.0000007651
 
 
      All orbitals with orbital energies smaller than  E(LUMO)+0.5 are printed
 
++    Molecular orbitals:
      -------------------
 
      Title: UHF orbitals (alpha)

      Molecular orbitals for symmetry species 1: a  
 
          Orbital            1         2         3         4         5         6    
          Energy           -4.7541   -0.5019   -0.3227    0.0718    0.0718    0.5389
          Occ. No.          1.0000    1.0000    1.0000    0.0000    0.0000    0.0000
 
        1 BE1    1s         0.9998   -0.0601   -0.0200    0.0000    0.0000   -0.1437
        2 BE1    2s         0.0027    0.4516   -0.7247    0.0000    0.0000   -1.0255
        3 BE1    2px       -0.0000    0.0000    0.0000    0.9618    0.2736    0.0000
        4 BE1    2py        0.0000    0.0000    0.0000   -0.2736    0.9618   -0.0000
        5 BE1    2pz       -0.0010    0.1863    0.6560   -0.0000   -0.0000   -1.1855
        6 H2     1s         0.0024    0.5916    0.2299   -0.0000   -0.0000    1.5075
--
 
 
      Input file to MOLDEN was generated!
 
 
++    Static properties:
      ------------------
 
 
      LoProp Charges per center
 

                   BE1      H2    
      Nuclear      4.0000   1.0000
      Electronic  -3.4314  -1.5686
 
      Total        0.5686  -0.5686
--
 
 
      All orbitals with orbital energies smaller than  E(LUMO)+0.5 are printed
 
++    Molecular orbitals:
      -------------------
 
      Title: UHF orbitals (beta)

      Molecular orbitals for symmetry species 1: a  
 
          Orbital            1         2         3         4         5         6    
          Energy           -4.7372   -0.4741    0.0854    0.1168    0.1168    0.5820
          Occ. No.          1.0000    1.0000    0.0000    0.0000    0.0000    0.0000
 
        1 BE1    1s         0.9999   -0.0566   -0.0258    0.0000    0.0000   -0.1434
        2 BE1    2s         0.0026    0.4123   -0.8397    0.0000    0.0000   -0.9517
        3 BE1    2px        0.0000    0.0000    0.0000    0.9618    0.2736    0.0000
        4 BE1    2py        0.0000    0.0000    0.0000   -0.2736    0.9618   -0.0000
        5 BE1    2pz        0.0006    0.2915    0.5444    0.0000   -0.0000   -1.2203
        6 H2     1s         0.0012    0.5593    0.2837   -0.0000   -0.0000    1.5107
--
 
 
++    Molecular charges:
      ------------------
 
      Mulliken charges per centre and basis function type
      ---------------------------------------------------
 
                            BE1                     H2    
                     alpha        beta       alpha        beta
      1s           0.9999      1.0001      0.6026      0.5274
      2s           0.7835      0.2946      0.0000      0.0000
      2px          0.0000      0.0000      0.0000      0.0000
      2pz          0.6140      0.1779      0.0000      0.0000
      2py          0.0000      0.0000      0.0000      0.0000
      Total        2.3974      1.4726      0.6026      0.5274
      Total              3.8700                  1.1300
 
      Charge            0.1300                 -0.1300
 
      Total electronic charge=    5.000000
 
      Total            charge=   -0.000000
--
 
 
      Input file to MOLDEN was generated!
 
 
++    Static properties:
      ------------------
 
 
      LoProp Charges per center
 

                   BE1      H2    
      Nuclear      4.0000   1.0000
      Electronic  -3.4314  -1.5686
 
      Total        0.5686  -0.5686
--
 
 
++    Natural Bond Order analysis
      ---------------------------
      Based on LoProp computed density
      -------------------------------------------------------------------------------------
      Atom A       Atom B       Bond Order
      -------------------------------------------------------------------------------------
      NBO located      0.997 non-bonded electrons on atom BE1       
      The remaining    1.918 electrons are to be considered as diffuse
--
 
 
++    Molecular orbitals:
      -------------------
 
      Title: Natural orbitals

      Molecular orbitals for symmetry species 1: a  
 
          Orbital            1         2         3         4         5         6    
          Energy           -4.7444   -0.4881   -0.1181    0.5588    0.0943    0.0943
          Occ. No.          2.0000    1.9988    1.0000    0.0012    0.0000    0.0000
 
        1 BE1    1s         1.0007   -0.0421   -0.0155   -0.1443    0.0000    0.0000
        2 BE1    2s        -0.0045    0.3993   -0.7647   -1.0181    0.0000    0.0000
        3 BE1    2px       -0.0000    0.0000    0.0000    0.0000    0.9618    0.2736
        4 BE1    2py       -0.0000    0.0000    0.0000   -0.0000   -0.2736    0.9618
        5 BE1    2pz       -0.0043    0.2669    0.6346   -1.1817   -0.0000   -0.0000
        6 H2     1s        -0.0081    0.5848    0.1751    1.5175   -0.0000   -0.0000
--
 
 
++    Molecular properties:
      ---------------------
 
      Charge (e):
                      =   -0.0000
      Dipole Moment (Debye):
      Origin of the operator (Ang)=    0.0000    0.0000    0.0000
                   X=  4.1247E-14               Y=  1.2846E-14               Z= -7.6534E-01           Total=  7.6534E-01
      Quadrupole Moment (Debye*Ang):
      Origin of the operator (Ang)=    0.0000    0.0000    0.1308
                  XX= -7.0705E+00              XY= -1.5424E-27              XZ= -1.2083E-13              YY= -7.0705E+00
                  YZ= -6.1165E-14              ZZ= -1.1947E+01
      In traceless form (Debye*Ang)
                  XX=  2.4384E+00              XY= -2.3136E-27              XZ= -1.8125E-13              YY=  2.4384E+00
                  YZ= -9.1748E-14              ZZ= -4.8768E+00
--
 
 
      Input file to MOLDEN was generated!
 
 ###############################################################################
 ###############################################################################
 ###                                                                         ###
 ###                                                                         ###
 ###    WARNING: RunFile label nBas                                          ###
 ###    was used       87 times                                              ###
 ###                                                                         ###
 ###                                                                         ###
 ###############################################################################
 ###############################################################################
--- Stop Module: scf at Thu Apr 25 13:42:36 2024 /rc=_RC_ALL_IS_WELL_ ---
*** files: 1.30.LprOrb 1.30.LoProp.molden 1.30.scf.molden 1.30.scf.h5 1.30.UhfOrb 1.30.UnaOrb xmldump
    saved to directory /home/grierjones/DDCASPT2/delta_ML/BeH/1.30

*** symbolic link created: INPORB -> 1.30.UnaOrb
--- Start Module: mbpt2 at Thu Apr 25 13:42:36 2024 ---
 
()()()()()()()()()()()()()()()()()()()()()()()()()()()()()()()()()()()()()()()()()()()()()()()()()()

                                               &MBPT2

                                   only a single process is used
                       available to each process: 2.0 GB of memory, 1 thread?
                                            pid: 100670
()()()()()()()()()()()()()()()()()()()()()()()()()()()()()()()()()()()()()()()()()()()()()()()()()()
 
 
 ###############################################################################
 ###############################################################################
 ###                                                                         ###
 ###                                                                         ###
 ###    WARNING: MP2 implementation intended for RHF references only         ###
 ###                                                                         ###
 ###                                                                         ###
 ###############################################################################
 ###############################################################################
MBPT2 WARNING: Reference function according to RunFile:UHF-SCF 
I'll assume you know what you're doing and continue
 
 
WARNING!
Default frozen orbitals as non valence orbitals is overwritten by user input.
Default values:   1
 
 
      Cartesian coordinates in Angstrom:
      -----------------------------------------------------
      No.  Label        X            Y            Z        
      -----------------------------------------------------
       1   BE1        0.00000000   0.00000000   0.00000000
       2   H2         0.00000000   0.00000000   1.30000000
      -----------------------------------------------------
      Nuclear repulsion energy =    1.62823757
 
      Contents of RUNFILE file:
      -------------------------
 
      Symmetry species                           1
                                                 a
      Number of basis functions                  6
      Frozen occupied orbitals                   0
      Active occupied orbitals                   3
      Active external orbitals                   3
      Deleted external orbitals                  0
 
 
      Energies of the active occupied orbitals
 
      symmetry species 1                    -4.754120     -0.501899     -0.322707
 
 
      Energies of the active external orbitals
 
      symmetry species 1                     0.071768      0.071768      0.538887
 
 
      ********************************************************************************************************
      *                                               Results                                                *
      ********************************************************************************************************
 
 Conventional algorithm used...

       SCF energy                           =      -15.1389597284 a.u.
       Second-order correlation energy      =       -0.0174517356 a.u.

       Total energy                         =      -15.1564114640 a.u.
       Reference weight ( Cref**2 )         =        0.98580
 
::    Total MBPT2 energy                              -15.1564114640
 
 
       Zeroth-order energy (E0)             =       -9.5292144848 a.u.
 
       Shanks-type energy S1(E)             =      -15.1564659252 a.u.
 
 


       Data processing and timing information:

       Section                                              time(sec)
                                                          CPU  Elapsed

      Input data processing                              0.02      0.04
      Transformation of integrals                        0.00      0.01
      MBPT2 calculations (BJAI)                          0.00      0.00
      Total MBPT2 calculations                           0.02      0.05
 
 
--- Stop Module: mbpt2 at Thu Apr 25 13:42:36 2024 /rc=_RC_ALL_IS_WELL_ ---
*** files: xmldump
    saved to directory /home/grierjones/DDCASPT2/delta_ML/BeH/1.30

*** symbolic link created: INPORB -> 1.30.UnaOrb
--- Start Module: rasscf at Thu Apr 25 13:42:36 2024 ---
 
()()()()()()()()()()()()()()()()()()()()()()()()()()()()()()()()()()()()()()()()()()()()()()()()()()

                                              &RASSCF

                                   only a single process is used
                       available to each process: 2.0 GB of memory, 1 thread?
                                            pid: 100673
()()()()()()()()()()()()()()()()()()()()()()()()()()()()()()()()()()()()()()()()()()()()()()()()()()
 
 
      Header of the ONEINT file:
      --------------------------
      
      Integrals generated by Gateway/Seward, Thu Apr 25 13:42:34 2024
 
 
      OrdInt status: non-squared
 
 
      Cartesian coordinates in Angstrom:
      -----------------------------------------------------
      No.  Label        X            Y            Z        
      -----------------------------------------------------
       1   BE1        0.00000000   0.00000000   0.00000000
       2   H2         0.00000000   0.00000000   1.30000000
      -----------------------------------------------------
      Nuclear repulsion energy =    1.62823757
 
++    Wave function specifications:
      -----------------------------
 
      Number of closed shell electrons           4
      Number of electrons in active shells       1
      Max number of holes in RAS1 space          0
      Max nr of electrons in RAS3 space          0
      Number of inactive orbitals                2
      Number of active orbitals                  2
      Number of secondary orbitals               2
      Spin quantum number                      0.5
      State symmetry                             1
--
 
++    Orbital specifications:
      -----------------------
 
      Symmetry species                           1
                                                 a
      Frozen orbitals                            0
      Inactive orbitals                          2
      Active orbitals                            2
      RAS1 orbitals                              0
      RAS2 orbitals                              2
      RAS3 orbitals                              0
      Secondary orbitals                         2
      Deleted orbitals                           0
      Number of basis functions                  6
--
 
++    CI expansion specifications:
      ----------------------------
 
      Number of CSFs                             2
      Number of determinants                     2
      Number of root(s) required                 1
      Root chosen for geometry opt.              1
      CI root used                               1
         
      highest root included in the CI            1
      max. size of the explicit Hamiltonian      2
--
 
++    Optimization specifications:
      ----------------------------
 
      RASSCF algorithm: Conventional
      Maximum number of macro iterations       200
      Maximum number of SX iterations          100
      Threshold for RASSCF energy            1.000E-08
      Threshold for max MO rotation          1.000E-01
      Threshold for max BLB element          1.000E-04
      Level shift parameter                  5.000E-01
      Make Quasi-Newton update
--
 
      The MO-coefficients are taken from the file:
      /home/grierjones/DDCASPT2/delta_ML/BeH/1.20/1.20.RasOrb                                                                                                                                                                                                         
      Title: RASSCF average (pseudo-natural) orbitals                                      
 
      Total molecular charge    0.00
 
      ************************************************************************************************************************
      *                                                                                                                      *
      *                                            Wave function control section                                             *
      *                                                                                                                      *
      ************************************************************************************************************************
 
 
                                         RASSCF iterations: Energy and convergence statistics
                                         ----------------------------------------------------
 
      Iter CI   SX   CI       RASSCF       Energy    max ROT     max BLB   max BLB  Level Ln srch  Step   QN   Walltime
          iter iter root      energy       change     param      element    value   shift minimum  type update hh:mm:ss
 Nr of preliminary CI iterations:   1
 ###############################################################################
 ###############################################################################
 ###                                                                         ###
 ###                                                                         ###
 ###    WARNING: Problems in orbital optimization.                           ###
 ###                                                                         ###
 ###                                                                         ###
 ###############################################################################
 ###############################################################################
  Warning: In symmetry  1, orbital p=   4 has diagonal density matrix element D(p,p) close to zero. D(p,p)=  1.023200E-27
        1   1    4    1   -15.13837253    0.00E+00  -7.31E-03    2   6 1  2.25E-02*  0.50   0.00    SX    NO    0:00:00
 ###############################################################################
 ###############################################################################
 ###                                                                         ###
 ###                                                                         ###
 ###    WARNING: Problems in orbital optimization.                           ###
 ###                                                                         ###
 ###                                                                         ###
 ###############################################################################
 ###############################################################################
  Warning: In symmetry  1, orbital p=   4 has diagonal density matrix element D(p,p) close to zero. D(p,p)=  1.039348E-27
        2   1    4    1   -15.13864350   -2.71E-04*  3.06E-03    2   6 1  9.36E-03*  0.50   0.00    SX    NO    0:00:00
 ###############################################################################
 ###############################################################################
 ###                                                                         ###
 ###                                                                         ###
 ###    WARNING: Problems in orbital optimization.                           ###
 ###                                                                         ###
 ###                                                                         ###
 ###############################################################################
 ###############################################################################
  Warning: In symmetry  1, orbital p=   4 has diagonal density matrix element D(p,p) close to zero. D(p,p)=  1.048039E-27
        3   1    4    1   -15.13869832   -5.48E-05*  1.91E-03    2   6 1  3.88E-03*  0.50   0.00    SX    NO    0:00:00
 ###############################################################################
 ###############################################################################
 ###                                                                         ###
 ###                                                                         ###
 ###    WARNING: Problems in orbital optimization.                           ###
 ###                                                                         ###
 ###                                                                         ###
 ###############################################################################
 ###############################################################################
  Warning: In symmetry  1, orbital p=   4 has diagonal density matrix element D(p,p) close to zero. D(p,p)=  1.052974E-27
        4   1    3    1   -15.13871103   -1.27E-05*  1.20E-03    2   6 1  1.60E-03*  0.50   0.00    SX    NO    0:00:00
 ###############################################################################
 ###############################################################################
 ###                                                                         ###
 ###                                                                         ###
 ###    WARNING: Problems in orbital optimization.                           ###
 ###                                                                         ###
 ###                                                                         ###
 ###############################################################################
 ###############################################################################
  Warning: In symmetry  1, orbital p=   4 has diagonal density matrix element D(p,p) close to zero. D(p,p)=  1.055906E-27
        5   1    3    1   -15.13871454   -3.51E-06*  1.48E-03    2   3 1  6.62E-04*  0.50   2.24    LS   YES    0:00:00
 ###############################################################################
 ###############################################################################
 ###                                                                         ###
 ###                                                                         ###
 ###    WARNING: Problems in orbital optimization.                           ###
 ###                                                                         ###
 ###                                                                         ###
 ###############################################################################
 ###############################################################################
  Warning: In symmetry  1, orbital p=   4 has diagonal density matrix element D(p,p) close to zero. D(p,p)=  1.059511E-27
        6   1    3    1   -15.13871608   -1.54E-06* -3.07E-04    2   6 1 -5.09E-04*  0.50   1.00    QN   YES    0:00:00
 ###############################################################################
 ###############################################################################
 ###                                                                         ###
 ###                                                                         ###
 ###    WARNING: Problems in orbital optimization.                           ###
 ###                                                                         ###
 ###                                                                         ###
 ###############################################################################
 ###############################################################################
  Warning: In symmetry  1, orbital p=   4 has diagonal density matrix element D(p,p) close to zero. D(p,p)=  1.060103E-27
        7   1    3    1   -15.13871629   -2.08E-07* -3.59E-04    2   6 1 -2.76E-04*  0.50   2.17    LS   YES    0:00:00
 ###############################################################################
 ###############################################################################
 ###                                                                         ###
 ###                                                                         ###
 ###    WARNING: Problems in orbital optimization.                           ###
 ###                                                                         ###
 ###                                                                         ###
 ###############################################################################
 ###############################################################################
  Warning: In symmetry  1, orbital p=   4 has diagonal density matrix element D(p,p) close to zero. D(p,p)=  1.060796E-27
        8   1    3    1   -15.13871637   -8.50E-08*  2.21E-05    3   6 1  2.51E-05   0.50   1.00    QN   YES    0:00:00
 ###############################################################################
 ###############################################################################
 ###                                                                         ###
 ###                                                                         ###
 ###    WARNING: Problems in orbital optimization.                           ###
 ###                                                                         ###
 ###                                                                         ###
 ###############################################################################
 ###############################################################################
  Warning: In symmetry  1, orbital p=   4 has diagonal density matrix element D(p,p) close to zero. D(p,p)=  1.060829E-27
        9   1    3    1   -15.13871637   -8.62E-10   1.91E-05    3   6 1  1.18E-05   0.50   1.86    QN   YES    0:00:00
      Convergence after  9 iterations
       10   1    3    1   -15.13871638   -2.56E-10   1.91E-05    1   6 1 -5.91E-07   0.50   1.86    QN   YES    0:00:00
 
      ************************************************************************************************************************
                                                      Wave function printout:
                       occupation of active orbitals, and spin coupling of open shells (u,d: Spin up or down)
      ************************************************************************************************************************
 
      Note: transformation to natural orbitals
      has been made, which may change the order of the CSFs.
 
      printout of CI-coefficients larger than  0.05 for root  1
      energy=     -15.138716
      conf/sym  11     Coeff  Weight
             1  u0   1.00000 1.00000
 
      Natural orbitals and occupation numbers for root  1
      sym 1:   1.000000   0.000000
 
      ************************************************************************************************************************
      *                                                                                                                      *
      *                                                    Final results                                                     *
      *                                                                                                                      *
      ************************************************************************************************************************
 
 
++    Wave function specifications:
      -----------------------------
 
      Number of closed shell electrons           4
      Number of electrons in active shells       1
      Max number of holes in RAS1 space          0
      Max nr of electrons in RAS3 space          0
      Number of inactive orbitals                2
      Number of active orbitals                  2
      Number of secondary orbitals               2
      Spin quantum number                      0.5
      State symmetry                             1
--
 
++    Orbital specifications:
      -----------------------
 
      Symmetry species                           1
                                                 a
      Frozen orbitals                            0
      Inactive orbitals                          2
      Active orbitals                            2
      RAS1 orbitals                              0
      RAS2 orbitals                              2
      RAS3 orbitals                              0
      Secondary orbitals                         2
      Deleted orbitals                           0
      Number of basis functions                  6
--
 
++    CI expansion specifications:
      ----------------------------
 
      Number of CSFs                             2
      Number of determinants                     2
      Number of root(s) required                 1
      CI root used                               1
      highest root included in the CI            1
      Root passed to geometry opt.               1
--
 
++    Final optimization conditions:
      ------------------------------
 
      Average CI energy                             -15.13871638
      RASSCF energy for state  1                    -15.13871638
      Super-CI energy                                -0.00000000
      RASSCF energy change                           -0.00000000
      Max change in MO coefficients               2.486E-05
      Max non-diagonal density matrix element     1.908E-05
      Maximum BLB matrix element                 -5.908E-07
      (orbital pair   1,   6 in symmetry   1)
      Norm of electronic gradient            6.771E-07
--
 
 
      Final state energy(ies):
      ------------------------
 
::    RASSCF root number  1 Total energy:    -15.13871638
 
++    Molecular orbitals:
      -------------------
 
      Pseudonatural active orbitals and approximate occupation numbers
 
 
 
 
      Molecular orbitals for symmetry species 1: a  
 
 
      Orbital                 1         2         3         4         5         6
      Energy            -4.7459   -0.4866   -0.1182   -0.0000    0.0943    0.5589
      Occ. No.           2.0000    2.0000    1.0000    0.0000    0.0000    0.0000
 
     1 BE1    1s         0.9998   -0.0593   -0.0141    0.0000   -0.0000   -0.1444
     2 BE1    2s         0.0022    0.3890   -0.7659    0.0000   -0.0000   -1.0212
     3 BE1    2px       -0.0000    0.0000    0.0000    0.9998   -0.0213    0.0000
     4 BE1    2py        0.0000   -0.0000   -0.0000    0.0213    0.9998   -0.0000
     5 BE1    2pz        0.0002    0.2762    0.6358   -0.0000    0.0000   -1.1790
     6 H2     1s         0.0019    0.5866    0.1605   -0.0000    0.0000    1.5184
--
 
      Von Neumann Entropy (Root   1) =  0.50000
 

      Mulliken population analysis for root number:  1
      -----------------------------------------------
 
 
++    Molecular charges:
      ------------------
 
      Mulliken charges per centre and basis function type
      ---------------------------------------------------
 
                BE1     H2    
      1s       2.0000  1.1306
      2s       1.0695  0.0000
      2px      0.0000  0.0000
      2pz      0.7999  0.0000
      2py      0.0000  0.0000
      Total    3.8694  1.1306
 
      N-E      0.1306 -0.1306
 
      Total electronic charge=    5.000000
 
      Total            charge=   -0.000000
--
 
 

      Expectation values of various properties for root number:  1
      -----------------------------------------------------------
 
 
++    Molecular properties:
      ---------------------
 
      Charge (e):
                      =   -0.0000
      Dipole Moment (Debye):
      Origin of the operator (Ang)=    0.0000    0.0000    0.0000
                   X=  1.0721E-13               Y= -3.8509E-14               Z= -7.7273E-01           Total=  7.7273E-01
      Quadrupole Moment (Debye*Ang):
      Origin of the operator (Ang)=    0.0000    0.0000    0.1308
                  XX= -7.0603E+00              XY=  9.5259E-28              XZ= -1.1066E-13              YY= -7.0603E+00
                  YZ=  3.3916E-14              ZZ= -1.1979E+01
      In traceless form (Debye*Ang)
                  XX=  2.4594E+00              XY=  1.4289E-27              XZ= -1.6598E-13              YY=  2.4594E+00
                  YZ=  5.0874E-14              ZZ= -4.9189E+00
--
 

      Mulliken spin population analysis for root number:  1
      ---------------------------------------------------
 
 
++    Molecular charges:
      ------------------
 
      Mulliken spin population per centre and basis function type
      ---------------------------------------------------
 
                BE1     H2    
      1s      -0.0000  0.0173
      2s       0.5203  0.0000
      2px      0.0000  0.0000
      2pz      0.4624  0.0000
      2py      0.0000  0.0000
      Total    0.9827  0.0173
 
      Total electronic spin=    1.000000
--
 
 

      LoProp population analysis for root number:  1
      -----------------------------------------------
 
 
++    LoProp analysis:
      ----------------
 
 
 
      Input file to MOLDEN was generated!
 
 
++    Static properties:
      ------------------
 
 
      LoProp Charges per center
 

                   BE1      H2    
      Nuclear      4.0000   1.0000
      Electronic  -3.4274  -1.5726
 
      Total        0.5726  -0.5726
--
 
 
      Natural Bond Order analysis for root number:  1
 
++    Natural Bond Order analysis
      ---------------------------
      Based on LoProp computed density
      -------------------------------------------------------------------------------------
      Atom A       Atom B       Bond Order
      -------------------------------------------------------------------------------------
      NBO located      0.997 non-bonded electrons on atom BE1       
      The remaining    1.920 electrons are to be considered as diffuse
--
 
--
 
 
      Input file to MOLDEN was generated!
 
 
      Input file to MOLDEN was generated!
 
      Average orbitals are written to the RASORB file
      Natural orbitals for root   1 are written to the RASORB.1 file
      Spin density orbitals for root   1 are written to the SPDORB.1 file
 
--- Stop Module: rasscf at Thu Apr 25 13:42:36 2024 /rc=_RC_ALL_IS_WELL_ ---
*** files: 1.30.LprOrb 1.30.rasscf.molden.1 1.30.rasscf.molden 1.30.LoProp.molden 1.30.RasOrb 1.30.RasOrb.1 1.30.rasscf.h5 1.30.SpdOrb.1 xmldump
    saved to directory /home/grierjones/DDCASPT2/delta_ML/BeH/1.30

*** symbolic link created: INPORB -> 1.30.RasOrb
--- Start Module: caspt2 at Thu Apr 25 13:42:36 2024 ---
 
()()()()()()()()()()()()()()()()()()()()()()()()()()()()()()()()()()()()()()()()()()()()()()()()()()

                                              &CASPT2

                                   only a single process is used
                       available to each process: 2.0 GB of memory, 1 thread?
                                            pid: 100676
()()()()()()()()()()()()()()()()()()()()()()()()()()()()()()()()()()()()()()()()()()()()()()()()()()
 
 ###############################################################################
 ###############################################################################
 ###                                                                         ###
 ###                                                                         ###
 ###    WARNING: User changed nr of frozen orbitals.                         ###
 ###                                                                         ###
 ###                                                                         ###
 ###############################################################################
 ###############################################################################
 
++    Wave function specifications:
      -----------------------------
 
      Number of closed shell electrons           4
      Number of electrons in active shells       1
      Max number of holes in RAS1 space          0
      Max number of electrons in RAS3 space      0
      Number of inactive orbitals                2
      Number of active orbitals                  2
      Number of secondary orbitals               2
      Spin quantum number                      0.5
      State symmetry                             1
      Number of CSFs                             2
      Number of CASSCF root(s) available         1
      CASPT2 state passed to geometry opt.       1
      A file JOBMIX will be created
      This is a CASSCF or RASSCF reference function
--
 
++    Orbital specifications:
      -----------------------
 
      Symmetry species                           1
                                                 a
      Frozen orbitals                            0
      Inactive orbitals                          2
      Active orbitals                            2
      Secondary orbitals                         2
      Deleted orbitals                           0
      Number of basis functions                  6
--
 
++    CASPT2 specifications:
      ----------------------
 
      Type of calculation                        SS-CASPT2
      Fock operator                              state-specific
      IPEA shift                                 0.25
      Real shift                                 0.00
      Imaginary shift                            0.00
      The input orbitals will be transformed to quasi-canonical
--
 
--------------------------------------------------------------------------------
 Estimated memory requirements:
  POLY3 :                   250056
  RHS:                      250172
  SIGMA :                   250128
  PRPCTL:                        0
 Available workspace:    230392842
 
++ CASPT2 computation for group   1
 
********************************************************************************
 Multi-State initialization phase begins for group   1
--------------------------------------------------------------------------------
********************************************************************************
 Compute H0 matrices for state    1
--------------------------------------------------------------------------------
--------------------------------------------------------------------------------
 H0 matrices have been computed.
 
********************************************************************************
  CASPT2 EQUATION SOLUTION
--------------------------------------------------------------------------------
 
  Total nr of CASPT2 parameters:
   Before reduction:         126
   After  reduction:          67
 
 Variance of |WF0>:       0.0195461951
 
 The contributions to the second order correlation energy in atomic units.
-----------------------------------------------------------------------------------------------------------------------------
  IT.      VJTU        VJTI        ATVX        AIVX        VJAI        BVAT        BJAT        BJAI        TOTAL       RNORM  
-----------------------------------------------------------------------------------------------------------------------------
   1    -0.000668   -0.000922    0.000000   -0.000216   -0.000926    0.000000   -0.001189   -0.007132   -0.011053    0.000031
-----------------------------------------------------------------------------------------------------------------------------
 
  FINAL CASPT2 RESULT:
 
      Reference energy:         -15.1387163753
      E2 (Non-variational):      -0.0110547462
      E2 (Variational):          -0.0110547240
      Total energy:             -15.1497710992
      Residual norm:              0.0000005035
      Reference weight:           0.99306
 
      Contributions to the CASPT2 correlation energy
      Active & Virtual Only:          0.0000000000
      One Inactive Excited:          -0.0020738450
      Two Inactive Excited:          -0.0089809013
 
 
++ Denominators, etc.
--------------------------------------------------------------------------------------------------------------
 Report on small energy denominators, large coefficients, and large energy contributions.
CASE  SYMM ACTIVE-MIX  NON-ACTIVE INDICES          DENOMINATOR     RHS VALUE       COEFFICIENT     CONTRIBUTION
VJTU     1  Mu1.0003  In1.002                       0.91852636     -0.02463391      0.02650031     -0.00065281
VJTIP    1  Mu1.0002  In1.002 In1.002               1.16190070      0.03234956     -0.02760275     -0.00089294
BJATP    1  Mu1.0001  In1.002 Se1.005 Se1.005       0.91852636     -0.02463391      0.02650031     -0.00065281
BJAIP    1  Se1.005 In1.002 Se1.005 In1.002         1.16190070      0.03234956     -0.02760275     -0.00089294
BJAIP    1  Se1.006 In1.002 Se1.006 In1.002         2.09112141      0.11350106     -0.05460020     -0.00619718
--
 
   (Skipping property calculation,
    use PROP keyword to activate)
--
 
  Total CASPT2 energies:
::    CASPT2 Root  1     Total energy:    -15.14977110
 
  A NEW JOBIPH FILE NAMED 'JOBMIX' IS PREPARED.
********************************************************************************
--- Stop Module: caspt2 at Thu Apr 25 13:42:37 2024 /rc=_RC_ALL_IS_WELL_ ---
*** files: xmldump
    saved to directory /home/grierjones/DDCASPT2/delta_ML/BeH/1.30

.##################.
.# Happy landing! #.
.##################.

    Timing: Wall=2.36 User=1.52 System=0.28
************************************
*** WorkDir at /tmp/1.30 removed ***
************************************
