[Molden Format]
[N_Atoms]
                     2
[Atoms] (AU)
BE1         1      4           0.00000000      0.00000000      0.00000000
H2          2      1           0.00000000      0.00000000      2.45664396
[Charge] (Mulliken)
  0.129993307048371     
 -0.129993307048381     
[GTO] (AU)
   1
   s  14
  2.262859900E+04  8.443999941E-05
  3.372318100E+03  4.601499968E-04
  7.603504000E+02  2.285389984E-03
  2.117404800E+02  9.648129932E-03
  6.722346800E+01  3.494469975E-02
  2.337217700E+01  1.061099893E-01
  8.721373000E+00  2.458240383E-01
  3.468091000E+00  3.862428773E-01
  1.452144000E+00  3.105526078E-01
  6.086150000E-01  6.415933955E-02
  2.576860000E-01 -2.265049984E-03
  1.041760000E-01 -5.217499963E-04
  4.242700000E-02 -8.757499938E-04
  1.484900000E-02  1.242199991E-04
   s  14
  2.262859900E+04 -1.586999994E-05
  3.372318100E+03 -8.656999968E-05
  7.603504000E+02 -4.302199984E-04
  2.117404800E+02 -1.825079993E-03
  6.722346800E+01 -6.682749976E-03
  2.337217700E+01 -2.095119992E-02
  8.721373000E+00 -5.200308981E-02
  3.468091000E+00 -9.849176964E-02
  1.452144000E+00 -1.355800695E-01
  6.086150000E-01 -6.429875976E-02
  2.576860000E-01  3.125414989E-01
  1.041760000E-01  6.270468577E-01
  4.242700000E-02  2.110231492E-01
  1.484900000E-02 -4.104669985E-03
   p   9
  3.371018400E+01  1.069960000E-03
  8.057649500E+00  6.828550001E-03
  2.836471400E+00  2.119065000E-02
  1.099965700E+00  5.843696001E-02
  4.433964000E-01  2.020920800E-01
  1.822264000E-01  4.582953101E-01
  7.572410000E-02  3.691239601E-01
  3.168540000E-02  6.611471001E-02
  1.108990000E-02  1.405160000E-03
 
   2
   s   8
  1.886144500E+02  9.638500027E-04
  2.827659600E+01  7.491960021E-03
  6.424830000E+00  3.759541011E-02
  1.815041000E+00  1.433949804E-01
  5.910630000E-01  3.486363010E-01
  2.121490000E-01  4.382973612E-01
  7.989100000E-02  1.651066105E-01
  2.796200000E-02  2.102287006E-02
 
[MO]
Sym=     1a  
Ene=    -4.7541
Spin= Alpha
Occup=    1.00000
   1         0.99975900
   2         0.00266118
   3        -0.00000000
   4         0.00000000
   5        -0.00096094
   6         0.00243865
Sym=     1a  
Ene=    -4.7372
Spin= Beta
Occup=    1.00000
   1         0.99987834
   2         0.00262129
   3         0.00000000
   4         0.00000000
   5         0.00061958
   6         0.00121120
Sym=     2a  
Ene=    -0.5019
Spin= Alpha
Occup=    1.00000
   1        -0.06008958
   2         0.45162781
   3         0.00000000
   4         0.00000000
   5         0.18628430
   6         0.59164491
Sym=     2a  
Ene=    -0.4741
Spin= Beta
Occup=    1.00000
   1        -0.05656997
   2         0.41231723
   3         0.00000000
   4         0.00000000
   5         0.29146334
   6         0.55925335
Sym=     3a  
Ene=    -0.3227
Spin= Alpha
Occup=    1.00000
   1        -0.02002212
   2        -0.72470083
   3         0.00000000
   4         0.00000000
   5         0.65603274
   6         0.22993291
Sym=     3a  
Ene=     0.0854
Spin= Beta
Occup=    0.00000
   1        -0.02577791
   2        -0.83966455
   3         0.00000000
   4         0.00000000
   5         0.54442651
   6         0.28366745
Sym=     4a  
Ene=     0.0718
Spin= Alpha
Occup=    0.00000
   1         0.00000000
   2         0.00000000
   3         0.96183701
   4        -0.27362305
   5        -0.00000000
   6        -0.00000000
Sym=     4a  
Ene=     0.1168
Spin= Beta
Occup=    0.00000
   1         0.00000000
   2         0.00000000
   3         0.96183701
   4        -0.27362305
   5         0.00000000
   6        -0.00000000
Sym=     5a  
Ene=     0.0718
Spin= Alpha
Occup=    0.00000
   1         0.00000000
   2         0.00000000
   3         0.27362305
   4         0.96183701
   5        -0.00000000
   6        -0.00000000
Sym=     5a  
Ene=     0.1168
Spin= Beta
Occup=    0.00000
   1         0.00000000
   2         0.00000000
   3         0.27362305
   4         0.96183701
   5        -0.00000000
   6        -0.00000000
Sym=     6a  
Ene=     0.5389
Spin= Alpha
Occup=    0.00000
   1        -0.14373595
   2        -1.02552781
   3         0.00000000
   4        -0.00000000
   5        -1.18548447
   6         1.50751433
Sym=     6a  
Ene=     0.5820
Spin= Beta
Occup=    0.00000
   1        -0.14341682
   2        -0.95174808
   3         0.00000000
   4        -0.00000000
   5        -1.22028835
   6         1.51072341
