   This run of MOLCAS is using the pymolcas driver

                             OPE
                             OPE          NMOL  CASOP  ENMOLC A   SO
                 OPE        NMOLC        AS  OP EN  MO LC     AS  OP
                OPENM       OL CA        SO  PE NM  OL CA     SOP EN
                OP EN      MO   LC       AS  OP ENMOL  CASO   PENMOL
                OP  EN     MO   LC       AS  OP EN     MO     LC ASO
               OP   E  NMOL  C  AS       OP  EN MO     LC     AS  OP
               OP  E   NMO   LC AS        OPEN  MO     LCASOP EN   M
               O  PEN   MO  LCA  SO
            OPE   NMO   L   CAS    OP
        OPENMOL  CASOP     ENMOL   CASOPE
     OPENMOLCA   SOPENMOLCASOPEN   MOLCASOPE
    OPENMOLCAS   OP           EN   MOL    CAS
    OPENMOLCAS       OP  ENM        O     LCA
    OPENMOLCAS    OPEN  MOLCASO     P  E  NMO
    OPENMOLCAS     OP               E  N  MOL
    OPENMOLCA   SO           PENM   O  L  CAS    OPEN    MO    LCAS
    OPENMOLCA   SOP           ENM   O  L  CAS   OP  EN  MOLC  AS   O
    OPENMOLCA   SOPE           NM      O  LCA   S      OP  EN MO
    OPENMOLC                AS         O  PEN   M      OL  CA  SOPE
    OPENMO        LCASOPE  NMOL        C  ASO   P      ENMOLC     AS
    OPE     NMO      LCA  SO     P     E   NM   OL  CA SO  PE N   MO
          OPENMOLCA            SOPE   NMO        LCAS  O    P  ENMO
     OPENMOLCASOPENMOLCASOPENMOLCASOPENMOLCA
        OPENMOLCASOPENMOLCASOPENMOLCASOPE
            OPENMOLCASOPENMOLCASOPENM
               OPENMOLCASOPENMOLCA        version: ea724fe96-dirty
                   OPENMOLCASO
                       OPE                tag:

 OpenMolcas is free software; you can redistribute it and/or modify it
 under the terms of the GNU Lesser General Public License version 2.1.
 OpenMolcas is distributed in the hope that it will be useful, but it
 is provided "as is" and without any express or implied warranties.
 For more details see the full text of the license in the file
 LICENSE or in <http://www.gnu.org/licenses/>.

                 Copyright (C) The OpenMolcas Authors
           For the author list and the recommended citation,
                   consult the file CONTRIBUTORS.md

           *************************************************
           * pymolcas version py2.28                       *
           *   build c4a6d18ded8cb6cad61d2372a9abd97c      *
           *   (after the EMIL interpreter by V. Veryazov) *
           *************************************************

configuration info
------------------
C Compiler ID: Intel
C flags: -std=gnu99
Fortran Compiler ID: Intel
Fortran flags: -fpp -i8 -r8 -heap-arrays
Definitions: _MOLCAS_;_I8_;_LINUX_
Parallel: OFF (GA=OFF)


   -------------------------------------------------------------------------------
  |
  |              Project: 5.28
  |       Submitted from: /home/grierjones/DDCASPT2/iron_oxo_DDCASPT2/cluster/5.28
  |         Scratch area: /tmp/5.28
  |      Save outputs to: /home/grierjones/DDCASPT2/iron_oxo_DDCASPT2/cluster/5.28
  |               Molcas: /home/grierjones/Test/build
  |
  | Scratch area is empty
  |
  |       MOLCAS_DRIVER = /usr/local/pymolcas
  | MOLCAS_KEEP_WORKDIR = NO
  |  MOLCAS_NEW_WORKDIR = YES
  |       MOLCAS_NPROCS = 1
  |        MOLCAS_PRINT = NORMAL
  |       MOLCAS_SOURCE = /home/grierjones/Test/build
  |    MOLCAS_STRUCTURE = 0
  |
   -------------------------------------------------------------------------------

++ ---------   Input file   ---------

&GATEWAY
coord=5.28.xyz
Basis = ANO-RCC-VDZP
Group = nosymm
Expert
End of Input

&SEWARD
End of Input

&SCF
UHF
charge
2
spin
5
FileOrb
/home/grierjones/DDCASPT2/iron_oxo_DDCASPT2/cluster/5.26/5.26.UhfOrb

>>> COPY $WorkDir/5.28.scf.h5 $CurrDir/

&RASSCF
Title= RASSCF
FileOrb
/home/grierjones/DDCASPT2/iron_oxo_DDCASPT2/cluster/5.26/5.26.RasOrb
NACTEL
10 0 0
RAS2
14
Symmetry
1
Spin
5
charge
2
orblisting
all
ITERation
300 200

>>> COPY $WorkDir/5.28.rasscf.h5 $CurrDir/

>>> COPY $WorkDir/GMJ_Fock_MO.csv $CurrDir/5.28.GMJ_Fock_MO.csv

>>> COPY $WorkDir/GMJ_PT2_Fock_MO.csv $CurrDir/5.28.GMJ_PT2_Fock_MO.csv

&MOTRA
Frozen=0
LUMORB

>>> COPY $WorkDir/GMJ_one_int_indx.csv $CurrDir/5.28.GMJ_one_int_indx.csv

>>> COPY $WorkDir/GMJ_one_int.csv $CurrDir/5.28.GMJ_one_int.csv

>>> COPY $WorkDir/GMJ_two_int_indx.csv $CurrDir/5.28.GMJ_two_int_indx.csv

>>> COPY $WorkDir/GMJ_two_int.csv $CurrDir/5.28.GMJ_two_int.csv

&CASPT2
Frozen
0
MAXITER
50

>>> FOREACH i IN (B,E,F,G,H)

  >>> FOREACH j IN (P,M)

    >>> IF (-FILE GMJ_e2_${i}_${j}.csv)

      >>> COPY $WorkDir/GMJ_RHS_${i}_${j}.csv $CurrDir/GMJ_RHS_${i}_${j}.csv

      >>> COPY $WorkDir/GMJ_IVECW_${i}_${j}.csv $CurrDir/GMJ_IVECW_${i}_${j}.csv

      >>> COPY $WorkDir/GMJ_IVECX_${i}_${j}.csv $CurrDir/GMJ_IVECX_${i}_${j}.csv

      >>> COPY $WorkDir/GMJ_IVECC2_${i}_${j}.csv $CurrDir/GMJ_IVECC2_${i}_${j}.csv

      >>> COPY $WorkDir/GMJ_e2_${i}_${j}.csv $CurrDir/GMJ_e2_${i}_${j}.csv

    >>> END IF

  >>> END FOREACH

>>> END FOREACH

>>> FOREACH i IN (A,C,D)

  >>> IF (-FILE GMJ_e2_$i.csv)

    >>> COPY $WorkDir/GMJ_RHS_$i.csv $CurrDir/GMJ_RHS_$i.csv

    >>> COPY $WorkDir/GMJ_IVECW_$i.csv $CurrDir/GMJ_IVECW_$i.csv

    >>> COPY $WorkDir/GMJ_IVECX_$i.csv $CurrDir/GMJ_IVECX_$i.csv

    >>> COPY $WorkDir/GMJ_IVECC2_$i.csv $CurrDir/GMJ_IVECC2_$i.csv

    >>> COPY $WorkDir/GMJ_e2_$i.csv $CurrDir/GMJ_e2_$i.csv

  >>> END IF

>>> END FOREACH

-- ----------------------------------

--- Start Module: gateway at Wed Dec 25 06:31:39 2024 ---
 
()()()()()()()()()()()()()()()()()()()()()()()()()()()()()()()()()()()()()()()()()()()()()()()()()()

                                              &GATEWAY

                                   only a single process is used
                       available to each process: 2.0 GB of memory, 1 thread?
()()()()()()()()()()()()()()()()()()()()()()()()()()()()()()()()()()()()()()()()()()()()()()()()()()
 
 ###############################################################################
 ###############################################################################
 ###                                                                         ###
 ###                                                                         ###
 ###                                                                         ###
 ###    WARNING: EXPERT option is ON!                                        ###
 ###                                                                         ###
 ###                                                                         ###
 ###############################################################################
 ###############################################################################
 
++    Symmetry information:
      ---------------------
 
                    Character Table for C1 
 
                             E  
                    a        1  x, y, xy, Rz, z, xz, Ry, yz, Rx, I
--
 
 
++    Basis set information:
      ----------------------
 
 
      Basis set label: O.ANO-RCC...3S2P1D.
 
      Electronic valence basis set:
      ------------------
      Associated Effective Charge   8.000000 au
      Associated Actual Charge      8.000000 au
      Nuclear Model: Point charge
 
      Shell  nPrim  nBasis  Cartesian Spherical Contaminant
         s      14       3        X                  
         p       9       2        X                  
         d       4       1                 X         
 
 
      Basis set label: FE.ANO-RCC...5S4P2D1F.
 
      Electronic valence basis set:
      ------------------
      Associated Effective Charge  26.000000 au
      Associated Actual Charge     26.000000 au
      Nuclear Model: Point charge
 
      Shell  nPrim  nBasis  Cartesian Spherical Contaminant
         s      21       5        X                  
         p      15       4        X                  
         d      10       2                 X         
         f       6       1                 X         
--
 
 
++    Molecular structure info:
      -------------------------
 
                    ************************************************ 
                    **** Cartesian Coordinates / Bohr, Angstrom **** 
                    ************************************************ 
 
     Center  Label                x              y              z                     x              y              z
        1      O1               0.000000       0.000000       6.496274              0.000000       0.000000       3.437680
        2      FE2              0.000000       0.000000      -3.472712              0.000000       0.000000      -1.837680
--
 
 
            Nuclear Potential Energy             20.86471062 au
 
 ###############################################################################
 ###############################################################################
 ###                                                                         ###
 ###                                                                         ###
 ###    There were warnings during the execution                             ###
 ###    Please, check the output with care!                                  ###
 ###                                                                         ###
 ###                                                                         ###
 ###############################################################################
 ###############################################################################
--- Stop Module: gateway at Wed Dec 25 06:31:39 2024 /rc=_RC_ALL_IS_WELL_ ---
*** files: xmldump
    saved to directory /home/grierjones/DDCASPT2/iron_oxo_DDCASPT2/cluster/5.28

--- Start Module: seward at Wed Dec 25 06:31:39 2024 ---
 
()()()()()()()()()()()()()()()()()()()()()()()()()()()()()()()()()()()()()()()()()()()()()()()()()()

                                              &SEWARD

                                   only a single process is used
                       available to each process: 2.0 GB of memory, 1 thread?
()()()()()()()()()()()()()()()()()()()()()()()()()()()()()()()()()()()()()()()()()()()()()()()()()()
 
 ###############################################################################
 ###############################################################################
 ###                                                                         ###
 ###                                                                         ###
 ###                                                                         ###
 ###    WARNING: EXPERT option is ON!                                        ###
 ###                                                                         ###
 ###                                                                         ###
 ###############################################################################
 ###############################################################################
               SEWARD will generate:
                  Multipole Moment integrals up to order  2
                  Kinetic Energy integrals
                  Nuclear Attraction integrals (point charge)
                  One-Electron Hamiltonian integrals
                  Velocity integrals
                  Relativistic Douglas-Kroll-Hess integrals:
                    - Parametrization         : EXP
                    - DKH order of Hamiltonian: 2
                    - DKH order of Properties : 0
                         - multipole moment operators
                         - electric potential operators
                         - contact operators
                  Atomic mean-field integrals
                  Two-Electron Repulsion integrals
 
                   Integrals are discarded if absolute value <: 0.10E-13
                   Integral cutoff threshold is set to       <: 0.10E-15
 
            Nuclear Potential Energy             20.86471062 au
 
 
      Basis set specifications :
      Symmetry species         a  
      Basis functions           48
 
 
  Input file to MOLDEN was generated!
 
 ###############################################################################
 ###############################################################################
 ###                                                                         ###
 ###                                                                         ###
 ###    There were warnings during the execution                             ###
 ###    Please, check the output with care!                                  ###
 ###                                                                         ###
 ###                                                                         ###
 ###############################################################################
 ###############################################################################
--- Stop Module: seward at Wed Dec 25 06:31:40 2024 /rc=_RC_ALL_IS_WELL_ ---
*** files: 5.28.GssOrb 5.28.guessorb.h5 5.28.guessorb.molden xmldump
    saved to directory /home/grierjones/DDCASPT2/iron_oxo_DDCASPT2/cluster/5.28

*** symbolic link created: INPORB -> 5.28.GssOrb
--- Start Module: scf at Wed Dec 25 06:31:40 2024 ---
 
()()()()()()()()()()()()()()()()()()()()()()()()()()()()()()()()()()()()()()()()()()()()()()()()()()

                                                &SCF

                                   only a single process is used
                       available to each process: 2.0 GB of memory, 1 thread?
()()()()()()()()()()()()()()()()()()()()()()()()()()()()()()()()()()()()()()()()()()()()()()()()()()
 
 *** Possible bug in opening file
 *** isFreeUnit resets the unit number
++    Input section:
      --------------
 
      Header of the integral files:
      
       Integrals generated by seward 4.2.0  , Wed Dec 25 06:31:39 2024
 
 
      Cartesian coordinates in Angstrom:
      -----------------------------------------------------
      No.  Label        X            Y            Z        
      -----------------------------------------------------
       1   O1         0.00000000   0.00000000   3.43768000
       2   FE2        0.00000000   0.00000000  -1.83768000
      -----------------------------------------------------
      Nuclear repulsion energy =   20.86471062
--
 
++    Orbital specifications:
      -----------------------
 
      Symmetry species               1
                                     a
      Frozen orbitals                0
      Occupied orbitals alpha       18
      Occupied orbitals beta        14
      Secondary orbitals alpha      30
      Secondary orbitals beta       34
      Deleted orbitals               0
      Total number of orbitals      48
      Number of basis functions     48
--
 
      Molecular charge                           2.000
 
++    Optimization specifications:
      ----------------------------
 
      SCF Algorithm: Conventional USCF
      D(i)-D(i-1) density differences are used
      Number of density matrices in core                5
      Maximum number of NDDO SCF iterations           400
      Maximum number of HF SCF iterations             400
      Threshold for SCF energy change            0.10E-08
      Threshold for density matrix               0.10E-03
      Threshold for Fock matrix                  0.15E-03
      Threshold for linear dependence            0.10E-08
      Threshold at which DIIS is turned on       0.15E+00
      Threshold at which QNR/C2DIIS is turned on 0.75E-01
      Threshold for Norm(delta) (QNR/C2DIIS)     0.20E-04
      DIIS extrapolation of the SCF procedure
      All orbitals punched on: UHFORB
--
 
      Input vectors read from INPORB
      Orbital file label: * UHF orbitals
 
 
++ Convergence information
                               UHF SCF        iterations: Energy and convergence statistics
 
Iter     Tot. SCF        One-elec.       Two-elec.     Energy      Max Dij or  Max Fij      DNorm      TNorm      AccCon     Time
         Energy          Energy          Energy        Change      Delta Norm                                                in Sec.
 
 The total and one-electron energies are shifted by a value of      1000. a.u.
 
   1  -345.258751290  -889.942467605   523.819005694   0.00E+00    0.80E-04    0.31E-04     0.80E+01   0.18E+03   None         0.
   2  -345.258751302  -889.942635420   523.819173497  -0.12E-07*   0.39E-04    0.11E-04     0.30E-03   0.18E+03   EDIIS        0.
   3  -345.258751304  -889.942453588   523.818991663  -0.19E-08*   0.14E-04    0.17E-04     0.13E-03   0.18E+03   c2DIIS       0.
   4  -345.258751305  -889.942879127   523.819417201  -0.64E-09    0.30E-04*   0.71E-05     0.60E-04   0.18E+03   QNRc2DIIS    0.
   5  -345.258751305  -889.942207828   523.818745903  -0.85E-10    0.13E-04    0.65E-05     0.43E-04   0.18E+03   QNRc2DIIS    0.
 
       Convergence after  5 Macro Iterations
--
 
 *****************************************************************************************************************************
 *                                                                                                                           *
 *                                             SCF/KS-DFT Program, Final results                                             *
 *                                                                                                                           *
 *                                                                                                                           *
 *                                                                                                                           *
 *                                                       Final Results                                                       *
 *                                                                                                                           *
 *****************************************************************************************************************************
 
::    Total SCF energy                              -1345.2587513050
      One-electron energy                           -1889.9422078284
      Two-electron energy                             523.8187459028
      Nuclear repulsion energy                         20.8647106206
      Kinetic energy (interpolated)                  1399.3957792940
      Virial theorem                                    0.9613139979
      Total spin, S(S+1)                                7.0175697539
      Total spin, S                                     2.1958430507
      Max non-diagonal density matrix element           0.0000043584
      Max non-diagonal Fock matrix element              0.0000033156
 
 
      All orbitals with orbital energies smaller than  E(LUMO)+0.5 are printed
 
++    Molecular orbitals:
      -------------------
 
      Title: UHF orbitals (alpha)

      Molecular orbitals for symmetry species 1: a  
 
          Orbital            1         2         3         4         5         6         7         8         9        10    
          Energy         -263.8763  -32.6528  -27.7363  -27.7363  -27.7055  -21.4985   -4.5667   -3.1441   -3.1441   -3.0725
          Occ. No.          1.0000    1.0000    1.0000    1.0000    1.0000    1.0000    1.0000    1.0000    1.0000    1.0000
 
        1 O1     1s        -0.0000   -0.0000    0.0000   -0.0000   -0.0000    1.0000    0.0000   -0.0000    0.0000    0.0000
        2 O1     2s        -0.0000   -0.0000    0.0000   -0.0000   -0.0000    0.0003    0.0001   -0.0000    0.0000    0.0001
        3 O1     3s        -0.0000   -0.0000    0.0000   -0.0000   -0.0000   -0.0010    0.0001   -0.0000    0.0000    0.0001
        4 O1     2px        0.0000    0.0000    0.0000   -0.0000    0.0000   -0.0000    0.0000   -0.0000    0.0000   -0.0000
        5 O1     3px        0.0000    0.0000    0.0000   -0.0000    0.0000    0.0000    0.0000   -0.0000    0.0001   -0.0000
        6 O1     2py       -0.0000   -0.0000   -0.0000   -0.0000   -0.0000    0.0000   -0.0000    0.0000    0.0000    0.0000
        7 O1     3py       -0.0000   -0.0000   -0.0000   -0.0000   -0.0000   -0.0000   -0.0000    0.0001    0.0000    0.0000
        8 O1     2pz        0.0000    0.0000   -0.0000    0.0000    0.0000   -0.0000   -0.0000    0.0000   -0.0000   -0.0000
        9 O1     3pz        0.0000    0.0000   -0.0000    0.0000    0.0000    0.0000   -0.0001    0.0000   -0.0000   -0.0001
       10 O1     3d2-       0.0000    0.0000   -0.0000    0.0000   -0.0000    0.0000    0.0000   -0.0000    0.0000    0.0000
       11 O1     3d1-       0.0000    0.0000    0.0000    0.0000    0.0000    0.0000    0.0000   -0.0000   -0.0000   -0.0000
       12 O1     3d0       -0.0000   -0.0000    0.0000   -0.0000   -0.0000   -0.0015    0.0000   -0.0000    0.0000   -0.0000
       13 O1     3d1+      -0.0000   -0.0000   -0.0000    0.0000   -0.0000   -0.0000   -0.0000    0.0000   -0.0000    0.0000
       14 O1     3d2+       0.0000    0.0000   -0.0000   -0.0000    0.0000    0.0000    0.0000   -0.0000   -0.0000    0.0000
       15 FE2    1s         1.0000    0.0000    0.0000   -0.0000   -0.0000    0.0000   -0.0000   -0.0000    0.0000    0.0000
       16 FE2    2s        -0.0000    1.0000    0.0000   -0.0000   -0.0003   -0.0000   -0.0023    0.0000   -0.0000   -0.0000
       17 FE2    3s         0.0000    0.0023    0.0000   -0.0000   -0.0000    0.0000    0.9999    0.0000   -0.0000   -0.0016
       18 FE2    4s        -0.0000   -0.0001   -0.0000    0.0000    0.0000    0.0000    0.0063   -0.0000    0.0000    0.0008
       19 FE2    5s         0.0000    0.0001   -0.0000    0.0000    0.0000    0.0000   -0.0044    0.0000   -0.0000   -0.0005
       20 FE2    2px       -0.0000   -0.0000   -0.2296    0.9733   -0.0000   -0.0000   -0.0000    0.0004   -0.0020    0.0000
       21 FE2    3px        0.0000   -0.0000   -0.0005    0.0020   -0.0000   -0.0000   -0.0000   -0.2100    0.9777   -0.0000
       22 FE2    4px       -0.0000    0.0000    0.0001   -0.0002    0.0000   -0.0000    0.0000   -0.0007    0.0032   -0.0000
       23 FE2    5px        0.0000   -0.0000   -0.0001    0.0006   -0.0000   -0.0000   -0.0000    0.0009   -0.0042    0.0000
       24 FE2    2py        0.0000    0.0000    0.9733    0.2296    0.0001    0.0000    0.0000   -0.0020   -0.0004   -0.0000
       25 FE2    3py       -0.0000    0.0000    0.0020    0.0005    0.0000    0.0000    0.0000    0.9777    0.2100    0.0001
       26 FE2    4py        0.0000   -0.0000   -0.0002   -0.0001   -0.0000    0.0000   -0.0000    0.0032    0.0007    0.0000
       27 FE2    5py       -0.0000    0.0000    0.0006    0.0001    0.0000    0.0000    0.0000   -0.0042   -0.0009   -0.0000
       28 FE2    2pz        0.0000    0.0003   -0.0001    0.0000    1.0000   -0.0000   -0.0000    0.0000   -0.0000   -0.0016
       29 FE2    3pz       -0.0000    0.0000   -0.0000    0.0000    0.0016    0.0000    0.0016   -0.0001    0.0000    1.0000
       30 FE2    4pz        0.0000    0.0000    0.0000   -0.0000   -0.0001    0.0000    0.0001   -0.0000    0.0000    0.0058
       31 FE2    5pz       -0.0000    0.0000   -0.0000    0.0000    0.0003    0.0000   -0.0001    0.0000   -0.0000   -0.0057
       32 FE2    3d2-       0.0000    0.0000   -0.0000    0.0000    0.0000   -0.0000    0.0000   -0.0000    0.0000    0.0000
       33 FE2    4d2-      -0.0000   -0.0000    0.0000   -0.0000   -0.0000   -0.0000   -0.0000    0.0000   -0.0000   -0.0000
       34 FE2    3d1-      -0.0000   -0.0000    0.0000    0.0000    0.0000    0.0000   -0.0000    0.0008    0.0002    0.0000
       35 FE2    4d1-       0.0000    0.0000   -0.0000   -0.0000   -0.0000    0.0000    0.0000    0.0001    0.0000    0.0000
       36 FE2    3d0       -0.0000   -0.0005   -0.0000    0.0000    0.0000    0.0000   -0.0124   -0.0000    0.0000    0.0009
       37 FE2    4d0        0.0000    0.0004    0.0000   -0.0000   -0.0000    0.0000    0.0042   -0.0000    0.0000    0.0003
       38 FE2    3d1+       0.0000    0.0000   -0.0000    0.0000   -0.0000   -0.0000    0.0000   -0.0002    0.0008   -0.0000
       39 FE2    4d1+      -0.0000   -0.0000    0.0000   -0.0000    0.0000   -0.0000   -0.0000   -0.0000    0.0001   -0.0000
       40 FE2    3d2+       0.0000    0.0000   -0.0000   -0.0000    0.0000   -0.0000    0.0000   -0.0000   -0.0000    0.0000
       41 FE2    4d2+      -0.0000   -0.0000    0.0000    0.0000   -0.0000   -0.0000   -0.0000    0.0000    0.0000   -0.0000
       42 FE2    4f3-       0.0000    0.0000    0.0000    0.0000   -0.0000    0.0000    0.0000    0.0000    0.0000   -0.0000
       43 FE2    4f2-       0.0000    0.0000    0.0000   -0.0000    0.0000   -0.0000    0.0000    0.0000   -0.0000    0.0000
       44 FE2    4f1-      -0.0000   -0.0000   -0.0003   -0.0001   -0.0000    0.0000   -0.0000   -0.0079   -0.0017   -0.0000
       45 FE2    4f0        0.0000   -0.0000    0.0000   -0.0000   -0.0001    0.0000   -0.0000    0.0000   -0.0000   -0.0018
       46 FE2    4f1+       0.0000    0.0000    0.0001   -0.0003    0.0000   -0.0000    0.0000    0.0017   -0.0079    0.0000
       47 FE2    4f2+       0.0000    0.0000    0.0000    0.0000    0.0000    0.0000    0.0000    0.0000    0.0000    0.0000
       48 FE2    4f3+       0.0000    0.0000   -0.0000    0.0000   -0.0000    0.0000    0.0000   -0.0000    0.0000   -0.0000
 
          Orbital           11        12        13        14        15        16        17        18        19        20    
          Energy           -2.0102   -1.3955   -1.3955   -0.8780   -0.8780   -0.8391   -0.8042   -0.8042   -0.5552   -0.3308
          Occ. No.          1.0000    1.0000    1.0000    1.0000    1.0000    1.0000    1.0000    1.0000    0.0000    0.0000
 
        1 O1     1s        -0.0004    0.0000    0.0000    0.0000    0.0000   -0.0001    0.0000   -0.0000   -0.0000   -0.0010
        2 O1     2s         0.9962    0.0000    0.0000    0.0000    0.0000   -0.0009    0.0000   -0.0000    0.0062   -0.0105
        3 O1     3s        -0.0712   -0.0000   -0.0000    0.0000    0.0000   -0.0005    0.0000   -0.0000   -0.0059    0.0053
        4 O1     2px       -0.0000   -0.2832    0.9483   -0.0000    0.0000   -0.0000    0.0001   -0.0003    0.0000    0.0000
        5 O1     3px        0.0000    0.0409   -0.1371   -0.0000    0.0000    0.0000    0.0001   -0.0005    0.0000    0.0000
        6 O1     2py        0.0000    0.9483    0.2832   -0.0000   -0.0000    0.0000   -0.0003   -0.0001   -0.0001   -0.0000
        7 O1     3py       -0.0000   -0.1371   -0.0409   -0.0000   -0.0000   -0.0000   -0.0005   -0.0001   -0.0000   -0.0000
        8 O1     2pz       -0.0069    0.0001    0.0000   -0.0000   -0.0000    0.0002    0.0000   -0.0000    0.9945    0.0317
        9 O1     3pz       -0.0003   -0.0000   -0.0000   -0.0000   -0.0000    0.0017   -0.0000    0.0000    0.1062   -0.0077
       10 O1     3d2-       0.0000   -0.0000    0.0000    0.0000   -0.0000   -0.0000    0.0000   -0.0000    0.0000   -0.0000
       11 O1     3d1-       0.0000   -0.0019   -0.0006    0.0000    0.0000   -0.0000   -0.0000   -0.0000    0.0000   -0.0000
       12 O1     3d0       -0.0509   -0.0000   -0.0000    0.0000    0.0000    0.0000   -0.0000    0.0000   -0.0033    0.0011
       13 O1     3d1+      -0.0000    0.0006   -0.0019    0.0000   -0.0000    0.0000    0.0000   -0.0000   -0.0000    0.0000
       14 O1     3d2+       0.0000   -0.0000   -0.0000   -0.0000   -0.0000   -0.0000    0.0000    0.0000    0.0000   -0.0000
       15 FE2    1s        -0.0000   -0.0000   -0.0000   -0.0000   -0.0000    0.0000   -0.0000    0.0000    0.0000   -0.0000
       16 FE2    2s        -0.0000   -0.0000   -0.0000    0.0000    0.0000    0.0004   -0.0000    0.0000    0.0001    0.0001
       17 FE2    3s        -0.0000   -0.0000   -0.0000    0.0000    0.0000    0.0125   -0.0000    0.0000    0.0009   -0.0059
       18 FE2    4s        -0.0002   -0.0000   -0.0000   -0.0000   -0.0000   -0.0100    0.0000   -0.0000    0.0004    0.9902
       19 FE2    5s        -0.0006   -0.0000   -0.0000    0.0000    0.0000    0.0070   -0.0000    0.0000    0.0024    0.0700
       20 FE2    2px        0.0000   -0.0000    0.0000   -0.0000    0.0000    0.0000    0.0000   -0.0000   -0.0000    0.0000
       21 FE2    3px       -0.0000   -0.0000    0.0000   -0.0000    0.0000    0.0000    0.0002   -0.0008   -0.0000    0.0000
       22 FE2    4px       -0.0000   -0.0002    0.0006    0.0000   -0.0000   -0.0000   -0.0027    0.0105   -0.0000    0.0000
       23 FE2    5px       -0.0000   -0.0001    0.0003    0.0000   -0.0000   -0.0000   -0.0001    0.0004   -0.0000    0.0000
       24 FE2    2py       -0.0000    0.0000    0.0000   -0.0000   -0.0000   -0.0000   -0.0000   -0.0000    0.0000   -0.0000
       25 FE2    3py        0.0000    0.0000    0.0000   -0.0000   -0.0000   -0.0000   -0.0008   -0.0002    0.0000   -0.0000
       26 FE2    4py        0.0000    0.0006    0.0002    0.0000    0.0000    0.0000    0.0105    0.0027    0.0000   -0.0000
       27 FE2    5py        0.0000    0.0003    0.0001    0.0000    0.0000    0.0000    0.0004    0.0001    0.0000   -0.0000
       28 FE2    2pz       -0.0000   -0.0000   -0.0000    0.0000    0.0000   -0.0000    0.0000   -0.0000    0.0000    0.0000
       29 FE2    3pz       -0.0000   -0.0000   -0.0000    0.0000    0.0000   -0.0009    0.0000   -0.0000    0.0006   -0.0014
       30 FE2    4pz       -0.0002   -0.0000   -0.0000   -0.0000   -0.0000    0.0131   -0.0000    0.0000    0.0005    0.1127
       31 FE2    5pz       -0.0002   -0.0000   -0.0000   -0.0000   -0.0000    0.0006   -0.0000    0.0000    0.0003    0.0162
       32 FE2    3d2-       0.0000    0.0000   -0.0000   -0.2757    0.9612   -0.0000   -0.0000    0.0001    0.0000   -0.0000
       33 FE2    4d2-       0.0000    0.0000   -0.0000   -0.0008    0.0027   -0.0000   -0.0000    0.0000    0.0000    0.0000
       34 FE2    3d1-       0.0000    0.0002    0.0000    0.0001    0.0000    0.0002    0.9683    0.2482   -0.0000    0.0000
       35 FE2    4d1-       0.0000    0.0003    0.0001    0.0000    0.0000    0.0000    0.0263    0.0067    0.0000   -0.0000
       36 FE2    3d0       -0.0000   -0.0000   -0.0000   -0.0000   -0.0000    0.9997   -0.0002    0.0000    0.0035    0.0083
       37 FE2    4d0       -0.0001   -0.0000   -0.0000   -0.0000   -0.0000    0.0157   -0.0000    0.0000    0.0001   -0.0055
       38 FE2    3d1+      -0.0000   -0.0000    0.0002    0.0000   -0.0001   -0.0000   -0.2482    0.9683    0.0000   -0.0000
       39 FE2    4d1+      -0.0000   -0.0001    0.0003    0.0000   -0.0000   -0.0000   -0.0067    0.0263   -0.0000    0.0000
       40 FE2    3d2+       0.0000    0.0000    0.0000    0.9612    0.2757   -0.0000   -0.0001   -0.0000    0.0000   -0.0000
       41 FE2    4d2+       0.0000    0.0000    0.0000    0.0027    0.0008   -0.0000   -0.0000   -0.0000    0.0000    0.0000
       42 FE2    4f3-      -0.0000   -0.0000   -0.0000    0.0000    0.0000   -0.0000   -0.0000   -0.0000   -0.0000   -0.0000
       43 FE2    4f2-      -0.0000   -0.0000    0.0000   -0.0002    0.0007   -0.0000   -0.0000    0.0000   -0.0000   -0.0000
       44 FE2    4f1-       0.0000    0.0000    0.0000    0.0000    0.0000    0.0000    0.0009    0.0002   -0.0000    0.0000
       45 FE2    4f0        0.0000   -0.0000   -0.0000   -0.0000   -0.0000    0.0010   -0.0000    0.0000   -0.0000    0.0001
       46 FE2    4f1+      -0.0000   -0.0000    0.0000    0.0000   -0.0000   -0.0000   -0.0002    0.0009    0.0000   -0.0000
       47 FE2    4f2+      -0.0000   -0.0000   -0.0000    0.0007    0.0002   -0.0000   -0.0000   -0.0000   -0.0000   -0.0000
       48 FE2    4f3+      -0.0000    0.0000   -0.0000    0.0000   -0.0000   -0.0000    0.0000   -0.0000   -0.0000   -0.0000
 
          Orbital           21        22        23        24    
          Energy           -0.1820   -0.1820   -0.1770   -0.0939
          Occ. No.          0.0000    0.0000    0.0000    0.0000
 
        1 O1     1s         0.0000    0.0000   -0.0013   -0.0027
        2 O1     2s         0.0000    0.0000   -0.0126   -0.0254
        3 O1     3s        -0.0000   -0.0000    0.0207    0.0409
        4 O1     2px       -0.0004    0.0013    0.0000    0.0000
        5 O1     3px       -0.0057    0.0202    0.0000    0.0000
        6 O1     2py        0.0013    0.0004   -0.0000   -0.0000
        7 O1     3py        0.0202    0.0057   -0.0000   -0.0000
        8 O1     2pz       -0.0000   -0.0000    0.0413    0.0506
        9 O1     3pz        0.0000    0.0000   -0.0528   -0.0630
       10 O1     3d2-       0.0000   -0.0000   -0.0000   -0.0000
       11 O1     3d1-      -0.0006   -0.0002   -0.0000   -0.0000
       12 O1     3d0       -0.0000   -0.0000    0.0026    0.0034
       13 O1     3d1+       0.0002   -0.0006    0.0000    0.0000
       14 O1     3d2+       0.0000    0.0000   -0.0000   -0.0000
       15 FE2    1s         0.0000    0.0000   -0.0000   -0.0000
       16 FE2    2s         0.0000    0.0000   -0.0001   -0.0002
       17 FE2    3s        -0.0000   -0.0000    0.0006    0.0043
       18 FE2    4s         0.0000    0.0000   -0.1258   -0.0646
       19 FE2    5s        -0.0000   -0.0000    0.0868    0.9791
       20 FE2    2px       -0.0000    0.0001   -0.0000   -0.0000
       21 FE2    3px        0.0008   -0.0027    0.0000   -0.0000
       22 FE2    4px       -0.2709    0.9549   -0.0000    0.0000
       23 FE2    5px       -0.0311    0.1097   -0.0000    0.0000
       24 FE2    2py        0.0001    0.0000    0.0000    0.0000
       25 FE2    3py       -0.0027   -0.0008   -0.0000    0.0000
       26 FE2    4py        0.9549    0.2709    0.0002   -0.0000
       27 FE2    5py        0.1097    0.0311    0.0000   -0.0000
       28 FE2    2pz       -0.0000   -0.0000    0.0001   -0.0000
       29 FE2    3pz        0.0000    0.0000   -0.0050    0.0009
       30 FE2    4pz       -0.0002   -0.0000    0.9726   -0.1149
       31 FE2    5pz       -0.0000   -0.0000    0.1191   -0.0075
       32 FE2    3d2-       0.0000   -0.0000    0.0000   -0.0000
       33 FE2    4d2-       0.0000   -0.0000   -0.0000   -0.0000
       34 FE2    3d1-      -0.0108   -0.0031   -0.0000   -0.0000
       35 FE2    4d1-       0.0099    0.0028    0.0000    0.0000
       36 FE2    3d0        0.0000    0.0000   -0.0153   -0.0067
       37 FE2    4d0       -0.0000   -0.0000    0.0180    0.0157
       38 FE2    3d1+       0.0031   -0.0108    0.0000    0.0000
       39 FE2    4d1+      -0.0028    0.0099   -0.0000   -0.0000
       40 FE2    3d2+       0.0000    0.0000    0.0000    0.0000
       41 FE2    4d2+       0.0000    0.0000   -0.0000   -0.0000
       42 FE2    4f3-      -0.0000   -0.0000    0.0000    0.0000
       43 FE2    4f2-      -0.0000    0.0000    0.0000    0.0000
       44 FE2    4f1-       0.0000    0.0000   -0.0000   -0.0000
       45 FE2    4f0        0.0000    0.0000   -0.0002    0.0000
       46 FE2    4f1+      -0.0000    0.0000    0.0000    0.0000
       47 FE2    4f2+      -0.0000   -0.0000    0.0000    0.0000
       48 FE2    4f3+       0.0000   -0.0000    0.0000    0.0000
--
 
 
  Input file to MOLDEN was generated!
 
 
++    Static properties:
      ------------------
 
 
      LoProp Charges per center
 

                   O1       FE2   
      Nuclear      8.0000  26.0000
      Electronic  -6.9998 -25.0002
 
      Total        1.0002   0.9998
--
 
 
      All orbitals with orbital energies smaller than  E(LUMO)+0.5 are printed
 
++    Molecular orbitals:
      -------------------
 
      Title: UHF orbitals (beta)

      Molecular orbitals for symmetry species 1: a  
 
          Orbital            1         2         3         4         5         6         7         8         9        10    
          Energy         -263.8749  -32.5679  -27.6418  -27.6418  -27.6413  -21.4515   -4.3152   -2.8487   -2.7991   -2.7991
          Occ. No.          1.0000    1.0000    1.0000    1.0000    1.0000    1.0000    1.0000    1.0000    1.0000    1.0000
 
        1 O1     1s        -0.0000    0.0000   -0.0000    0.0000    0.0000    1.0000    0.0000    0.0000    0.0000   -0.0000
        2 O1     2s        -0.0000    0.0000   -0.0000    0.0000    0.0000   -0.0019    0.0002    0.0001    0.0000   -0.0000
        3 O1     3s        -0.0000    0.0000   -0.0000    0.0000    0.0000    0.0002    0.0002    0.0002    0.0000   -0.0000
        4 O1     2px        0.0000    0.0000   -0.0000    0.0000   -0.0000    0.0000    0.0000   -0.0000    0.0000    0.0000
        5 O1     3px        0.0000    0.0000   -0.0000    0.0000   -0.0000   -0.0000    0.0000   -0.0000    0.0001    0.0000
        6 O1     2py       -0.0000   -0.0000    0.0000    0.0000    0.0000   -0.0000   -0.0000    0.0000   -0.0000    0.0000
        7 O1     3py       -0.0000   -0.0000    0.0000    0.0000    0.0000    0.0000   -0.0000    0.0000   -0.0000    0.0001
        8 O1     2pz        0.0000   -0.0000    0.0000   -0.0000   -0.0000   -0.0000   -0.0001   -0.0001   -0.0000    0.0000
        9 O1     3pz        0.0000   -0.0000    0.0000   -0.0000   -0.0000   -0.0000   -0.0003   -0.0001   -0.0000    0.0000
       10 O1     3d2-       0.0000    0.0000    0.0000   -0.0000   -0.0000   -0.0000    0.0000    0.0000    0.0000   -0.0000
       11 O1     3d1-       0.0000    0.0000   -0.0000   -0.0000   -0.0000   -0.0000    0.0000   -0.0000    0.0000   -0.0000
       12 O1     3d0       -0.0000    0.0000   -0.0000    0.0000    0.0000    0.0015    0.0000   -0.0000   -0.0000    0.0000
       13 O1     3d1+      -0.0000   -0.0000    0.0000   -0.0000    0.0000    0.0000   -0.0000    0.0000   -0.0000   -0.0000
       14 O1     3d2+       0.0000    0.0000    0.0000    0.0000   -0.0000   -0.0000    0.0000   -0.0000   -0.0000   -0.0000
       15 FE2    1s         1.0000    0.0000    0.0000   -0.0000   -0.0000   -0.0000   -0.0000    0.0000    0.0000   -0.0000
       16 FE2    2s        -0.0000    1.0000    0.0000   -0.0000   -0.0003   -0.0000    0.0002   -0.0000   -0.0000    0.0000
       17 FE2    3s         0.0000   -0.0002   -0.0000    0.0000    0.0000   -0.0000    1.0000   -0.0018   -0.0000    0.0000
       18 FE2    4s        -0.0000    0.0001    0.0000   -0.0000   -0.0000   -0.0000    0.0076    0.0009    0.0000   -0.0000
       19 FE2    5s         0.0000   -0.0002    0.0000   -0.0000   -0.0000   -0.0001   -0.0057   -0.0005   -0.0000    0.0000
       20 FE2    2px       -0.0000   -0.0000   -0.2688    0.9632   -0.0001    0.0000   -0.0000   -0.0000    0.0019    0.0002
       21 FE2    3px        0.0000   -0.0000    0.0005   -0.0018    0.0000   -0.0000   -0.0000   -0.0000    0.9963    0.0843
       22 FE2    4px       -0.0000    0.0000   -0.0001    0.0003   -0.0000    0.0000   -0.0000   -0.0000    0.0080    0.0007
       23 FE2    5px        0.0000   -0.0000    0.0002   -0.0007    0.0000    0.0000   -0.0000    0.0000   -0.0089   -0.0008
       24 FE2    2py        0.0000    0.0000    0.9632    0.2688    0.0002   -0.0000    0.0000    0.0000   -0.0002    0.0019
       25 FE2    3py       -0.0000    0.0000   -0.0018   -0.0005   -0.0000    0.0000    0.0000    0.0001   -0.0843    0.9963
       26 FE2    4py        0.0000   -0.0000    0.0003    0.0001    0.0000   -0.0000    0.0000    0.0000   -0.0007    0.0080
       27 FE2    5py       -0.0000    0.0000   -0.0007   -0.0002   -0.0000   -0.0000    0.0000   -0.0000    0.0008   -0.0089
       28 FE2    2pz        0.0000    0.0003   -0.0002    0.0000    1.0000   -0.0000   -0.0000    0.0010    0.0000   -0.0000
       29 FE2    3pz       -0.0000    0.0000    0.0000   -0.0000   -0.0010   -0.0000    0.0018    0.9997    0.0000   -0.0001
       30 FE2    4pz        0.0000   -0.0000   -0.0000    0.0000    0.0003   -0.0000    0.0001    0.0107    0.0000   -0.0000
       31 FE2    5pz       -0.0000    0.0000    0.0000   -0.0000   -0.0007   -0.0000   -0.0001   -0.0099   -0.0000    0.0000
       32 FE2    3d2-      -0.0000   -0.0000   -0.0000    0.0000   -0.0000    0.0000   -0.0000   -0.0000   -0.0000    0.0000
       33 FE2    4d2-      -0.0000   -0.0000    0.0000   -0.0000    0.0000    0.0000    0.0000    0.0000    0.0000   -0.0000
       34 FE2    3d1-       0.0000    0.0000    0.0000    0.0000    0.0000   -0.0000    0.0000    0.0000   -0.0000    0.0006
       35 FE2    4d1-       0.0000    0.0000   -0.0000   -0.0000   -0.0000   -0.0000   -0.0000   -0.0000   -0.0000    0.0004
       36 FE2    3d0        0.0000    0.0000   -0.0000    0.0000    0.0000   -0.0000    0.0011    0.0015    0.0000   -0.0000
       37 FE2    4d0        0.0000    0.0000    0.0000   -0.0000   -0.0000   -0.0000    0.0004   -0.0002    0.0000   -0.0000
       38 FE2    3d1+      -0.0000   -0.0000   -0.0000    0.0000   -0.0000    0.0000   -0.0000   -0.0000    0.0006    0.0000
       39 FE2    4d1+      -0.0000   -0.0000    0.0000   -0.0000    0.0000    0.0000    0.0000    0.0000    0.0004    0.0000
       40 FE2    3d2+      -0.0000   -0.0000   -0.0000   -0.0000   -0.0000    0.0000   -0.0000   -0.0000    0.0000    0.0000
       41 FE2    4d2+      -0.0000   -0.0000    0.0000    0.0000    0.0000    0.0000    0.0000    0.0000   -0.0000   -0.0000
       42 FE2    4f3-       0.0000   -0.0000   -0.0000   -0.0000    0.0000    0.0000   -0.0000    0.0000   -0.0000   -0.0000
       43 FE2    4f2-       0.0000   -0.0000   -0.0000    0.0000    0.0000    0.0000   -0.0000    0.0000    0.0000   -0.0000
       44 FE2    4f1-      -0.0000    0.0000    0.0007    0.0002   -0.0000   -0.0000    0.0000   -0.0000   -0.0011    0.0128
       45 FE2    4f0       -0.0000    0.0000   -0.0000    0.0000   -0.0011   -0.0000    0.0001   -0.0211    0.0000   -0.0000
       46 FE2    4f1+       0.0000   -0.0000   -0.0002    0.0007    0.0000    0.0000   -0.0000    0.0000    0.0128    0.0011
       47 FE2    4f2+       0.0000   -0.0000   -0.0000   -0.0000    0.0000    0.0000   -0.0000    0.0000   -0.0000   -0.0000
       48 FE2    4f3+       0.0000   -0.0000    0.0000   -0.0000    0.0000    0.0000   -0.0000    0.0000   -0.0000    0.0000
 
          Orbital           11        12        13        14        15        16        17        18        19        20    
          Energy           -1.8303   -1.3509   -0.7021   -0.7021   -0.5207   -0.5207   -0.3140   -0.1665   -0.1611   -0.1611
          Occ. No.          1.0000    1.0000    1.0000    1.0000    0.0000    0.0000    0.0000    0.0000    0.0000    0.0000
 
        1 O1     1s         0.0018    0.0000   -0.0000    0.0000    0.0000    0.0000   -0.0013   -0.0013   -0.0000   -0.0000
        2 O1     2s         0.9974    0.0048   -0.0000    0.0000    0.0000    0.0000   -0.0147   -0.0144   -0.0000   -0.0000
        3 O1     3s        -0.0467   -0.0036   -0.0000    0.0000   -0.0000   -0.0000    0.0060    0.0194    0.0000    0.0000
        4 O1     2px        0.0000    0.0000    0.0007   -0.0002   -0.2763    0.9520   -0.0000   -0.0000   -0.0090    0.0026
        5 O1     3px       -0.0000   -0.0000   -0.0002    0.0001   -0.0368    0.1267   -0.0000   -0.0000    0.0127   -0.0036
        6 O1     2py       -0.0000   -0.0001    0.0002    0.0007    0.9520    0.2763    0.0000    0.0000   -0.0026   -0.0090
        7 O1     3py        0.0000    0.0000   -0.0001   -0.0002    0.1267    0.0368    0.0000    0.0000    0.0036    0.0127
        8 O1     2pz       -0.0051    0.9917    0.0000   -0.0000    0.0001    0.0000    0.0085   -0.0013   -0.0000   -0.0000
        9 O1     3pz       -0.0020   -0.1281    0.0000   -0.0000    0.0000    0.0000   -0.0221   -0.0990   -0.0000   -0.0000
       10 O1     3d2-      -0.0000   -0.0000    0.0000   -0.0000    0.0000   -0.0000    0.0000    0.0000    0.0000   -0.0000
       11 O1     3d1-      -0.0000    0.0000   -0.0000   -0.0000   -0.0017   -0.0005    0.0000    0.0000   -0.0002   -0.0006
       12 O1     3d0        0.0555   -0.0014    0.0000   -0.0000   -0.0000   -0.0000    0.0007    0.0015    0.0000    0.0000
       13 O1     3d1+       0.0000   -0.0000   -0.0000    0.0000    0.0005   -0.0017   -0.0000   -0.0000   -0.0006    0.0002
       14 O1     3d2+      -0.0000   -0.0000   -0.0000   -0.0000    0.0000    0.0000    0.0000    0.0000   -0.0000   -0.0000
       15 FE2    1s        -0.0000   -0.0000    0.0000   -0.0000    0.0000    0.0000   -0.0000   -0.0000   -0.0000   -0.0000
       16 FE2    2s        -0.0000   -0.0000   -0.0000    0.0000    0.0000    0.0000   -0.0001   -0.0000   -0.0000   -0.0000
       17 FE2    3s        -0.0000   -0.0002    0.0000   -0.0000    0.0000    0.0000   -0.0067    0.0009    0.0000    0.0000
       18 FE2    4s        -0.0006   -0.0017    0.0000   -0.0000   -0.0000   -0.0000    0.9789   -0.1490   -0.0000   -0.0000
       19 FE2    5s        -0.0012   -0.0013   -0.0000    0.0000    0.0000    0.0000    0.1447    0.0616    0.0000    0.0000
       20 FE2    2px        0.0000    0.0000   -0.0000    0.0000    0.0000   -0.0000   -0.0000   -0.0000   -0.0002    0.0001
       21 FE2    3px       -0.0000    0.0000   -0.0007    0.0002    0.0000   -0.0001    0.0000   -0.0000   -0.0066    0.0019
       22 FE2    4px        0.0000    0.0000    0.0171   -0.0047    0.0001   -0.0004    0.0000    0.0000    0.9531   -0.2710
       23 FE2    5px        0.0000    0.0000    0.0010   -0.0003    0.0000   -0.0002    0.0000    0.0000    0.1245   -0.0354
       24 FE2    2py       -0.0000   -0.0000   -0.0000   -0.0000   -0.0000   -0.0000    0.0000    0.0000   -0.0001   -0.0002
       25 FE2    3py        0.0000   -0.0000   -0.0002   -0.0007   -0.0001   -0.0000   -0.0000    0.0000   -0.0019   -0.0066
       26 FE2    4py       -0.0000   -0.0000    0.0047    0.0171   -0.0004   -0.0001   -0.0000   -0.0001    0.2710    0.9531
       27 FE2    5py       -0.0000   -0.0000    0.0003    0.0010   -0.0002   -0.0000   -0.0000   -0.0000    0.0354    0.1245
       28 FE2    2pz       -0.0000   -0.0000   -0.0000    0.0000    0.0000    0.0000   -0.0000   -0.0002   -0.0000   -0.0000
       29 FE2    3pz       -0.0000   -0.0001   -0.0000    0.0000    0.0000    0.0000   -0.0020   -0.0093   -0.0000   -0.0000
       30 FE2    4pz       -0.0007   -0.0017    0.0000   -0.0000   -0.0000   -0.0000    0.1228    0.9609    0.0000    0.0001
       31 FE2    5pz       -0.0004   -0.0005    0.0000   -0.0000   -0.0000   -0.0000    0.0189    0.1272    0.0000    0.0000
       32 FE2    3d2-       0.0000   -0.0000    0.0001   -0.0000    0.0000   -0.0000   -0.0000   -0.0000   -0.0000    0.0000
       33 FE2    4d2-      -0.0000   -0.0000    0.0000   -0.0000    0.0000   -0.0000   -0.0000   -0.0000   -0.0000    0.0000
       34 FE2    3d1-      -0.0000    0.0000    0.2662    0.9610   -0.0022   -0.0006    0.0000    0.0000   -0.0050   -0.0178
       35 FE2    4d1-      -0.0000   -0.0000    0.0194    0.0702   -0.0002   -0.0001    0.0000    0.0000    0.0024    0.0085
       36 FE2    3d0       -0.0001   -0.0002    0.0000   -0.0002    0.0000    0.0000    0.0064    0.0373    0.0000    0.0000
       37 FE2    4d0       -0.0003   -0.0004    0.0000   -0.0000   -0.0000   -0.0000    0.0027    0.0252    0.0000    0.0000
       38 FE2    3d1+       0.0000   -0.0000    0.9610   -0.2662    0.0006   -0.0022   -0.0000   -0.0000   -0.0178    0.0050
       39 FE2    4d1+       0.0000    0.0000    0.0702   -0.0194    0.0001   -0.0002   -0.0000   -0.0000    0.0085   -0.0024
       40 FE2    3d2+       0.0000   -0.0000   -0.0000   -0.0001    0.0000    0.0000   -0.0000   -0.0000    0.0000    0.0000
       41 FE2    4d2+      -0.0000   -0.0000   -0.0000   -0.0000    0.0000    0.0000   -0.0000   -0.0000    0.0000    0.0000
       42 FE2    4f3-      -0.0000   -0.0000   -0.0000   -0.0000    0.0000    0.0000    0.0000    0.0000   -0.0000   -0.0000
       43 FE2    4f2-      -0.0000   -0.0000    0.0000   -0.0000    0.0000   -0.0000    0.0000    0.0000    0.0000   -0.0000
       44 FE2    4f1-      -0.0000   -0.0000    0.0003    0.0010    0.0000    0.0000   -0.0000   -0.0000    0.0004    0.0013
       45 FE2    4f0       -0.0000   -0.0000    0.0000   -0.0000   -0.0000   -0.0000   -0.0003   -0.0014   -0.0000   -0.0000
       46 FE2    4f1+       0.0000    0.0000    0.0010   -0.0003   -0.0000    0.0000    0.0000    0.0000    0.0013   -0.0004
       47 FE2    4f2+      -0.0000   -0.0000   -0.0000   -0.0000    0.0000    0.0000    0.0000    0.0000   -0.0000   -0.0000
       48 FE2    4f3+      -0.0000   -0.0000   -0.0000    0.0000   -0.0000    0.0000    0.0000    0.0000   -0.0000    0.0000
 
          Orbital           21        22        23    
          Energy           -0.0761   -0.0217   -0.0217
          Occ. No.          0.0000    0.0000    0.0000
 
        1 O1     1s        -0.0026   -0.0000   -0.0000
        2 O1     2s        -0.0276   -0.0000   -0.0000
        3 O1     3s         0.0379   -0.0000   -0.0000
        4 O1     2px       -0.0000    0.0000   -0.0000
        5 O1     3px       -0.0000   -0.0000    0.0000
        6 O1     2py        0.0000   -0.0000   -0.0000
        7 O1     3py        0.0000    0.0000    0.0000
        8 O1     2pz       -0.0010   -0.0000   -0.0000
        9 O1     3pz       -0.1533    0.0000    0.0000
       10 O1     3d2-       0.0000    0.0000   -0.0000
       11 O1     3d1-       0.0000   -0.0000   -0.0000
       12 O1     3d0        0.0009   -0.0000   -0.0000
       13 O1     3d1+      -0.0000    0.0000   -0.0000
       14 O1     3d2+       0.0000    0.0000    0.0000
       15 FE2    1s        -0.0000    0.0000    0.0000
       16 FE2    2s         0.0001    0.0000    0.0000
       17 FE2    3s         0.0059    0.0000    0.0000
       18 FE2    4s        -0.1486    0.0000    0.0000
       19 FE2    5s         0.9490    0.0000    0.0000
       20 FE2    2px        0.0000    0.0000   -0.0000
       21 FE2    3px       -0.0000    0.0000   -0.0000
       22 FE2    4px        0.0000    0.0000   -0.0000
       23 FE2    5px        0.0000    0.0000   -0.0000
       24 FE2    2py       -0.0000   -0.0000   -0.0000
       25 FE2    3py        0.0000   -0.0000   -0.0000
       26 FE2    4py       -0.0000   -0.0000   -0.0000
       27 FE2    5py       -0.0000   -0.0000   -0.0000
       28 FE2    2pz        0.0000    0.0000    0.0000
       29 FE2    3pz        0.0014    0.0000    0.0000
       30 FE2    4pz       -0.1298    0.0000    0.0000
       31 FE2    5pz       -0.0101    0.0000    0.0000
       32 FE2    3d2-       0.0000    0.9185   -0.2568
       33 FE2    4d2-      -0.0000    0.2895   -0.0809
       34 FE2    3d1-       0.0000    0.0000    0.0001
       35 FE2    4d1-       0.0000    0.0000    0.0000
       36 FE2    3d0        0.0206   -0.0000   -0.0000
       37 FE2    4d0        0.0148   -0.0000   -0.0000
       38 FE2    3d1+      -0.0000   -0.0001    0.0000
       39 FE2    4d1+      -0.0000   -0.0000    0.0000
       40 FE2    3d2+       0.0000    0.2568    0.9185
       41 FE2    4d2+      -0.0000    0.0809    0.2895
       42 FE2    4f3-      -0.0000   -0.0000    0.0000
       43 FE2    4f2-      -0.0000    0.0008   -0.0002
       44 FE2    4f1-       0.0000    0.0000    0.0000
       45 FE2    4f0        0.0004   -0.0000   -0.0000
       46 FE2    4f1+      -0.0000   -0.0000    0.0000
       47 FE2    4f2+      -0.0000    0.0002    0.0008
       48 FE2    4f3+      -0.0000   -0.0000   -0.0000
--
 
 
++    Molecular charges:
      ------------------
 
      Mulliken charges per centre and basis function type
      ---------------------------------------------------
 
                            O1                      FE2   
                     alpha        beta       alpha        beta
      1s           1.0000      1.0000      1.0000      1.0000
      2s           0.9923      0.9948      1.0000      1.0000
      2px          0.9795      0.0000      1.0000      1.0000
      2pz          0.0000      0.9836      1.0000      1.0000
      2py          0.9795      0.0000      1.0000      1.0000
      3s           0.0051      0.0022      0.9999      0.9999
      3px          0.0205     -0.0000      0.9999      0.9997
      3pz         -0.0000      0.0163      0.9999      0.9993
      3py          0.0205     -0.0000      0.9999      0.9997
      4s           0.0000      0.0000      0.0001      0.0001
      3d2+        -0.0000      0.0000      1.0000      0.0000
      3d1+         0.0000      0.0000      0.9991      0.9944
      3d0          0.0026      0.0031      0.9995      0.0000
      3d1-         0.0000      0.0000      0.9991      0.9944
      3d2-        -0.0000      0.0000      1.0000      0.0000
      4px          0.0000      0.0000      0.0001      0.0004
      4pz          0.0000      0.0000      0.0002      0.0001
      4py          0.0000      0.0000      0.0001      0.0004
      5s           0.0000      0.0000      0.0000      0.0000
      4d2+         0.0000      0.0000      0.0000      0.0000
      4d1+         0.0000      0.0000      0.0007      0.0053
      4d0          0.0000      0.0000      0.0003      0.0000
      4d1-         0.0000      0.0000      0.0007      0.0053
      4d2-         0.0000      0.0000      0.0000      0.0000
      5px          0.0000      0.0000      0.0000      0.0001
      5pz          0.0000      0.0000      0.0000      0.0001
      5py          0.0000      0.0000      0.0000      0.0001
      4f3+         0.0000      0.0000      0.0000      0.0000
      4f2+         0.0000      0.0000      0.0000      0.0000
      4f1+         0.0000      0.0000      0.0001      0.0002
      4f0          0.0000      0.0000      0.0000      0.0004
      4f1-         0.0000      0.0000      0.0001      0.0002
      4f2-         0.0000      0.0000      0.0000      0.0000
      4f3-         0.0000      0.0000      0.0000      0.0000
      Total        4.0000      3.0000     14.0000     11.0000
      Total              7.0000                 25.0000
 
      Charge            1.0000                  1.0000
 
      Total electronic charge=   32.000000
 
      Total            charge=    2.000000
--
 
 
  Input file to MOLDEN was generated!
 
 
++    Static properties:
      ------------------
 
 
      LoProp Charges per center
 

                   O1       FE2   
      Nuclear      8.0000  26.0000
      Electronic  -6.9998 -25.0002
 
      Total        1.0002   0.9998
--
 
 
++    Natural Bond Order analysis
      ---------------------------
      Based on LoProp computed density
      -------------------------------------------------------------------------------------
      Atom A       Atom B       Bond Order
      -------------------------------------------------------------------------------------
      NBO located     19.999 core electrons.
      NBO located      5.992 lone pair electrons.
      NBO located      1.000 non-bonded electrons on atom O1        
      NBO located      1.000 non-bonded electrons on atom O1        
      NBO located      1.000 non-bonded electrons on atom O1        
      NBO located      1.000 non-bonded electrons on atom FE2       
      NBO located      1.000 non-bonded electrons on atom FE2       
      NBO located      1.000 non-bonded electrons on atom FE2       
      The remaining    0.009 electrons are to be considered as diffuse
--
 
 
++    Molecular orbitals:
      -------------------
 
      Title: Natural orbitals

      Molecular orbitals for symmetry species 1: a  
 
          Orbital            1         2         3         4         5         6         7         8         9        10    
          Energy         -263.8756  -32.2875  -21.4875  -27.5414  -27.5862  -27.5861   -4.7647   -3.0612   -3.0718   -3.0719
          Occ. No.          2.0000    2.0000    2.0000    2.0000    2.0000    2.0000    2.0000    1.9998    1.9998    1.9998
 
        1 O1     1s         0.0000   -0.0056   -0.9970    0.0705   -0.0000    0.0000    0.0074    0.0001   -0.0000    0.0000
        2 O1     2s        -0.0000    0.0001    0.0300   -0.0021    0.0000   -0.0000    0.0001    0.0003   -0.0000    0.0000
        3 O1     3s        -0.0000   -0.0000   -0.0013    0.0001   -0.0000    0.0000    0.0002    0.0001   -0.0000    0.0000
        4 O1     2px        0.0000   -0.0000    0.0000   -0.0000    0.0000   -0.0000   -0.0000   -0.0000   -0.0000    0.0000
        5 O1     3px       -0.0000    0.0000   -0.0000    0.0000    0.0000   -0.0000    0.0000   -0.0000   -0.0000    0.0001
        6 O1     2py       -0.0000    0.0000   -0.0000    0.0000   -0.0000   -0.0000    0.0000    0.0000    0.0000    0.0000
        7 O1     3py        0.0000   -0.0000    0.0000   -0.0000   -0.0000   -0.0000   -0.0000    0.0000    0.0001    0.0000
        8 O1     2pz        0.0000    0.0000   -0.0002    0.0000   -0.0000    0.0000   -0.0001   -0.0000    0.0000   -0.0000
        9 O1     3pz        0.0000    0.0000   -0.0000   -0.0000   -0.0000    0.0000   -0.0002   -0.0001    0.0000   -0.0000
       10 O1     3d2-       0.0000   -0.0000   -0.0000    0.0000    0.0000   -0.0000   -0.0000   -0.0000    0.0000   -0.0000
       11 O1     3d1-       0.0000    0.0000   -0.0000    0.0000    0.0000    0.0000    0.0000   -0.0000   -0.0000   -0.0000
       12 O1     3d0       -0.0000   -0.0000    0.0000    0.0000    0.0000    0.0000    0.0000   -0.0000    0.0000   -0.0000
       13 O1     3d1+      -0.0000   -0.0000    0.0000   -0.0000   -0.0000    0.0000   -0.0000    0.0000    0.0000   -0.0000
       14 O1     3d2+      -0.0000    0.0000   -0.0000    0.0000    0.0000    0.0000    0.0000   -0.0000    0.0000    0.0000
       15 FE2    1s         1.0000   -0.0001    0.0000   -0.0000    0.0000   -0.0000    0.0002    0.0000   -0.0000    0.0000
       16 FE2    2s         0.0001    0.9944   -0.0045    0.0035    0.0000   -0.0000    0.1060    0.0000    0.0000   -0.0000
       17 FE2    3s        -0.0002   -0.1059    0.0083    0.0042    0.0000   -0.0000    0.9943   -0.0027    0.0000   -0.0000
       18 FE2    4s        -0.0000   -0.0007    0.0000   -0.0000    0.0000   -0.0000    0.0068    0.0008    0.0000   -0.0000
       19 FE2    5s         0.0000    0.0005   -0.0001    0.0000   -0.0000    0.0000   -0.0050   -0.0005    0.0000   -0.0000
       20 FE2    2px       -0.0000    0.0000   -0.0000   -0.0000   -0.2291    0.9713    0.0000   -0.0000   -0.0137    0.0629
       21 FE2    3px       -0.0000    0.0000    0.0000    0.0000    0.0148   -0.0627    0.0000   -0.0000   -0.2119    0.9747
       22 FE2    4px        0.0000   -0.0000   -0.0000    0.0000    0.0001   -0.0003   -0.0000   -0.0000   -0.0011    0.0051
       23 FE2    5px        0.0000   -0.0000   -0.0000   -0.0000   -0.0001    0.0003   -0.0000    0.0000    0.0014   -0.0065
       24 FE2    2py        0.0000   -0.0000    0.0000    0.0001    0.9713    0.2291   -0.0000    0.0000    0.0629    0.0137
       25 FE2    3py        0.0000   -0.0000   -0.0000   -0.0000   -0.0627   -0.0148   -0.0000    0.0001    0.9748    0.2119
       26 FE2    4py       -0.0000    0.0000    0.0000   -0.0000   -0.0003   -0.0001    0.0000    0.0000    0.0051    0.0011
       27 FE2    5py       -0.0000    0.0000    0.0000    0.0000    0.0003    0.0001    0.0000   -0.0000   -0.0065   -0.0014
       28 FE2    2pz        0.0000   -0.0026    0.0703    0.9955   -0.0001    0.0000   -0.0049    0.0637   -0.0000    0.0000
       29 FE2    3pz       -0.0000   -0.0001   -0.0043   -0.0636    0.0000   -0.0000    0.0030    0.9978   -0.0001    0.0000
       30 FE2    4pz        0.0000   -0.0000   -0.0000   -0.0004    0.0000   -0.0000    0.0002    0.0082   -0.0000    0.0000
       31 FE2    5pz       -0.0000    0.0000    0.0000    0.0003   -0.0000    0.0000   -0.0001   -0.0078    0.0000   -0.0000
       32 FE2    3d2-       0.0000   -0.0000   -0.0000    0.0000    0.0000   -0.0000   -0.0000   -0.0000    0.0000   -0.0000
       33 FE2    4d2-       0.0000   -0.0000   -0.0000   -0.0000    0.0000   -0.0000   -0.0000   -0.0000    0.0000   -0.0000
       34 FE2    3d1-      -0.0000    0.0000    0.0000   -0.0000   -0.0002   -0.0000    0.0000    0.0000   -0.0266   -0.0058
       35 FE2    4d1-      -0.0000    0.0000    0.0000    0.0000   -0.0000   -0.0000    0.0000    0.0000   -0.0011   -0.0002
       36 FE2    3d0       -0.0000   -0.0001    0.0000   -0.0001    0.0000   -0.0000    0.0011    0.0015    0.0000   -0.0000
       37 FE2    4d0        0.0000   -0.0000    0.0000   -0.0000    0.0000   -0.0000    0.0024    0.0000    0.0000   -0.0000
       38 FE2    3d1+       0.0000   -0.0000   -0.0000    0.0000    0.0000   -0.0002   -0.0000   -0.0000    0.0058   -0.0266
       39 FE2    4d1+       0.0000   -0.0000   -0.0000   -0.0000    0.0000   -0.0000   -0.0000   -0.0000    0.0002   -0.0011
       40 FE2    3d2+       0.0000   -0.0000   -0.0000    0.0000    0.0000    0.0000   -0.0000   -0.0000    0.0000    0.0000
       41 FE2    4d2+       0.0000   -0.0000   -0.0000   -0.0000    0.0000    0.0000   -0.0000   -0.0000    0.0000    0.0000
       42 FE2    4f3-       0.0000   -0.0000    0.0000   -0.0000   -0.0000   -0.0000   -0.0000    0.0000   -0.0000   -0.0000
       43 FE2    4f2-       0.0000   -0.0000   -0.0000   -0.0000   -0.0000    0.0000   -0.0000    0.0000   -0.0000    0.0000
       44 FE2    4f1-      -0.0000    0.0000    0.0000    0.0000    0.0001    0.0000    0.0000   -0.0000    0.0024    0.0005
       45 FE2    4f0        0.0000    0.0000    0.0000    0.0001   -0.0000    0.0000    0.0000   -0.0114    0.0000   -0.0000
       46 FE2    4f1+       0.0000   -0.0000   -0.0000   -0.0000   -0.0000    0.0001   -0.0000    0.0000   -0.0005    0.0024
       47 FE2    4f2+       0.0000   -0.0000   -0.0000   -0.0000   -0.0000   -0.0000   -0.0000    0.0000   -0.0000   -0.0000
       48 FE2    4f3+       0.0000   -0.0000    0.0000   -0.0000    0.0000   -0.0000   -0.0000    0.0000    0.0000   -0.0000
 
          Orbital           11        12        13        14        15        16        17        18        19        20    
          Energy           -0.7542   -0.7542   -1.9271   -0.6499   -0.9322   -0.9322   -0.4096   -0.4096   -0.6489    1.4264
          Occ. No.          1.9989    1.9989    1.9940    1.0011    1.0000    1.0000    1.0000    1.0000    0.9989    0.0060
 
        1 O1     1s         0.0000   -0.0000    0.0302   -0.0001   -0.0000   -0.0000    0.0000    0.0000    0.0000    0.0001
        2 O1     2s         0.0000   -0.0000    0.9978   -0.0054   -0.0000   -0.0000    0.0000    0.0000   -0.0039    0.0113
        3 O1     3s        -0.0000    0.0000   -0.0590    0.0023   -0.0000   -0.0000    0.0000    0.0000    0.0030    0.2243
        4 O1     2px        0.0008    0.0002    0.0000    0.0001   -0.2832    0.9483   -0.0000    0.0000   -0.0002   -0.0000
        5 O1     3px       -0.0004   -0.0001   -0.0000   -0.0000    0.0409   -0.1371    0.0000    0.0000    0.0000   -0.0000
        6 O1     2py        0.0002   -0.0008   -0.0000   -0.0004    0.9483    0.2832   -0.0000    0.0000    0.0006    0.0000
        7 O1     3py       -0.0001    0.0004    0.0000    0.0001   -0.1371   -0.0409    0.0000   -0.0000   -0.0001    0.0000
        8 O1     2pz        0.0000   -0.0000   -0.0069   -0.7007    0.0001    0.0000   -0.0000   -0.0000   -0.7018    0.0001
        9 O1     3pz       -0.0000    0.0000   -0.0011    0.0918   -0.0000   -0.0000   -0.0000   -0.0000    0.0894   -0.0138
       10 O1     3d2-       0.0000    0.0000   -0.0000    0.0000   -0.0000    0.0000    0.0000   -0.0000   -0.0000   -0.0000
       11 O1     3d1-      -0.0000    0.0000   -0.0000    0.0000   -0.0019   -0.0006    0.0000    0.0000   -0.0000   -0.0002
       12 O1     3d0       -0.0000    0.0000    0.0023    0.0009   -0.0000   -0.0000    0.0000    0.0000    0.0009    0.9747
       13 O1     3d1+      -0.0000   -0.0000    0.0000   -0.0000    0.0006   -0.0019    0.0000   -0.0000    0.0000    0.0000
       14 O1     3d2+      -0.0000    0.0000   -0.0000    0.0000   -0.0000   -0.0000   -0.0000   -0.0000   -0.0000   -0.0000
       15 FE2    1s         0.0000   -0.0000   -0.0000    0.0000   -0.0000   -0.0000   -0.0000   -0.0000    0.0000   -0.0000
       16 FE2    2s        -0.0000    0.0000    0.0000   -0.0000   -0.0000   -0.0000   -0.0000   -0.0000    0.0000   -0.0000
       17 FE2    3s        -0.0000    0.0000   -0.0002   -0.0006   -0.0000   -0.0000   -0.0000   -0.0000    0.0008   -0.0001
       18 FE2    4s        -0.0000    0.0000   -0.0004   -0.0059   -0.0000   -0.0000   -0.0000   -0.0000    0.0083   -0.0036
       19 FE2    5s         0.0000   -0.0000   -0.0009    0.0059    0.0000    0.0000    0.0000    0.0000   -0.0041   -0.0056
       20 FE2    2px        0.0018    0.0005    0.0000    0.0000   -0.0000    0.0000   -0.0000    0.0000   -0.0000    0.0000
       21 FE2    3px        0.0260    0.0075    0.0000    0.0000   -0.0000    0.0000   -0.0000    0.0000   -0.0000   -0.0000
       22 FE2    4px        0.0140    0.0040    0.0000   -0.0000   -0.0002    0.0006    0.0000   -0.0000    0.0000    0.0000
       23 FE2    5px        0.0005    0.0002    0.0000    0.0000   -0.0001    0.0003    0.0000   -0.0000   -0.0000    0.0000
       24 FE2    2py        0.0005   -0.0018   -0.0000   -0.0000    0.0000    0.0000   -0.0000   -0.0000    0.0000   -0.0000
       25 FE2    3py        0.0075   -0.0260   -0.0000   -0.0000    0.0000    0.0000   -0.0000   -0.0000    0.0000    0.0000
       26 FE2    4py        0.0040   -0.0140   -0.0000    0.0000    0.0006    0.0002    0.0000    0.0000   -0.0000   -0.0000
       27 FE2    5py        0.0002   -0.0005   -0.0000   -0.0000    0.0003    0.0001    0.0000    0.0000    0.0000   -0.0000
       28 FE2    2pz       -0.0000    0.0000   -0.0000   -0.0000   -0.0000   -0.0000    0.0000    0.0000    0.0000   -0.0000
       29 FE2    3pz       -0.0000    0.0000   -0.0002   -0.0011   -0.0000   -0.0000    0.0000    0.0000    0.0012   -0.0001
       30 FE2    4pz       -0.0000    0.0000   -0.0005    0.0105    0.0000    0.0000   -0.0000   -0.0000   -0.0081   -0.0046
       31 FE2    5pz       -0.0000    0.0000   -0.0003    0.0008    0.0000    0.0000   -0.0000   -0.0000   -0.0000   -0.0021
       32 FE2    3d2-       0.0001    0.0000    0.0000   -0.0000    0.0000   -0.0000   -0.2757    0.9612    0.0000   -0.0000
       33 FE2    4d2-       0.0000    0.0000    0.0000   -0.0000    0.0000   -0.0000   -0.0008    0.0027    0.0000    0.0000
       34 FE2    3d1-       0.2772   -0.9590   -0.0000    0.0001   -0.0009   -0.0003    0.0001    0.0000   -0.0001    0.0000
       35 FE2    4d1-       0.0139   -0.0480   -0.0000    0.0000    0.0003    0.0001    0.0000    0.0000   -0.0000   -0.0000
       36 FE2    3d0       -0.0000    0.0002    0.0000    0.7067    0.0007    0.0000   -0.0000   -0.0000   -0.7072   -0.0017
       37 FE2    4d0       -0.0000    0.0000   -0.0002    0.0114    0.0000    0.0000    0.0000    0.0000   -0.0108   -0.0020
       38 FE2    3d1+       0.9590    0.2772    0.0000   -0.0000    0.0003   -0.0009    0.0000   -0.0001    0.0000   -0.0000
       39 FE2    4d1+       0.0480    0.0139    0.0000   -0.0000   -0.0001    0.0003    0.0000   -0.0000    0.0000    0.0000
       40 FE2    3d2+      -0.0000    0.0001    0.0000   -0.0000    0.0000    0.0000    0.9612    0.2757    0.0000   -0.0000
       41 FE2    4d2+      -0.0000    0.0000    0.0000   -0.0000    0.0000    0.0000    0.0027    0.0008    0.0000    0.0000
       42 FE2    4f3-      -0.0000    0.0000   -0.0000   -0.0000   -0.0000    0.0000    0.0000    0.0000    0.0000   -0.0000
       43 FE2    4f2-       0.0000    0.0000    0.0000   -0.0000    0.0000   -0.0000   -0.0002    0.0007    0.0000   -0.0000
       44 FE2    4f1-       0.0003   -0.0010   -0.0000    0.0000    0.0000    0.0000    0.0000    0.0000   -0.0000    0.0000
       45 FE2    4f0       -0.0000    0.0000   -0.0000    0.0007    0.0000    0.0000   -0.0000   -0.0000   -0.0007   -0.0000
       46 FE2    4f1+       0.0010    0.0003    0.0000   -0.0000   -0.0000    0.0000    0.0000   -0.0000    0.0000   -0.0000
       47 FE2    4f2+      -0.0000    0.0000    0.0000   -0.0000    0.0000    0.0000    0.0007    0.0002    0.0000   -0.0000
       48 FE2    4f3+      -0.0000   -0.0000   -0.0000   -0.0000   -0.0000   -0.0000    0.0000   -0.0000    0.0000   -0.0000
 
          Orbital           21        22        23        24        25        26        27        28        29        30    
          Energy            0.6796    0.6796    3.5112    3.5112    3.4760    0.5519    1.9929    1.9929    2.0383    0.4275
          Occ. No.          0.0011    0.0011    0.0002    0.0002    0.0002    0.0000    0.0000    0.0000    0.0000    0.0000
 
        1 O1     1s         0.0000   -0.0000   -0.0000    0.0000   -0.0002    0.0013    0.0000   -0.0000   -0.0018   -0.0010
        2 O1     2s         0.0000   -0.0000   -0.0000    0.0000   -0.0018    0.0161    0.0000   -0.0000   -0.0233   -0.0642
        3 O1     3s        -0.0000    0.0000   -0.0000    0.0000   -0.0023    0.0262    0.0000   -0.0000   -0.0715   -0.9657
        4 O1     2px       -0.0000    0.0001   -0.0000    0.0002    0.0000   -0.0000    0.0011   -0.0045    0.0000   -0.0000
        5 O1     3px       -0.0029    0.0102    0.0000   -0.0002    0.0000   -0.0000    0.0048   -0.0197    0.0000   -0.0000
        6 O1     2py        0.0001    0.0000    0.0002    0.0000   -0.0000    0.0000   -0.0045   -0.0011   -0.0000    0.0000
        7 O1     3py        0.0102    0.0029   -0.0002   -0.0000   -0.0000    0.0000   -0.0197   -0.0048   -0.0000    0.0000
        8 O1     2pz       -0.0000    0.0000    0.0000   -0.0000    0.0008   -0.0185   -0.0000    0.0000    0.0225   -0.0040
        9 O1     3pz        0.0000   -0.0000   -0.0000    0.0000    0.0009   -0.0480   -0.0000    0.0000    0.0834   -0.0424
       10 O1     3d2-      -0.0000    0.0000    0.0000   -0.0000    0.0000   -0.0000   -0.0000    0.0000   -0.0000   -0.0000
       11 O1     3d1-      -0.0005   -0.0001   -0.0000   -0.0000    0.0000   -0.0000    0.0020    0.0005   -0.0000   -0.0000
       12 O1     3d0        0.0000   -0.0000   -0.0000    0.0000   -0.0011    0.0087    0.0000   -0.0000    0.0011    0.2167
       13 O1     3d1+       0.0001   -0.0005    0.0000   -0.0000   -0.0000    0.0000   -0.0005    0.0020    0.0000    0.0000
       14 O1     3d2+      -0.0000   -0.0000    0.0000    0.0000    0.0000   -0.0000   -0.0000   -0.0000   -0.0000   -0.0000
       15 FE2    1s         0.0000   -0.0000   -0.0000    0.0000    0.0000   -0.0000   -0.0000    0.0000    0.0000   -0.0000
       16 FE2    2s         0.0000   -0.0000   -0.0000    0.0000   -0.0000    0.0002   -0.0000    0.0000    0.0001   -0.0000
       17 FE2    3s         0.0000   -0.0000   -0.0000    0.0000    0.0000   -0.0019   -0.0000    0.0000    0.0006    0.0003
       18 FE2    4s        -0.0002    0.0000    0.0000   -0.0000   -0.0030    0.3182   -0.0000    0.0000    0.0042    0.0642
       19 FE2    5s         0.0001   -0.0000   -0.0000    0.0000    0.0010   -0.3352   -0.0000    0.0000    0.0311    0.1629
       20 FE2    2px       -0.0000    0.0000    0.0001   -0.0003   -0.0000   -0.0000   -0.0000    0.0000   -0.0000   -0.0000
       21 FE2    3px        0.0003   -0.0010    0.0010   -0.0048   -0.0000    0.0000   -0.0016    0.0066   -0.0000    0.0000
       22 FE2    4px       -0.0406    0.1455   -0.0443    0.2048    0.0000   -0.0000    0.0488   -0.2025    0.0000   -0.0000
       23 FE2    5px       -0.0028    0.0099    0.0453   -0.2098   -0.0000   -0.0000   -0.2209    0.9169   -0.0000    0.0000
       24 FE2    2py        0.0000    0.0000   -0.0003   -0.0001    0.0000    0.0000    0.0000    0.0000    0.0000    0.0000
       25 FE2    3py       -0.0010   -0.0003   -0.0048   -0.0010    0.0000   -0.0000    0.0066    0.0016    0.0000   -0.0000
       26 FE2    4py        0.1455    0.0406    0.2048    0.0443   -0.0000    0.0000   -0.2025   -0.0488   -0.0000    0.0000
       27 FE2    5py        0.0099    0.0028   -0.2098   -0.0453    0.0000    0.0000    0.9169    0.2209    0.0001   -0.0000
       28 FE2    2pz        0.0000   -0.0000    0.0000   -0.0000    0.0006   -0.0000    0.0000   -0.0000    0.0000    0.0000
       29 FE2    3pz        0.0000   -0.0000    0.0000   -0.0000    0.0144   -0.0001   -0.0000    0.0000    0.0059   -0.0005
       30 FE2    4pz       -0.0001    0.0000   -0.0000    0.0000   -0.2415   -0.0430    0.0000   -0.0000   -0.0948    0.0966
       31 FE2    5pz       -0.0000    0.0000    0.0000   -0.0000    0.2083   -0.0037   -0.0001    0.0000    0.9710   -0.0133
       32 FE2    3d2-       0.0000   -0.0000    0.0000   -0.0000   -0.0000    0.0000    0.0000   -0.0000   -0.0000    0.0000
       33 FE2    4d2-      -0.0000    0.0001    0.0000   -0.0000    0.0000    0.0000   -0.0000    0.0000    0.0000    0.0000
       34 FE2    3d1-      -0.0498   -0.0139   -0.0016   -0.0003    0.0000    0.0000    0.0012    0.0003    0.0000   -0.0000
       35 FE2    4d1-       0.9504    0.2651   -0.0428   -0.0092   -0.0000   -0.0001    0.0184    0.0044   -0.0000   -0.0000
       36 FE2    3d0        0.0000   -0.0000    0.0000   -0.0000    0.0017    0.0192   -0.0000    0.0000    0.0022    0.0010
       37 FE2    4d0       -0.0002    0.0000    0.0000   -0.0000    0.0242   -0.8895   -0.0000    0.0000   -0.0027   -0.0286
       38 FE2    3d1+       0.0139   -0.0498    0.0003   -0.0016   -0.0000   -0.0000   -0.0003    0.0012   -0.0000    0.0000
       39 FE2    4d1+      -0.2651    0.9504    0.0092   -0.0428    0.0000    0.0000   -0.0044    0.0184    0.0000    0.0000
       40 FE2    3d2+       0.0000    0.0000    0.0000    0.0000   -0.0000    0.0000    0.0000    0.0000   -0.0000    0.0000
       41 FE2    4d2+      -0.0001   -0.0000    0.0000    0.0000    0.0000    0.0000   -0.0000   -0.0000    0.0000   -0.0000
       42 FE2    4f3-      -0.0000   -0.0000   -0.0000   -0.0000   -0.0000   -0.0000   -0.0000   -0.0000    0.0000   -0.0000
       43 FE2    4f2-      -0.0000    0.0000   -0.0001    0.0001   -0.0000    0.0000   -0.0000    0.0000    0.0000   -0.0000
       44 FE2    4f1-       0.0138    0.0038    0.9314    0.2013    0.0002   -0.0000    0.2519    0.0607   -0.0001    0.0000
       45 FE2    4f0        0.0000   -0.0000   -0.0002    0.0000    0.9474    0.0138   -0.0001    0.0000   -0.2375    0.0294
       46 FE2    4f1+      -0.0038    0.0138   -0.2013    0.9314   -0.0000    0.0000   -0.0607    0.2519    0.0000   -0.0000
       47 FE2    4f2+      -0.0000   -0.0000   -0.0001   -0.0001   -0.0000    0.0000   -0.0000   -0.0000    0.0000   -0.0000
       48 FE2    4f3+       0.0000   -0.0000    0.0000   -0.0000   -0.0000   -0.0000    0.0000   -0.0000    0.0000   -0.0000
 
          Orbital           31        32        33        34        35        36        37        38        39        40    
          Energy            0.0412   -0.2364   -0.0141   -0.0141    0.0241    0.1001    0.0900    0.0900    0.7252    0.7261
          Occ. No.          0.0000    0.0000    0.0000    0.0000    0.0000    0.0000    0.0000    0.0000    0.0000    0.0000
 
        1 O1     1s        -0.0014    0.0025   -0.0000   -0.0000    0.0004    0.0009   -0.0000   -0.0000    0.0000    0.0000
        2 O1     2s        -0.0108    0.0226   -0.0000   -0.0000    0.0013    0.0097   -0.0000   -0.0000    0.0000    0.0000
        3 O1     3s         0.0536   -0.0944    0.0000   -0.0000   -0.0805    0.0096    0.0000   -0.0000   -0.0000   -0.0000
        4 O1     2px       -0.0000   -0.0000    0.0002   -0.0007    0.0000    0.0000    0.1379   -0.0387    0.0001    0.0002
        5 O1     3px        0.0000   -0.0000    0.0048   -0.0166    0.0000   -0.0000    0.9533   -0.2677    0.0006    0.0015
        6 O1     2py        0.0000    0.0000   -0.0008   -0.0002   -0.0000    0.0000    0.0387    0.1379    0.0000    0.0000
        7 O1     3py       -0.0000    0.0000   -0.0171   -0.0047   -0.0001    0.0001    0.2677    0.9533    0.0005    0.0006
        8 O1     2pz        0.0177   -0.0262   -0.0000    0.0000    0.0821   -0.1048    0.0000    0.0000   -0.0000   -0.0000
        9 O1     3pz        0.0795   -0.0403   -0.0000    0.0000    0.6717   -0.7499    0.0000    0.0002   -0.0000   -0.0000
       10 O1     3d2-       0.0000    0.0000   -0.0000   -0.0000   -0.0000   -0.0000   -0.0000    0.0001    0.0048   -0.0163
       11 O1     3d1-       0.0000   -0.0000    0.0003    0.0001    0.0000    0.0000   -0.0000   -0.0024   -0.0135   -0.0351
       12 O1     3d0       -0.0178    0.0437   -0.0000    0.0000    0.0319   -0.0011   -0.0000   -0.0000   -0.0000   -0.0000
       13 O1     3d1+      -0.0000    0.0000   -0.0002    0.0003   -0.0000   -0.0000   -0.0012   -0.0009    0.0076   -0.0048
       14 O1     3d2+       0.0000    0.0000   -0.0000   -0.0000   -0.0000   -0.0000    0.0003    0.0002    0.0011   -0.0031
       15 FE2    1s         0.0000   -0.0000   -0.0000    0.0000    0.0001   -0.0001    0.0000    0.0000   -0.0000   -0.0000
       16 FE2    2s         0.0002   -0.0000   -0.0000    0.0000    0.0005   -0.0006    0.0000    0.0000   -0.0000   -0.0000
       17 FE2    3s         0.0087    0.0020   -0.0000    0.0000    0.0021   -0.0030    0.0000    0.0000   -0.0000   -0.0000
       18 FE2    4s        -0.5504   -0.7567    0.0000    0.0000    0.1631   -0.0084   -0.0000    0.0000    0.0000    0.0000
       19 FE2    5s         0.6930   -0.6339    0.0000    0.0000    0.0746    0.0021   -0.0000    0.0000    0.0000    0.0000
       20 FE2    2px        0.0000    0.0000    0.0000   -0.0000    0.0000    0.0000   -0.0000    0.0000   -0.0000   -0.0000
       21 FE2    3px       -0.0000   -0.0000   -0.0009    0.0031   -0.0000   -0.0000   -0.0003    0.0001   -0.0000   -0.0000
       22 FE2    4px        0.0000    0.0000    0.2572   -0.9066    0.0001    0.0000   -0.0427    0.0121   -0.0000   -0.0000
       23 FE2    5px        0.0000    0.0000    0.0695   -0.2450    0.0000    0.0000   -0.0115    0.0033   -0.0000   -0.0000
       24 FE2    2py       -0.0000   -0.0000   -0.0000   -0.0000   -0.0000   -0.0000   -0.0000   -0.0000   -0.0000   -0.0000
       25 FE2    3py        0.0000    0.0000    0.0031    0.0009    0.0000    0.0000   -0.0001   -0.0003    0.0000    0.0000
       26 FE2    4py       -0.0000   -0.0001   -0.9066   -0.2572   -0.0002   -0.0001   -0.0120   -0.0431   -0.0001   -0.0001
       27 FE2    5py       -0.0000   -0.0000   -0.2450   -0.0695   -0.0000   -0.0000   -0.0032   -0.0116   -0.0000   -0.0000
       28 FE2    2pz        0.0000   -0.0000    0.0000    0.0000    0.0000   -0.0002    0.0000    0.0000   -0.0000   -0.0000
       29 FE2    3pz        0.0013    0.0007   -0.0000    0.0000    0.0049    0.0007   -0.0000    0.0000    0.0000    0.0000
       30 FE2    4pz       -0.0486   -0.1156    0.0002    0.0000   -0.6331   -0.7189    0.0000    0.0000   -0.0000   -0.0000
       31 FE2    5pz       -0.0202   -0.0180    0.0000    0.0000   -0.1064   -0.1189    0.0000    0.0000   -0.0000   -0.0000
       32 FE2    3d2-      -0.0000   -0.0000    0.0000   -0.0000   -0.0000   -0.0000    0.0000    0.0000   -0.0027    0.0007
       33 FE2    4d2-       0.0000    0.0000   -0.0000   -0.0000    0.0000    0.0000   -0.0002   -0.0002    0.9673   -0.2531
       34 FE2    3d1-       0.0000    0.0000    0.0061    0.0017    0.0000    0.0000   -0.0006   -0.0022   -0.0000   -0.0000
       35 FE2    4d1-      -0.0002   -0.0001    0.1404    0.0398    0.0000   -0.0000   -0.0081   -0.0287   -0.0000   -0.0001
       36 FE2    3d0       -0.0018   -0.0016   -0.0000    0.0000    0.0161    0.0009   -0.0000    0.0000    0.0000    0.0000
       37 FE2    4d0       -0.4516   -0.0391   -0.0000    0.0000    0.0803   -0.0028   -0.0000    0.0000    0.0000    0.0000
       38 FE2    3d1+      -0.0000   -0.0000   -0.0017    0.0061   -0.0000   -0.0000   -0.0022    0.0006    0.0000   -0.0000
       39 FE2    4d1+       0.0001    0.0000   -0.0398    0.1404   -0.0000    0.0000   -0.0287    0.0080   -0.0001   -0.0000
       40 FE2    3d2+      -0.0000   -0.0000    0.0000   -0.0000    0.0000   -0.0000    0.0000    0.0000   -0.0007   -0.0027
       41 FE2    4d2+       0.0000    0.0000   -0.0000    0.0000    0.0000    0.0000   -0.0018   -0.0004    0.2530    0.9666
       42 FE2    4f3-       0.0000    0.0000    0.0000    0.0000    0.0000   -0.0000   -0.0000   -0.0000   -0.0000   -0.0000
[...]
ATVX     1  Mu1.0014  Se1.026                       0.13116330      0.00000002     -0.00000003     -0.00000000
ATVX     1  Mu1.0015  Se1.026                       0.13118960      0.00000000     -0.00000000     -0.00000000
ATVX     1  Mu1.0016  Se1.026                       0.13118960     -0.00000000     -0.00000000      0.00000000
ATVX     1  Mu1.0017  Se1.026                       0.14259441      0.00000000     -0.00000000     -0.00000000
ATVX     1  Mu1.0018  Se1.026                       0.14259441      0.00000000     -0.00000000     -0.00000000
ATVX     1  Mu1.0019  Se1.026                       0.14436984     -0.00000198      0.00001316     -0.00000000
ATVX     1  Mu1.0020  Se1.026                       0.14438052      0.00000112     -0.00000742     -0.00000000
ATVX     1  Mu1.0021  Se1.026                       0.14588742      0.00000000     -0.00000000     -0.00000000
ATVX     1  Mu1.0022  Se1.026                       0.14590726     -0.00000000      0.00000000     -0.00000000
ATVX     1  Mu1.0023  Se1.026                       0.14694065      0.00000000     -0.00000000     -0.00000000
ATVX     1  Mu1.0024  Se1.026                       0.14694137     -0.00000000      0.00000000     -0.00000000
ATVX     1  Mu1.0025  Se1.026                       0.15132049      0.00000000     -0.00000000     -0.00000000
ATVX     1  Mu1.0026  Se1.026                       0.15133015      0.00000000     -0.00000000     -0.00000000
ATVX     1  Mu1.0027  Se1.026                       0.16546825      0.00000000     -0.00000000     -0.00000000
ATVX     1  Mu1.0028  Se1.026                       0.16553672      0.00000000     -0.00000000     -0.00000000
ATVX     1  Mu1.0029  Se1.026                       0.18667296     -0.00000000      0.00000000     -0.00000000
ATVX     1  Mu1.0030  Se1.026                       0.18669033      0.00000000     -0.00000000     -0.00000000
ATVX     1  Mu1.0031  Se1.026                       0.18947247     -0.00000000      0.00000000     -0.00000000
ATVX     1  Mu1.0032  Se1.026                       0.18951209     -0.00000000      0.00000000     -0.00000000
ATVX     1  Mu1.0033  Se1.026                       0.19275118     -0.00000000      0.00000000     -0.00000000
ATVX     1  Mu1.0034  Se1.026                       0.19276157     -0.00000000      0.00000000     -0.00000000
ATVX     1  Mu1.0035  Se1.026                       0.19929959      0.00000368     -0.00001581     -0.00000000
ATVX     1  Mu1.0036  Se1.026                       0.19930837      0.00000287     -0.00001233     -0.00000000
ATVX     1  Mu1.0037  Se1.026                       0.20659923      0.00000000     -0.00000000     -0.00000000
ATVX     1  Mu1.0038  Se1.026                       0.22505233      0.00000136     -0.00000589     -0.00000000
ATVX     1  Mu1.0039  Se1.026                       0.22513030     -0.00000007      0.00000031     -0.00000000
ATVX     1  Mu1.0040  Se1.026                       0.23714219      0.00000000     -0.00000000     -0.00000000
ATVX     1  Mu1.0041  Se1.026                       0.23714220     -0.00000000      0.00000000     -0.00000000
ATVX     1  Mu1.0042  Se1.026                       0.24354705      0.00000000     -0.00000000     -0.00000000
ATVX     1  Mu1.0043  Se1.026                       0.24355470     -0.00000000      0.00000000     -0.00000000
ATVX     1  Mu1.0044  Se1.026                       0.25542438     -0.00094934      0.00359636     -0.00000341
ATVX     1  Mu1.0045  Se1.026                       0.27944782     -0.00006723     -0.00099112      0.00000007
ATVX     1  Mu1.0046  Se1.026                       0.28466839     -0.00000087     -0.00001241      0.00000000
ATVX     1  Mu1.0047  Se1.026                       0.28469099      0.00000136      0.00001933      0.00000000
ATVX     1  Mu1.0001  Se1.027                      -0.13259445      0.00000000      0.00000000      0.00000000
ATVX     1  Mu1.0002  Se1.027                      -0.11944421     -0.00000000     -0.00000000      0.00000000
ATVX     1  Mu1.0003  Se1.027                      -0.11943516      0.00000000     -0.00000000     -0.00000000
ATVX     1  Mu1.0004  Se1.027                      -0.07807055      0.00000000      0.00000000      0.00000000
ATVX     1  Mu1.0005  Se1.027                       0.02374694     -0.00000000      0.00000000     -0.00000000
ATVX     1  Mu1.0006  Se1.027                       0.02374700     -0.00000000      0.00000000     -0.00000000
ATVX     1  Mu1.0007  Se1.027                       0.25500661      0.00000000     -0.00000000     -0.00000000
ATVX     1  Mu1.0008  Se1.027                       0.25500661      0.00000000     -0.00000000     -0.00000000
ATVX     1  Mu1.0009  Se1.027                       0.26765795     -0.00000000      0.00000001     -0.00000000
ATVX     1  Mu1.0010  Se1.027                       0.26766730     -0.00000000      0.00000001     -0.00000000
ATVX     1  Mu1.0011  Se1.027                       0.26870442     -0.00000136      0.00000876     -0.00000000
ATVX     1  Mu1.0012  Se1.027                       0.26871547      0.00000263     -0.00001692     -0.00000000
ATVX     1  Mu1.0001  Se1.028                      -0.12963481      0.00000000      0.00000000      0.00000000
ATVX     1  Mu1.0002  Se1.028                      -0.11648458     -0.00000000     -0.00000000      0.00000000
ATVX     1  Mu1.0003  Se1.028                      -0.11647552      0.00000037     -0.00000044     -0.00000000
ATVX     1  Mu1.0004  Se1.028                      -0.07511091     -0.00000000     -0.00000000      0.00000000
ATVX     1  Mu1.0005  Se1.028                       0.02670658     -0.00000005     -0.00000415      0.00000000
ATVX     1  Mu1.0006  Se1.028                       0.02670664      0.00001175      0.00092428      0.00000001
ATVX     1  Mu1.0007  Se1.028                       0.25796625      0.00000310     -0.00002970     -0.00000000
ATVX     1  Mu1.0008  Se1.028                       0.25796625     -0.00000011      0.00000106     -0.00000000
ATVX     1  Mu1.0009  Se1.028                       0.27061759      0.00000000     -0.00000000     -0.00000000
ATVX     1  Mu1.0010  Se1.028                       0.27062694      0.00000000     -0.00000000     -0.00000000
ATVX     1  Mu1.0011  Se1.028                       0.27166406      0.00000000     -0.00000000     -0.00000000
ATVX     1  Mu1.0012  Se1.028                       0.27167510     -0.00000000      0.00000000     -0.00000000
ATVX     1  Mu1.0001  Se1.029                      -0.12963285      0.00000000     -0.00000000     -0.00000000
ATVX     1  Mu1.0002  Se1.029                      -0.11648261     -0.00000037      0.00000044     -0.00000000
ATVX     1  Mu1.0003  Se1.029                      -0.11647355     -0.00000000     -0.00000000      0.00000000
ATVX     1  Mu1.0004  Se1.029                      -0.07510895      0.00000000     -0.00000000     -0.00000000
ATVX     1  Mu1.0005  Se1.029                       0.02670855      0.00001175      0.00092419      0.00000001
ATVX     1  Mu1.0006  Se1.029                       0.02670860      0.00000005      0.00000415      0.00000000
ATVX     1  Mu1.0007  Se1.029                       0.25796821      0.00000011     -0.00000106     -0.00000000
ATVX     1  Mu1.0008  Se1.029                       0.25796821      0.00000310     -0.00002970     -0.00000000
ATVX     1  Mu1.0009  Se1.029                       0.27061955     -0.00000000     -0.00000000      0.00000000
ATVX     1  Mu1.0010  Se1.029                       0.27062891     -0.00000000     -0.00000000      0.00000000
ATVX     1  Mu1.0011  Se1.029                       0.27166603     -0.00000000      0.00000000     -0.00000000
ATVX     1  Mu1.0012  Se1.029                       0.27167707      0.00000000     -0.00000000     -0.00000000
ATVX     1  Mu1.0001  Se1.030                       0.03838620      0.00000000     -0.00000000     -0.00000000
ATVX     1  Mu1.0002  Se1.030                       0.05153644     -0.00000000      0.00000000     -0.00000000
ATVX     1  Mu1.0003  Se1.030                       0.05154550      0.00000000     -0.00000000     -0.00000000
ATVX     1  Mu1.0004  Se1.030                       0.09291010      0.00000000     -0.00000000     -0.00000000
ATVX     1  Mu1.0005  Se1.030                       0.19472760     -0.00000000      0.00000000     -0.00000000
ATVX     1  Mu1.0006  Se1.030                       0.19472765      0.00000000     -0.00000000     -0.00000000
ATVX     1  Mu1.0278  Se1.031                       2.30480638      0.09551821     -0.04268654     -0.00407734
ATVX     1  Mu1.0279  Se1.032                       2.30480640     -0.09551820      0.04268653     -0.00407734
AIVX     1  Mu1.0141  In1.011 Se1.033               3.35256183      0.10020979     -0.03020456     -0.00302679
AIVX     1  Mu1.0130  In1.008 Se1.034               6.30192984      0.16212853     -0.02572740     -0.00417115
AIVX     1  Mu1.0130  In1.009 Se1.035               6.29582001     -0.16179267      0.02569766     -0.00415769
AIVX     1  Mu1.0169  In1.009 Se1.035               6.56157195     -0.17750330      0.02705201     -0.00480182
AIVX     1  Mu1.0130  In1.010 Se1.036               6.29582334     -0.16179664      0.02569828     -0.00415790
AIVX     1  Mu1.0169  In1.010 Se1.036               6.56157528     -0.17750602      0.02705241     -0.00480197
AIVX     1  Mu1.0031  In1.011 Se1.037               3.46855331      0.10499899     -0.02898800     -0.00304371
AIVX     1  Mu1.0032  In1.011 Se1.037               3.46855332     -0.10273728      0.02836358     -0.00291400
AIVX     1  Mu1.0051  In1.011 Se1.038               3.71842716     -0.14557851      0.03757814     -0.00547057
AIVX     1  Mu1.0038  In1.011 Se1.041               3.51625833      0.10145093     -0.02757356     -0.00279736
BVATM    1  Mu1.0001  Se1.027 Se1.026               0.27093113     -0.00000000     -0.00000000      0.00000000
BVATM    1  Mu1.0001  Se1.028 Se1.026               0.27389076      0.00000000     -0.00000000     -0.00000000
BVATM    1  Mu1.0001  Se1.029 Se1.026               0.27389273     -0.00000000      0.00000000     -0.00000000
BVATM    1  Mu1.0001  Se1.032 Se1.031               1.95931315     -0.07185632      0.03699164     -0.00265808
BVATM    1  Mu1.0001  Se1.038 Se1.037               5.01011162     -0.12962101      0.02587188     -0.00335354
BJATP    1  Mu1.0002  In1.011 Se1.033 Se1.031       2.94527495      0.08242190     -0.02785969     -0.00229625
BJATP    1  Mu1.0001  In1.011 Se1.033 Se1.032       2.94527497     -0.08242190      0.02785969     -0.00229625
BJATM    1  Mu1.0002  In1.011 Se1.033 Se1.031       2.94527495     -0.07847455      0.02855907     -0.00224116
BJATM    1  Mu1.0001  In1.011 Se1.033 Se1.032       2.94527497      0.07847455     -0.02855907     -0.00224116
BJAIP    1  Se1.033 In1.011 Se1.033 In1.011         3.93121662      0.12208636     -0.03320475     -0.00405385
--
 
   (Skipping property calculation,
    use PROP keyword to activate)
--
 
  Total CASPT2 energies:
::    CASPT2 Root  1     Total energy:  -1345.82660161
 
  A NEW JOBIPH FILE NAMED 'JOBMIX' IS PREPARED.
********************************************************************************
--- Stop Module: caspt2 at Wed Dec 25 06:38:18 2024 /rc=_RC_ALL_IS_WELL_ ---
*** files: xmldump
    saved to directory /home/grierjones/DDCASPT2/iron_oxo_DDCASPT2/cluster/5.28
--- Module caspt2 spent 5 minutes 30 seconds ---

>>> EXPORT i = B

>>> EXPORT j = P

>>> IF (-FILE GMJ_e2_${i}_${j}.csv)

>>> COPY /tmp/5.28/GMJ_RHS_B_P.csv /home/grierjones/DDCASPT2/iron_oxo_DDCASPT2/cluster/5.28/GMJ_RHS_B_P.csv

>>> COPY /tmp/5.28/GMJ_IVECW_B_P.csv /home/grierjones/DDCASPT2/iron_oxo_DDCASPT2/cluster/5.28/GMJ_IVECW_B_P.csv

>>> COPY /tmp/5.28/GMJ_IVECX_B_P.csv /home/grierjones/DDCASPT2/iron_oxo_DDCASPT2/cluster/5.28/GMJ_IVECX_B_P.csv

>>> COPY /tmp/5.28/GMJ_IVECC2_B_P.csv /home/grierjones/DDCASPT2/iron_oxo_DDCASPT2/cluster/5.28/GMJ_IVECC2_B_P.csv

>>> COPY /tmp/5.28/GMJ_e2_B_P.csv /home/grierjones/DDCASPT2/iron_oxo_DDCASPT2/cluster/5.28/GMJ_e2_B_P.csv

>>> END FOREACH

>>> EXPORT j = M

>>> IF (-FILE GMJ_e2_${i}_${j}.csv)

>>> COPY /tmp/5.28/GMJ_RHS_B_M.csv /home/grierjones/DDCASPT2/iron_oxo_DDCASPT2/cluster/5.28/GMJ_RHS_B_M.csv

>>> COPY /tmp/5.28/GMJ_IVECW_B_M.csv /home/grierjones/DDCASPT2/iron_oxo_DDCASPT2/cluster/5.28/GMJ_IVECW_B_M.csv

>>> COPY /tmp/5.28/GMJ_IVECX_B_M.csv /home/grierjones/DDCASPT2/iron_oxo_DDCASPT2/cluster/5.28/GMJ_IVECX_B_M.csv

>>> COPY /tmp/5.28/GMJ_IVECC2_B_M.csv /home/grierjones/DDCASPT2/iron_oxo_DDCASPT2/cluster/5.28/GMJ_IVECC2_B_M.csv

>>> COPY /tmp/5.28/GMJ_e2_B_M.csv /home/grierjones/DDCASPT2/iron_oxo_DDCASPT2/cluster/5.28/GMJ_e2_B_M.csv

>>> END FOREACH

>>> END FOREACH

>>> EXPORT i = E

>>> EXPORT j = P

>>> IF (-FILE GMJ_e2_${i}_${j}.csv)

>>> COPY /tmp/5.28/GMJ_RHS_E_P.csv /home/grierjones/DDCASPT2/iron_oxo_DDCASPT2/cluster/5.28/GMJ_RHS_E_P.csv

>>> COPY /tmp/5.28/GMJ_IVECW_E_P.csv /home/grierjones/DDCASPT2/iron_oxo_DDCASPT2/cluster/5.28/GMJ_IVECW_E_P.csv

>>> COPY /tmp/5.28/GMJ_IVECX_E_P.csv /home/grierjones/DDCASPT2/iron_oxo_DDCASPT2/cluster/5.28/GMJ_IVECX_E_P.csv

>>> COPY /tmp/5.28/GMJ_IVECC2_E_P.csv /home/grierjones/DDCASPT2/iron_oxo_DDCASPT2/cluster/5.28/GMJ_IVECC2_E_P.csv

>>> COPY /tmp/5.28/GMJ_e2_E_P.csv /home/grierjones/DDCASPT2/iron_oxo_DDCASPT2/cluster/5.28/GMJ_e2_E_P.csv

>>> END FOREACH

>>> EXPORT j = M

>>> IF (-FILE GMJ_e2_${i}_${j}.csv)

>>> COPY /tmp/5.28/GMJ_RHS_E_M.csv /home/grierjones/DDCASPT2/iron_oxo_DDCASPT2/cluster/5.28/GMJ_RHS_E_M.csv

>>> COPY /tmp/5.28/GMJ_IVECW_E_M.csv /home/grierjones/DDCASPT2/iron_oxo_DDCASPT2/cluster/5.28/GMJ_IVECW_E_M.csv

>>> COPY /tmp/5.28/GMJ_IVECX_E_M.csv /home/grierjones/DDCASPT2/iron_oxo_DDCASPT2/cluster/5.28/GMJ_IVECX_E_M.csv

>>> COPY /tmp/5.28/GMJ_IVECC2_E_M.csv /home/grierjones/DDCASPT2/iron_oxo_DDCASPT2/cluster/5.28/GMJ_IVECC2_E_M.csv

>>> COPY /tmp/5.28/GMJ_e2_E_M.csv /home/grierjones/DDCASPT2/iron_oxo_DDCASPT2/cluster/5.28/GMJ_e2_E_M.csv

>>> END FOREACH

>>> END FOREACH

>>> EXPORT i = F

>>> EXPORT j = P

>>> IF (-FILE GMJ_e2_${i}_${j}.csv)

>>> COPY /tmp/5.28/GMJ_RHS_F_P.csv /home/grierjones/DDCASPT2/iron_oxo_DDCASPT2/cluster/5.28/GMJ_RHS_F_P.csv

>>> COPY /tmp/5.28/GMJ_IVECW_F_P.csv /home/grierjones/DDCASPT2/iron_oxo_DDCASPT2/cluster/5.28/GMJ_IVECW_F_P.csv

>>> COPY /tmp/5.28/GMJ_IVECX_F_P.csv /home/grierjones/DDCASPT2/iron_oxo_DDCASPT2/cluster/5.28/GMJ_IVECX_F_P.csv

>>> COPY /tmp/5.28/GMJ_IVECC2_F_P.csv /home/grierjones/DDCASPT2/iron_oxo_DDCASPT2/cluster/5.28/GMJ_IVECC2_F_P.csv

>>> COPY /tmp/5.28/GMJ_e2_F_P.csv /home/grierjones/DDCASPT2/iron_oxo_DDCASPT2/cluster/5.28/GMJ_e2_F_P.csv

>>> END FOREACH

>>> EXPORT j = M

>>> IF (-FILE GMJ_e2_${i}_${j}.csv)

>>> COPY /tmp/5.28/GMJ_RHS_F_M.csv /home/grierjones/DDCASPT2/iron_oxo_DDCASPT2/cluster/5.28/GMJ_RHS_F_M.csv

>>> COPY /tmp/5.28/GMJ_IVECW_F_M.csv /home/grierjones/DDCASPT2/iron_oxo_DDCASPT2/cluster/5.28/GMJ_IVECW_F_M.csv

>>> COPY /tmp/5.28/GMJ_IVECX_F_M.csv /home/grierjones/DDCASPT2/iron_oxo_DDCASPT2/cluster/5.28/GMJ_IVECX_F_M.csv

>>> COPY /tmp/5.28/GMJ_IVECC2_F_M.csv /home/grierjones/DDCASPT2/iron_oxo_DDCASPT2/cluster/5.28/GMJ_IVECC2_F_M.csv

>>> COPY /tmp/5.28/GMJ_e2_F_M.csv /home/grierjones/DDCASPT2/iron_oxo_DDCASPT2/cluster/5.28/GMJ_e2_F_M.csv

>>> END FOREACH

>>> END FOREACH

>>> EXPORT i = G

>>> EXPORT j = P

>>> IF (-FILE GMJ_e2_${i}_${j}.csv)

>>> COPY /tmp/5.28/GMJ_RHS_G_P.csv /home/grierjones/DDCASPT2/iron_oxo_DDCASPT2/cluster/5.28/GMJ_RHS_G_P.csv

>>> COPY /tmp/5.28/GMJ_IVECW_G_P.csv /home/grierjones/DDCASPT2/iron_oxo_DDCASPT2/cluster/5.28/GMJ_IVECW_G_P.csv

>>> COPY /tmp/5.28/GMJ_IVECX_G_P.csv /home/grierjones/DDCASPT2/iron_oxo_DDCASPT2/cluster/5.28/GMJ_IVECX_G_P.csv

>>> COPY /tmp/5.28/GMJ_IVECC2_G_P.csv /home/grierjones/DDCASPT2/iron_oxo_DDCASPT2/cluster/5.28/GMJ_IVECC2_G_P.csv

>>> COPY /tmp/5.28/GMJ_e2_G_P.csv /home/grierjones/DDCASPT2/iron_oxo_DDCASPT2/cluster/5.28/GMJ_e2_G_P.csv

>>> END FOREACH

>>> EXPORT j = M

>>> IF (-FILE GMJ_e2_${i}_${j}.csv)

>>> COPY /tmp/5.28/GMJ_RHS_G_M.csv /home/grierjones/DDCASPT2/iron_oxo_DDCASPT2/cluster/5.28/GMJ_RHS_G_M.csv

>>> COPY /tmp/5.28/GMJ_IVECW_G_M.csv /home/grierjones/DDCASPT2/iron_oxo_DDCASPT2/cluster/5.28/GMJ_IVECW_G_M.csv

>>> COPY /tmp/5.28/GMJ_IVECX_G_M.csv /home/grierjones/DDCASPT2/iron_oxo_DDCASPT2/cluster/5.28/GMJ_IVECX_G_M.csv

>>> COPY /tmp/5.28/GMJ_IVECC2_G_M.csv /home/grierjones/DDCASPT2/iron_oxo_DDCASPT2/cluster/5.28/GMJ_IVECC2_G_M.csv

>>> COPY /tmp/5.28/GMJ_e2_G_M.csv /home/grierjones/DDCASPT2/iron_oxo_DDCASPT2/cluster/5.28/GMJ_e2_G_M.csv

>>> END FOREACH

>>> END FOREACH

>>> EXPORT i = H

>>> EXPORT j = P

>>> IF (-FILE GMJ_e2_${i}_${j}.csv)

>>> COPY /tmp/5.28/GMJ_RHS_H_P.csv /home/grierjones/DDCASPT2/iron_oxo_DDCASPT2/cluster/5.28/GMJ_RHS_H_P.csv

>>> COPY /tmp/5.28/GMJ_IVECW_H_P.csv /home/grierjones/DDCASPT2/iron_oxo_DDCASPT2/cluster/5.28/GMJ_IVECW_H_P.csv

>>> COPY /tmp/5.28/GMJ_IVECX_H_P.csv /home/grierjones/DDCASPT2/iron_oxo_DDCASPT2/cluster/5.28/GMJ_IVECX_H_P.csv

>>> COPY /tmp/5.28/GMJ_IVECC2_H_P.csv /home/grierjones/DDCASPT2/iron_oxo_DDCASPT2/cluster/5.28/GMJ_IVECC2_H_P.csv

>>> COPY /tmp/5.28/GMJ_e2_H_P.csv /home/grierjones/DDCASPT2/iron_oxo_DDCASPT2/cluster/5.28/GMJ_e2_H_P.csv

>>> END FOREACH

>>> EXPORT j = M

>>> IF (-FILE GMJ_e2_${i}_${j}.csv)

>>> COPY /tmp/5.28/GMJ_RHS_H_M.csv /home/grierjones/DDCASPT2/iron_oxo_DDCASPT2/cluster/5.28/GMJ_RHS_H_M.csv

>>> COPY /tmp/5.28/GMJ_IVECW_H_M.csv /home/grierjones/DDCASPT2/iron_oxo_DDCASPT2/cluster/5.28/GMJ_IVECW_H_M.csv

>>> COPY /tmp/5.28/GMJ_IVECX_H_M.csv /home/grierjones/DDCASPT2/iron_oxo_DDCASPT2/cluster/5.28/GMJ_IVECX_H_M.csv

>>> COPY /tmp/5.28/GMJ_IVECC2_H_M.csv /home/grierjones/DDCASPT2/iron_oxo_DDCASPT2/cluster/5.28/GMJ_IVECC2_H_M.csv

>>> COPY /tmp/5.28/GMJ_e2_H_M.csv /home/grierjones/DDCASPT2/iron_oxo_DDCASPT2/cluster/5.28/GMJ_e2_H_M.csv

>>> END FOREACH

>>> END FOREACH

>>> EXPORT i = A

>>> IF (-FILE GMJ_e2_$i.csv)

>>> COPY /tmp/5.28/GMJ_RHS_A.csv /home/grierjones/DDCASPT2/iron_oxo_DDCASPT2/cluster/5.28/GMJ_RHS_A.csv

>>> COPY /tmp/5.28/GMJ_IVECW_A.csv /home/grierjones/DDCASPT2/iron_oxo_DDCASPT2/cluster/5.28/GMJ_IVECW_A.csv

>>> COPY /tmp/5.28/GMJ_IVECX_A.csv /home/grierjones/DDCASPT2/iron_oxo_DDCASPT2/cluster/5.28/GMJ_IVECX_A.csv

>>> COPY /tmp/5.28/GMJ_IVECC2_A.csv /home/grierjones/DDCASPT2/iron_oxo_DDCASPT2/cluster/5.28/GMJ_IVECC2_A.csv

>>> COPY /tmp/5.28/GMJ_e2_A.csv /home/grierjones/DDCASPT2/iron_oxo_DDCASPT2/cluster/5.28/GMJ_e2_A.csv

>>> END FOREACH

>>> EXPORT i = C

>>> IF (-FILE GMJ_e2_$i.csv)

>>> COPY /tmp/5.28/GMJ_RHS_C.csv /home/grierjones/DDCASPT2/iron_oxo_DDCASPT2/cluster/5.28/GMJ_RHS_C.csv

>>> COPY /tmp/5.28/GMJ_IVECW_C.csv /home/grierjones/DDCASPT2/iron_oxo_DDCASPT2/cluster/5.28/GMJ_IVECW_C.csv

>>> COPY /tmp/5.28/GMJ_IVECX_C.csv /home/grierjones/DDCASPT2/iron_oxo_DDCASPT2/cluster/5.28/GMJ_IVECX_C.csv

>>> COPY /tmp/5.28/GMJ_IVECC2_C.csv /home/grierjones/DDCASPT2/iron_oxo_DDCASPT2/cluster/5.28/GMJ_IVECC2_C.csv

>>> COPY /tmp/5.28/GMJ_e2_C.csv /home/grierjones/DDCASPT2/iron_oxo_DDCASPT2/cluster/5.28/GMJ_e2_C.csv

>>> END FOREACH

>>> EXPORT i = D

>>> IF (-FILE GMJ_e2_$i.csv)

>>> COPY /tmp/5.28/GMJ_RHS_D.csv /home/grierjones/DDCASPT2/iron_oxo_DDCASPT2/cluster/5.28/GMJ_RHS_D.csv

>>> COPY /tmp/5.28/GMJ_IVECW_D.csv /home/grierjones/DDCASPT2/iron_oxo_DDCASPT2/cluster/5.28/GMJ_IVECW_D.csv

>>> COPY /tmp/5.28/GMJ_IVECX_D.csv /home/grierjones/DDCASPT2/iron_oxo_DDCASPT2/cluster/5.28/GMJ_IVECX_D.csv

>>> COPY /tmp/5.28/GMJ_IVECC2_D.csv /home/grierjones/DDCASPT2/iron_oxo_DDCASPT2/cluster/5.28/GMJ_IVECC2_D.csv

>>> COPY /tmp/5.28/GMJ_e2_D.csv /home/grierjones/DDCASPT2/iron_oxo_DDCASPT2/cluster/5.28/GMJ_e2_D.csv

>>> END FOREACH

.########################.
.# Non-zero return code #.
.########################.

    Timing: Wall=399.11 User=395.67 System=3.32
************************************
*** WorkDir at /tmp/5.28 cleaned ***
************************************
