   This run of MOLCAS is using the pymolcas driver

                             OPE
                             OPE          NMOL  CASOP  ENMOLC A   SO
                 OPE        NMOLC        AS  OP EN  MO LC     AS  OP
                OPENM       OL CA        SO  PE NM  OL CA     SOP EN
                OP EN      MO   LC       AS  OP ENMOL  CASO   PENMOL
                OP  EN     MO   LC       AS  OP EN     MO     LC ASO
               OP   E  NMOL  C  AS       OP  EN MO     LC     AS  OP
               OP  E   NMO   LC AS        OPEN  MO     LCASOP EN   M
               O  PEN   MO  LCA  SO
            OPE   NMO   L   CAS    OP
        OPENMOL  CASOP     ENMOL   CASOPE
     OPENMOLCA   SOPENMOLCASOPEN   MOLCASOPE
    OPENMOLCAS   OP           EN   MOL    CAS
    OPENMOLCAS       OP  ENM        O     LCA
    OPENMOLCAS    OPEN  MOLCASO     P  E  NMO
    OPENMOLCAS     OP               E  N  MOL
    OPENMOLCA   SO           PENM   O  L  CAS    OPEN    MO    LCAS
    OPENMOLCA   SOP           ENM   O  L  CAS   OP  EN  MOLC  AS   O
    OPENMOLCA   SOPE           NM      O  LCA   S      OP  EN MO
    OPENMOLC                AS         O  PEN   M      OL  CA  SOPE
    OPENMO        LCASOPE  NMOL        C  ASO   P      ENMOLC     AS
    OPE     NMO      LCA  SO     P     E   NM   OL  CA SO  PE N   MO
          OPENMOLCA            SOPE   NMO        LCAS  O    P  ENMO
     OPENMOLCASOPENMOLCASOPENMOLCASOPENMOLCA
        OPENMOLCASOPENMOLCASOPENMOLCASOPE
            OPENMOLCASOPENMOLCASOPENM
               OPENMOLCASOPENMOLCA        version: ea724fe96-dirty
                   OPENMOLCASO
                       OPE                tag:

 OpenMolcas is free software; you can redistribute it and/or modify it
 under the terms of the GNU Lesser General Public License version 2.1.
 OpenMolcas is distributed in the hope that it will be useful, but it
 is provided "as is" and without any express or implied warranties.
 For more details see the full text of the license in the file
 LICENSE or in <http://www.gnu.org/licenses/>.

                 Copyright (C) The OpenMolcas Authors
           For the author list and the recommended citation,
                   consult the file CONTRIBUTORS.md

           *************************************************
           * pymolcas version py2.28                       *
           *   build c4a6d18ded8cb6cad61d2372a9abd97c      *
           *   (after the EMIL interpreter by V. Veryazov) *
           *************************************************

configuration info
------------------
C Compiler ID: Intel
C flags: -std=gnu99
Fortran Compiler ID: Intel
Fortran flags: -fpp -i8 -r8 -heap-arrays
Definitions: _MOLCAS_;_I8_;_LINUX_
Parallel: OFF (GA=OFF)


   -------------------------------------------------------------------------------
  |
  |              Project: 4.58
  |       Submitted from: /home/grierjones/DDCASPT2/iron_oxo_DDCASPT2/cluster/4.58
  |         Scratch area: /tmp/4.58
  |      Save outputs to: /home/grierjones/DDCASPT2/iron_oxo_DDCASPT2/cluster/4.58
  |               Molcas: /home/grierjones/Test/build
  |
  | Scratch area is empty
  |
  |       MOLCAS_DRIVER = /usr/local/pymolcas
  | MOLCAS_KEEP_WORKDIR = NO
  |  MOLCAS_NEW_WORKDIR = YES
  |       MOLCAS_NPROCS = 1
  |        MOLCAS_PRINT = NORMAL
  |       MOLCAS_SOURCE = /home/grierjones/Test/build
  |    MOLCAS_STRUCTURE = 0
  |
   -------------------------------------------------------------------------------

++ ---------   Input file   ---------

&GATEWAY
coord=4.58.xyz
Basis = ANO-RCC-VDZP
Group = nosymm
Expert
End of Input

&SEWARD
End of Input

&SCF
UHF
charge
2
spin
5

>>> COPY $WorkDir/4.58.scf.h5 $CurrDir/

&RASSCF
Title= RASSCF
FileOrb
/home/grierjones/DDCASPT2/iron_oxo_DDCASPT2/cluster/4.56/4.56.RasOrb
NACTEL
10 0 0
RAS2
14
Symmetry
1
Spin
5
charge
2
orblisting
all
ITERation
300 200

>>> COPY $WorkDir/4.58.rasscf.h5 $CurrDir/

>>> COPY $WorkDir/GMJ_Fock_MO.csv $CurrDir/4.58.GMJ_Fock_MO.csv

>>> COPY $WorkDir/GMJ_PT2_Fock_MO.csv $CurrDir/4.58.GMJ_PT2_Fock_MO.csv

&MOTRA
Frozen=0
LUMORB

>>> COPY $WorkDir/GMJ_one_int_indx.csv $CurrDir/4.58.GMJ_one_int_indx.csv

>>> COPY $WorkDir/GMJ_one_int.csv $CurrDir/4.58.GMJ_one_int.csv

>>> COPY $WorkDir/GMJ_two_int_indx.csv $CurrDir/4.58.GMJ_two_int_indx.csv

>>> COPY $WorkDir/GMJ_two_int.csv $CurrDir/4.58.GMJ_two_int.csv

&CASPT2
Frozen
0
MAXITER
50

>>> FOREACH i IN (B,E,F,G,H)

  >>> FOREACH j IN (P,M)

    >>> IF (-FILE GMJ_e2_${i}_${j}.csv)

      >>> COPY $WorkDir/GMJ_RHS_${i}_${j}.csv $CurrDir/GMJ_RHS_${i}_${j}.csv

      >>> COPY $WorkDir/GMJ_IVECW_${i}_${j}.csv $CurrDir/GMJ_IVECW_${i}_${j}.csv

      >>> COPY $WorkDir/GMJ_IVECX_${i}_${j}.csv $CurrDir/GMJ_IVECX_${i}_${j}.csv

      >>> COPY $WorkDir/GMJ_IVECC2_${i}_${j}.csv $CurrDir/GMJ_IVECC2_${i}_${j}.csv

      >>> COPY $WorkDir/GMJ_e2_${i}_${j}.csv $CurrDir/GMJ_e2_${i}_${j}.csv

    >>> END IF

  >>> END FOREACH

>>> END FOREACH

>>> FOREACH i IN (A,C,D)

  >>> IF (-FILE GMJ_e2_$i.csv)

    >>> COPY $WorkDir/GMJ_RHS_$i.csv $CurrDir/GMJ_RHS_$i.csv

    >>> COPY $WorkDir/GMJ_IVECW_$i.csv $CurrDir/GMJ_IVECW_$i.csv

    >>> COPY $WorkDir/GMJ_IVECX_$i.csv $CurrDir/GMJ_IVECX_$i.csv

    >>> COPY $WorkDir/GMJ_IVECC2_$i.csv $CurrDir/GMJ_IVECC2_$i.csv

    >>> COPY $WorkDir/GMJ_e2_$i.csv $CurrDir/GMJ_e2_$i.csv

  >>> END IF

>>> END FOREACH

-- ----------------------------------

--- Start Module: gateway at Wed Dec 18 02:58:20 2024 ---
 
()()()()()()()()()()()()()()()()()()()()()()()()()()()()()()()()()()()()()()()()()()()()()()()()()()

                                              &GATEWAY

                                   only a single process is used
                       available to each process: 2.0 GB of memory, 1 thread?
()()()()()()()()()()()()()()()()()()()()()()()()()()()()()()()()()()()()()()()()()()()()()()()()()()
 
 ###############################################################################
 ###############################################################################
 ###                                                                         ###
 ###                                                                         ###
 ###                                                                         ###
 ###    WARNING: EXPERT option is ON!                                        ###
 ###                                                                         ###
 ###                                                                         ###
 ###############################################################################
 ###############################################################################
 
++    Symmetry information:
      ---------------------
 
                    Character Table for C1 
 
                             E  
                    a        1  x, y, xy, Rz, z, xz, Ry, yz, Rx, I
--
 
 
++    Basis set information:
      ----------------------
 
 
      Basis set label: O.ANO-RCC...3S2P1D.
 
      Electronic valence basis set:
      ------------------
      Associated Effective Charge   8.000000 au
      Associated Actual Charge      8.000000 au
      Nuclear Model: Point charge
 
      Shell  nPrim  nBasis  Cartesian Spherical Contaminant
         s      14       3        X                  
         p       9       2        X                  
         d       4       1                 X         
 
 
      Basis set label: FE.ANO-RCC...5S4P2D1F.
 
      Electronic valence basis set:
      ------------------
      Associated Effective Charge  26.000000 au
      Associated Actual Charge     26.000000 au
      Nuclear Model: Point charge
 
      Shell  nPrim  nBasis  Cartesian Spherical Contaminant
         s      21       5        X                  
         p      15       4        X                  
         d      10       2                 X         
         f       6       1                 X         
--
 
 
++    Molecular structure info:
      -------------------------
 
                    ************************************************ 
                    **** Cartesian Coordinates / Bohr, Angstrom **** 
                    ************************************************ 
 
     Center  Label                x              y              z                     x              y              z
        1      O1               0.000000       0.000000       5.835248              0.000000       0.000000       3.087880
        2      FE2              0.000000       0.000000      -2.811686              0.000000       0.000000      -1.487880
--
 
 
            Nuclear Potential Energy             24.05477119 au
 
 ###############################################################################
 ###############################################################################
 ###                                                                         ###
 ###                                                                         ###
 ###    There were warnings during the execution                             ###
 ###    Please, check the output with care!                                  ###
 ###                                                                         ###
 ###                                                                         ###
 ###############################################################################
 ###############################################################################
--- Stop Module: gateway at Wed Dec 18 02:58:21 2024 /rc=_RC_ALL_IS_WELL_ ---
*** files: xmldump
    saved to directory /home/grierjones/DDCASPT2/iron_oxo_DDCASPT2/cluster/4.58

--- Start Module: seward at Wed Dec 18 02:58:21 2024 ---
 
()()()()()()()()()()()()()()()()()()()()()()()()()()()()()()()()()()()()()()()()()()()()()()()()()()

                                              &SEWARD

                                   only a single process is used
                       available to each process: 2.0 GB of memory, 1 thread?
()()()()()()()()()()()()()()()()()()()()()()()()()()()()()()()()()()()()()()()()()()()()()()()()()()
 
 ###############################################################################
 ###############################################################################
 ###                                                                         ###
 ###                                                                         ###
 ###                                                                         ###
 ###    WARNING: EXPERT option is ON!                                        ###
 ###                                                                         ###
 ###                                                                         ###
 ###############################################################################
 ###############################################################################
               SEWARD will generate:
                  Multipole Moment integrals up to order  2
                  Kinetic Energy integrals
                  Nuclear Attraction integrals (point charge)
                  One-Electron Hamiltonian integrals
                  Velocity integrals
                  Relativistic Douglas-Kroll-Hess integrals:
                    - Parametrization         : EXP
                    - DKH order of Hamiltonian: 2
                    - DKH order of Properties : 0
                         - multipole moment operators
                         - electric potential operators
                         - contact operators
                  Atomic mean-field integrals
                  Two-Electron Repulsion integrals
 
                   Integrals are discarded if absolute value <: 0.10E-13
                   Integral cutoff threshold is set to       <: 0.10E-15
 
            Nuclear Potential Energy             24.05477119 au
 
 
      Basis set specifications :
      Symmetry species         a  
      Basis functions           48
 
 
  Input file to MOLDEN was generated!
 
 ###############################################################################
 ###############################################################################
 ###                                                                         ###
 ###                                                                         ###
 ###    There were warnings during the execution                             ###
 ###    Please, check the output with care!                                  ###
 ###                                                                         ###
 ###                                                                         ###
 ###############################################################################
 ###############################################################################
--- Stop Module: seward at Wed Dec 18 02:58:21 2024 /rc=_RC_ALL_IS_WELL_ ---
*** files: 4.58.GssOrb 4.58.guessorb.h5 4.58.guessorb.molden xmldump
    saved to directory /home/grierjones/DDCASPT2/iron_oxo_DDCASPT2/cluster/4.58

*** symbolic link created: INPORB -> 4.58.GssOrb
--- Start Module: scf at Wed Dec 18 02:58:21 2024 ---
 
()()()()()()()()()()()()()()()()()()()()()()()()()()()()()()()()()()()()()()()()()()()()()()()()()()

                                                &SCF

                                   only a single process is used
                       available to each process: 2.0 GB of memory, 1 thread?
()()()()()()()()()()()()()()()()()()()()()()()()()()()()()()()()()()()()()()()()()()()()()()()()()()
 
 *** Possible bug in opening file
 *** isFreeUnit resets the unit number
++    Input section:
      --------------
 
      Header of the integral files:
      
       Integrals generated by seward 4.2.0  , Wed Dec 18 02:58:21 2024
 
 
      Cartesian coordinates in Angstrom:
      -----------------------------------------------------
      No.  Label        X            Y            Z        
      -----------------------------------------------------
       1   O1         0.00000000   0.00000000   3.08788000
       2   FE2        0.00000000   0.00000000  -1.48788000
      -----------------------------------------------------
      Nuclear repulsion energy =   24.05477119
--
 
++    Orbital specifications:
      -----------------------
 
      Symmetry species               1
                                     a
      Frozen orbitals                0
      Start temperature = 0.500
      End temperature   = 0.010
      Temperature Factor= 0.460
      Deleted orbitals               0
      Total number of orbitals      48
      Number of basis functions     48
--
 
      Molecular charge                           2.000
 
++    Optimization specifications:
      ----------------------------
 
      SCF Algorithm: Conventional USCF
      D(i)-D(i-1) density differences are used
      Number of density matrices in core                5
      Maximum number of NDDO SCF iterations           400
      Maximum number of HF SCF iterations             400
      Threshold for SCF energy change            0.10E-08
      Threshold for density matrix               0.10E-03
      Threshold for Fock matrix                  0.15E-03
      Threshold for linear dependence            0.10E-08
      Threshold at which DIIS is turned on       0.15E+00
      Threshold at which QNR/C2DIIS is turned on 0.75E-01
      Threshold for Norm(delta) (QNR/C2DIIS)     0.20E-04
      DIIS extrapolation of the SCF procedure
      All orbitals punched on: UHFORB
--
 
      Input vectors read from INPORB
      Orbital file label: *Guess orbitals
 
 
++ Convergence information
                               UHF SCF        iterations: Energy and convergence statistics
 
Iter     Tot. SCF        One-elec.       Two-elec.     Energy      Max Dij or  Max Fij      DNorm      TNorm      AccCon     Time
         Energy          Energy          Energy        Change      Delta Norm                                                in Sec.
 
 The total and one-electron energies are shifted by a value of      1000. a.u.
 
   1  -343.287238450  -881.379651700   514.037642060   0.00E+00    0.15E+00*   0.36E+00*    0.75E+01   0.18E+03   None         0.
   2  -343.468475479  -877.197391866   509.674145197  -0.18E+00*   0.11E+00*   0.16E+00*    0.10E+01   0.18E+03   EDIIS        0.
   3  -341.613019229  -925.274824876   559.607034458   0.19E+01*   0.65E-01*   0.19E+00*    0.18E+01   0.19E+03   EDIIS        0.
   4  -342.964439319  -865.933081900   498.913871391  -0.14E+01*   0.81E-01*   0.88E-01*    0.15E+01   0.17E+03   EDIIS        0.
   5  -344.069064058  -899.010807634   530.886972386  -0.11E+01*   0.41E-01*   0.45E-01*    0.85E+00   0.18E+03   EDIIS        0.
   6  -344.226069080  -871.654567383   503.373727114  -0.16E+00*   0.37E+00*   0.21E+00*    0.18E+01   0.18E+03   EDIIS        0.
   7  -342.631605829  -914.485700020   547.799323001   0.16E+01*   0.39E+00*   0.28E-01*    0.23E+01   0.19E+03   EDIIS        0.
   8  -345.183022023  -881.785710918   512.547917706  -0.26E+01*   0.58E+00*   0.16E+00*    0.20E+01   0.18E+03   EDIIS        0.
   9  -345.270849592  -881.968546283   512.642925501  -0.88E-01*   0.15E+00*   0.14E+00*    0.97E+00   0.18E+03   EDIIS        0.
  10  -345.292178737  -882.205988383   512.859038456  -0.21E-01*   0.23E+00*   0.38E-01*    0.37E+00   0.18E+03   EDIIS        0.
  11  -345.298576748  -881.582589700   512.229241762  -0.64E-02*   0.10E+00*   0.22E-01*    0.33E+00   0.18E+03   EDIIS        0.
 
       Fermi aufbau procedure completed!
      nOcc(alpha)=   18
      nOcc(beta) =   14
 
  12  -345.300881287  -881.788510611   512.432858134  -0.23E-02*   0.54E-01*   0.82E-02*    0.16E+00   0.18E+03   EDIIS        0.
  13  -345.301541675  -881.677093038   512.320780173  -0.66E-03*   0.27E-01*   0.64E-02*    0.90E-01   0.18E+03   EDIIS        0.
  14  -345.301746528  -881.718380717   512.361862999  -0.20E-03*   0.13E-01*   0.35E-02*    0.45E-01   0.18E+03   EDIIS        0.
  15  -345.301812151  -881.700155939   512.343572598  -0.66E-04*   0.60E-02*   0.22E-02*    0.24E-01   0.18E+03   EDIIS        0.
  16  -345.301834351  -881.706750680   512.350145139  -0.22E-04*   0.99E-03*   0.28E-02*    0.13E-01   0.18E+03   c2DIIS       0.
  17  -345.301846193  -881.700591025   512.343973642  -0.12E-04*   0.99E-03*   0.26E-03*    0.24E-02   0.18E+03   QNRc2DIIS    0.
  18  -345.301846464  -881.705879144   512.349261490  -0.27E-06*   0.14E-02*   0.15E-03     0.13E-02   0.18E+03   QNRc2DIIS    0.
  19  -345.301846609  -881.704749058   512.348131259  -0.14E-06*   0.13E-03*   0.15E-04     0.18E-02   0.18E+03   QNRc2DIIS    0.
  20  -345.301846611  -881.704382409   512.347764609  -0.19E-08*   0.66E-04*   0.52E-05     0.18E-03   0.18E+03   QNRc2DIIS    0.
  21  -345.301846611  -881.704375473   512.347757672  -0.19E-09    0.28E-05    0.73E-06     0.93E-04   0.18E+03   QNRc2DIIS    0.
 
       Convergence after 21 Macro Iterations
--
 
 *****************************************************************************************************************************
 *                                                                                                                           *
 *                                             SCF/KS-DFT Program, Final results                                             *
 *                                                                                                                           *
 *                                                                                                                           *
 *                                                                                                                           *
 *                                                       Final Results                                                       *
 *                                                                                                                           *
 *****************************************************************************************************************************
 
::    Total SCF energy                              -1345.3018466111
      One-electron energy                           -1881.7043754730
      Two-electron energy                             512.3477576722
      Nuclear repulsion energy                         24.0547711898
      Kinetic energy (interpolated)                  1399.7932086247
      Virial theorem                                    0.9610718486
      Total spin, S(S+1)                                8.0106665503
      Total spin, S                                     2.3741375316
      Max non-diagonal density matrix element           0.0000012535
      Max non-diagonal Fock matrix element              0.0000001502
 
 
      All orbitals with orbital energies smaller than  E(LUMO)+0.5 are printed
 
++    Molecular orbitals:
      -------------------
 
      Title: UHF orbitals (alpha)

      Molecular orbitals for symmetry species 1: a  
 
          Orbital            1         2         3         4         5         6         7         8         9        10    
          Energy         -264.6154  -33.4930  -28.5568  -28.5568  -28.5568  -20.8694   -5.4412   -3.9811   -3.9811   -3.9811
          Occ. No.          1.0000    1.0000    1.0000    1.0000    1.0000    1.0000    1.0000    1.0000    1.0000    1.0000
 
        1 O1     1s        -0.0000   -0.0000   -0.0000   -0.0000   -0.0000    1.0000   -0.0000    0.0000   -0.0000   -0.0000
        2 O1     2s        -0.0000   -0.0000   -0.0001   -0.0000   -0.0000   -0.0022   -0.0004    0.0000   -0.0000   -0.0002
        3 O1     3s        -0.0000   -0.0000   -0.0001   -0.0000   -0.0000    0.0004   -0.0005    0.0000   -0.0000   -0.0002
        4 O1     2px       -0.0000   -0.0000    0.0000   -0.0000    0.0000   -0.0000   -0.0000   -0.0000   -0.0000   -0.0000
        5 O1     3px       -0.0000    0.0000    0.0000   -0.0000    0.0000    0.0000   -0.0000   -0.0000   -0.0001    0.0000
        6 O1     2py       -0.0000   -0.0000    0.0000   -0.0000   -0.0000    0.0000    0.0000   -0.0000    0.0000   -0.0000
        7 O1     3py       -0.0000    0.0000    0.0000   -0.0000   -0.0000   -0.0000   -0.0000   -0.0001    0.0000   -0.0000
        8 O1     2pz        0.0000    0.0000    0.0000    0.0000    0.0000   -0.0001    0.0002    0.0000    0.0000    0.0001
        9 O1     3pz        0.0000    0.0000    0.0001    0.0000    0.0000    0.0000    0.0004   -0.0000    0.0000    0.0000
       10 O1     3d2-       0.0000   -0.0000    0.0000   -0.0000   -0.0000    0.0000   -0.0000   -0.0000   -0.0000   -0.0000
       11 O1     3d1-      -0.0000    0.0000    0.0000    0.0000    0.0000   -0.0000   -0.0000    0.0000   -0.0000   -0.0000
       12 O1     3d0        0.0000   -0.0000   -0.0000   -0.0000   -0.0000    0.0009    0.0000    0.0000   -0.0000    0.0000
       13 O1     3d1+      -0.0000   -0.0000   -0.0000    0.0000   -0.0000    0.0000    0.0000    0.0000    0.0000   -0.0000
       14 O1     3d2+       0.0000   -0.0000    0.0000    0.0000   -0.0000   -0.0000   -0.0000   -0.0000   -0.0000    0.0000
       15 FE2    1s         1.0000   -0.0000   -0.0000   -0.0000   -0.0000   -0.0000    0.0000   -0.0000   -0.0000    0.0000
       16 FE2    2s         0.0000    1.0000   -0.0000   -0.0000   -0.0000   -0.0000   -0.0035    0.0000   -0.0000   -0.0000
       17 FE2    3s        -0.0000    0.0035    0.0000    0.0000    0.0000   -0.0000    0.9999   -0.0000   -0.0000   -0.0001
       18 FE2    4s         0.0000   -0.0003    0.0000    0.0000    0.0000   -0.0000   -0.0076    0.0000    0.0000    0.0000
       19 FE2    5s        -0.0000    0.0004    0.0000    0.0000    0.0000   -0.0001    0.0083   -0.0000    0.0000    0.0000
       20 FE2    2px       -0.0000   -0.0000   -0.0000    1.0000   -0.0016    0.0000    0.0000   -0.0008   -0.0034    0.0000
       21 FE2    3px        0.0000    0.0000   -0.0000    0.0035   -0.0000    0.0000    0.0000    0.2193    0.9753   -0.0000
       22 FE2    4px       -0.0000    0.0000    0.0000   -0.0006    0.0000   -0.0000   -0.0000   -0.0042   -0.0187    0.0000
       23 FE2    5px        0.0000    0.0000   -0.0000    0.0015   -0.0000    0.0000    0.0000    0.0040    0.0177   -0.0000
       24 FE2    2py        0.0000    0.0000   -0.0000    0.0016    1.0000    0.0000    0.0000   -0.0034    0.0008   -0.0000
       25 FE2    3py        0.0000   -0.0000   -0.0000    0.0000    0.0035    0.0000    0.0000    0.9753   -0.2193    0.0000
       26 FE2    4py        0.0000   -0.0000    0.0000   -0.0000   -0.0006   -0.0000   -0.0000   -0.0187    0.0042   -0.0000
       27 FE2    5py        0.0000    0.0000   -0.0000    0.0000    0.0015    0.0000    0.0000    0.0177   -0.0040    0.0000
       28 FE2    2pz        0.0000    0.0000    1.0000    0.0000    0.0000    0.0000   -0.0000    0.0000   -0.0000   -0.0035
       29 FE2    3pz       -0.0000    0.0000    0.0035    0.0000    0.0000   -0.0000    0.0001   -0.0000    0.0000    0.9996
       30 FE2    4pz        0.0000    0.0000   -0.0006   -0.0000   -0.0000   -0.0001    0.0001    0.0000   -0.0000   -0.0192
       31 FE2    5pz       -0.0000    0.0000    0.0015    0.0000    0.0000   -0.0001    0.0001   -0.0000    0.0000    0.0182
       32 FE2    3d2-       0.0000    0.0000   -0.0000    0.0000    0.0000    0.0000    0.0000   -0.0000   -0.0000    0.0000
       33 FE2    4d2-      -0.0000    0.0000    0.0000    0.0000    0.0000   -0.0000   -0.0000   -0.0000    0.0000   -0.0000
       34 FE2    3d1-       0.0000   -0.0000   -0.0000    0.0000    0.0000   -0.0000   -0.0000    0.0000   -0.0000    0.0000
       35 FE2    4d1-       0.0000    0.0000   -0.0000    0.0000    0.0000   -0.0000   -0.0000   -0.0000    0.0000   -0.0000
       36 FE2    3d0        0.0000    0.0000    0.0000    0.0000    0.0000   -0.0000   -0.0000   -0.0000    0.0000    0.0001
       37 FE2    4d0        0.0000    0.0000    0.0000    0.0000    0.0000   -0.0000    0.0001    0.0000   -0.0000   -0.0000
       38 FE2    3d1+      -0.0000    0.0000   -0.0000    0.0000   -0.0000    0.0000    0.0000    0.0000    0.0000   -0.0000
       39 FE2    4d1+       0.0000    0.0000   -0.0000    0.0000   -0.0000   -0.0000    0.0000   -0.0000   -0.0000    0.0000
       40 FE2    3d2+       0.0000    0.0000    0.0000    0.0000   -0.0000    0.0000   -0.0000   -0.0000   -0.0000   -0.0000
       41 FE2    4d2+      -0.0000   -0.0000   -0.0000    0.0000    0.0000   -0.0000    0.0000    0.0000   -0.0000    0.0000
       42 FE2    4f3-      -0.0000    0.0000   -0.0000   -0.0000    0.0000   -0.0000   -0.0000   -0.0000    0.0000    0.0000
       43 FE2    4f2-      -0.0000   -0.0000    0.0000   -0.0000   -0.0000   -0.0000   -0.0000   -0.0000   -0.0000   -0.0000
       44 FE2    4f1-       0.0000   -0.0000   -0.0000    0.0000    0.0000    0.0000   -0.0000   -0.0000    0.0000   -0.0000
       45 FE2    4f0       -0.0000    0.0000    0.0000    0.0000    0.0000   -0.0000    0.0000    0.0000   -0.0000   -0.0000
       46 FE2    4f1+      -0.0000    0.0000   -0.0000    0.0000   -0.0000    0.0000    0.0000   -0.0000   -0.0000    0.0000
       47 FE2    4f2+      -0.0000    0.0000   -0.0000   -0.0000   -0.0000   -0.0000   -0.0000    0.0000   -0.0000    0.0000
       48 FE2    4f3+       0.0000    0.0000   -0.0000    0.0000    0.0000    0.0000    0.0000    0.0000   -0.0000    0.0000
 
          Orbital           11        12        13        14        15        16        17        18        19        20    
          Energy           -1.6618   -1.6618   -1.6618   -1.6618   -1.6618   -1.3130   -0.9493   -0.7523   -0.4812   -0.4812
          Occ. No.          1.0000    1.0000    1.0000    1.0000    1.0000    1.0000    1.0000    1.0000    0.0000    0.0000
 
        1 O1     1s        -0.0000   -0.0000    0.0001   -0.0000   -0.0000    0.0021    0.0008    0.0003   -0.0000    0.0000
        2 O1     2s        -0.0000   -0.0000    0.0012   -0.0000   -0.0000    0.9991    0.0037    0.0229   -0.0000    0.0000
        3 O1     3s        -0.0000   -0.0000    0.0010   -0.0000   -0.0000    0.0223    0.0072   -0.0129   -0.0000    0.0000
        4 O1     2px        0.0000   -0.0000    0.0000    0.0002    0.0003   -0.0000   -0.0000    0.0000   -0.0010    0.0001
        5 O1     3px        0.0000   -0.0000    0.0000    0.0004    0.0005    0.0000    0.0000    0.0000   -0.0046    0.0003
        6 O1     2py       -0.0000    0.0000    0.0000    0.0003   -0.0002    0.0000    0.0000   -0.0000   -0.0001   -0.0010
        7 O1     3py       -0.0000    0.0000    0.0000    0.0005   -0.0004    0.0000    0.0000   -0.0000   -0.0003   -0.0046
        8 O1     2pz        0.0000    0.0000   -0.0010    0.0000    0.0000   -0.0204   -0.0160    0.9957    0.0000   -0.0000
        9 O1     3pz        0.0000    0.0000   -0.0008    0.0000    0.0000   -0.0078   -0.0046    0.0513    0.0000   -0.0000
       10 O1     3d2-      -0.0000    0.0000    0.0000    0.0000   -0.0000   -0.0000    0.0000    0.0000   -0.0000   -0.0000
       11 O1     3d1-       0.0000    0.0000    0.0000   -0.0001    0.0001   -0.0000    0.0000    0.0000   -0.0000   -0.0000
       12 O1     3d0       -0.0000   -0.0000    0.0001   -0.0000   -0.0000    0.0298    0.0001   -0.0066   -0.0000    0.0000
       13 O1     3d1+      -0.0000    0.0000   -0.0000   -0.0001   -0.0001    0.0000    0.0000   -0.0000   -0.0000    0.0000
       14 O1     3d2+       0.0000    0.0000    0.0000   -0.0000   -0.0000   -0.0000    0.0000   -0.0000    0.0000   -0.0000
       15 FE2    1s         0.0000    0.0000   -0.0000    0.0000    0.0000   -0.0000   -0.0000    0.0000    0.0000   -0.0000
       16 FE2    2s         0.0000    0.0000   -0.0000    0.0000    0.0000   -0.0000    0.0004    0.0003   -0.0000   -0.0000
       17 FE2    3s        -0.0000   -0.0000    0.0000   -0.0000   -0.0000   -0.0001    0.0101    0.0017    0.0000   -0.0000
       18 FE2    4s         0.0000    0.0000   -0.0003    0.0000    0.0000    0.0009    0.9275    0.0242    0.0000   -0.0000
       19 FE2    5s         0.0000    0.0000   -0.0003    0.0000    0.0000   -0.0010   -0.3720   -0.0139   -0.0000   -0.0000
       20 FE2    2px       -0.0000   -0.0000   -0.0000   -0.0000   -0.0000   -0.0000   -0.0000   -0.0000    0.0005   -0.0000
       21 FE2    3px       -0.0000    0.0000    0.0000   -0.0000   -0.0000    0.0000    0.0000   -0.0000    0.0185   -0.0013
       22 FE2    4px       -0.0000    0.0000   -0.0000   -0.0001   -0.0002   -0.0000    0.0000    0.0000    0.9971   -0.0699
       23 FE2    5px       -0.0000   -0.0000   -0.0000   -0.0000   -0.0000   -0.0000   -0.0000    0.0000    0.0324   -0.0023
       24 FE2    2py        0.0000    0.0000   -0.0000   -0.0000    0.0000    0.0000    0.0000    0.0000    0.0000    0.0005
       25 FE2    3py        0.0000   -0.0000    0.0000   -0.0000    0.0000   -0.0000   -0.0000   -0.0000    0.0013    0.0185
       26 FE2    4py        0.0000    0.0000    0.0000   -0.0002    0.0001    0.0000   -0.0000    0.0000    0.0699    0.9971
       27 FE2    5py        0.0000    0.0000   -0.0000   -0.0000    0.0000    0.0000    0.0000    0.0000    0.0023    0.0324
       28 FE2    2pz        0.0000    0.0000   -0.0000    0.0000    0.0000   -0.0000   -0.0000    0.0000    0.0000   -0.0000
       29 FE2    3pz        0.0000    0.0000   -0.0001    0.0000    0.0000   -0.0001   -0.0002    0.0004    0.0000   -0.0000
       30 FE2    4pz        0.0000    0.0000   -0.0006    0.0000    0.0000    0.0007   -0.0078   -0.0317    0.0000   -0.0000
       31 FE2    5pz        0.0000    0.0000   -0.0001    0.0000    0.0000   -0.0001   -0.0005   -0.0016    0.0000   -0.0000
       32 FE2    3d2-      -0.0121    0.9906    0.0000    0.0000    0.0000   -0.0000    0.0000   -0.0000   -0.0000   -0.0000
       33 FE2    4d2-       0.0017   -0.1363   -0.0000   -0.0000   -0.0000   -0.0000   -0.0000   -0.0000   -0.0000    0.0000
       34 FE2    3d1-      -0.0000    0.0000   -0.0000    0.7777   -0.6137   -0.0000    0.0000   -0.0000    0.0000    0.0001
       35 FE2    4d1-       0.0000   -0.0000    0.0000   -0.1071    0.0845    0.0000   -0.0000   -0.0000   -0.0001   -0.0008
       36 FE2    3d0       -0.0000   -0.0000    0.9906   -0.0000   -0.0000   -0.0004   -0.0001    0.0008   -0.0000   -0.0000
       37 FE2    4d0        0.0000    0.0000   -0.1366    0.0000    0.0000    0.0005   -0.0011   -0.0049   -0.0000    0.0000
       38 FE2    3d1+       0.0000   -0.0000    0.0000    0.6137    0.7777   -0.0000   -0.0000   -0.0000    0.0001   -0.0000
       39 FE2    4d1+      -0.0000    0.0000   -0.0000   -0.0845   -0.1071   -0.0000    0.0000    0.0000   -0.0008    0.0001
       40 FE2    3d2+       0.9906    0.0121    0.0000    0.0000   -0.0000    0.0000   -0.0000   -0.0000    0.0000    0.0000
       41 FE2    4d2+      -0.1363   -0.0017   -0.0000   -0.0000    0.0000    0.0000   -0.0000   -0.0000    0.0000    0.0000
       42 FE2    4f3-      -0.0000   -0.0000    0.0000   -0.0000    0.0000   -0.0000   -0.0000    0.0000    0.0000   -0.0000
       43 FE2    4f2-      -0.0000    0.0000    0.0000   -0.0000   -0.0000   -0.0000   -0.0000    0.0000   -0.0000    0.0000
       44 FE2    4f1-      -0.0000    0.0000   -0.0000    0.0000   -0.0000    0.0000   -0.0000   -0.0000   -0.0000   -0.0000
       45 FE2    4f0       -0.0000   -0.0000    0.0000   -0.0000   -0.0000    0.0000   -0.0000   -0.0002   -0.0000    0.0000
       46 FE2    4f1+       0.0000   -0.0000    0.0000    0.0000    0.0000    0.0000    0.0000   -0.0000   -0.0000    0.0000
       47 FE2    4f2+       0.0000    0.0000    0.0000    0.0000   -0.0000   -0.0000    0.0000   -0.0000    0.0000    0.0000
       48 FE2    4f3+      -0.0000   -0.0000    0.0000    0.0000   -0.0000    0.0000    0.0000   -0.0000   -0.0000    0.0000
 
          Orbital           21        22        23        24    
          Energy           -0.4800   -0.2463   -0.1425   -0.1425
          Occ. No.          0.0000    0.0000    0.0000    0.0000
 
        1 O1     1s        -0.0023   -0.0062   -0.0000   -0.0000
        2 O1     2s        -0.0337   -0.0745    0.0000   -0.0000
        3 O1     3s        -0.0121   -0.0185   -0.0000   -0.0000
        4 O1     2px        0.0000   -0.0000    0.7125   -0.6212
        5 O1     3px        0.0000    0.0000    0.2445   -0.2132
        6 O1     2py       -0.0000   -0.0000    0.6212    0.7125
        7 O1     3py       -0.0000   -0.0000    0.2132    0.2445
        8 O1     2pz        0.0812    0.0733    0.0000    0.0000
        9 O1     3pz        0.0186    0.0188    0.0000    0.0000
       10 O1     3d2-       0.0000   -0.0000   -0.0000   -0.0000
       11 O1     3d1-       0.0000    0.0000   -0.0042   -0.0048
       12 O1     3d0       -0.0003   -0.0003   -0.0000   -0.0000
       13 O1     3d1+      -0.0000    0.0000   -0.0048    0.0042
       14 O1     3d2+       0.0000    0.0000    0.0000    0.0000
       15 FE2    1s         0.0000    0.0000    0.0000    0.0000
       16 FE2    2s         0.0001   -0.0001    0.0000    0.0000
       17 FE2    3s         0.0003   -0.0045    0.0000    0.0000
       18 FE2    4s         0.0092    0.3760    0.0000    0.0000
       19 FE2    5s        -0.0016    0.9371    0.0000    0.0000
       20 FE2    2px       -0.0000    0.0000   -0.0000    0.0000
       21 FE2    3px       -0.0000   -0.0000   -0.0007    0.0006
       22 FE2    4px       -0.0000    0.0000   -0.0162    0.0141
       23 FE2    5px       -0.0000    0.0000    0.0020   -0.0017
       24 FE2    2py        0.0000    0.0000   -0.0000   -0.0000
       25 FE2    3py        0.0000    0.0000   -0.0006   -0.0007
       26 FE2    4py        0.0000    0.0000   -0.0141   -0.0162
       27 FE2    5py        0.0000   -0.0000    0.0017    0.0020
       28 FE2    2pz        0.0005    0.0000    0.0000    0.0000
       29 FE2    3pz        0.0189    0.0004    0.0000    0.0000
       30 FE2    4pz        1.0035    0.0111    0.0000    0.0000
       31 FE2    5pz        0.0327   -0.0008   -0.0000   -0.0000
       32 FE2    3d2-       0.0000   -0.0000    0.0000    0.0000
       33 FE2    4d2-       0.0000   -0.0000    0.0000    0.0000
       34 FE2    3d1-      -0.0000   -0.0000    0.0014    0.0016
       35 FE2    4d1-      -0.0000   -0.0000    0.0139    0.0159
       36 FE2    3d0        0.0003   -0.0003   -0.0000   -0.0000
       37 FE2    4d0       -0.0017   -0.0038   -0.0000   -0.0000
       38 FE2    3d1+      -0.0000   -0.0000    0.0016   -0.0014
       39 FE2    4d1+       0.0000    0.0000    0.0159   -0.0139
       40 FE2    3d2+       0.0000    0.0000    0.0000   -0.0000
       41 FE2    4d2+       0.0000    0.0000   -0.0000   -0.0000
       42 FE2    4f3-      -0.0000   -0.0000    0.0000   -0.0000
       43 FE2    4f2-      -0.0000    0.0000   -0.0000   -0.0000
       44 FE2    4f1-      -0.0000   -0.0000    0.0002    0.0002
       45 FE2    4f0       -0.0001   -0.0000   -0.0000   -0.0000
       46 FE2    4f1+       0.0000   -0.0000    0.0002   -0.0002
       47 FE2    4f2+       0.0000    0.0000    0.0000   -0.0000
       48 FE2    4f3+       0.0000    0.0000   -0.0000   -0.0000
--
 
 
  Input file to MOLDEN was generated!
 
 
++    Static properties:
      ------------------
 
 
      LoProp Charges per center
 

                   O1       FE2   
      Nuclear      8.0000  26.0000
      Electronic  -7.9985 -24.0015
 
      Total        0.0015   1.9985
--
 
 
      All orbitals with orbital energies smaller than  E(LUMO)+0.5 are printed
 
++    Molecular orbitals:
      -------------------
 
      Title: UHF orbitals (beta)

      Molecular orbitals for symmetry species 1: a  
 
          Orbital            1         2         3         4         5         6         7         8         9        10    
          Energy         -264.6075  -33.3163  -28.3844  -28.3844  -28.3844  -20.9547   -4.9671   -3.4186   -3.4186   -3.4186
          Occ. No.          1.0000    1.0000    1.0000    1.0000    1.0000    1.0000    1.0000    1.0000    1.0000    1.0000
 
        1 O1     1s        -0.0000    0.0000   -0.0000   -0.0000    0.0000    1.0000   -0.0000   -0.0000   -0.0000    0.0000
        2 O1     2s        -0.0000    0.0000   -0.0000   -0.0000    0.0000    0.0019   -0.0002    0.0000   -0.0000    0.0001
        3 O1     3s        -0.0000    0.0000   -0.0000   -0.0000    0.0001   -0.0017   -0.0002    0.0000   -0.0000    0.0002
        4 O1     2px       -0.0000   -0.0000    0.0000   -0.0000    0.0000   -0.0000   -0.0000    0.0000   -0.0000   -0.0000
        5 O1     3px       -0.0000    0.0000    0.0000   -0.0000    0.0000    0.0000   -0.0000    0.0001   -0.0001   -0.0000
        6 O1     2py       -0.0000   -0.0000    0.0000    0.0000    0.0000    0.0000    0.0000    0.0000    0.0000    0.0000
        7 O1     3py       -0.0000    0.0000    0.0000    0.0000    0.0000   -0.0000   -0.0000    0.0001    0.0001   -0.0000
        8 O1     2pz        0.0000   -0.0000    0.0000    0.0000   -0.0000   -0.0001    0.0001   -0.0000    0.0000   -0.0002
        9 O1     3pz        0.0000   -0.0000    0.0000    0.0000   -0.0001    0.0001    0.0001   -0.0000    0.0000   -0.0004
       10 O1     3d2-       0.0000   -0.0000   -0.0000   -0.0000    0.0000    0.0000   -0.0000   -0.0000    0.0000   -0.0000
       11 O1     3d1-      -0.0000    0.0000   -0.0000   -0.0000   -0.0000    0.0000   -0.0000   -0.0000   -0.0000   -0.0000
       12 O1     3d0        0.0000    0.0000   -0.0000   -0.0000    0.0000   -0.0004    0.0000    0.0000   -0.0000    0.0000
       13 O1     3d1+      -0.0000   -0.0000   -0.0000    0.0000   -0.0000   -0.0000    0.0000   -0.0000    0.0000    0.0000
       14 O1     3d2+       0.0000   -0.0000    0.0000   -0.0000    0.0000    0.0000   -0.0000   -0.0000    0.0000    0.0000
       15 FE2    1s         1.0000   -0.0000    0.0000    0.0000   -0.0000    0.0000    0.0000   -0.0000    0.0000   -0.0000
       16 FE2    2s         0.0000    1.0000    0.0000    0.0000   -0.0000    0.0000    0.0011   -0.0000    0.0000   -0.0000
       17 FE2    3s        -0.0000   -0.0011   -0.0000   -0.0000    0.0000    0.0000    1.0000   -0.0000    0.0000   -0.0002
       18 FE2    4s         0.0000    0.0002    0.0000    0.0000   -0.0000    0.0000   -0.0027   -0.0000    0.0000   -0.0001
       19 FE2    5s        -0.0000   -0.0002    0.0000    0.0000   -0.0000    0.0001    0.0033   -0.0000    0.0000   -0.0001
       20 FE2    2px       -0.0000   -0.0000    0.9987   -0.0510    0.0000    0.0000    0.0000    0.0022   -0.0023   -0.0000
       21 FE2    3px        0.0000    0.0000   -0.0032    0.0002   -0.0000    0.0000    0.0000    0.6890   -0.7246   -0.0000
       22 FE2    4px       -0.0000    0.0000    0.0004   -0.0000    0.0000   -0.0000   -0.0000   -0.0079    0.0083    0.0000
       23 FE2    5px        0.0000    0.0000   -0.0011    0.0001   -0.0000    0.0000    0.0000    0.0038   -0.0040   -0.0000
       24 FE2    2py        0.0000    0.0000    0.0510    0.9987    0.0000    0.0000    0.0000    0.0023    0.0022    0.0000
       25 FE2    3py        0.0000   -0.0000   -0.0002   -0.0032   -0.0000    0.0000    0.0000    0.7246    0.6890    0.0000
       26 FE2    4py        0.0000   -0.0000    0.0000    0.0004    0.0000   -0.0000   -0.0000   -0.0083   -0.0079   -0.0000
       27 FE2    5py        0.0000    0.0000   -0.0001   -0.0011   -0.0000    0.0000    0.0000    0.0040    0.0038    0.0000
       28 FE2    2pz        0.0000    0.0000   -0.0000   -0.0000    1.0000    0.0000   -0.0000    0.0000   -0.0000    0.0032
       29 FE2    3pz       -0.0000    0.0000    0.0000    0.0000   -0.0032    0.0000    0.0002    0.0000   -0.0000    0.9999
       30 FE2    4pz        0.0000   -0.0000   -0.0000   -0.0000    0.0004    0.0001    0.0000   -0.0000    0.0000   -0.0115
       31 FE2    5pz       -0.0000   -0.0000    0.0000    0.0000   -0.0011    0.0001    0.0000    0.0000   -0.0000    0.0055
       32 FE2    3d2-       0.0000    0.0000    0.0000   -0.0000   -0.0000   -0.0000    0.0000    0.0000    0.0000    0.0000
       33 FE2    4d2-      -0.0000    0.0000    0.0000    0.0000    0.0000   -0.0000   -0.0000   -0.0000   -0.0000   -0.0000
       34 FE2    3d1-       0.0000   -0.0000    0.0000    0.0000    0.0000   -0.0000   -0.0000    0.0001    0.0001    0.0000
       35 FE2    4d1-       0.0000    0.0000   -0.0000   -0.0000   -0.0000    0.0000   -0.0000   -0.0000   -0.0000   -0.0000
       36 FE2    3d0        0.0000   -0.0000    0.0000    0.0000   -0.0000    0.0000   -0.0000   -0.0000   -0.0000    0.0001
       37 FE2    4d0        0.0000   -0.0000    0.0000    0.0000   -0.0000    0.0000    0.0000   -0.0000    0.0000   -0.0001
       38 FE2    3d1+      -0.0000    0.0000    0.0000   -0.0000    0.0000   -0.0000    0.0000    0.0001   -0.0001   -0.0000
       39 FE2    4d1+       0.0000    0.0000   -0.0000    0.0000   -0.0000   -0.0000    0.0000   -0.0000    0.0000    0.0000
       40 FE2    3d2+       0.0000   -0.0000    0.0000   -0.0000    0.0000    0.0000   -0.0000   -0.0000    0.0000   -0.0000
       41 FE2    4d2+      -0.0000   -0.0000    0.0000    0.0000   -0.0000   -0.0000    0.0000    0.0000    0.0000   -0.0000
       42 FE2    4f3-      -0.0000    0.0000   -0.0000    0.0000   -0.0000   -0.0000   -0.0000   -0.0000    0.0000    0.0000
       43 FE2    4f2-      -0.0000   -0.0000   -0.0000   -0.0000    0.0000   -0.0000   -0.0000   -0.0000    0.0000   -0.0000
       44 FE2    4f1-       0.0000   -0.0000   -0.0000   -0.0000   -0.0000    0.0000   -0.0000   -0.0000   -0.0000   -0.0000
       45 FE2    4f0        0.0000   -0.0000    0.0000    0.0000   -0.0000    0.0000   -0.0000    0.0000    0.0000   -0.0000
       46 FE2    4f1+      -0.0000    0.0000   -0.0000    0.0000   -0.0000    0.0000   -0.0000   -0.0000    0.0000    0.0000
       47 FE2    4f2+      -0.0000    0.0000   -0.0000   -0.0000   -0.0000   -0.0000   -0.0000    0.0000    0.0000    0.0000
       48 FE2    4f3+       0.0000    0.0000    0.0000    0.0000   -0.0000    0.0000    0.0000    0.0000    0.0000    0.0000
 
          Orbital           11        12        13        14        15        16        17        18        19        20    
          Energy           -1.6563   -0.9464   -0.9464   -0.8486   -0.5726   -0.5706   -0.5706   -0.5704   -0.5704   -0.5703
          Occ. No.          1.0000    1.0000    1.0000    1.0000    0.0000    0.0000    0.0000    0.0000    0.0000    0.0000
 
        1 O1     1s        -0.0019    0.0000   -0.0000    0.0001    0.0000    0.0000    0.0000   -0.0000    0.0000   -0.0003
        2 O1     2s         0.9994    0.0000   -0.0000    0.0166   -0.0019    0.0000    0.0000   -0.0000    0.0000   -0.0049
        3 O1     3s        -0.0286   -0.0000   -0.0000   -0.0123    0.0016    0.0000    0.0000   -0.0000    0.0000   -0.0017
        4 O1     2px       -0.0000    0.8777   -0.4767    0.0000    0.0000    0.0000    0.0000   -0.0023   -0.0003    0.0000
        5 O1     3px        0.0000   -0.0430    0.0233   -0.0000    0.0000   -0.0000    0.0000   -0.0014   -0.0002    0.0000
        6 O1     2py        0.0000    0.4767    0.8777   -0.0000   -0.0000    0.0000   -0.0000    0.0003   -0.0023   -0.0000
        7 O1     3py        0.0000   -0.0233   -0.0430    0.0000    0.0000    0.0000    0.0000    0.0002   -0.0014    0.0000
        8 O1     2pz       -0.0170    0.0000    0.0000    0.9991    0.0227   -0.0000   -0.0000    0.0000   -0.0000    0.0175
        9 O1     3pz       -0.0039   -0.0000   -0.0000   -0.0087   -0.0008   -0.0000   -0.0000    0.0000   -0.0000    0.0036
       10 O1     3d2-      -0.0000    0.0000    0.0000    0.0000    0.0000    0.0000   -0.0000   -0.0000    0.0000    0.0000
       11 O1     3d1-       0.0000   -0.0028   -0.0052    0.0000   -0.0000   -0.0000   -0.0000   -0.0000    0.0000    0.0000
       12 O1     3d0       -0.0207   -0.0000   -0.0000   -0.0080    0.0002   -0.0000   -0.0000   -0.0000    0.0000    0.0000
       13 O1     3d1+      -0.0000   -0.0052    0.0028    0.0000    0.0000    0.0000   -0.0000    0.0000    0.0000   -0.0000
       14 O1     3d2+       0.0000    0.0000   -0.0000   -0.0000    0.0000   -0.0000   -0.0000   -0.0000   -0.0000    0.0000
       15 FE2    1s        -0.0000    0.0000    0.0000    0.0000   -0.0000   -0.0000   -0.0000    0.0000   -0.0000    0.0000
       16 FE2    2s        -0.0000    0.0000    0.0000    0.0002   -0.0002    0.0000    0.0000   -0.0000   -0.0000   -0.0000
       17 FE2    3s        -0.0001   -0.0000   -0.0000    0.0008    0.0035   -0.0000   -0.0000    0.0000   -0.0000    0.0005
       18 FE2    4s        -0.0006   -0.0000    0.0000   -0.0093    0.9621   -0.0000   -0.0000    0.0000    0.0000    0.1144
       19 FE2    5s        -0.0014   -0.0000    0.0000    0.0020   -0.2459    0.0000    0.0000   -0.0000   -0.0000   -0.0284
       20 FE2    2px       -0.0000   -0.0000    0.0000   -0.0000   -0.0000   -0.0000   -0.0000   -0.0000   -0.0000   -0.0000
       21 FE2    3px        0.0000   -0.0000    0.0000   -0.0000   -0.0000    0.0000    0.0000   -0.0001   -0.0000    0.0000
       22 FE2    4px       -0.0000   -0.0003    0.0002    0.0000    0.0000   -0.0000    0.0000    0.0003    0.0000    0.0000
       23 FE2    5px       -0.0000   -0.0002    0.0001    0.0000   -0.0000   -0.0000   -0.0000   -0.0000   -0.0000   -0.0000
       24 FE2    2py        0.0000   -0.0000   -0.0000    0.0000    0.0000    0.0000    0.0000    0.0000   -0.0000   -0.0000
       25 FE2    3py       -0.0000   -0.0000   -0.0000   -0.0000   -0.0000    0.0000   -0.0000    0.0000   -0.0001    0.0000
       26 FE2    4py       -0.0000   -0.0002   -0.0003    0.0000   -0.0000   -0.0000    0.0000   -0.0000    0.0003    0.0000
       27 FE2    5py        0.0000   -0.0001   -0.0002    0.0000   -0.0000    0.0000    0.0000    0.0000   -0.0000   -0.0000
       28 FE2    2pz       -0.0000   -0.0000    0.0000    0.0000    0.0000   -0.0000   -0.0000    0.0000    0.0000    0.0000
       29 FE2    3pz       -0.0001    0.0000    0.0000    0.0005   -0.0000    0.0000    0.0000    0.0000    0.0000   -0.0001
       30 FE2    4pz       -0.0008   -0.0000    0.0000   -0.0067   -0.0020    0.0000   -0.0000   -0.0000   -0.0000   -0.0004
       31 FE2    5pz       -0.0004   -0.0000    0.0000   -0.0007   -0.0004    0.0000    0.0000   -0.0000   -0.0000   -0.0001
       32 FE2    3d2-       0.0000   -0.0000   -0.0000    0.0000   -0.0000   -0.4554    0.8812    0.0000   -0.0000   -0.0000
       33 FE2    4d2-      -0.0000    0.0000    0.0000   -0.0000   -0.0000   -0.0582    0.1125    0.0000   -0.0000   -0.0000
       34 FE2    3d1-       0.0000    0.0001    0.0002    0.0000   -0.0000   -0.0000    0.0000   -0.1359    0.9826    0.0000
       35 FE2    4d1-      -0.0000   -0.0000   -0.0000   -0.0000   -0.0000   -0.0000    0.0000   -0.0173    0.1254    0.0000
       36 FE2    3d0       -0.0000   -0.0000    0.0000   -0.0060   -0.1165   -0.0000   -0.0000    0.0000   -0.0000    0.9853
       37 FE2    4d0       -0.0003   -0.0000    0.0000   -0.0022   -0.0155   -0.0000   -0.0000    0.0000   -0.0000    0.1256
       38 FE2    3d1+      -0.0000    0.0002   -0.0001    0.0000    0.0000    0.0000   -0.0000    0.9826    0.1359   -0.0000
       39 FE2    4d1+      -0.0000   -0.0000    0.0000    0.0000    0.0000    0.0000   -0.0000    0.1254    0.0173   -0.0000
       40 FE2    3d2+      -0.0000   -0.0000    0.0000    0.0000    0.0000    0.8812    0.4554    0.0000    0.0000    0.0000
       41 FE2    4d2+      -0.0000   -0.0000    0.0000   -0.0000    0.0000    0.1125    0.0582    0.0000    0.0000    0.0000
       42 FE2    4f3-      -0.0000    0.0000   -0.0000    0.0000   -0.0000    0.0000   -0.0000   -0.0000   -0.0000    0.0000
       43 FE2    4f2-      -0.0000   -0.0000   -0.0000    0.0000   -0.0000   -0.0000    0.0000    0.0000   -0.0000   -0.0000
       44 FE2    4f1-       0.0000    0.0000    0.0000   -0.0000   -0.0000   -0.0000    0.0000   -0.0000    0.0001    0.0000
       45 FE2    4f0        0.0000   -0.0000    0.0000   -0.0001   -0.0000   -0.0000   -0.0000    0.0000   -0.0000    0.0000
       46 FE2    4f1+      -0.0000    0.0000   -0.0000   -0.0000    0.0000    0.0000   -0.0000    0.0001    0.0000   -0.0000
       47 FE2    4f2+      -0.0000    0.0000   -0.0000    0.0000    0.0000    0.0000    0.0000   -0.0000    0.0000    0.0000
       48 FE2    4f3+       0.0000   -0.0000   -0.0000   -0.0000    0.0000    0.0000   -0.0000    0.0000    0.0000    0.0000
 
          Orbital           21        22        23        24    
          Energy           -0.3911   -0.3911   -0.3895   -0.2248
          Occ. No.          0.0000    0.0000    0.0000    0.0000
 
        1 O1     1s        -0.0000    0.0000   -0.0024   -0.0061
        2 O1     2s        -0.0000    0.0000   -0.0295   -0.0669
        3 O1     3s        -0.0000    0.0000   -0.0061   -0.0116
        4 O1     2px       -0.0071    0.0005    0.0000    0.0000
        5 O1     3px       -0.0012    0.0001    0.0000    0.0000
        6 O1     2py       -0.0005   -0.0071   -0.0000   -0.0000
        7 O1     3py       -0.0001   -0.0012   -0.0000   -0.0000
        8 O1     2pz        0.0000   -0.0000    0.0483    0.0578
        9 O1     3pz        0.0000    0.0000    0.0032    0.0115
       10 O1     3d2-      -0.0000   -0.0000    0.0000   -0.0000
       11 O1     3d1-      -0.0000   -0.0003   -0.0000   -0.0000
       12 O1     3d0        0.0000   -0.0000    0.0010    0.0009
       13 O1     3d1+      -0.0003    0.0000    0.0000    0.0000
       14 O1     3d2+       0.0000    0.0000    0.0000    0.0000
       15 FE2    1s         0.0000   -0.0000    0.0000    0.0000
       16 FE2    2s        -0.0000   -0.0000    0.0000    0.0002
       17 FE2    3s         0.0000    0.0000    0.0001   -0.0023
       18 FE2    4s        -0.0000    0.0000    0.0016    0.2515
       19 FE2    5s        -0.0000   -0.0000   -0.0057    0.9756
       20 FE2    2px       -0.0003    0.0000    0.0000    0.0000
       21 FE2    3px        0.0110   -0.0008   -0.0000   -0.0000
       22 FE2    4px        0.9947   -0.0740   -0.0000   -0.0000
       23 FE2    5px        0.0720   -0.0054   -0.0000    0.0000
       24 FE2    2py       -0.0000   -0.0003   -0.0000   -0.0000
       25 FE2    3py        0.0008    0.0110    0.0000    0.0000
       26 FE2    4py        0.0740    0.9947    0.0000    0.0000
       27 FE2    5py        0.0054    0.0720    0.0000    0.0000
       28 FE2    2pz       -0.0000    0.0000   -0.0003    0.0000
       29 FE2    3pz        0.0000   -0.0000    0.0111    0.0003
       30 FE2    4pz        0.0000   -0.0000    0.9996    0.0139
       31 FE2    5pz        0.0000   -0.0000    0.0720    0.0002
       32 FE2    3d2-      -0.0000   -0.0000    0.0000   -0.0000
       33 FE2    4d2-      -0.0000   -0.0000    0.0000   -0.0000
       34 FE2    3d1-      -0.0000   -0.0002    0.0000    0.0000
       35 FE2    4d1-      -0.0000   -0.0000   -0.0000   -0.0000
       36 FE2    3d0       -0.0000   -0.0000    0.0017    0.0016
       37 FE2    4d0       -0.0000   -0.0000   -0.0008   -0.0019
       38 FE2    3d1+      -0.0002    0.0000   -0.0000   -0.0000
       39 FE2    4d1+      -0.0000    0.0000    0.0000    0.0000
       40 FE2    3d2+       0.0000   -0.0000    0.0000    0.0000
       41 FE2    4d2+       0.0000    0.0000    0.0000    0.0000
       42 FE2    4f3-       0.0000   -0.0000   -0.0000   -0.0000
       43 FE2    4f2-      -0.0000    0.0000   -0.0000    0.0000
       44 FE2    4f1-      -0.0000   -0.0000   -0.0000   -0.0000
       45 FE2    4f0       -0.0000    0.0000   -0.0001   -0.0000
       46 FE2    4f1+      -0.0000    0.0000    0.0000   -0.0000
       47 FE2    4f2+       0.0000    0.0000    0.0000    0.0000
       48 FE2    4f3+      -0.0000    0.0000    0.0000    0.0000
--
 
 
++    Molecular charges:
      ------------------
 
      Mulliken charges per centre and basis function type
      ---------------------------------------------------
 
                            O1                      FE2   
                     alpha        beta       alpha        beta
      1s           1.0000      1.0000      1.0000      1.0000
      2s           0.9986      0.9989      1.0000      1.0000
      2px          0.0000      0.9976      1.0000      1.0000
      2pz          0.9937      0.9990      1.0000      1.0000
      2py          0.0000      0.9976      1.0000      1.0000
      3s           0.0008      0.0010      1.0000      1.0000
      3px          0.0000      0.0024      0.9993      0.9998
      3pz          0.0033      0.0001      0.9993      0.9998
      3py          0.0000      0.0024      0.9993      0.9998
      4s           0.0000      0.0000      0.8615      0.0003
      3d2+        -0.0000      0.0000      0.9814      0.0000
      3d1+        -0.0000      0.0000      0.9814      0.0000
      3d0          0.0009      0.0005      0.9814      0.0001
      3d1-        -0.0000      0.0000      0.9814      0.0000
      3d2-        -0.0000      0.0000      0.9814      0.0000
      4px          0.0000      0.0000      0.0004      0.0001
      4pz          0.0000      0.0000      0.0030      0.0004
      4py          0.0000      0.0000      0.0004      0.0001
      5s           0.0000      0.0000      0.1384     -0.0002
      4d2+         0.0000      0.0000      0.0186      0.0000
      4d1+         0.0000      0.0000      0.0186     -0.0000
      4d0          0.0000      0.0000      0.0188      0.0001
      4d1-         0.0000      0.0000      0.0186     -0.0000
      4d2-         0.0000      0.0000      0.0186      0.0000
      5px          0.0000      0.0000      0.0003      0.0000
      5pz          0.0000      0.0000      0.0004      0.0000
      5py          0.0000      0.0000      0.0003      0.0000
      4f3+         0.0000      0.0000      0.0000      0.0000
      4f2+         0.0000      0.0000      0.0000      0.0000
      4f1+         0.0000      0.0000      0.0000      0.0000
      4f0          0.0000      0.0000      0.0000      0.0000
      4f1-         0.0000      0.0000      0.0000      0.0000
      4f2-         0.0000      0.0000      0.0000      0.0000
      4f3-         0.0000      0.0000      0.0000      0.0000
      Total        2.9973      4.9994     15.0027      9.0006
      Total              7.9967                 24.0033
 
      Charge            0.0033                  1.9967
 
      Total electronic charge=   32.000000
 
      Total            charge=    2.000000
--
 
 
  Input file to MOLDEN was generated!
 
 
++    Static properties:
      ------------------
 
 
      LoProp Charges per center
 

                   O1       FE2   
      Nuclear      8.0000  26.0000
      Electronic  -7.9985 -24.0015
 
      Total        0.0015   1.9985
--
 
 
++    Natural Bond Order analysis
      ---------------------------
      Based on LoProp computed density
      -------------------------------------------------------------------------------------
      Atom A       Atom B       Bond Order
      -------------------------------------------------------------------------------------
      NBO located     20.000 core electrons.
      NBO located      3.992 lone pair electrons.
      NBO located      1.000 non-bonded electrons on atom O1        
      NBO located      1.000 non-bonded electrons on atom O1        
      NBO located      1.000 non-bonded electrons on atom FE2       
      NBO located      1.000 non-bonded electrons on atom FE2       
      NBO located      1.000 non-bonded electrons on atom FE2       
      NBO located      1.000 non-bonded electrons on atom FE2       
      NBO located      1.000 non-bonded electrons on atom FE2       
      NBO located      1.000 non-bonded electrons on atom FE2       
      The remaining    0.009 electrons are to be considered as diffuse
--
 
 
++    Molecular orbitals:
      -------------------
 
      Title: Natural orbitals

      Molecular orbitals for symmetry species 1: a  
 
          Orbital            1         2         3         4         5         6         7         8         9        10    
          Energy         -264.6115  -33.0533  -27.5325  -27.7101  -27.7092  -20.9840   -5.6207   -4.4729   -4.4608   -4.4603
          Occ. No.          2.0000    2.0000    2.0000    2.0000    2.0000    2.0000    2.0000    1.9999    1.9999    1.9999
 
        1 O1     1s         0.0000    0.0073    0.1530   -0.0000    0.0000    0.9855   -0.0641   -0.0029    0.0000    0.0000
        2 O1     2s        -0.0000   -0.0002   -0.0049    0.0000   -0.0000   -0.0332    0.0006   -0.0039   -0.0000   -0.0000
        3 O1     3s        -0.0000    0.0000   -0.0001    0.0000   -0.0000   -0.0005   -0.0004    0.0005   -0.0000    0.0000
        4 O1     2px       -0.0000   -0.0000    0.0000   -0.0000    0.0000    0.0000    0.0000   -0.0000   -0.0000    0.0000
        5 O1     3px       -0.0000    0.0000    0.0000   -0.0000    0.0000   -0.0000   -0.0000   -0.0000    0.0000   -0.0000
        6 O1     2py       -0.0000   -0.0000   -0.0000   -0.0000   -0.0000    0.0000   -0.0000    0.0000   -0.0000   -0.0000
        7 O1     3py       -0.0000    0.0000    0.0000   -0.0000   -0.0000    0.0000   -0.0000   -0.0000    0.0000    0.0000
        8 O1     2pz        0.0000   -0.0000    0.0020    0.0000   -0.0000   -0.0016    0.0052   -0.0410    0.0000   -0.0000
        9 O1     3pz        0.0000   -0.0000    0.0001   -0.0000    0.0000    0.0002    0.0004   -0.0011    0.0000   -0.0000
       10 O1     3d2-       0.0000   -0.0000    0.0000   -0.0000   -0.0000   -0.0000   -0.0000   -0.0000   -0.0000    0.0000
       11 O1     3d1-      -0.0000    0.0000    0.0000    0.0000    0.0000   -0.0000    0.0000   -0.0000    0.0000    0.0000
       12 O1     3d0        0.0000    0.0000    0.0000   -0.0000    0.0000    0.0002   -0.0000    0.0003   -0.0000    0.0000
       13 O1     3d1+      -0.0000   -0.0000   -0.0000    0.0000   -0.0000    0.0000    0.0000    0.0000    0.0000   -0.0000
       14 O1     3d2+       0.0000   -0.0000   -0.0000    0.0000   -0.0000    0.0000   -0.0000    0.0000   -0.0000    0.0000
       15 FE2    1s         1.0000   -0.0000    0.0000   -0.0000   -0.0000    0.0000    0.0000   -0.0000   -0.0000    0.0000
       16 FE2    2s         0.0000    0.9939    0.0024   -0.0000   -0.0000   -0.0005    0.1106    0.0009   -0.0000    0.0000
       17 FE2    3s        -0.0000   -0.1103    0.0114   -0.0000    0.0000    0.0635    0.9918    0.0057   -0.0000   -0.0000
       18 FE2    4s         0.0000    0.0005   -0.0000    0.0000   -0.0000   -0.0001   -0.0022    0.0003   -0.0000    0.0000
       19 FE2    5s        -0.0000   -0.0006    0.0001   -0.0000    0.0000    0.0003    0.0046   -0.0000    0.0000   -0.0000
       20 FE2    2px        0.0000    0.0000   -0.0000    0.9845   -0.0021    0.0000    0.0000   -0.0000    0.0723   -0.1595
       21 FE2    3px       -0.0000   -0.0000    0.0000   -0.1751    0.0004   -0.0000   -0.0000    0.0000    0.4064   -0.8966
       22 FE2    4px        0.0000    0.0000   -0.0000    0.0026   -0.0000    0.0000    0.0000   -0.0000   -0.0062    0.0137
       23 FE2    5px       -0.0000   -0.0000    0.0000   -0.0019    0.0000   -0.0000   -0.0000    0.0000    0.0048   -0.0107
       24 FE2    2py        0.0000    0.0000    0.0000    0.0021    0.9845   -0.0000    0.0000    0.0000    0.1596    0.0723
       25 FE2    3py       -0.0000   -0.0000   -0.0000   -0.0004   -0.1752    0.0000   -0.0000    0.0000    0.8966    0.4064
       26 FE2    4py        0.0000    0.0000    0.0000    0.0000    0.0026   -0.0000    0.0000   -0.0000   -0.0137   -0.0062
       27 FE2    5py       -0.0000   -0.0000   -0.0000   -0.0000   -0.0019    0.0000   -0.0000    0.0000    0.0107    0.0048
       28 FE2    2pz       -0.0000   -0.0023    0.9726    0.0000   -0.0000   -0.1507   -0.0028    0.1771   -0.0000    0.0000
       29 FE2    3pz       -0.0000    0.0002   -0.1747   -0.0000    0.0000    0.0295   -0.0054    0.9831   -0.0000    0.0000
       30 FE2    4pz        0.0000   -0.0000    0.0026    0.0000   -0.0000   -0.0004    0.0000   -0.0143    0.0000   -0.0000
       31 FE2    5pz       -0.0000   -0.0000   -0.0019   -0.0000    0.0000    0.0003   -0.0000    0.0117   -0.0000    0.0000
       32 FE2    3d2-       0.0000   -0.0000   -0.0000   -0.0000    0.0000    0.0000    0.0000    0.0000    0.0000   -0.0000
       33 FE2    4d2-      -0.0000    0.0000    0.0000   -0.0000    0.0000   -0.0000   -0.0000   -0.0000   -0.0000   -0.0000
       34 FE2    3d1-       0.0000   -0.0000   -0.0000   -0.0000   -0.0000    0.0000   -0.0000   -0.0000    0.0001    0.0000
       35 FE2    4d1-       0.0000    0.0000   -0.0000    0.0000    0.0000   -0.0000   -0.0000    0.0000   -0.0000   -0.0000
       36 FE2    3d0        0.0000    0.0000   -0.0000   -0.0000    0.0000    0.0000   -0.0000    0.0003   -0.0000    0.0000
       37 FE2    4d0        0.0000   -0.0000    0.0000   -0.0000    0.0000    0.0000    0.0000    0.0001    0.0000    0.0000
       38 FE2    3d1+      -0.0000   -0.0000    0.0000   -0.0000    0.0000   -0.0000    0.0000   -0.0000    0.0000   -0.0001
       39 FE2    4d1+       0.0000    0.0000   -0.0000    0.0000   -0.0000    0.0000    0.0000    0.0000   -0.0000    0.0000
       40 FE2    3d2+       0.0000    0.0000    0.0000    0.0000    0.0000    0.0000   -0.0000   -0.0000   -0.0000   -0.0000
       41 FE2    4d2+      -0.0000   -0.0000   -0.0000   -0.0000   -0.0000    0.0000    0.0000    0.0000    0.0000    0.0000
       42 FE2    4f3-      -0.0000    0.0000   -0.0000   -0.0000    0.0000   -0.0000   -0.0000    0.0000   -0.0000    0.0000
       43 FE2    4f2-      -0.0000   -0.0000    0.0000    0.0000   -0.0000   -0.0000   -0.0000   -0.0000   -0.0000    0.0000
       44 FE2    4f1-       0.0000   -0.0000   -0.0000    0.0000    0.0000   -0.0000   -0.0000   -0.0000   -0.0000   -0.0000
       45 FE2    4f0        0.0000    0.0000    0.0000    0.0000   -0.0000   -0.0000   -0.0000   -0.0000    0.0000   -0.0000
       46 FE2    4f1+      -0.0000    0.0000   -0.0000    0.0000   -0.0000    0.0000   -0.0000    0.0000   -0.0000    0.0000
       47 FE2    4f2+      -0.0000    0.0000   -0.0000   -0.0000   -0.0000   -0.0000   -0.0000    0.0000    0.0000    0.0000
       48 FE2    4f3+       0.0000    0.0000   -0.0000    0.0000   -0.0000    0.0000    0.0000    0.0000    0.0000    0.0000
 
          Orbital           11        12        13        14        15        16        17        18        19        20    
          Energy           -1.0017   -1.3063   -0.7916   -0.7916   -1.0825   -1.0825   -1.0824   -0.7580   -0.7913   -0.7913
          Occ. No.          1.9977    1.9973    1.0004    1.0004    1.0000    1.0000    1.0000    1.0000    0.9996    0.9996
 
        1 O1     1s         0.0195   -0.0273   -0.0000   -0.0000   -0.0000   -0.0000   -0.0001    0.0008   -0.0000   -0.0000
        2 O1     2s         0.5445   -0.8382   -0.0000   -0.0000   -0.0000   -0.0000   -0.0009    0.0065   -0.0000   -0.0000
        3 O1     3s        -0.0125   -0.0040   -0.0000   -0.0000   -0.0000   -0.0000   -0.0009    0.0068   -0.0000   -0.0000
        4 O1     2px        0.0000    0.0000    0.4375    0.5545   -0.0000    0.0000   -0.0000    0.0000   -0.4287   -0.5611
        5 O1     3px        0.0000   -0.0000   -0.0211   -0.0268    0.0000   -0.0000   -0.0000    0.0000    0.0213    0.0279
        6 O1     2py       -0.0000   -0.0000    0.5545   -0.4375   -0.0000   -0.0000    0.0000   -0.0000   -0.5611    0.4287
        7 O1     3py       -0.0000   -0.0000   -0.0268    0.0211    0.0000    0.0000    0.0000    0.0000    0.0279   -0.0213
        8 O1     2pz        0.8367    0.5427   -0.0000   -0.0000   -0.0000   -0.0000   -0.0058    0.0167   -0.0000    0.0000
        9 O1     3pz        0.0151    0.0162    0.0000    0.0000    0.0000    0.0000    0.0005   -0.0029    0.0000    0.0000
       10 O1     3d2-       0.0000    0.0000    0.0000   -0.0000   -0.0000   -0.0000    0.0000   -0.0000   -0.0000    0.0000
       11 O1     3d1-       0.0000    0.0000   -0.0033    0.0026    0.0000    0.0000   -0.0000   -0.0000    0.0033   -0.0025
       12 O1     3d0       -0.0038   -0.0078   -0.0000    0.0000    0.0000    0.0000   -0.0001   -0.0001    0.0000   -0.0000
       13 O1     3d1+       0.0000   -0.0000   -0.0026   -0.0033    0.0000   -0.0000    0.0000   -0.0000    0.0025    0.0033
       14 O1     3d2+      -0.0000   -0.0000    0.0000    0.0000    0.0000   -0.0000   -0.0000    0.0000   -0.0000   -0.0000
       15 FE2    1s         0.0000    0.0000    0.0000    0.0000    0.0000    0.0000   -0.0000   -0.0000    0.0000    0.0000
       16 FE2    2s        -0.0002   -0.0002    0.0000    0.0000    0.0000    0.0000   -0.0000   -0.0003    0.0000    0.0000
       17 FE2    3s        -0.0023   -0.0029   -0.0000   -0.0000   -0.0000   -0.0000   -0.0000    0.0038   -0.0000   -0.0000
       18 FE2    4s        -0.0070   -0.0034   -0.0000   -0.0000   -0.0000   -0.0000    0.0003    0.9278   -0.0000   -0.0000
       19 FE2    5s        -0.0003    0.0008    0.0000    0.0000    0.0000    0.0000    0.0003   -0.3723    0.0000    0.0000
       20 FE2    2px       -0.0000   -0.0000   -0.0000   -0.0000   -0.0000    0.0000    0.0000   -0.0000    0.0000    0.0000
       21 FE2    3px       -0.0000    0.0000   -0.0001   -0.0001   -0.0000    0.0000    0.0000   -0.0000   -0.0000   -0.0000
       22 FE2    4px        0.0000    0.0000   -0.0002   -0.0003   -0.0000   -0.0000    0.0000   -0.0000    0.0001    0.0001
       23 FE2    5px       -0.0000    0.0000   -0.0001   -0.0001   -0.0000    0.0000    0.0000   -0.0000    0.0001    0.0001
       24 FE2    2py        0.0000   -0.0000   -0.0000    0.0000    0.0000    0.0000    0.0000   -0.0000    0.0000   -0.0000
       25 FE2    3py        0.0000   -0.0000   -0.0001    0.0001    0.0000    0.0000   -0.0000   -0.0000   -0.0000    0.0000
       26 FE2    4py        0.0000    0.0000   -0.0003    0.0002    0.0000   -0.0000   -0.0000   -0.0000    0.0001   -0.0001
       27 FE2    5py        0.0000    0.0000   -0.0001    0.0001    0.0000    0.0000   -0.0000   -0.0000    0.0001   -0.0001
       28 FE2    2pz        0.0045    0.0024   -0.0000   -0.0000   -0.0000   -0.0000    0.0000    0.0000   -0.0000    0.0000
       29 FE2    3pz        0.0367    0.0193    0.0000    0.0000    0.0000    0.0000    0.0001   -0.0001    0.0000    0.0000
       30 FE2    4pz       -0.0168   -0.0103    0.0000    0.0000    0.0000    0.0000    0.0008   -0.0088    0.0000    0.0000
       31 FE2    5pz       -0.0006   -0.0001    0.0000    0.0000    0.0000    0.0000    0.0001   -0.0005    0.0000    0.0000
       32 FE2    3d2-       0.0000    0.0000   -0.0000   -0.0000   -0.0121   -0.9906    0.0000   -0.0000   -0.0000   -0.0000
       33 FE2    4d2-      -0.0000   -0.0000    0.0000    0.0000    0.0017    0.1363   -0.0000    0.0000    0.0000    0.0000
       34 FE2    3d1-       0.0000    0.0000    0.5499   -0.4339   -0.0000   -0.0000    0.0000    0.0000    0.5566   -0.4252
       35 FE2    4d1-      -0.0000   -0.0000   -0.0757    0.0597    0.0000    0.0000   -0.0000   -0.0000   -0.0766    0.0585
       36 FE2    3d0       -0.0051   -0.0032   -0.0000   -0.0000   -0.0000   -0.0000   -0.9906   -0.0001   -0.0000   -0.0000
       37 FE2    4d0       -0.0026   -0.0017    0.0000    0.0000    0.0000    0.0000    0.1366   -0.0012    0.0000    0.0000
       38 FE2    3d1+       0.0000    0.0000    0.4339    0.5499    0.0000   -0.0000   -0.0000    0.0000    0.4252    0.5566
       39 FE2    4d1+      -0.0000    0.0000   -0.0597   -0.0757   -0.0000    0.0000    0.0000   -0.0000   -0.0585   -0.0766
       40 FE2    3d2+       0.0000    0.0000    0.0000   -0.0000    0.9906   -0.0121   -0.0000    0.0000    0.0000   -0.0000
       41 FE2    4d2+      -0.0000   -0.0000   -0.0000    0.0000   -0.1363    0.0017    0.0000   -0.0000   -0.0000    0.0000
       42 FE2    4f3-       0.0000    0.0000   -0.0000    0.0000   -0.0000    0.0000   -0.0000   -0.0000   -0.0000   -0.0000
       43 FE2    4f2-       0.0000    0.0000   -0.0000   -0.0000   -0.0000   -0.0000    0.0000   -0.0000   -0.0000   -0.0000
       44 FE2    4f1-      -0.0000   -0.0000    0.0000   -0.0000   -0.0000   -0.0000    0.0000    0.0000    0.0000   -0.0000
       45 FE2    4f0       -0.0001   -0.0001    0.0000   -0.0000    0.0000    0.0000   -0.0000   -0.0000    0.0000   -0.0000
       46 FE2    4f1+      -0.0000   -0.0000    0.0000    0.0000    0.0000   -0.0000   -0.0000    0.0000    0.0000    0.0000
       47 FE2    4f2+      -0.0000    0.0000    0.0000   -0.0000    0.0000   -0.0000   -0.0000    0.0000    0.0000   -0.0000
       48 FE2    4f3+      -0.0000   -0.0000    0.0000   -0.0000   -0.0000    0.0000   -0.0000    0.0000    0.0000   -0.0000
 
          Orbital           21        22        23        24        25        26        27        28        29        30    
          Energy            0.8786    0.5657    0.9491    0.9491    1.0307   -0.2036    0.8530   -0.0368   -0.0368    0.5644
          Occ. No.          0.0027    0.0023    0.0001    0.0001    0.0001    0.0000    0.0000    0.0000    0.0000    0.0000
 
        1 O1     1s        -0.0005    0.0009   -0.0000   -0.0000   -0.0023    0.0063   -0.0033    0.0000    0.0000    0.0026
        2 O1     2s        -0.0114    0.0144   -0.0000   -0.0000   -0.0264    0.0708   -0.0390    0.0000    0.0000    0.0324
        3 O1     3s         0.5908    0.3892    0.0000   -0.0000   -0.0403    0.1420   -0.6133   -0.0000    0.0000   -0.3631
        4 O1     2px        0.0000   -0.0000   -0.0049    0.0010   -0.0000   -0.0000    0.0000   -0.0136    0.0010   -0.0000
        5 O1     3px       -0.0000    0.0000   -0.0160    0.0033   -0.0000   -0.0000    0.0000   -0.0719    0.0050    0.0000
        6 O1     2py       -0.0000    0.0000   -0.0010   -0.0049    0.0000    0.0000   -0.0000   -0.0010   -0.0136    0.0000
        7 O1     3py        0.0000   -0.0000   -0.0033   -0.0160    0.0000    0.0000   -0.0000   -0.0050   -0.0719    0.0000
        8 O1     2pz        0.0400   -0.0305    0.0000    0.0000    0.0138   -0.0604    0.0439   -0.0000   -0.0000   -0.0499
        9 O1     3pz       -0.4730    0.7277    0.0000   -0.0000   -0.1330   -0.2032    0.3200   -0.0000   -0.0000   -0.4205
       10 O1     3d2-      -0.0000   -0.0000    0.0000    0.0000   -0.0000    0.0000   -0.0000   -0.0000   -0.0000   -0.0000
       11 O1     3d1-      -0.0000   -0.0000    0.0003    0.0014    0.0000   -0.0000   -0.0000    0.0008    0.0108   -0.0000
       12 O1     3d0        0.5708    0.4136    0.0000   -0.0000   -0.0166    0.0164    0.5263    0.0000   -0.0000    0.4581
       13 O1     3d1+       0.0000    0.0000    0.0014   -0.0003    0.0000    0.0000    0.0000    0.0108   -0.0008    0.0000
       14 O1     3d2+      -0.0000   -0.0000   -0.0000   -0.0000   -0.0000    0.0000   -0.0000   -0.0000   -0.0000   -0.0000
       15 FE2    1s        -0.0001    0.0002   -0.0000   -0.0000   -0.0000   -0.0001    0.0001   -0.0000   -0.0000   -0.0001
       16 FE2    2s        -0.0010    0.0014    0.0000   -0.0000   -0.0003   -0.0004    0.0007   -0.0000   -0.0000   -0.0008
       17 FE2    3s        -0.0056    0.0076   -0.0000   -0.0000   -0.0015    0.0011    0.0038   -0.0000   -0.0000   -0.0042
       18 FE2    4s        -0.0268    0.0348   -0.0000   -0.0000   -0.0049   -0.3970    0.0439   -0.0000    0.0000   -0.0548
       19 FE2    5s         0.0399   -0.0365   -0.0000    0.0000    0.0233   -0.9512    0.0315   -0.0000    0.0000   -0.0424
       20 FE2    2px       -0.0000    0.0000   -0.0002    0.0000    0.0000   -0.0000   -0.0000   -0.0000    0.0000   -0.0000
       21 FE2    3px        0.0000    0.0000   -0.0177    0.0036    0.0000    0.0000   -0.0000    0.0071   -0.0005   -0.0000
       22 FE2    4px       -0.0000    0.0000   -0.5051    0.1027    0.0000   -0.0000   -0.0000    0.8559   -0.0598    0.0000
       23 FE2    5px       -0.0000   -0.0000    0.8397   -0.1708   -0.0000   -0.0000   -0.0000    0.5163   -0.0361    0.0000
       24 FE2    2py       -0.0000    0.0000   -0.0000   -0.0002   -0.0000   -0.0000    0.0000   -0.0000   -0.0000   -0.0000
       25 FE2    3py       -0.0000    0.0000   -0.0036   -0.0177   -0.0000    0.0000    0.0000    0.0005    0.0071   -0.0000
       26 FE2    4py        0.0000   -0.0000   -0.1027   -0.5051    0.0000    0.0000    0.0000    0.0598    0.8559   -0.0000
       27 FE2    5py        0.0000   -0.0000    0.1708    0.8397    0.0000    0.0000    0.0000    0.0361    0.5163   -0.0000
       28 FE2    2pz       -0.0002    0.0002   -0.0000    0.0000   -0.0002   -0.0001    0.0001   -0.0000   -0.0000   -0.0001
       29 FE2    3pz       -0.0004   -0.0004   -0.0000    0.0000   -0.0181   -0.0013    0.0067    0.0000   -0.0000   -0.0078
       30 FE2    4pz        0.1958   -0.3051   -0.0000    0.0000   -0.4477    0.0152    0.5380    0.0000   -0.0000   -0.6444
       31 FE2    5pz        0.0073   -0.0011    0.0000   -0.0000    0.8793    0.0105    0.3269    0.0000   -0.0000   -0.3851
       32 FE2    3d2-      -0.0000   -0.0000   -0.0000   -0.0000   -0.0000    0.0000   -0.0000   -0.0000    0.0000    0.0000
       33 FE2    4d2-       0.0000   -0.0000   -0.0000   -0.0000   -0.0000    0.0000   -0.0000   -0.0000    0.0000    0.0000
       34 FE2    3d1-       0.0000    0.0000   -0.0000   -0.0001   -0.0000    0.0000    0.0000    0.0001    0.0019    0.0000
       35 FE2    4d1-       0.0000   -0.0000   -0.0001   -0.0005    0.0000    0.0000    0.0000    0.0008    0.0118    0.0000
       36 FE2    3d0       -0.0007    0.0015    0.0000    0.0000    0.0000   -0.0037    0.0221   -0.0000   -0.0000    0.0069
       37 FE2    4d0        0.0192   -0.0158    0.0000    0.0000    0.0077   -0.0167    0.1424   -0.0000   -0.0000    0.0695
       38 FE2    3d1+       0.0000   -0.0000   -0.0001    0.0000    0.0000    0.0000    0.0000    0.0019   -0.0001   -0.0000
       39 FE2    4d1+       0.0000   -0.0000   -0.0005    0.0001    0.0000    0.0000    0.0000    0.0118   -0.0008   -0.0000
       40 FE2    3d2+       0.0000   -0.0000    0.0000    0.0000    0.0000    0.0000   -0.0000    0.0000   -0.0000    0.0000
       41 FE2    4d2+       0.0000   -0.0000    0.0000    0.0000    0.0000    0.0000   -0.0000    0.0000   -0.0000    0.0000
       42 FE2    4f3-      -0.0000   -0.0000    0.0000    0.0000   -0.0000   -0.0000    0.0000   -0.0000   -0.0000   -0.0000
       43 FE2    4f2-      -0.0000    0.0000    0.0000   -0.0000    0.0000   -0.0000    0.0000    0.0000    0.0000    0.0000
       44 FE2    4f1-       0.0000   -0.0000   -0.0000   -0.0000    0.0000   -0.0000    0.0000    0.0001    0.0008    0.0000
       45 FE2    4f0        0.0008   -0.0007   -0.0000    0.0000    0.0003   -0.0011    0.0078   -0.0000   -0.0000    0.0026
       46 FE2    4f1+       0.0000    0.0000   -0.0000    0.0000   -0.0000    0.0000   -0.0000    0.0008   -0.0001   -0.0000
       47 FE2    4f2+       0.0000   -0.0000   -0.0000   -0.0000   -0.0000    0.0000   -0.0000    0.0000    0.0000   -0.0000
       48 FE2    4f3+       0.0000    0.0000    0.0000    0.0000    0.0000    0.0000   -0.0000   -0.0000   -0.0000    0.0000
 
          Orbital           31        32        33        34        35        36        37        38        39        40    
          Energy            0.3157    0.3422    0.2797    0.3502    0.2835    0.2701    0.2705    1.8872    1.8828    1.9479
          Occ. No.          0.0000    0.0000    0.0000    0.0000    0.0000    0.0000    0.0000    0.0000    0.0000    0.0000
 
        1 O1     1s         0.0015    0.0000    0.0000   -0.0000    0.0000   -0.0000   -0.0000    0.0000    0.0000    0.0000
        2 O1     2s         0.0211    0.0000    0.0000   -0.0000    0.0000   -0.0000   -0.0000    0.0000    0.0000    0.0000
        3 O1     3s        -0.0559   -0.0000   -0.0000    0.0000   -0.0000    0.0000    0.0000   -0.0000   -0.0000   -0.0000
        4 O1     2px       -0.0000    0.0387    0.0134    0.0279   -0.0013   -0.0001    0.0000   -0.0077   -0.0032    0.0015
        5 O1     3px       -0.0000    0.8211    0.1073    0.5561   -0.0296   -0.0007    0.0016   -0.0461   -0.0218    0.0055
        6 O1     2py       -0.0000    0.0256    0.0082   -0.0383    0.0168   -0.0002    0.0002   -0.0007    0.0058    0.0048
        7 O1     3py       -0.0000    0.5317    0.1742   -0.8079    0.1773   -0.0018    0.0030    0.0062    0.0281    0.0199
        8 O1     2pz       -0.0347   -0.0000   -0.0000    0.0000   -0.0000    0.0000    0.0000   -0.0000   -0.0000   -0.0000
        9 O1     3pz       -0.1156   -0.0000   -0.0000    0.0000   -0.0000    0.0000    0.0000   -0.0000   -0.0000   -0.0000
       10 O1     3d2-       0.0000    0.0004   -0.0004   -0.0012    0.0008    0.0078   -0.0043   -0.2839    0.5219   -0.5093
       11 O1     3d1-       0.0000   -0.0125   -0.0057    0.0281   -0.0196   -0.0013   -0.0018   -0.1603    0.7313    0.6382
       12 O1     3d0        0.1285    0.0000    0.0000   -0.0000    0.0000   -0.0000   -0.0000    0.0000    0.0000    0.0000
       13 O1     3d1+       0.0000   -0.0340   -0.0134   -0.0393    0.0045   -0.0028   -0.0086   -0.9079   -0.3609    0.1991
       14 O1     3d2+       0.0000    0.0002    0.0007    0.0018    0.0004   -0.0049    0.0130    0.2461   -0.2423    0.4876
       15 FE2    1s        -0.0000   -0.0000   -0.0000    0.0000   -0.0000    0.0000    0.0000   -0.0000   -0.0000   -0.0000
       16 FE2    2s        -0.0002   -0.0000   -0.0000    0.0000   -0.0000    0.0000    0.0000   -0.0000   -0.0000   -0.0000
       17 FE2    3s        -0.0012   -0.0000   -0.0000    0.0000   -0.0000    0.0000    0.0000   -0.0000   -0.0000   -0.0000
       18 FE2    4s        -0.0129   -0.0000   -0.0000    0.0000   -0.0000    0.0000    0.0000   -0.0000   -0.0000   -0.0000
       19 FE2    5s        -0.0076   -0.0000   -0.0000    0.0000   -0.0000    0.0000    0.0000   -0.0000    0.0000   -0.0000
       20 FE2    2px        0.0000   -0.0000   -0.0000   -0.0000    0.0000    0.0000   -0.0000    0.0000    0.0000   -0.0000
       21 FE2    3px        0.0000   -0.0008   -0.0000   -0.0006    0.0000    0.0000   -0.0000    0.0001    0.0000   -0.0000
[...]
 BJATM    -0.00908945 -0.00908945
 BJAIP    -0.03168978 -0.03168978
 BJAIM    -0.01463372 -0.01463372
 Summed:  -0.38161167 -0.38161167
 
      Reference energy:       -1345.4476492622
      E2 (Non-variational):      -0.3816116709
      E2 (Variational):          -0.3816116988
      Total energy:           -1345.8292609610
      Residual norm:              0.0000006465
      Reference weight:           0.93828
 
      Contributions to the CASPT2 correlation energy
      Active & Virtual Only:         -0.0942522709
      One Inactive Excited:          -0.1942458934
      Two Inactive Excited:          -0.0931135066
 
 
++ Denominators, etc.
----------------------------------------------------------------------------------------------------
 Report on small energy denominators, large coefficients, and large energy contributions.
CASE  SYMM ACTIVE-MIX  NON-ACTIVE INDICES          DENOMINATOR     RHS VALUE       COEFFICIENT     CONTRIBUTION
VJTU     1  Mu1.0001  In1.011                       0.28791251      0.00000000      0.00000000      0.00000000
VJTU     1  Mu1.0002  In1.011                       0.28791777      0.00000000      0.00000000      0.00000000
VJTU     1  Mu1.0003  In1.011                       0.28834279      0.00000066      0.00000106      0.00000000
VJTU     1  Mu1.0004  In1.011                       0.28835003     -0.00000155     -0.00000251      0.00000000
ATVX     1  Mu1.0001  Se1.026                      -0.22228082     -0.00000000     -0.00000000      0.00000000
ATVX     1  Mu1.0002  Se1.026                      -0.20528122     -0.00000000      0.00000000     -0.00000000
ATVX     1  Mu1.0003  Se1.026                      -0.20527595     -0.00000000     -0.00000000      0.00000000
ATVX     1  Mu1.0004  Se1.026                      -0.16710931      0.00000000      0.00000000      0.00000000
ATVX     1  Mu1.0005  Se1.026                      -0.10110977     -0.00000000     -0.00000000      0.00000000
ATVX     1  Mu1.0006  Se1.026                      -0.10110976     -0.00000000     -0.00000000      0.00000000
ATVX     1  Mu1.0007  Se1.026                       0.16049353     -0.00000000      0.00000000     -0.00000000
ATVX     1  Mu1.0008  Se1.026                       0.16049353     -0.00000000      0.00000000     -0.00000000
ATVX     1  Mu1.0009  Se1.026                       0.17475427      0.00000000     -0.00000000     -0.00000000
ATVX     1  Mu1.0010  Se1.026                       0.17475427     -0.00000000      0.00000000     -0.00000000
ATVX     1  Mu1.0011  Se1.026                       0.17591273      0.00000157     -0.00005670     -0.00000000
ATVX     1  Mu1.0012  Se1.026                       0.17592579     -0.00000742      0.00026797     -0.00000000
ATVX     1  Mu1.0013  Se1.026                       0.17895432      0.00000000     -0.00000004     -0.00000000
ATVX     1  Mu1.0014  Se1.026                       0.17896062     -0.00000000      0.00000002     -0.00000000
ATVX     1  Mu1.0015  Se1.026                       0.18749547     -0.00000313      0.00003013     -0.00000000
ATVX     1  Mu1.0016  Se1.026                       0.18763196      0.00000007     -0.00000064     -0.00000000
ATVX     1  Mu1.0017  Se1.026                       0.19527548     -0.00000125     -0.00000085      0.00000000
ATVX     1  Mu1.0018  Se1.026                       0.19529116     -0.00000022     -0.00000015      0.00000000
ATVX     1  Mu1.0019  Se1.026                       0.19672773     -0.00000000      0.00000000     -0.00000000
ATVX     1  Mu1.0020  Se1.026                       0.19673481     -0.00000000      0.00000000     -0.00000000
ATVX     1  Mu1.0021  Se1.026                       0.19797654     -0.00000000      0.00000000     -0.00000000
ATVX     1  Mu1.0022  Se1.026                       0.19797664     -0.00000000      0.00000000     -0.00000000
ATVX     1  Mu1.0023  Se1.026                       0.20852197      0.00000000     -0.00000000     -0.00000000
ATVX     1  Mu1.0024  Se1.026                       0.20853314      0.00000000     -0.00000000     -0.00000000
ATVX     1  Mu1.0025  Se1.026                       0.20902871      0.00000000     -0.00000000     -0.00000000
ATVX     1  Mu1.0026  Se1.026                       0.20916889      0.00000000      0.00000000      0.00000000
ATVX     1  Mu1.0027  Se1.026                       0.21595143      0.00000000     -0.00000000     -0.00000000
ATVX     1  Mu1.0028  Se1.026                       0.21834239     -0.00000000      0.00000000     -0.00000000
ATVX     1  Mu1.0029  Se1.026                       0.21834240      0.00000000      0.00000000      0.00000000
ATVX     1  Mu1.0030  Se1.026                       0.23207169     -0.00000000      0.00000000     -0.00000000
ATVX     1  Mu1.0031  Se1.026                       0.23208179      0.00000000     -0.00000000     -0.00000000
ATVX     1  Mu1.0032  Se1.026                       0.24416913      0.00000000     -0.00000000     -0.00000000
ATVX     1  Mu1.0033  Se1.026                       0.24418251      0.00000000     -0.00000000     -0.00000000
ATVX     1  Mu1.0034  Se1.026                       0.24516968     -0.00000722      0.00002196     -0.00000000
ATVX     1  Mu1.0035  Se1.026                       0.24517537     -0.00000487      0.00001482     -0.00000000
ATVX     1  Mu1.0036  Se1.026                       0.24826341      0.00000000     -0.00000000     -0.00000000
ATVX     1  Mu1.0037  Se1.026                       0.24833205     -0.00000000      0.00000000     -0.00000000
ATVX     1  Mu1.0038  Se1.026                       0.25280121     -0.00000000      0.00000000     -0.00000000
ATVX     1  Mu1.0039  Se1.026                       0.25280677      0.00000000     -0.00000000     -0.00000000
ATVX     1  Mu1.0040  Se1.026                       0.26445218     -0.00099248      0.00364096     -0.00000361
ATVX     1  Mu1.0041  Se1.026                       0.27013283      0.00000035     -0.00000165     -0.00000000
ATVX     1  Mu1.0042  Se1.026                       0.27028831      0.00000001     -0.00000002     -0.00000000
ATVX     1  Mu1.0043  Se1.026                       0.28288383      0.00000000     -0.00000000     -0.00000000
ATVX     1  Mu1.0044  Se1.026                       0.28288383      0.00000000     -0.00000000     -0.00000000
ATVX     1  Mu1.0001  Se1.027                      -0.06071114      0.00000000     -0.00000000     -0.00000000
ATVX     1  Mu1.0002  Se1.027                      -0.04371154     -0.00000000     -0.00000000      0.00000000
ATVX     1  Mu1.0003  Se1.027                      -0.04370627     -0.00000086      0.00002103     -0.00000000
ATVX     1  Mu1.0004  Se1.027                      -0.00553963      0.00000000     -0.00000000     -0.00000000
ATVX     1  Mu1.0005  Se1.027                       0.06045992      0.00002529      0.00055793      0.00000001
ATVX     1  Mu1.0006  Se1.027                       0.06045992      0.00002139      0.00047173      0.00000001
ATVX     1  Mu1.0001  Se1.028                      -0.06070999      0.00000000      0.00000000      0.00000000
ATVX     1  Mu1.0002  Se1.028                      -0.04371039      0.00000086     -0.00002103     -0.00000000
ATVX     1  Mu1.0003  Se1.028                      -0.04370512     -0.00000000     -0.00000000      0.00000000
ATVX     1  Mu1.0004  Se1.028                      -0.00553848      0.00000000      0.00000000      0.00000000
ATVX     1  Mu1.0005  Se1.028                       0.06046106     -0.00002139     -0.00047172      0.00000001
ATVX     1  Mu1.0006  Se1.028                       0.06046107      0.00002529      0.00055792      0.00000001
ATVX     1  Mu1.0001  Se1.029                      -0.04678614      0.00000000      0.00000000      0.00000000
ATVX     1  Mu1.0002  Se1.029                      -0.02978655      0.00000000      0.00000000      0.00000000
ATVX     1  Mu1.0003  Se1.029                      -0.02978128      0.00000000      0.00000000      0.00000000
ATVX     1  Mu1.0004  Se1.029                       0.00838536     -0.00000000      0.00000000     -0.00000000
ATVX     1  Mu1.0005  Se1.029                       0.07438491      0.00000000     -0.00000000     -0.00000000
ATVX     1  Mu1.0006  Se1.029                       0.07438492      0.00000000     -0.00000000     -0.00000000
ATVX     1  Mu1.0001  Se1.030                       0.11654968     -0.00000000      0.00000000     -0.00000000
ATVX     1  Mu1.0002  Se1.030                       0.13354928     -0.00000000      0.00000000     -0.00000000
ATVX     1  Mu1.0003  Se1.030                       0.13355454     -0.00000000      0.00000000     -0.00000000
ATVX     1  Mu1.0004  Se1.030                       0.17172118      0.00000000     -0.00000000     -0.00000000
ATVX     1  Mu1.0005  Se1.030                       0.23772073     -0.00000000      0.00000000     -0.00000000
ATVX     1  Mu1.0006  Se1.030                       0.23772074     -0.00000000      0.00000000     -0.00000000
ATVX     1  Mu1.0214  Se1.031                       2.19478152      0.06348529     -0.03014390     -0.00191369
ATVX     1  Mu1.0274  Se1.031                       2.29350629     -0.06497604      0.02876632     -0.00186912
ATVX     1  Mu1.0215  Se1.032                       2.19478155      0.06348527     -0.03014389     -0.00191369
ATVX     1  Mu1.0275  Se1.032                       2.29350634     -0.06497603      0.02876632     -0.00186912
AIVX     1  Mu1.0148  In1.011 Se1.033               3.39664316      0.08507166     -0.02520870     -0.00214455
AIVX     1  Mu1.0169  In1.009 Se1.034               6.56423065     -0.17836405      0.02717231     -0.00484656
AIVX     1  Mu1.0169  In1.010 Se1.035               6.56423259     -0.17836531      0.02717250     -0.00484663
AIVX     1  Mu1.0027  In1.011 Se1.037               3.47280110     -0.11632974      0.03212514     -0.00373711
AIVX     1  Mu1.0028  In1.011 Se1.037               3.47280110      0.09111352     -0.02516153     -0.00229256
AIVX     1  Mu1.0057  In1.011 Se1.038               3.72275253      0.14769344     -0.03813314     -0.00563201
AIVX     1  Mu1.0031  In1.011 Se1.041               3.52147225      0.09857441     -0.02679170     -0.00264098
BVATM    1  Mu1.0001  Se1.032 Se1.031               1.96707721     -0.07151991      0.03665857     -0.00262182
BVATM    1  Mu1.0001  Se1.038 Se1.037               5.01103290      0.12966398     -0.02587571     -0.00335515
BJATP    1  Mu1.0002  In1.011 Se1.033 Se1.031       2.96176156     -0.08222680      0.02762796     -0.00227176
BJATP    1  Mu1.0001  In1.011 Se1.033 Se1.032       2.96176158     -0.08222680      0.02762796     -0.00227176
BJATM    1  Mu1.0002  In1.011 Se1.033 Se1.031       2.96176156      0.07796629     -0.02820760     -0.00219924
BJATM    1  Mu1.0001  In1.011 Se1.033 Se1.032       2.96176158      0.07796629     -0.02820760     -0.00219924
BJAIP    1  Se1.033 In1.011 Se1.033 In1.011         3.95640314      0.12077262     -0.03263709     -0.00394167
--
 
   (Skipping property calculation,
    use PROP keyword to activate)
--
 
  Total CASPT2 energies:
::    CASPT2 Root  1     Total energy:  -1345.82926096
 
  A NEW JOBIPH FILE NAMED 'JOBMIX' IS PREPARED.
********************************************************************************
--- Stop Module: caspt2 at Wed Dec 18 03:05:18 2024 /rc=_RC_ALL_IS_WELL_ ---
*** files: xmldump
    saved to directory /home/grierjones/DDCASPT2/iron_oxo_DDCASPT2/cluster/4.58
--- Module caspt2 spent 5 minutes 30 seconds ---

>>> EXPORT i = B

>>> EXPORT j = P

>>> IF (-FILE GMJ_e2_${i}_${j}.csv)

>>> COPY /tmp/4.58/GMJ_RHS_B_P.csv /home/grierjones/DDCASPT2/iron_oxo_DDCASPT2/cluster/4.58/GMJ_RHS_B_P.csv

>>> COPY /tmp/4.58/GMJ_IVECW_B_P.csv /home/grierjones/DDCASPT2/iron_oxo_DDCASPT2/cluster/4.58/GMJ_IVECW_B_P.csv

>>> COPY /tmp/4.58/GMJ_IVECX_B_P.csv /home/grierjones/DDCASPT2/iron_oxo_DDCASPT2/cluster/4.58/GMJ_IVECX_B_P.csv

>>> COPY /tmp/4.58/GMJ_IVECC2_B_P.csv /home/grierjones/DDCASPT2/iron_oxo_DDCASPT2/cluster/4.58/GMJ_IVECC2_B_P.csv

>>> COPY /tmp/4.58/GMJ_e2_B_P.csv /home/grierjones/DDCASPT2/iron_oxo_DDCASPT2/cluster/4.58/GMJ_e2_B_P.csv

>>> END FOREACH

>>> EXPORT j = M

>>> IF (-FILE GMJ_e2_${i}_${j}.csv)

>>> COPY /tmp/4.58/GMJ_RHS_B_M.csv /home/grierjones/DDCASPT2/iron_oxo_DDCASPT2/cluster/4.58/GMJ_RHS_B_M.csv

>>> COPY /tmp/4.58/GMJ_IVECW_B_M.csv /home/grierjones/DDCASPT2/iron_oxo_DDCASPT2/cluster/4.58/GMJ_IVECW_B_M.csv

>>> COPY /tmp/4.58/GMJ_IVECX_B_M.csv /home/grierjones/DDCASPT2/iron_oxo_DDCASPT2/cluster/4.58/GMJ_IVECX_B_M.csv

>>> COPY /tmp/4.58/GMJ_IVECC2_B_M.csv /home/grierjones/DDCASPT2/iron_oxo_DDCASPT2/cluster/4.58/GMJ_IVECC2_B_M.csv

>>> COPY /tmp/4.58/GMJ_e2_B_M.csv /home/grierjones/DDCASPT2/iron_oxo_DDCASPT2/cluster/4.58/GMJ_e2_B_M.csv

>>> END FOREACH

>>> END FOREACH

>>> EXPORT i = E

>>> EXPORT j = P

>>> IF (-FILE GMJ_e2_${i}_${j}.csv)

>>> COPY /tmp/4.58/GMJ_RHS_E_P.csv /home/grierjones/DDCASPT2/iron_oxo_DDCASPT2/cluster/4.58/GMJ_RHS_E_P.csv

>>> COPY /tmp/4.58/GMJ_IVECW_E_P.csv /home/grierjones/DDCASPT2/iron_oxo_DDCASPT2/cluster/4.58/GMJ_IVECW_E_P.csv

>>> COPY /tmp/4.58/GMJ_IVECX_E_P.csv /home/grierjones/DDCASPT2/iron_oxo_DDCASPT2/cluster/4.58/GMJ_IVECX_E_P.csv

>>> COPY /tmp/4.58/GMJ_IVECC2_E_P.csv /home/grierjones/DDCASPT2/iron_oxo_DDCASPT2/cluster/4.58/GMJ_IVECC2_E_P.csv

>>> COPY /tmp/4.58/GMJ_e2_E_P.csv /home/grierjones/DDCASPT2/iron_oxo_DDCASPT2/cluster/4.58/GMJ_e2_E_P.csv

>>> END FOREACH

>>> EXPORT j = M

>>> IF (-FILE GMJ_e2_${i}_${j}.csv)

>>> COPY /tmp/4.58/GMJ_RHS_E_M.csv /home/grierjones/DDCASPT2/iron_oxo_DDCASPT2/cluster/4.58/GMJ_RHS_E_M.csv

>>> COPY /tmp/4.58/GMJ_IVECW_E_M.csv /home/grierjones/DDCASPT2/iron_oxo_DDCASPT2/cluster/4.58/GMJ_IVECW_E_M.csv

>>> COPY /tmp/4.58/GMJ_IVECX_E_M.csv /home/grierjones/DDCASPT2/iron_oxo_DDCASPT2/cluster/4.58/GMJ_IVECX_E_M.csv

>>> COPY /tmp/4.58/GMJ_IVECC2_E_M.csv /home/grierjones/DDCASPT2/iron_oxo_DDCASPT2/cluster/4.58/GMJ_IVECC2_E_M.csv

>>> COPY /tmp/4.58/GMJ_e2_E_M.csv /home/grierjones/DDCASPT2/iron_oxo_DDCASPT2/cluster/4.58/GMJ_e2_E_M.csv

>>> END FOREACH

>>> END FOREACH

>>> EXPORT i = F

>>> EXPORT j = P

>>> IF (-FILE GMJ_e2_${i}_${j}.csv)

>>> COPY /tmp/4.58/GMJ_RHS_F_P.csv /home/grierjones/DDCASPT2/iron_oxo_DDCASPT2/cluster/4.58/GMJ_RHS_F_P.csv

>>> COPY /tmp/4.58/GMJ_IVECW_F_P.csv /home/grierjones/DDCASPT2/iron_oxo_DDCASPT2/cluster/4.58/GMJ_IVECW_F_P.csv

>>> COPY /tmp/4.58/GMJ_IVECX_F_P.csv /home/grierjones/DDCASPT2/iron_oxo_DDCASPT2/cluster/4.58/GMJ_IVECX_F_P.csv

>>> COPY /tmp/4.58/GMJ_IVECC2_F_P.csv /home/grierjones/DDCASPT2/iron_oxo_DDCASPT2/cluster/4.58/GMJ_IVECC2_F_P.csv

>>> COPY /tmp/4.58/GMJ_e2_F_P.csv /home/grierjones/DDCASPT2/iron_oxo_DDCASPT2/cluster/4.58/GMJ_e2_F_P.csv

>>> END FOREACH

>>> EXPORT j = M

>>> IF (-FILE GMJ_e2_${i}_${j}.csv)

>>> COPY /tmp/4.58/GMJ_RHS_F_M.csv /home/grierjones/DDCASPT2/iron_oxo_DDCASPT2/cluster/4.58/GMJ_RHS_F_M.csv

>>> COPY /tmp/4.58/GMJ_IVECW_F_M.csv /home/grierjones/DDCASPT2/iron_oxo_DDCASPT2/cluster/4.58/GMJ_IVECW_F_M.csv

>>> COPY /tmp/4.58/GMJ_IVECX_F_M.csv /home/grierjones/DDCASPT2/iron_oxo_DDCASPT2/cluster/4.58/GMJ_IVECX_F_M.csv

>>> COPY /tmp/4.58/GMJ_IVECC2_F_M.csv /home/grierjones/DDCASPT2/iron_oxo_DDCASPT2/cluster/4.58/GMJ_IVECC2_F_M.csv

>>> COPY /tmp/4.58/GMJ_e2_F_M.csv /home/grierjones/DDCASPT2/iron_oxo_DDCASPT2/cluster/4.58/GMJ_e2_F_M.csv

>>> END FOREACH

>>> END FOREACH

>>> EXPORT i = G

>>> EXPORT j = P

>>> IF (-FILE GMJ_e2_${i}_${j}.csv)

>>> COPY /tmp/4.58/GMJ_RHS_G_P.csv /home/grierjones/DDCASPT2/iron_oxo_DDCASPT2/cluster/4.58/GMJ_RHS_G_P.csv

>>> COPY /tmp/4.58/GMJ_IVECW_G_P.csv /home/grierjones/DDCASPT2/iron_oxo_DDCASPT2/cluster/4.58/GMJ_IVECW_G_P.csv

>>> COPY /tmp/4.58/GMJ_IVECX_G_P.csv /home/grierjones/DDCASPT2/iron_oxo_DDCASPT2/cluster/4.58/GMJ_IVECX_G_P.csv

>>> COPY /tmp/4.58/GMJ_IVECC2_G_P.csv /home/grierjones/DDCASPT2/iron_oxo_DDCASPT2/cluster/4.58/GMJ_IVECC2_G_P.csv

>>> COPY /tmp/4.58/GMJ_e2_G_P.csv /home/grierjones/DDCASPT2/iron_oxo_DDCASPT2/cluster/4.58/GMJ_e2_G_P.csv

>>> END FOREACH

>>> EXPORT j = M

>>> IF (-FILE GMJ_e2_${i}_${j}.csv)

>>> COPY /tmp/4.58/GMJ_RHS_G_M.csv /home/grierjones/DDCASPT2/iron_oxo_DDCASPT2/cluster/4.58/GMJ_RHS_G_M.csv

>>> COPY /tmp/4.58/GMJ_IVECW_G_M.csv /home/grierjones/DDCASPT2/iron_oxo_DDCASPT2/cluster/4.58/GMJ_IVECW_G_M.csv

>>> COPY /tmp/4.58/GMJ_IVECX_G_M.csv /home/grierjones/DDCASPT2/iron_oxo_DDCASPT2/cluster/4.58/GMJ_IVECX_G_M.csv

>>> COPY /tmp/4.58/GMJ_IVECC2_G_M.csv /home/grierjones/DDCASPT2/iron_oxo_DDCASPT2/cluster/4.58/GMJ_IVECC2_G_M.csv

>>> COPY /tmp/4.58/GMJ_e2_G_M.csv /home/grierjones/DDCASPT2/iron_oxo_DDCASPT2/cluster/4.58/GMJ_e2_G_M.csv

>>> END FOREACH

>>> END FOREACH

>>> EXPORT i = H

>>> EXPORT j = P

>>> IF (-FILE GMJ_e2_${i}_${j}.csv)

>>> COPY /tmp/4.58/GMJ_RHS_H_P.csv /home/grierjones/DDCASPT2/iron_oxo_DDCASPT2/cluster/4.58/GMJ_RHS_H_P.csv

>>> COPY /tmp/4.58/GMJ_IVECW_H_P.csv /home/grierjones/DDCASPT2/iron_oxo_DDCASPT2/cluster/4.58/GMJ_IVECW_H_P.csv

>>> COPY /tmp/4.58/GMJ_IVECX_H_P.csv /home/grierjones/DDCASPT2/iron_oxo_DDCASPT2/cluster/4.58/GMJ_IVECX_H_P.csv

>>> COPY /tmp/4.58/GMJ_IVECC2_H_P.csv /home/grierjones/DDCASPT2/iron_oxo_DDCASPT2/cluster/4.58/GMJ_IVECC2_H_P.csv

>>> COPY /tmp/4.58/GMJ_e2_H_P.csv /home/grierjones/DDCASPT2/iron_oxo_DDCASPT2/cluster/4.58/GMJ_e2_H_P.csv

>>> END FOREACH

>>> EXPORT j = M

>>> IF (-FILE GMJ_e2_${i}_${j}.csv)

>>> COPY /tmp/4.58/GMJ_RHS_H_M.csv /home/grierjones/DDCASPT2/iron_oxo_DDCASPT2/cluster/4.58/GMJ_RHS_H_M.csv

>>> COPY /tmp/4.58/GMJ_IVECW_H_M.csv /home/grierjones/DDCASPT2/iron_oxo_DDCASPT2/cluster/4.58/GMJ_IVECW_H_M.csv

>>> COPY /tmp/4.58/GMJ_IVECX_H_M.csv /home/grierjones/DDCASPT2/iron_oxo_DDCASPT2/cluster/4.58/GMJ_IVECX_H_M.csv

>>> COPY /tmp/4.58/GMJ_IVECC2_H_M.csv /home/grierjones/DDCASPT2/iron_oxo_DDCASPT2/cluster/4.58/GMJ_IVECC2_H_M.csv

>>> COPY /tmp/4.58/GMJ_e2_H_M.csv /home/grierjones/DDCASPT2/iron_oxo_DDCASPT2/cluster/4.58/GMJ_e2_H_M.csv

>>> END FOREACH

>>> END FOREACH

>>> EXPORT i = A

>>> IF (-FILE GMJ_e2_$i.csv)

>>> COPY /tmp/4.58/GMJ_RHS_A.csv /home/grierjones/DDCASPT2/iron_oxo_DDCASPT2/cluster/4.58/GMJ_RHS_A.csv

>>> COPY /tmp/4.58/GMJ_IVECW_A.csv /home/grierjones/DDCASPT2/iron_oxo_DDCASPT2/cluster/4.58/GMJ_IVECW_A.csv

>>> COPY /tmp/4.58/GMJ_IVECX_A.csv /home/grierjones/DDCASPT2/iron_oxo_DDCASPT2/cluster/4.58/GMJ_IVECX_A.csv

>>> COPY /tmp/4.58/GMJ_IVECC2_A.csv /home/grierjones/DDCASPT2/iron_oxo_DDCASPT2/cluster/4.58/GMJ_IVECC2_A.csv

>>> COPY /tmp/4.58/GMJ_e2_A.csv /home/grierjones/DDCASPT2/iron_oxo_DDCASPT2/cluster/4.58/GMJ_e2_A.csv

>>> END FOREACH

>>> EXPORT i = C

>>> IF (-FILE GMJ_e2_$i.csv)

>>> COPY /tmp/4.58/GMJ_RHS_C.csv /home/grierjones/DDCASPT2/iron_oxo_DDCASPT2/cluster/4.58/GMJ_RHS_C.csv

>>> COPY /tmp/4.58/GMJ_IVECW_C.csv /home/grierjones/DDCASPT2/iron_oxo_DDCASPT2/cluster/4.58/GMJ_IVECW_C.csv

>>> COPY /tmp/4.58/GMJ_IVECX_C.csv /home/grierjones/DDCASPT2/iron_oxo_DDCASPT2/cluster/4.58/GMJ_IVECX_C.csv

>>> COPY /tmp/4.58/GMJ_IVECC2_C.csv /home/grierjones/DDCASPT2/iron_oxo_DDCASPT2/cluster/4.58/GMJ_IVECC2_C.csv

>>> COPY /tmp/4.58/GMJ_e2_C.csv /home/grierjones/DDCASPT2/iron_oxo_DDCASPT2/cluster/4.58/GMJ_e2_C.csv

>>> END FOREACH

>>> EXPORT i = D

>>> IF (-FILE GMJ_e2_$i.csv)

>>> COPY /tmp/4.58/GMJ_RHS_D.csv /home/grierjones/DDCASPT2/iron_oxo_DDCASPT2/cluster/4.58/GMJ_RHS_D.csv

>>> COPY /tmp/4.58/GMJ_IVECW_D.csv /home/grierjones/DDCASPT2/iron_oxo_DDCASPT2/cluster/4.58/GMJ_IVECW_D.csv

>>> COPY /tmp/4.58/GMJ_IVECX_D.csv /home/grierjones/DDCASPT2/iron_oxo_DDCASPT2/cluster/4.58/GMJ_IVECX_D.csv

>>> COPY /tmp/4.58/GMJ_IVECC2_D.csv /home/grierjones/DDCASPT2/iron_oxo_DDCASPT2/cluster/4.58/GMJ_IVECC2_D.csv

>>> COPY /tmp/4.58/GMJ_e2_D.csv /home/grierjones/DDCASPT2/iron_oxo_DDCASPT2/cluster/4.58/GMJ_e2_D.csv

>>> END FOREACH

.########################.
.# Non-zero return code #.
.########################.

    Timing: Wall=417.66 User=414.10 System=3.43
************************************
*** WorkDir at /tmp/4.58 cleaned ***
************************************
