[Molden Format]
[N_Atoms]
                     2
[Atoms] (AU)
B1          1      5           0.00000000      0.00000000      0.00000000
O2          2      8           0.00000000      0.00000000      3.40150702
[Charge] (Mulliken)
  0.472282712855897     
 -0.472282712855947     
[GTO] (AU)
   1
   s  14
  3.336021700E+04  1.039699991E-04
  4.972095200E+03  5.254399956E-04
  1.125641700E+03  2.509059979E-03
  3.164913600E+02  1.031887991E-02
  1.020072600E+02  3.636632969E-02
  3.629587300E+01  1.064607991E-01
  1.397141000E+01  2.403999880E-01
  5.741156000E+00  3.748581168E-01
  2.494268000E+00  3.100066974E-01
  1.114202000E+00  7.922455933E-02
  4.215490000E-01 -4.947589958E-03
  1.696330000E-01 -7.737119935E-03
  6.853500000E-02 -1.501079987E-03
  2.398700000E-02 -1.333299989E-04
   s  14
  3.336021700E+04 -2.030000008E-05
  4.972095200E+03 -1.025700004E-04
  1.125641700E+03 -4.911300020E-04
  3.164913600E+02 -2.026570008E-03
  1.020072600E+02 -7.261010030E-03
  3.629587300E+01 -2.197722009E-02
  1.397141000E+01 -5.408428022E-02
  5.741156000E+00 -1.022402604E-01
  2.494268000E+00 -1.423595206E-01
  1.114202000E+00 -4.658690019E-02
  4.215490000E-01  3.799402916E-01
  1.696330000E-01  5.890463624E-01
  6.853500000E-02  1.749075107E-01
  2.398700000E-02 -1.142030005E-03
   p   9
  5.500000000E+01  1.229800005E-03
  1.336610100E+01  8.827380035E-03
  4.135394000E+00  3.843340015E-02
  1.481256000E+00  1.150031805E-01
  6.021360000E-01  2.733674011E-01
  2.556360000E-01  4.061972116E-01
  1.111510000E-01  3.014967912E-01
  4.764800000E-02  7.684809030E-02
  1.667700000E-02 -8.170000032E-06
 
   2
   s  14
  1.053749500E+05  1.238600013E-04
  1.567924000E+04  5.120100053E-04
  3.534544700E+03  2.152910022E-03
  9.873651600E+02  8.528440089E-03
  3.159787500E+02  3.018049031E-02
  1.116542800E+02  9.099702095E-02
  4.269945100E+01  2.177936423E-01
  1.739559600E+01  3.686245738E-01
  7.438309000E+00  3.366707335E-01
  3.222862000E+00  9.657630101E-02
  1.253877000E+00  2.144520022E-03
  4.951550000E-01  1.194350012E-03
  1.916650000E-01  5.390200056E-04
  6.708300000E-02  2.103400022E-04
   s  14
  1.053749500E+05 -2.815000008E-05
  1.567924000E+04 -1.163000003E-04
  3.534544700E+03 -4.909200013E-04
  9.873651600E+02 -1.946160005E-03
  3.159787500E+02 -7.005300019E-03
  1.116542800E+02 -2.167814006E-02
  4.269945100E+01 -5.641213015E-02
  1.739559600E+01 -1.127053003E-01
  7.438309000E+00 -1.589119704E-01
  3.222862000E+00 -3.355083009E-02
  1.253877000E+00  3.531902810E-01
  4.951550000E-01  5.534199315E-01
  1.916650000E-01  2.301839106E-01
  6.708300000E-02  1.127267003E-02
   p   9
  2.000000000E+02  9.173000030E-04
  4.653336700E+01  7.377140024E-03
  1.462180900E+01  3.483515011E-02
  5.313064000E+00  1.144397004E-01
  2.102525000E+00  2.554966408E-01
  8.502230000E-01  3.722557412E-01
  3.375970000E-01  3.323314911E-01
  1.288920000E-01  1.400847905E-01
  4.511200000E-02  2.395784008E-02
 
[MO]
Sym=     1a  
Ene=   -20.4900
Spin= Alpha
Occup=    1.00000
   1        -0.00005002
   2        -0.00046073
   3         0.00000000
   4        -0.00000000
   5        -0.00045668
   6         1.00002363
   7         0.00129043
   8        -0.00000000
   9         0.00000000
  10        -0.00054871
Sym=     1a  
Ene=   -20.4650
Spin= Beta
Occup=    1.00000
   1        -0.00004382
   2        -0.00032988
   3         0.00000000
   4         0.00000000
   5        -0.00034396
   6         1.00001776
   7        -0.00028885
   8        -0.00000000
   9         0.00000000
  10        -0.00061614
Sym=     2a  
Ene=    -7.8235
Spin= Alpha
Occup=    1.00000
   1         0.99989140
   2         0.01368349
   3        -0.00000000
   4        -0.00000000
   5         0.00045832
   6        -0.00006129
   7         0.00005105
   8        -0.00000000
   9         0.00000000
  10        -0.00042116
Sym=     2a  
Ene=    -7.8229
Spin= Beta
Occup=    1.00000
   1         0.99991917
   2         0.01286399
   3         0.00000000
   4         0.00000000
   5         0.00108192
   6        -0.00006125
   7        -0.00013341
   8        -0.00000000
   9         0.00000000
  10         0.00002938
Sym=     3a  
Ene=    -1.2273
Spin= Alpha
Occup=    1.00000
   1        -0.01270844
   2         0.08574702
   3        -0.00000000
   4         0.00000000
   5         0.07019613
   6        -0.00501860
   7         0.95302097
   8        -0.00000000
   9         0.00000000
  10        -0.01782351
Sym=     3a  
Ene=    -1.1173
Spin= Beta
Occup=    1.00000
   1        -0.01486489
   2         0.12189634
   3         0.00000000
   4         0.00000000
   5         0.06858019
   6        -0.00414336
   7         0.93647480
   8        -0.00000000
   9         0.00000000
  10        -0.07990720
Sym=     4a  
Ene=    -0.6283
Spin= Alpha
Occup=    1.00000
   1         0.02644891
   2        -0.70063949
   3         0.00000000
   4        -0.00000000
   5         0.00519396
   6         0.01209925
   7         0.23456785
   8        -0.00000000
   9         0.00000000
  10         0.57006278
Sym=     4a  
Ene=    -0.5250
Spin= Beta
Occup=    1.00000
   1         0.01284357
   2        -0.96872600
   3        -0.00000000
   4         0.00000000
   5        -0.03810364
   6         0.01845964
   7         0.36573703
   8         0.00000000
   9        -0.00000000
  10         0.13368297
Sym=     5a  
Ene=    -0.4746
Spin= Alpha
Occup=    1.00000
   1         0.01176062
   2         0.60656167
   3        -0.00000000
   4         0.00000000
   5        -0.54884595
   6         0.00903220
   7         0.06796481
   8        -0.00000000
   9         0.00000000
  10         0.60326153
Sym=     5a  
Ene=    -0.4195
Spin= Beta
Occup=    1.00000
   1        -0.00000000
   2        -0.00000000
   3        -0.12766934
   4         0.21210520
   5         0.00000000
   6         0.00000000
   7         0.00000000
   8        -0.48001600
   9         0.79748112
  10        -0.00000000
Sym=     6a  
Ene=    -0.4665
Spin= Alpha
Occup=    1.00000
   1        -0.00000000
   2        -0.00000000
   3        -0.03722131
   4         0.16974973
   5         0.00000000
   6        -0.00000000
   7        -0.00000000
   8        -0.20516414
   9         0.93566182
  10        -0.00000000
Sym=     6a  
Ene=    -0.4195
Spin= Beta
Occup=    1.00000
   1         0.00000000
   2         0.00000000
   3         0.21210520
   4         0.12766934
   5        -0.00000000
   6        -0.00000000
   7        -0.00000000
   8         0.79748112
   9         0.48001600
  10         0.00000000
Sym=     7a  
Ene=    -0.4665
Spin= Alpha
Occup=    1.00000
   1         0.00000000
   2         0.00000000
   3         0.16974973
   4         0.03722131
   5        -0.00000000
   6         0.00000000
   7         0.00000000
   8         0.93566182
   9         0.20516414
  10         0.00000000
Sym=     7a  
Ene=     0.0339
Spin= Beta
Occup=    0.00000
   1         0.01084335
   2         0.20499233
   3        -0.00000000
   4         0.00000000
   5        -0.80021560
   6         0.02503862
   7         0.30863428
   8        -0.00000000
   9        -0.00000000
  10         0.47952122
Sym=     8a  
Ene=     0.0534
Spin= Alpha
Occup=    0.00000
   1         0.00000000
   2        -0.00000000
   3         0.32497549
   4         0.94309966
   5         0.00000000
   6        -0.00000000
   7        -0.00000000
   8        -0.10691013
   9        -0.31026003
  10        -0.00000000
Sym=     8a  
Ene=     0.0529
Spin= Beta
Occup=    0.00000
   1        -0.00000000
   2        -0.00000000
   3         0.36045369
   4         0.91325325
   5         0.00000000
   6        -0.00000000
   7        -0.00000000
   8        -0.14632573
   9        -0.37073402
  10        -0.00000000
Sym=     9a  
Ene=     0.0534
Spin= Alpha
Occup=    0.00000
   1         0.00000000
   2        -0.00000000
   3        -0.94309966
   4         0.32497549
   5        -0.00000000
   6         0.00000000
   7         0.00000000
   8         0.31026003
   9        -0.10691013
  10         0.00000000
Sym=     9a  
Ene=     0.0529
Spin= Beta
Occup=    0.00000
   1        -0.00000000
   2        -0.00000000
   3        -0.91325325
   4         0.36045369
   5         0.00000000
   6        -0.00000000
   7        -0.00000000
   8         0.37073402
   9        -0.14632573
  10        -0.00000000
Sym=    10a  
Ene=     0.2323
Spin= Alpha
Occup=    0.00000
   1         0.02104406
   2         0.52683623
   3        -0.00000000
   4         0.00000000
   5         0.95375005
   6        -0.04257531
   7        -0.48469561
   8         0.00000000
   9        -0.00000000
  10         0.68323575
Sym=    10a  
Ene=     0.3907
Spin= Beta
Occup=    0.00000
   1         0.02971838
   2         0.38526995
   3         0.00000000
   4        -0.00000000
   5         0.75453595
   6        -0.03305582
   7        -0.31115577
   8        -0.00000000
   9         0.00000000
  10         0.94964626
