   This run of MOLCAS is using the pymolcas driver

                             OPE
                             OPE          NMOL  CASOP  ENMOLC A   SO
                 OPE        NMOLC        AS  OP EN  MO LC     AS  OP
                OPENM       OL CA        SO  PE NM  OL CA     SOP EN
                OP EN      MO   LC       AS  OP ENMOL  CASO   PENMOL
                OP  EN     MO   LC       AS  OP EN     MO     LC ASO
               OP   E  NMOL  C  AS       OP  EN MO     LC     AS  OP
               OP  E   NMO   LC AS        OPEN  MO     LCASOP EN   M
               O  PEN   MO  LCA  SO
            OPE   NMO   L   CAS    OP
        OPENMOL  CASOP     ENMOL   CASOPE
     OPENMOLCA   SOPENMOLCASOPEN   MOLCASOPE
    OPENMOLCAS   OP           EN   MOL    CAS
    OPENMOLCAS       OP  ENM        O     LCA
    OPENMOLCAS    OPEN  MOLCASO     P  E  NMO
    OPENMOLCAS     OP               E  N  MOL
    OPENMOLCA   SO           PENM   O  L  CAS    OPEN    MO    LCAS
    OPENMOLCA   SOP           ENM   O  L  CAS   OP  EN  MOLC  AS   O
    OPENMOLCA   SOPE           NM      O  LCA   S      OP  EN MO
    OPENMOLC                AS         O  PEN   M      OL  CA  SOPE
    OPENMO        LCASOPE  NMOL        C  ASO   P      ENMOLC     AS
    OPE     NMO      LCA  SO     P     E   NM   OL  CA SO  PE N   MO
          OPENMOLCA            SOPE   NMO        LCAS  O    P  ENMO
     OPENMOLCASOPENMOLCASOPENMOLCASOPENMOLCA
        OPENMOLCASOPENMOLCASOPENMOLCASOPE
            OPENMOLCASOPENMOLCASOPENM
               OPENMOLCASOPENMOLCA        version: 1d1d16313-dirty
                   OPENMOLCASO
                       OPE                tag:

 OpenMolcas is free software; you can redistribute it and/or modify it
 under the terms of the GNU Lesser General Public License version 2.1.
 OpenMolcas is distributed in the hope that it will be useful, but it
 is provided "as is" and without any express or implied warranties.
 For more details see the full text of the license in the file
 LICENSE or in <http://www.gnu.org/licenses/>.

                 Copyright (C) The OpenMolcas Authors
           For the author list and the recommended citation,
                   consult the file CONTRIBUTORS.md

           *************************************************
           * pymolcas version py2.28                       *
           *   build c4a6d18ded8cb6cad61d2372a9abd97c      *
           *   (after the EMIL interpreter by V. Veryazov) *
           *************************************************

configuration info
------------------
C Compiler ID: IntelLLVM
C flags: -std=gnu99
Fortran Compiler ID: IntelLLVM
Fortran flags: -standard-semantics -fltconsistency -fpp -i8 -heap-arrays
Definitions: _MOLCAS_;_I8_;_LINUX_
Parallel: OFF (GA=OFF)


   -------------------------------------------------------------------------------
  |
  |              Project: 5.77
  |       Submitted from: /home/grierjones/DDCASPT2/iron_oxo_DDCASPT2/cluster/5.77
  |         Scratch area: /tmp/5.77
  |      Save outputs to: /home/grierjones/DDCASPT2/iron_oxo_DDCASPT2/cluster/5.77
  |               Molcas: /home/grierjones/Test/build
  |
  | Scratch area is empty
  |
  |       MOLCAS_DRIVER = /usr/local/pymolcas
  | MOLCAS_KEEP_WORKDIR = NO
  |  MOLCAS_NEW_WORKDIR = YES
  |       MOLCAS_NPROCS = 1
  |        MOLCAS_PRINT = NORMAL
  |       MOLCAS_SOURCE = /home/grierjones/Test
  |    MOLCAS_STRUCTURE = 0
  |
   -------------------------------------------------------------------------------

++ ---------   Input file   ---------

&GATEWAY
coord=5.77.xyz
Basis = ANO-RCC-VDZP
Group = nosymm
Expert
End of Input

&SEWARD
End of Input

&SCF
UHF
charge
2
spin
5
FileOrb
/home/grierjones/DDCASPT2/iron_oxo_DDCASPT2/cluster/5.76/5.76.UhfOrb

>>> COPY $WorkDir/5.77.scf.h5 $CurrDir/

&RASSCF
Title= RASSCF
FileOrb
/home/grierjones/DDCASPT2/iron_oxo_DDCASPT2/cluster/5.76/5.76.RasOrb
NACTEL
10 0 0
RAS2
14
Symmetry
1
Spin
5
charge
2
orblisting
all
ITERation
300 200

>>> COPY $WorkDir/5.77.rasscf.h5 $CurrDir/

>>> COPY $WorkDir/GMJ_Fock_MO.csv $CurrDir/5.77.GMJ_Fock_MO.csv

>>> COPY $WorkDir/GMJ_PT2_Fock_MO.csv $CurrDir/5.77.GMJ_PT2_Fock_MO.csv

&MOTRA
Frozen=0
LUMORB

>>> COPY $WorkDir/GMJ_one_int_indx.csv $CurrDir/5.77.GMJ_one_int_indx.csv

>>> COPY $WorkDir/GMJ_one_int.csv $CurrDir/5.77.GMJ_one_int.csv

>>> COPY $WorkDir/GMJ_two_int_indx.csv $CurrDir/5.77.GMJ_two_int_indx.csv

>>> COPY $WorkDir/GMJ_two_int.csv $CurrDir/5.77.GMJ_two_int.csv

&CASPT2
Frozen
0
MAXITER
50

>>> FOREACH i IN (B,E,F,G,H)

  >>> FOREACH j IN (P,M)

    >>> IF (-FILE GMJ_e2_${i}_${j}.csv)

      >>> COPY $WorkDir/GMJ_RHS_${i}_${j}.csv $CurrDir/GMJ_RHS_${i}_${j}.csv

      >>> COPY $WorkDir/GMJ_IVECW_${i}_${j}.csv $CurrDir/GMJ_IVECW_${i}_${j}.csv

      >>> COPY $WorkDir/GMJ_IVECX_${i}_${j}.csv $CurrDir/GMJ_IVECX_${i}_${j}.csv

      >>> COPY $WorkDir/GMJ_IVECC2_${i}_${j}.csv $CurrDir/GMJ_IVECC2_${i}_${j}.csv

      >>> COPY $WorkDir/GMJ_e2_${i}_${j}.csv $CurrDir/GMJ_e2_${i}_${j}.csv

    >>> END IF

  >>> END FOREACH

>>> END FOREACH

>>> FOREACH i IN (A,C,D)

  >>> IF (-FILE GMJ_e2_$i.csv)

    >>> COPY $WorkDir/GMJ_RHS_$i.csv $CurrDir/GMJ_RHS_$i.csv

    >>> COPY $WorkDir/GMJ_IVECW_$i.csv $CurrDir/GMJ_IVECW_$i.csv

    >>> COPY $WorkDir/GMJ_IVECX_$i.csv $CurrDir/GMJ_IVECX_$i.csv

    >>> COPY $WorkDir/GMJ_IVECC2_$i.csv $CurrDir/GMJ_IVECC2_$i.csv

    >>> COPY $WorkDir/GMJ_e2_$i.csv $CurrDir/GMJ_e2_$i.csv

  >>> END IF

>>> END FOREACH

-- ----------------------------------

--- Start Module: gateway at Thu Jan 23 07:01:53 2025 ---
 
()()()()()()()()()()()()()()()()()()()()()()()()()()()()()()()()()()()()()()()()()()()()()()()()()()

                                              &GATEWAY

                                   only a single process is used
                       available to each process: 2.0 GB of memory, 1 thread?
()()()()()()()()()()()()()()()()()()()()()()()()()()()()()()()()()()()()()()()()()()()()()()()()()()
 
 ###############################################################################
 ###############################################################################
 ###                                                                         ###
 ###                                                                         ###
 ###                                                                         ###
 ###    WARNING: EXPERT option is ON!                                        ###
 ###                                                                         ###
 ###                                                                         ###
 ###############################################################################
 ###############################################################################
 
++    Symmetry information:
      ---------------------
 
                    Character Table for C1 
 
                             E  
                    a        1  x, y, xy, Rz, z, xz, Ry, yz, Rx, I
--
 
 
++    Basis set information:
      ----------------------
 
 
      Basis set label: O.ANO-RCC...3S2P1D.
 
      Electronic valence basis set:
      ------------------
      Associated Effective Charge   8.000000 au
      Associated Actual Charge      8.000000 au
      Nuclear Model: Point charge
 
      Shell  nPrim  nBasis  Cartesian Spherical Contaminant
         s      14       3        X                  
         p       9       2        X                  
         d       4       1                 X         
 
 
      Basis set label: FE.ANO-RCC...5S4P2D1F.
 
      Electronic valence basis set:
      ------------------
      Associated Effective Charge  26.000000 au
      Associated Actual Charge     26.000000 au
      Nuclear Model: Point charge
 
      Shell  nPrim  nBasis  Cartesian Spherical Contaminant
         s      21       5        X                  
         p      15       4        X                  
         d      10       2                 X         
         f       6       1                 X         
--
 
 
++    Molecular structure info:
      -------------------------
 
                    ************************************************ 
                    **** Cartesian Coordinates / Bohr, Angstrom **** 
                    ************************************************ 
 
     Center  Label                x              y              z                     x              y              z
        1      O1               0.000000       0.000000       6.960447              0.000000       0.000000       3.683310
        2      FE2              0.000000       0.000000      -3.936885              0.000000       0.000000      -2.083310
--
 
 
            Nuclear Potential Energy             19.08723998 au
 
 ###############################################################################
 ###############################################################################
 ###                                                                         ###
 ###                                                                         ###
 ###    There were warnings during the execution                             ###
 ###    Please, check the output with care!                                  ###
 ###                                                                         ###
 ###                                                                         ###
 ###############################################################################
 ###############################################################################
--- Stop Module: gateway at Thu Jan 23 07:01:53 2025 /rc=_RC_ALL_IS_WELL_ ---
*** files: xmldump
    saved to directory /home/grierjones/DDCASPT2/iron_oxo_DDCASPT2/cluster/5.77

--- Start Module: seward at Thu Jan 23 07:01:53 2025 ---
 
()()()()()()()()()()()()()()()()()()()()()()()()()()()()()()()()()()()()()()()()()()()()()()()()()()

                                              &SEWARD

                                   only a single process is used
                       available to each process: 2.0 GB of memory, 1 thread?
()()()()()()()()()()()()()()()()()()()()()()()()()()()()()()()()()()()()()()()()()()()()()()()()()()
 
 ###############################################################################
 ###############################################################################
 ###                                                                         ###
 ###                                                                         ###
 ###                                                                         ###
 ###    WARNING: EXPERT option is ON!                                        ###
 ###                                                                         ###
 ###                                                                         ###
 ###############################################################################
 ###############################################################################
               SEWARD will generate:
                  Multipole Moment integrals up to order  2
                  Kinetic Energy integrals
                  Nuclear Attraction integrals (point charge)
                  One-Electron Hamiltonian integrals
                  Velocity integrals
                  Relativistic Douglas-Kroll-Hess integrals:
                    - Parametrization         : EXP
                    - DKH order of Hamiltonian: 2
                    - DKH order of Properties : 0
                         - multipole moment operators
                         - electric potential operators
                         - contact operators
                  Atomic mean-field integrals
                  Two-Electron Repulsion integrals
 
                   Integrals are discarded if absolute value <: 0.10E-13
                   Integral cutoff threshold is set to       <: 0.10E-15
 
            Nuclear Potential Energy             19.08723998 au
 
 
      Basis set specifications :
      Symmetry species         a  
      Basis functions           48
 
 
  Input file to MOLDEN was generated!
 
 ###############################################################################
 ###############################################################################
 ###                                                                         ###
 ###                                                                         ###
 ###    There were warnings during the execution                             ###
 ###    Please, check the output with care!                                  ###
 ###                                                                         ###
 ###                                                                         ###
 ###############################################################################
 ###############################################################################
forrtl: warning (525): IEEE_DIVIDE_BY_ZERO is signaling
forrtl: warning (526): IEEE_INVALID is signaling
forrtl: warning (528): IEEE_UNDERFLOW is signaling
--- Stop Module: seward at Thu Jan 23 07:01:54 2025 /rc=_RC_ALL_IS_WELL_ ---
*** files: 5.77.GssOrb 5.77.guessorb.h5 5.77.guessorb.molden xmldump
    saved to directory /home/grierjones/DDCASPT2/iron_oxo_DDCASPT2/cluster/5.77

*** symbolic link created: INPORB -> 5.77.GssOrb
--- Start Module: scf at Thu Jan 23 07:01:54 2025 ---
 
()()()()()()()()()()()()()()()()()()()()()()()()()()()()()()()()()()()()()()()()()()()()()()()()()()

                                                &SCF

                                   only a single process is used
                       available to each process: 2.0 GB of memory, 1 thread?
()()()()()()()()()()()()()()()()()()()()()()()()()()()()()()()()()()()()()()()()()()()()()()()()()()
 
 *** Possible bug in opening file
 *** isFreeUnit resets the unit number
++    Input section:
      --------------
 
      Header of the integral files:
      
       Integrals generated by seward 4.2.0  , Thu Jan 23 07:01:53 2025
 
 
      Cartesian coordinates in Angstrom:
      -----------------------------------------------------
      No.  Label        X            Y            Z        
      -----------------------------------------------------
       1   O1         0.00000000   0.00000000   3.68331000
       2   FE2        0.00000000   0.00000000  -2.08331000
      -----------------------------------------------------
      Nuclear repulsion energy =   19.08723998
--
 
++    Orbital specifications:
      -----------------------
 
      Symmetry species               1
                                     a
      Frozen orbitals                0
      Occupied orbitals alpha       18
      Occupied orbitals beta        14
      Secondary orbitals alpha      30
      Secondary orbitals beta       34
      Deleted orbitals               0
      Total number of orbitals      48
      Number of basis functions     48
--
 
      Molecular charge                           2.000
 
++    Optimization specifications:
      ----------------------------
 
      SCF Algorithm: Conventional USCF
      D(i)-D(i-1) density differences are used
      Number of density matrices in core                5
      Maximum number of NDDO SCF iterations           400
      Maximum number of HF SCF iterations             400
      Threshold for SCF energy change            0.10E-08
      Threshold for density matrix               0.10E-03
      Threshold for Fock matrix                  0.15E-03
      Threshold for linear dependence            0.10E-08
      Threshold at which DIIS is turned on       0.15E+00
      Threshold at which QNR/C2DIIS is turned on 0.75E-01
      Threshold for Norm(delta) (QNR/C2DIIS)     0.20E-04
      DIIS extrapolation of the SCF procedure
      All orbitals punched on: UHFORB
--
 
      Input vectors read from INPORB
      Orbital file label: * UHF orbitals
 
 
++ Convergence information
                               UHF SCF        iterations: Energy and convergence statistics
 
Iter     Tot. SCF        One-elec.       Two-elec.     Energy      Max Dij or  Max Fij      DNorm      TNorm      AccCon     Time
         Energy          Energy          Energy        Change      Delta Norm                                                in Sec.
 
 The total and one-electron energies are shifted by a value of      1000. a.u.
 
   1  -345.267022354  -886.676868832   522.322606497   0.00E+00    0.97E-05    0.37E-05     0.80E+01   0.18E+03   None         0.
   2  -345.267022354  -886.677000437   522.322738103  -0.20E-09    0.82E-05    0.28E-05     0.36E-04   0.18E+03   EDIIS        0.
 
       Convergence after  2 Macro Iterations
--
 
 *****************************************************************************************************************************
 *                                                                                                                           *
 *                                             SCF/KS-DFT Program, Final results                                             *
 *                                                                                                                           *
 *                                                                                                                           *
 *                                                                                                                           *
 *                                                       Final Results                                                       *
 *                                                                                                                           *
 *****************************************************************************************************************************
 
::    Total SCF energy                              -1345.2670223538
      One-electron energy                           -1886.6770004374
      Two-electron energy                             522.3227381026
      Nuclear repulsion energy                         19.0872399810
      Kinetic energy (interpolated)                  1399.3968064863
      Virial theorem                                    0.9613192028
      Total spin, S(S+1)                                7.0175359349
      Total spin, S                                     2.1958367782
      Max non-diagonal density matrix element           0.0000082368
      Max non-diagonal Fock matrix element              0.0000027802
 
 
      All orbitals with orbital energies smaller than  E(LUMO)+0.5 are printed
 
++    Molecular orbitals:
      -------------------
 
      Title: UHF orbitals (alpha)

      Molecular orbitals for symmetry species 1: a  
 
          Orbital            1         2         3         4         5         6         7         8         9        10    
          Energy         -263.8676  -32.6441  -27.7276  -27.7276  -27.6968  -21.4904   -4.5581   -3.1354   -3.1354   -3.0639
          Occ. No.          1.0000    1.0000    1.0000    1.0000    1.0000    1.0000    1.0000    1.0000    1.0000    1.0000
 
        1 O1     1s         0.0000   -0.0000    0.0000   -0.0000   -0.0000    1.0000    0.0000   -0.0000    0.0000    0.0000
        2 O1     2s         0.0000   -0.0000    0.0000   -0.0000   -0.0000    0.0003    0.0001   -0.0000    0.0000    0.0001
        3 O1     3s        -0.0000   -0.0000    0.0000   -0.0000   -0.0000   -0.0010    0.0001   -0.0000    0.0000    0.0001
        4 O1     2px        0.0000    0.0000   -0.0000   -0.0000    0.0000   -0.0000    0.0000    0.0000    0.0000   -0.0000
        5 O1     3px        0.0000    0.0000   -0.0000   -0.0000    0.0000    0.0000    0.0000    0.0000    0.0000   -0.0000
        6 O1     2py       -0.0000   -0.0000   -0.0000    0.0000   -0.0000    0.0000   -0.0000    0.0000   -0.0000    0.0000
        7 O1     3py       -0.0000   -0.0000   -0.0000    0.0000   -0.0000   -0.0000   -0.0000    0.0000   -0.0000    0.0000
        8 O1     2pz        0.0000    0.0000   -0.0000    0.0000    0.0000   -0.0000   -0.0000    0.0000   -0.0000   -0.0000
        9 O1     3pz        0.0000    0.0000   -0.0000    0.0000    0.0000    0.0000   -0.0001    0.0000   -0.0000   -0.0001
       10 O1     3d2-      -0.0000   -0.0000    0.0000    0.0000    0.0000    0.0000    0.0000   -0.0000    0.0000   -0.0000
       11 O1     3d1-       0.0000    0.0000    0.0000   -0.0000    0.0000    0.0000    0.0000   -0.0000    0.0000   -0.0000
       12 O1     3d0       -0.0000   -0.0000    0.0000   -0.0000   -0.0000   -0.0015    0.0000   -0.0000    0.0000    0.0000
       13 O1     3d1+      -0.0000   -0.0000    0.0000    0.0000   -0.0000   -0.0000   -0.0000   -0.0000   -0.0000    0.0000
       14 O1     3d2+       0.0000    0.0000   -0.0000    0.0000   -0.0000    0.0000    0.0000    0.0000    0.0000    0.0000
       15 FE2    1s         1.0000    0.0000    0.0000   -0.0000   -0.0000    0.0000   -0.0000   -0.0000    0.0000    0.0000
       16 FE2    2s        -0.0000    1.0000    0.0000   -0.0000   -0.0003   -0.0000   -0.0023    0.0000   -0.0000   -0.0000
       17 FE2    3s         0.0000    0.0023    0.0000   -0.0000   -0.0000    0.0000    0.9999    0.0000   -0.0000   -0.0014
       18 FE2    4s        -0.0000   -0.0001   -0.0000    0.0000    0.0000    0.0000    0.0063   -0.0000    0.0000    0.0007
       19 FE2    5s         0.0000    0.0001   -0.0000    0.0000   -0.0000    0.0000   -0.0044    0.0000   -0.0000   -0.0004
       20 FE2    2px       -0.0000   -0.0000    0.4423    0.8969   -0.0000   -0.0000    0.0000   -0.0009   -0.0018    0.0000
       21 FE2    3px        0.0000   -0.0000    0.0009    0.0018   -0.0000    0.0000   -0.0000    0.4658    0.8848   -0.0000
       22 FE2    4px       -0.0000    0.0000   -0.0001   -0.0002    0.0000   -0.0000    0.0000    0.0015    0.0029   -0.0000
       23 FE2    5px        0.0000   -0.0000    0.0003    0.0006   -0.0000   -0.0000   -0.0000   -0.0020   -0.0038    0.0000
       24 FE2    2py        0.0000    0.0000    0.8969   -0.4423    0.0001    0.0000   -0.0000   -0.0018    0.0009   -0.0000
       25 FE2    3py       -0.0000    0.0000    0.0018   -0.0009    0.0000   -0.0000    0.0000    0.8848   -0.4658    0.0001
       26 FE2    4py        0.0000   -0.0000   -0.0002    0.0001   -0.0000    0.0000   -0.0000    0.0029   -0.0015    0.0000
       27 FE2    5py       -0.0000    0.0000    0.0006   -0.0003    0.0000    0.0000    0.0000   -0.0038    0.0020   -0.0000
       28 FE2    2pz        0.0000    0.0003   -0.0001    0.0001    1.0000   -0.0000   -0.0000    0.0000   -0.0000   -0.0016
       29 FE2    3pz       -0.0000    0.0000   -0.0000    0.0000    0.0016    0.0000    0.0014   -0.0001    0.0001    1.0000
       30 FE2    4pz        0.0000   -0.0000    0.0000   -0.0000   -0.0001    0.0000    0.0001   -0.0000    0.0000    0.0057
       31 FE2    5pz       -0.0000    0.0000   -0.0000    0.0000    0.0003    0.0000   -0.0001    0.0000   -0.0000   -0.0057
       32 FE2    3d2-       0.0000    0.0000   -0.0000    0.0000    0.0000    0.0000    0.0000   -0.0000    0.0000    0.0000
       33 FE2    4d2-      -0.0000   -0.0000    0.0000   -0.0000   -0.0000   -0.0000   -0.0000    0.0000   -0.0000   -0.0000
       34 FE2    3d1-      -0.0000   -0.0000    0.0000   -0.0000    0.0000    0.0000   -0.0000    0.0006   -0.0003    0.0000
       35 FE2    4d1-       0.0000    0.0000   -0.0000    0.0000   -0.0000    0.0000    0.0000    0.0001   -0.0000    0.0000
       36 FE2    3d0       -0.0000   -0.0005   -0.0000    0.0000    0.0000    0.0000   -0.0124   -0.0000    0.0000    0.0007
       37 FE2    4d0        0.0000    0.0004    0.0000   -0.0000   -0.0000    0.0000    0.0041   -0.0000    0.0000    0.0002
       38 FE2    3d1+       0.0000    0.0000    0.0000    0.0000   -0.0000   -0.0000    0.0000    0.0003    0.0006   -0.0000
       39 FE2    4d1+      -0.0000   -0.0000   -0.0000   -0.0000    0.0000   -0.0000   -0.0000    0.0000    0.0001   -0.0000
       40 FE2    3d2+       0.0000    0.0000   -0.0000    0.0000   -0.0000   -0.0000    0.0000    0.0000    0.0000   -0.0000
       41 FE2    4d2+      -0.0000   -0.0000    0.0000   -0.0000    0.0000   -0.0000   -0.0000    0.0000   -0.0000    0.0000
       42 FE2    4f3-       0.0000    0.0000   -0.0000    0.0000   -0.0000    0.0000    0.0000   -0.0000    0.0000   -0.0000
       43 FE2    4f2-       0.0000    0.0000    0.0000   -0.0000   -0.0000    0.0000    0.0000   -0.0000   -0.0000   -0.0000
       44 FE2    4f1-      -0.0000   -0.0000   -0.0002    0.0001   -0.0000    0.0000   -0.0000   -0.0071    0.0038   -0.0000
       45 FE2    4f0        0.0000   -0.0000    0.0000   -0.0000   -0.0001    0.0000   -0.0000    0.0000   -0.0000   -0.0018
       46 FE2    4f1+       0.0000    0.0000   -0.0001   -0.0002    0.0000   -0.0000    0.0000   -0.0038   -0.0071    0.0000
       47 FE2    4f2+       0.0000    0.0000    0.0000   -0.0000    0.0000   -0.0000    0.0000    0.0000   -0.0000    0.0000
       48 FE2    4f3+       0.0000    0.0000   -0.0000    0.0000   -0.0000    0.0000    0.0000   -0.0000    0.0000   -0.0000
 
          Orbital           11        12        13        14        15        16        17        18        19        20    
          Energy           -2.0020   -1.3874   -1.3874   -0.8695   -0.8695   -0.8304   -0.7955   -0.7955   -0.5467   -0.3219
          Occ. No.          1.0000    1.0000    1.0000    1.0000    1.0000    1.0000    1.0000    1.0000    0.0000    0.0000
 
        1 O1     1s        -0.0004    0.0000    0.0000   -0.0000    0.0000   -0.0000    0.0000   -0.0000   -0.0000   -0.0006
        2 O1     2s         0.9962    0.0000    0.0000   -0.0000    0.0000   -0.0004    0.0000   -0.0000    0.0052   -0.0059
        3 O1     3s        -0.0712   -0.0000   -0.0000   -0.0000    0.0000   -0.0003    0.0000   -0.0000   -0.0050    0.0035
        4 O1     2px       -0.0000   -0.4025    0.9042   -0.0000    0.0000   -0.0000   -0.0000   -0.0001    0.0000    0.0000
        5 O1     3px        0.0000    0.0581   -0.1306   -0.0000    0.0000    0.0000   -0.0001   -0.0003    0.0000    0.0000
        6 O1     2py        0.0000    0.9042    0.4025   -0.0000   -0.0000    0.0000   -0.0001    0.0000   -0.0001   -0.0000
        7 O1     3py       -0.0000   -0.1306   -0.0581   -0.0000   -0.0000   -0.0000   -0.0003    0.0001   -0.0000   -0.0000
        8 O1     2pz       -0.0058    0.0001    0.0000    0.0000   -0.0000    0.0005   -0.0000    0.0000    0.9945    0.0194
        9 O1     3pz       -0.0002   -0.0000   -0.0000    0.0000   -0.0000    0.0012   -0.0000    0.0000    0.1057   -0.0057
       10 O1     3d2-       0.0000   -0.0000    0.0000   -0.0000    0.0000    0.0000   -0.0000   -0.0000    0.0000   -0.0000
       11 O1     3d1-       0.0000   -0.0016   -0.0007    0.0000    0.0000   -0.0000   -0.0000    0.0000    0.0000   -0.0000
       12 O1     3d0       -0.0509   -0.0000   -0.0000   -0.0000    0.0000   -0.0000   -0.0000    0.0000   -0.0027    0.0007
       13 O1     3d1+      -0.0000    0.0007   -0.0016    0.0000   -0.0000    0.0000   -0.0000   -0.0000   -0.0000    0.0000
       14 O1     3d2+       0.0000   -0.0000   -0.0000    0.0000    0.0000   -0.0000    0.0000    0.0000    0.0000   -0.0000
       15 FE2    1s        -0.0000   -0.0000   -0.0000    0.0000   -0.0000    0.0000   -0.0000    0.0000    0.0000    0.0000
       16 FE2    2s        -0.0000   -0.0000   -0.0000    0.0000   -0.0000    0.0004   -0.0000    0.0000    0.0001    0.0001
       17 FE2    3s        -0.0000   -0.0000   -0.0000    0.0000   -0.0000    0.0124   -0.0000    0.0000    0.0004   -0.0058
       18 FE2    4s        -0.0001   -0.0000   -0.0000    0.0000   -0.0000   -0.0127   -0.0000    0.0000    0.0011    0.9924
       19 FE2    5s        -0.0004   -0.0000   -0.0000   -0.0000    0.0000    0.0073   -0.0000    0.0000    0.0025    0.0709
       20 FE2    2px        0.0000   -0.0000    0.0000   -0.0000    0.0000    0.0000   -0.0000   -0.0000   -0.0000    0.0000
       21 FE2    3px       -0.0000   -0.0000    0.0000   -0.0000    0.0000    0.0000   -0.0003   -0.0007   -0.0000    0.0000
       22 FE2    4px       -0.0000   -0.0002    0.0004    0.0000   -0.0000   -0.0000    0.0033    0.0086   -0.0000    0.0000
       23 FE2    5px       -0.0000   -0.0001    0.0002    0.0000   -0.0000   -0.0000    0.0001    0.0004   -0.0000    0.0000
       24 FE2    2py       -0.0000    0.0000    0.0000   -0.0000   -0.0000   -0.0000   -0.0000    0.0000    0.0000   -0.0000
       25 FE2    3py        0.0000    0.0000    0.0000   -0.0000   -0.0000   -0.0000   -0.0007    0.0003    0.0000   -0.0000
       26 FE2    4py        0.0000    0.0004    0.0002    0.0000    0.0000    0.0000    0.0086   -0.0033    0.0000   -0.0000
       27 FE2    5py        0.0000    0.0002    0.0001    0.0000    0.0000    0.0000    0.0004   -0.0001    0.0000   -0.0000
       28 FE2    2pz       -0.0000   -0.0000   -0.0000   -0.0000    0.0000   -0.0000    0.0000   -0.0000    0.0000    0.0000
       29 FE2    3pz       -0.0000   -0.0000   -0.0000   -0.0000    0.0000   -0.0008    0.0000   -0.0000    0.0003   -0.0011
       30 FE2    4pz       -0.0001   -0.0000   -0.0000    0.0000   -0.0000    0.0106   -0.0000    0.0000    0.0012    0.0951
       31 FE2    5pz       -0.0001   -0.0000   -0.0000   -0.0000   -0.0000    0.0004   -0.0000    0.0000    0.0004    0.0137
       32 FE2    3d2-       0.0000    0.0000   -0.0000   -0.2659    0.9640   -0.0000   -0.0000    0.0001    0.0000    0.0000
       33 FE2    4d2-       0.0000    0.0000   -0.0000   -0.0008    0.0030   -0.0000   -0.0000    0.0000    0.0000    0.0000
       34 FE2    3d1-       0.0000    0.0001    0.0000    0.0000    0.0001    0.0002    0.9347   -0.3544   -0.0000    0.0000
       35 FE2    4d1-       0.0000    0.0002    0.0001    0.0000    0.0000    0.0000    0.0253   -0.0096    0.0000   -0.0000
       36 FE2    3d0       -0.0000   -0.0000   -0.0000    0.0000   -0.0000    0.9996   -0.0001    0.0001    0.0016    0.0113
       37 FE2    4d0       -0.0000   -0.0000   -0.0000    0.0000   -0.0000    0.0155   -0.0000    0.0000    0.0003   -0.0068
       38 FE2    3d1+      -0.0000   -0.0000    0.0001    0.0000   -0.0001   -0.0000    0.3544    0.9347    0.0000   -0.0000
       39 FE2    4d1+      -0.0000   -0.0001    0.0002    0.0000   -0.0000   -0.0000    0.0096    0.0253   -0.0000    0.0000
       40 FE2    3d2+       0.0000    0.0000    0.0000    0.9640    0.2659   -0.0000   -0.0000    0.0000    0.0000   -0.0000
       41 FE2    4d2+      -0.0000    0.0000    0.0000    0.0030    0.0008   -0.0000   -0.0000    0.0000    0.0000    0.0000
       42 FE2    4f3-      -0.0000   -0.0000   -0.0000    0.0000   -0.0000   -0.0000    0.0000    0.0000   -0.0000   -0.0000
       43 FE2    4f2-      -0.0000   -0.0000    0.0000   -0.0002    0.0006   -0.0000   -0.0000    0.0000   -0.0000   -0.0000
       44 FE2    4f1-       0.0000    0.0000    0.0000    0.0000    0.0000    0.0000    0.0007   -0.0003   -0.0000    0.0000
       45 FE2    4f0        0.0000   -0.0000   -0.0000    0.0000   -0.0000    0.0008   -0.0000    0.0000   -0.0000    0.0001
       46 FE2    4f1+      -0.0000   -0.0000    0.0000    0.0000   -0.0000   -0.0000    0.0003    0.0007    0.0000   -0.0000
       47 FE2    4f2+       0.0000   -0.0000    0.0000    0.0006    0.0002   -0.0000   -0.0000    0.0000   -0.0000    0.0000
       48 FE2    4f3+      -0.0000    0.0000   -0.0000   -0.0000   -0.0000   -0.0000   -0.0000   -0.0000   -0.0000   -0.0000
 
          Orbital           21        22        23        24    
          Energy           -0.1742   -0.1742   -0.1673   -0.0863
          Occ. No.          0.0000    0.0000    0.0000    0.0000
 
        1 O1     1s         0.0000    0.0000   -0.0008   -0.0016
        2 O1     2s         0.0000    0.0000   -0.0074   -0.0152
        3 O1     3s        -0.0000   -0.0000    0.0135    0.0318
        4 O1     2px       -0.0004    0.0009    0.0000    0.0000
        5 O1     3px       -0.0053    0.0117    0.0000    0.0000
        6 O1     2py        0.0009    0.0004   -0.0000   -0.0000
        7 O1     3py        0.0117    0.0053   -0.0000   -0.0000
        8 O1     2pz       -0.0000   -0.0000    0.0272    0.0402
        9 O1     3pz        0.0000    0.0000   -0.0402   -0.0648
       10 O1     3d2-       0.0000   -0.0000   -0.0000   -0.0000
       11 O1     3d1-      -0.0003   -0.0001   -0.0000   -0.0000
       12 O1     3d0       -0.0000   -0.0000    0.0016    0.0028
       13 O1     3d1+       0.0001   -0.0003    0.0000    0.0000
       14 O1     3d2+       0.0000    0.0000   -0.0000   -0.0000
       15 FE2    1s         0.0000    0.0000   -0.0000   -0.0000
       16 FE2    2s         0.0000    0.0000   -0.0000   -0.0002
       17 FE2    3s        -0.0000   -0.0000    0.0006    0.0044
       18 FE2    4s         0.0000    0.0000   -0.1045   -0.0663
       19 FE2    5s        -0.0000   -0.0000    0.0791    0.9826
       20 FE2    2px       -0.0001    0.0001   -0.0000   -0.0000
       21 FE2    3px        0.0012   -0.0025    0.0000   -0.0000
       22 FE2    4px       -0.4104    0.9043   -0.0000    0.0000
       23 FE2    5px       -0.0472    0.1041   -0.0000    0.0000
       24 FE2    2py        0.0001    0.0001    0.0000    0.0000
       25 FE2    3py       -0.0025   -0.0012   -0.0000    0.0000
       26 FE2    4py        0.9043    0.4104    0.0001   -0.0000
       27 FE2    5py        0.1041    0.0472    0.0000   -0.0000
       28 FE2    2pz       -0.0000   -0.0000    0.0001   -0.0000
       29 FE2    3pz        0.0000    0.0000   -0.0049    0.0009
       30 FE2    4pz       -0.0001   -0.0000    0.9795   -0.0993
       31 FE2    5pz       -0.0000   -0.0000    0.1197   -0.0064
       32 FE2    3d2-       0.0000   -0.0000   -0.0000   -0.0000
       33 FE2    4d2-       0.0000   -0.0000   -0.0000   -0.0000
       34 FE2    3d1-      -0.0086   -0.0039   -0.0000   -0.0000
       35 FE2    4d1-       0.0079    0.0036    0.0000    0.0000
       36 FE2    3d0        0.0000    0.0000   -0.0127   -0.0076
       37 FE2    4d0       -0.0000   -0.0000    0.0151    0.0153
       38 FE2    3d1+       0.0039   -0.0086    0.0000    0.0000
       39 FE2    4d1+      -0.0036    0.0079   -0.0000   -0.0000
       40 FE2    3d2+       0.0000    0.0000    0.0000    0.0000
       41 FE2    4d2+       0.0000    0.0000   -0.0000   -0.0000
       42 FE2    4f3-       0.0000   -0.0000    0.0000    0.0000
       43 FE2    4f2-      -0.0000    0.0000    0.0000    0.0000
       44 FE2    4f1-      -0.0000   -0.0000   -0.0000   -0.0000
       45 FE2    4f0        0.0000    0.0000   -0.0003    0.0000
       46 FE2    4f1+       0.0000   -0.0000    0.0000    0.0000
       47 FE2    4f2+       0.0000    0.0000    0.0000   -0.0000
       48 FE2    4f3+       0.0000   -0.0000    0.0000    0.0000
--
 
 
  Input file to MOLDEN was generated!
 
 
++    Static properties:
      ------------------
 
 
      LoProp Charges per center
 

                   O1       FE2   
      Nuclear      8.0000  26.0000
      Electronic  -6.9999 -25.0001
 
      Total        1.0001   0.9999
--
 
 
      All orbitals with orbital energies smaller than  E(LUMO)+0.5 are printed
 
++    Molecular orbitals:
      -------------------
 
      Title: UHF orbitals (beta)

      Molecular orbitals for symmetry species 1: a  
 
          Orbital            1         2         3         4         5         6         7         8         9        10    
          Energy         -263.8662  -32.5593  -27.6332  -27.6332  -27.6326  -21.4434   -4.3066   -2.8400   -2.7906   -2.7906
          Occ. No.          1.0000    1.0000    1.0000    1.0000    1.0000    1.0000    1.0000    1.0000    1.0000    1.0000
 
        1 O1     1s         0.0000    0.0000   -0.0000    0.0000    0.0000    1.0000    0.0000    0.0000    0.0000   -0.0000
        2 O1     2s         0.0000    0.0000   -0.0000    0.0000    0.0000   -0.0019    0.0001    0.0001    0.0000   -0.0000
        3 O1     3s        -0.0000    0.0000   -0.0000    0.0000    0.0000    0.0002    0.0002    0.0001    0.0000   -0.0000
        4 O1     2px        0.0000    0.0000    0.0000    0.0000   -0.0000    0.0000    0.0000   -0.0000    0.0000    0.0000
        5 O1     3px        0.0000    0.0000    0.0000    0.0000   -0.0000   -0.0000    0.0000   -0.0000    0.0001    0.0000
        6 O1     2py       -0.0000   -0.0000    0.0000   -0.0000    0.0000   -0.0000   -0.0000    0.0000   -0.0000    0.0000
        7 O1     3py       -0.0000   -0.0000    0.0000   -0.0000    0.0000    0.0000   -0.0000    0.0000   -0.0000    0.0001
        8 O1     2pz        0.0000   -0.0000    0.0000   -0.0000   -0.0000   -0.0000   -0.0001   -0.0001   -0.0000    0.0000
        9 O1     3pz        0.0000   -0.0000    0.0000   -0.0000   -0.0000   -0.0000   -0.0003   -0.0001   -0.0000    0.0000
       10 O1     3d2-      -0.0000   -0.0000    0.0000   -0.0000    0.0000   -0.0000    0.0000   -0.0000    0.0000    0.0000
       11 O1     3d1-       0.0000    0.0000   -0.0000    0.0000   -0.0000   -0.0000    0.0000   -0.0000    0.0000   -0.0000
       12 O1     3d0       -0.0000    0.0000   -0.0000    0.0000    0.0000    0.0015    0.0000    0.0000    0.0000   -0.0000
       13 O1     3d1+      -0.0000   -0.0000   -0.0000   -0.0000    0.0000    0.0000   -0.0000    0.0000   -0.0000   -0.0000
       14 O1     3d2+       0.0000    0.0000   -0.0000   -0.0000   -0.0000   -0.0000    0.0000   -0.0000    0.0000   -0.0000
       15 FE2    1s         1.0000    0.0000    0.0000   -0.0000   -0.0000   -0.0000   -0.0000    0.0000    0.0000   -0.0000
       16 FE2    2s        -0.0000    1.0000    0.0000   -0.0000   -0.0003   -0.0000    0.0002   -0.0000   -0.0000    0.0000
       17 FE2    3s         0.0000   -0.0002   -0.0000    0.0000    0.0000   -0.0000    1.0000   -0.0015   -0.0000    0.0000
       18 FE2    4s        -0.0000    0.0001   -0.0000    0.0000    0.0000   -0.0000    0.0076    0.0007    0.0000   -0.0000
       19 FE2    5s         0.0000   -0.0002    0.0000   -0.0000   -0.0000   -0.0000   -0.0057   -0.0004   -0.0000    0.0000
       20 FE2    2px       -0.0000   -0.0000    0.1373    0.9905   -0.0000    0.0000   -0.0000   -0.0000    0.0016    0.0010
       21 FE2    3px        0.0000    0.0000   -0.0003   -0.0019    0.0000   -0.0000   -0.0000   -0.0000    0.8541    0.5197
       22 FE2    4px       -0.0000   -0.0000    0.0000    0.0003   -0.0000    0.0000   -0.0000   -0.0000    0.0069    0.0042
       23 FE2    5px        0.0000   -0.0000   -0.0001   -0.0008    0.0000    0.0000   -0.0000    0.0000   -0.0076   -0.0046
       24 FE2    2py        0.0000    0.0000    0.9905   -0.1373    0.0002   -0.0000    0.0000    0.0000   -0.0010    0.0016
       25 FE2    3py       -0.0000   -0.0000   -0.0019    0.0003   -0.0000    0.0000    0.0000    0.0001   -0.5197    0.8541
       26 FE2    4py        0.0000    0.0000    0.0003   -0.0000    0.0000   -0.0000    0.0000    0.0000   -0.0042    0.0069
       27 FE2    5py       -0.0000    0.0000   -0.0008    0.0001   -0.0000   -0.0000    0.0000   -0.0000    0.0046   -0.0076
       28 FE2    2pz        0.0000    0.0003   -0.0002    0.0001    1.0000   -0.0000   -0.0000    0.0010    0.0000   -0.0000
       29 FE2    3pz       -0.0000    0.0000    0.0000   -0.0000   -0.0010   -0.0000    0.0015    0.9997    0.0001   -0.0001
       30 FE2    4pz        0.0000   -0.0000   -0.0000    0.0000    0.0003   -0.0000    0.0001    0.0107    0.0000   -0.0000
       31 FE2    5pz       -0.0000    0.0000    0.0000   -0.0000   -0.0007   -0.0000   -0.0001   -0.0099   -0.0000    0.0000
       32 FE2    3d2-      -0.0000   -0.0000    0.0000    0.0000   -0.0000    0.0000   -0.0000   -0.0000   -0.0000    0.0000
       33 FE2    4d2-      -0.0000   -0.0000   -0.0000    0.0000    0.0000   -0.0000    0.0000    0.0000    0.0000   -0.0000
       34 FE2    3d1-       0.0000    0.0000    0.0000   -0.0000    0.0000   -0.0000    0.0000    0.0000   -0.0003    0.0004
       35 FE2    4d1-       0.0000    0.0000   -0.0000    0.0000   -0.0000   -0.0000   -0.0000   -0.0000   -0.0002    0.0003
       36 FE2    3d0        0.0000    0.0000   -0.0000    0.0000    0.0000   -0.0000    0.0011    0.0013    0.0000   -0.0000
       37 FE2    4d0        0.0000    0.0000    0.0000   -0.0000   -0.0000   -0.0000    0.0004   -0.0002    0.0000   -0.0000
       38 FE2    3d1+      -0.0000   -0.0000    0.0000    0.0000   -0.0000    0.0000   -0.0000   -0.0000    0.0004    0.0003
       39 FE2    4d1+      -0.0000   -0.0000   -0.0000   -0.0000    0.0000    0.0000    0.0000    0.0000    0.0003    0.0002
       40 FE2    3d2+      -0.0000   -0.0000   -0.0000   -0.0000   -0.0000    0.0000   -0.0000   -0.0000   -0.0000   -0.0000
       41 FE2    4d2+      -0.0000   -0.0000    0.0000    0.0000    0.0000    0.0000    0.0000    0.0000    0.0000    0.0000
       42 FE2    4f3-       0.0000   -0.0000    0.0000    0.0000    0.0000    0.0000   -0.0000    0.0000   -0.0000    0.0000
       43 FE2    4f2-       0.0000   -0.0000   -0.0000    0.0000    0.0000    0.0000   -0.0000    0.0000    0.0000   -0.0000
       44 FE2    4f1-      -0.0000    0.0000    0.0008   -0.0001   -0.0000   -0.0000    0.0000   -0.0000   -0.0067    0.0110
       45 FE2    4f0       -0.0000    0.0000   -0.0000    0.0000   -0.0011   -0.0000    0.0000   -0.0211    0.0000   -0.0000
       46 FE2    4f1+       0.0000   -0.0000    0.0001    0.0008    0.0000    0.0000   -0.0000    0.0000    0.0110    0.0067
       47 FE2    4f2+       0.0000   -0.0000    0.0000    0.0000    0.0000    0.0000   -0.0000    0.0000    0.0000    0.0000
       48 FE2    4f3+       0.0000   -0.0000    0.0000   -0.0000    0.0000    0.0000   -0.0000    0.0000   -0.0000   -0.0000
 
          Orbital           11        12        13        14        15        16        17        18        19        20    
          Energy           -1.8221   -1.3426   -0.6935   -0.6935   -0.5127   -0.5127   -0.3049   -0.1563   -0.1532   -0.1532
          Occ. No.          1.0000    1.0000    1.0000    1.0000    0.0000    0.0000    0.0000    0.0000    0.0000    0.0000
 
        1 O1     1s         0.0018    0.0000   -0.0000    0.0000    0.0000    0.0000   -0.0007   -0.0008   -0.0000   -0.0000
        2 O1     2s         0.9974    0.0040   -0.0000    0.0000    0.0000    0.0000   -0.0084   -0.0086   -0.0000   -0.0000
        3 O1     3s        -0.0468   -0.0031   -0.0000    0.0000   -0.0000   -0.0000    0.0041    0.0127    0.0000    0.0000
        4 O1     2px        0.0000    0.0000    0.0002   -0.0000   -0.3713    0.9191   -0.0000   -0.0000   -0.0051    0.0020
        5 O1     3px       -0.0000   -0.0000   -0.0001    0.0000   -0.0495    0.1225   -0.0000   -0.0000    0.0076   -0.0030
        6 O1     2py       -0.0000   -0.0001    0.0000    0.0002    0.9191    0.3713    0.0000    0.0000   -0.0020   -0.0051
        7 O1     3py        0.0000    0.0000   -0.0000   -0.0001    0.1225    0.0495    0.0000    0.0000    0.0030    0.0076
        8 O1     2pz       -0.0043    0.9917    0.0000   -0.0000    0.0001    0.0000    0.0048   -0.0028   -0.0000   -0.0000
        9 O1     3pz       -0.0016   -0.1281    0.0000   -0.0000    0.0000    0.0000   -0.0155   -0.0742   -0.0000   -0.0000
       10 O1     3d2-      -0.0000   -0.0000    0.0000   -0.0000    0.0000   -0.0000    0.0000    0.0000    0.0000   -0.0000
       11 O1     3d1-      -0.0000    0.0000   -0.0000   -0.0000   -0.0014   -0.0006    0.0000    0.0000   -0.0001   -0.0003
       12 O1     3d0        0.0554   -0.0012    0.0000   -0.0000   -0.0000   -0.0000    0.0004    0.0009    0.0000    0.0000
       13 O1     3d1+       0.0000   -0.0000   -0.0000    0.0000    0.0006   -0.0014   -0.0000   -0.0000   -0.0003    0.0001
       14 O1     3d2+      -0.0000   -0.0000   -0.0000   -0.0000    0.0000    0.0000    0.0000    0.0000   -0.0000   -0.0000
       15 FE2    1s        -0.0000   -0.0000    0.0000   -0.0000    0.0000    0.0000   -0.0000   -0.0000   -0.0000   -0.0000
       16 FE2    2s        -0.0000   -0.0000   -0.0000    0.0000    0.0000    0.0000   -0.0001   -0.0000   -0.0000   -0.0000
       17 FE2    3s        -0.0000   -0.0001    0.0000   -0.0000    0.0000    0.0000   -0.0067    0.0009    0.0000    0.0000
       18 FE2    4s        -0.0003   -0.0012    0.0000   -0.0000   -0.0000   -0.0000    0.9824   -0.1212   -0.0000   -0.0000
       19 FE2    5s        -0.0008   -0.0013   -0.0000    0.0000    0.0000    0.0000    0.1460    0.0558    0.0000    0.0000
       20 FE2    2px       -0.0000    0.0000   -0.0000    0.0000    0.0000   -0.0000   -0.0000   -0.0000   -0.0002    0.0001
       21 FE2    3px       -0.0000    0.0000   -0.0006    0.0000    0.0000   -0.0000    0.0000   -0.0000   -0.0064    0.0025
       22 FE2    4px        0.0000    0.0000    0.0151   -0.0004    0.0001   -0.0003    0.0000    0.0000    0.9220   -0.3639
       23 FE2    5px        0.0000    0.0000    0.0009   -0.0000    0.0000   -0.0001    0.0000    0.0000    0.1205   -0.0476
       24 FE2    2py        0.0000   -0.0000   -0.0000   -0.0000   -0.0000   -0.0000    0.0000    0.0000   -0.0001   -0.0002
       25 FE2    3py        0.0000   -0.0000   -0.0000   -0.0006   -0.0000   -0.0000   -0.0000    0.0000   -0.0025   -0.0064
       26 FE2    4py       -0.0000   -0.0000    0.0004    0.0151   -0.0003   -0.0001   -0.0000   -0.0001    0.3639    0.9220
       27 FE2    5py       -0.0000   -0.0000    0.0000    0.0009   -0.0001   -0.0000   -0.0000   -0.0000    0.0476    0.1205
       28 FE2    2pz       -0.0000   -0.0000   -0.0000    0.0000    0.0000    0.0000   -0.0000   -0.0002   -0.0000   -0.0000
       29 FE2    3pz       -0.0000   -0.0001   -0.0000    0.0000    0.0000    0.0000   -0.0017   -0.0092   -0.0000   -0.0000
       30 FE2    4pz       -0.0004   -0.0013    0.0000   -0.0000    0.0000    0.0000    0.1032    0.9730    0.0000    0.0001
       31 FE2    5pz       -0.0003   -0.0005    0.0000   -0.0000    0.0000    0.0000    0.0160    0.1284    0.0000    0.0000
       32 FE2    3d2-       0.0000   -0.0000    0.0001   -0.0001    0.0000   -0.0000   -0.0000   -0.0000   -0.0000    0.0000
       33 FE2    4d2-      -0.0000   -0.0000    0.0000   -0.0000    0.0000   -0.0000   -0.0000   -0.0000   -0.0000    0.0000
       34 FE2    3d1-      -0.0000    0.0000    0.0245    0.9969   -0.0009   -0.0004    0.0000    0.0000   -0.0057   -0.0146
       35 FE2    4d1-      -0.0000   -0.0000    0.0018    0.0728   -0.0001   -0.0001    0.0000    0.0000    0.0027    0.0070
       36 FE2    3d0       -0.0000   -0.0002    0.0000   -0.0002    0.0000    0.0000    0.0043    0.0306    0.0000    0.0000
       37 FE2    4d0       -0.0002   -0.0004    0.0000   -0.0000    0.0000    0.0000    0.0008    0.0207    0.0000    0.0000
       38 FE2    3d1+       0.0000   -0.0000    0.9969   -0.0245    0.0004   -0.0009   -0.0000   -0.0000   -0.0146    0.0057
       39 FE2    4d1+       0.0000    0.0000    0.0728   -0.0018    0.0001   -0.0001   -0.0000   -0.0000    0.0070   -0.0027
       40 FE2    3d2+       0.0000   -0.0000    0.0000   -0.0000    0.0000   -0.0000   -0.0000   -0.0000   -0.0000    0.0000
       41 FE2    4d2+      -0.0000   -0.0000    0.0000   -0.0000    0.0000   -0.0000    0.0000   -0.0000   -0.0000    0.0000
       42 FE2    4f3-      -0.0000   -0.0000    0.0000   -0.0000   -0.0000    0.0000    0.0000    0.0000    0.0000    0.0000
       43 FE2    4f2-      -0.0000   -0.0000    0.0000   -0.0000   -0.0000   -0.0000    0.0000    0.0000    0.0000   -0.0000
       44 FE2    4f1-       0.0000   -0.0000    0.0000    0.0009    0.0000    0.0000   -0.0000   -0.0000    0.0005    0.0013
       45 FE2    4f0       -0.0000   -0.0000    0.0000   -0.0000   -0.0000   -0.0000   -0.0002   -0.0015   -0.0000   -0.0000
       46 FE2    4f1+      -0.0000    0.0000    0.0009   -0.0000   -0.0000    0.0000    0.0000    0.0000    0.0013   -0.0005
       47 FE2    4f2+      -0.0000   -0.0000    0.0000   -0.0000    0.0000    0.0000    0.0000    0.0000    0.0000    0.0000
       48 FE2    4f3+      -0.0000   -0.0000   -0.0000   -0.0000   -0.0000   -0.0000    0.0000    0.0000   -0.0000    0.0000
 
          Orbital           21        22        23    
          Energy           -0.0682   -0.0133   -0.0133
          Occ. No.          0.0000    0.0000    0.0000
 
        1 O1     1s        -0.0016   -0.0000    0.0000
        2 O1     2s        -0.0173   -0.0000    0.0000
        3 O1     3s         0.0303   -0.0000    0.0000
        4 O1     2px       -0.0000    0.0000    0.0000
        5 O1     3px       -0.0000   -0.0000   -0.0000
        6 O1     2py        0.0000   -0.0000    0.0000
        7 O1     3py        0.0000    0.0000   -0.0000
        8 O1     2pz       -0.0067    0.0000   -0.0000
        9 O1     3pz       -0.1533    0.0000   -0.0000
       10 O1     3d2-       0.0000    0.0000   -0.0000
       11 O1     3d1-       0.0000   -0.0000    0.0000
       12 O1     3d0        0.0011   -0.0000    0.0000
       13 O1     3d1+      -0.0000    0.0000    0.0000
       14 O1     3d2+       0.0000    0.0000    0.0000
       15 FE2    1s        -0.0000    0.0000   -0.0000
       16 FE2    2s         0.0001    0.0000   -0.0000
       17 FE2    3s         0.0062    0.0000   -0.0000
       18 FE2    4s        -0.1474    0.0000   -0.0000
       19 FE2    5s         0.9552    0.0000   -0.0000
       20 FE2    2px        0.0000    0.0000    0.0000
       21 FE2    3px       -0.0000    0.0000   -0.0000
       22 FE2    4px        0.0000    0.0000    0.0000
       23 FE2    5px        0.0000    0.0000    0.0000
       24 FE2    2py       -0.0000   -0.0000    0.0000
       25 FE2    3py        0.0000   -0.0000   -0.0000
       26 FE2    4py       -0.0000   -0.0000    0.0000
       27 FE2    5py       -0.0000   -0.0000    0.0000
       28 FE2    2pz        0.0000    0.0000   -0.0000
       29 FE2    3pz        0.0013    0.0000   -0.0000
       30 FE2    4pz       -0.1050    0.0000   -0.0000
       31 FE2    5pz       -0.0078    0.0000   -0.0000
       32 FE2    3d2-       0.0000    0.9192   -0.2542
       33 FE2    4d2-      -0.0000    0.2899   -0.0802
       34 FE2    3d1-       0.0000    0.0001   -0.0000
       35 FE2    4d1-       0.0000    0.0000   -0.0000
       36 FE2    3d0        0.0175   -0.0000    0.0000
       37 FE2    4d0        0.0132   -0.0000    0.0000
       38 FE2    3d1+      -0.0000   -0.0001   -0.0000
       39 FE2    4d1+      -0.0000   -0.0000   -0.0000
       40 FE2    3d2+      -0.0000    0.2542    0.9192
       41 FE2    4d2+      -0.0000    0.0802    0.2899
       42 FE2    4f3-      -0.0000   -0.0000    0.0000
       43 FE2    4f2-      -0.0000    0.0007   -0.0002
       44 FE2    4f1-       0.0000    0.0000    0.0000
       45 FE2    4f0        0.0003   -0.0000    0.0000
       46 FE2    4f1+      -0.0000   -0.0000    0.0000
       47 FE2    4f2+      -0.0000    0.0002    0.0007
       48 FE2    4f3+      -0.0000   -0.0000   -0.0000
--
 
 
++    Molecular charges:
      ------------------
 
      Mulliken charges per centre and basis function type
      ---------------------------------------------------
 
                            O1                      FE2   
                     alpha        beta       alpha        beta
      1s           1.0000      1.0000      1.0000      1.0000
      2s           0.9923      0.9948      1.0000      1.0000
      2px          0.9796      0.0000      1.0000      1.0000
      2pz          0.0000      0.9836      1.0000      1.0000
      2py          0.9796      0.0000      1.0000      1.0000
      3s           0.0051      0.0022      0.9999      0.9999
      3px          0.0204     -0.0000      0.9999      0.9997
      3pz         -0.0000      0.0164      0.9999      0.9993
      3py          0.0204     -0.0000      0.9999      0.9997
      4s           0.0000      0.0000      0.0002      0.0001
      3d2+         0.0000      0.0000      1.0000      0.0000
      3d1+         0.0000      0.0000      0.9992      0.9945
      3d0          0.0026      0.0031      0.9994      0.0000
      3d1-         0.0000      0.0000      0.9992      0.9945
      3d2-         0.0000      0.0000      1.0000      0.0000
      4px          0.0000      0.0000      0.0001      0.0003
      4pz          0.0000      0.0000      0.0001      0.0001
      4py          0.0000      0.0000      0.0001      0.0003
      5s           0.0000      0.0000      0.0001      0.0000
      4d2+         0.0000      0.0000      0.0000      0.0000
      4d1+         0.0000      0.0000      0.0007      0.0053
      4d0          0.0000      0.0000      0.0003      0.0000
      4d1-         0.0000      0.0000      0.0007      0.0053
      4d2-         0.0000      0.0000      0.0000      0.0000
      5px          0.0000      0.0000      0.0000      0.0001
      5pz          0.0000      0.0000      0.0000      0.0001
      5py          0.0000      0.0000      0.0000      0.0001
      4f3+         0.0000      0.0000      0.0000      0.0000
      4f2+         0.0000      0.0000      0.0000      0.0000
      4f1+         0.0000      0.0000      0.0001      0.0002
      4f0          0.0000      0.0000      0.0000      0.0004
      4f1-         0.0000      0.0000      0.0001      0.0002
      4f2-         0.0000      0.0000      0.0000      0.0000
      4f3-         0.0000      0.0000      0.0000      0.0000
      Total        4.0000      3.0000     14.0000     11.0000
      Total              7.0000                 25.0000
 
      Charge            1.0000                  1.0000
 
      Total electronic charge=   32.000000
 
      Total            charge=    2.000000
--
 
 
  Input file to MOLDEN was generated!
 
 
++    Static properties:
      ------------------
 
 
      LoProp Charges per center
 

                   O1       FE2   
      Nuclear      8.0000  26.0000
      Electronic  -6.9999 -25.0001
 
      Total        1.0001   0.9999
--
 
 
++    Natural Bond Order analysis
      ---------------------------
      Based on LoProp computed density
      -------------------------------------------------------------------------------------
      Atom A       Atom B       Bond Order
      -------------------------------------------------------------------------------------
      NBO located     19.999 core electrons.
      NBO located      5.992 lone pair electrons.
      NBO located      1.000 non-bonded electrons on atom O1        
      NBO located      1.000 non-bonded electrons on atom O1        
      NBO located      1.000 non-bonded electrons on atom O1        
      NBO located      1.000 non-bonded electrons on atom FE2       
      NBO located      1.000 non-bonded electrons on atom FE2       
      NBO located      1.000 non-bonded electrons on atom FE2       
      The remaining    0.009 electrons are to be considered as diffuse
--
 
 
++    Molecular orbitals:
      -------------------
 
      Title: Natural orbitals

      Molecular orbitals for symmetry species 1: a  
 
          Orbital            1         2         3         4         5         6         7         8         9        10    
          Energy         -263.8669  -32.2732  -21.4629  -27.5497  -27.5777  -27.5776   -4.7611   -3.0528   -3.0635   -3.0637
          Occ. No.          2.0000    2.0000    2.0000    2.0000    2.0000    2.0000    2.0000    1.9998    1.9998    1.9998
 
        1 O1     1s         0.0000   -0.0045   -0.9984    0.0465   -0.0000    0.0000    0.0046    0.0001   -0.0000    0.0000
        2 O1     2s        -0.0000    0.0001    0.0301   -0.0014    0.0000   -0.0000    0.0001    0.0002   -0.0000    0.0000
        3 O1     3s        -0.0000   -0.0000   -0.0013    0.0001   -0.0000    0.0000    0.0001    0.0001   -0.0000    0.0000
        4 O1     2px        0.0000   -0.0000    0.0000   -0.0000   -0.0000   -0.0000   -0.0000   -0.0000    0.0000    0.0000
        5 O1     3px        0.0000    0.0000   -0.0000    0.0000   -0.0000   -0.0000    0.0000   -0.0000    0.0000    0.0001
        6 O1     2py       -0.0000    0.0000   -0.0000    0.0000   -0.0000    0.0000    0.0000    0.0000    0.0000   -0.0000
        7 O1     3py       -0.0000   -0.0000    0.0000   -0.0000   -0.0000    0.0000   -0.0000    0.0000    0.0001   -0.0000
        8 O1     2pz        0.0000    0.0000   -0.0002    0.0000   -0.0000    0.0000   -0.0001   -0.0001    0.0000   -0.0000
        9 O1     3pz        0.0000    0.0000   -0.0000   -0.0000   -0.0000    0.0000   -0.0002   -0.0001    0.0000   -0.0000
       10 O1     3d2-      -0.0000   -0.0000   -0.0000    0.0000    0.0000   -0.0000   -0.0000   -0.0000   -0.0000   -0.0000
       11 O1     3d1-       0.0000    0.0000   -0.0000    0.0000    0.0000   -0.0000    0.0000   -0.0000   -0.0000    0.0000
       12 O1     3d0       -0.0000   -0.0000    0.0000   -0.0000    0.0000   -0.0000    0.0000    0.0000   -0.0000    0.0000
       13 O1     3d1+      -0.0000   -0.0000    0.0000   -0.0000    0.0000    0.0000   -0.0000    0.0000   -0.0000   -0.0000
       14 O1     3d2+       0.0000   -0.0000   -0.0000    0.0000   -0.0000   -0.0000   -0.0000   -0.0000    0.0000   -0.0000
       15 FE2    1s         1.0000   -0.0001    0.0000   -0.0000    0.0000   -0.0000    0.0002    0.0000   -0.0000    0.0000
       16 FE2    2s         0.0001    0.9943   -0.0039    0.0022    0.0000   -0.0000    0.1069    0.0000    0.0000   -0.0000
       17 FE2    3s        -0.0002   -0.1069    0.0052    0.0039    0.0000   -0.0000    0.9942   -0.0022    0.0000   -0.0000
       18 FE2    4s        -0.0000   -0.0007    0.0000   -0.0000    0.0000   -0.0000    0.0068    0.0007   -0.0000    0.0000
       19 FE2    5s         0.0000    0.0005   -0.0000    0.0000   -0.0000    0.0000   -0.0050   -0.0004    0.0000   -0.0000
       20 FE2    2px       -0.0000    0.0000   -0.0000   -0.0000    0.4414    0.8950    0.0000   -0.0000    0.0298    0.0571
       21 FE2    3px       -0.0000    0.0000    0.0000    0.0000   -0.0285   -0.0577    0.0000   -0.0000    0.4619    0.8843
       22 FE2    4px        0.0000   -0.0000    0.0000    0.0000   -0.0001   -0.0003   -0.0000   -0.0000    0.0025    0.0048
       23 FE2    5px        0.0000   -0.0000   -0.0000   -0.0000    0.0002    0.0003   -0.0000    0.0000   -0.0031   -0.0059
       24 FE2    2py        0.0000   -0.0000    0.0000    0.0001    0.8950   -0.4414   -0.0000    0.0000    0.0570   -0.0298
       25 FE2    3py        0.0000   -0.0000   -0.0000   -0.0000   -0.0577    0.0285   -0.0000    0.0001    0.8843   -0.4619
       26 FE2    4py       -0.0000    0.0000   -0.0000   -0.0000   -0.0003    0.0001    0.0000    0.0000    0.0048   -0.0025
       27 FE2    5py       -0.0000    0.0000    0.0000    0.0000    0.0003   -0.0002    0.0000   -0.0000   -0.0059    0.0031
       28 FE2    2pz        0.0000   -0.0016    0.0464    0.9969   -0.0001    0.0001   -0.0042    0.0638   -0.0000    0.0000
       29 FE2    3pz       -0.0000   -0.0002   -0.0029   -0.0637    0.0000   -0.0000    0.0024    0.9978   -0.0001    0.0001
       30 FE2    4pz        0.0000   -0.0000   -0.0000   -0.0004    0.0000   -0.0000    0.0002    0.0082   -0.0000    0.0000
       31 FE2    5pz       -0.0000    0.0000    0.0000    0.0003   -0.0000    0.0000   -0.0001   -0.0078    0.0000   -0.0000
       32 FE2    3d2-       0.0000   -0.0000   -0.0000    0.0000    0.0000   -0.0000   -0.0000   -0.0000    0.0000   -0.0000
       33 FE2    4d2-       0.0000   -0.0000   -0.0000   -0.0000    0.0000   -0.0000   -0.0000   -0.0000    0.0000   -0.0000
       34 FE2    3d1-      -0.0000    0.0000    0.0000   -0.0000   -0.0001    0.0001    0.0000    0.0000   -0.0205    0.0107
       35 FE2    4d1-      -0.0000    0.0000    0.0000    0.0000   -0.0000    0.0000    0.0000    0.0000   -0.0009    0.0005
       36 FE2    3d0       -0.0000   -0.0001    0.0000   -0.0000    0.0000   -0.0000    0.0010    0.0013    0.0000   -0.0000
       37 FE2    4d0        0.0000   -0.0000    0.0000   -0.0000    0.0000   -0.0000    0.0024    0.0000    0.0000   -0.0000
       38 FE2    3d1+       0.0000   -0.0000   -0.0000    0.0000   -0.0001   -0.0001   -0.0000   -0.0000   -0.0107   -0.0205
       39 FE2    4d1+       0.0000   -0.0000   -0.0000   -0.0000   -0.0000   -0.0000   -0.0000   -0.0000   -0.0005   -0.0009
       40 FE2    3d2+       0.0000   -0.0000   -0.0000    0.0000    0.0000   -0.0000   -0.0000   -0.0000    0.0000   -0.0000
       41 FE2    4d2+       0.0000   -0.0000   -0.0000   -0.0000    0.0000   -0.0000   -0.0000   -0.0000    0.0000   -0.0000
       42 FE2    4f3-       0.0000   -0.0000    0.0000   -0.0000   -0.0000   -0.0000   -0.0000    0.0000    0.0000    0.0000
       43 FE2    4f2-       0.0000   -0.0000   -0.0000   -0.0000    0.0000    0.0000    0.0000    0.0000   -0.0000    0.0000
       44 FE2    4f1-      -0.0000    0.0000    0.0000    0.0000    0.0001   -0.0001    0.0000   -0.0000    0.0021   -0.0011
       45 FE2    4f0        0.0000    0.0000    0.0000    0.0002   -0.0000    0.0000    0.0000   -0.0114   -0.0000    0.0000
       46 FE2    4f1+       0.0000   -0.0000   -0.0000   -0.0000    0.0001    0.0001   -0.0000    0.0000    0.0011    0.0021
       47 FE2    4f2+       0.0000   -0.0000   -0.0000   -0.0000   -0.0000    0.0000   -0.0000    0.0000    0.0000    0.0000
       48 FE2    4f3+       0.0000   -0.0000    0.0000   -0.0000    0.0000   -0.0000   -0.0000    0.0000   -0.0000   -0.0000
 
          Orbital           11        12        13        14        15        16        17        18        19        20    
          Energy           -0.7451   -0.7451   -1.9189   -0.6410   -0.9241   -0.9241   -0.4011   -0.4011   -0.6408    1.4346
          Occ. No.          1.9989    1.9989    1.9940    1.0002    1.0000    1.0000    1.0000    1.0000    0.9998    0.0060
 
        1 O1     1s         0.0000   -0.0000    0.0301   -0.0000   -0.0000   -0.0000    0.0000    0.0000   -0.0000    0.0001
        2 O1     2s         0.0000   -0.0000    0.9978   -0.0042   -0.0000   -0.0000    0.0000    0.0000    0.0036    0.0112
        3 O1     3s        -0.0000    0.0000   -0.0591    0.0020   -0.0000   -0.0000    0.0000    0.0000   -0.0024    0.2237
        4 O1     2px        0.0002    0.0001    0.0000    0.0005   -0.4025    0.9042   -0.0000   -0.0000    0.0005   -0.0000
        5 O1     3px       -0.0002   -0.0001   -0.0000   -0.0001    0.0581   -0.1306   -0.0000   -0.0000   -0.0001   -0.0000
        6 O1     2py        0.0001   -0.0002   -0.0000   -0.0018    0.9042    0.4025    0.0000    0.0000   -0.0020    0.0000
        7 O1     3py       -0.0001    0.0002    0.0000    0.0003   -0.1306   -0.0581   -0.0000    0.0000    0.0003    0.0000
        8 O1     2pz       -0.0000    0.0000   -0.0058   -0.7008    0.0001    0.0000   -0.0000   -0.0000    0.7017    0.0002
        9 O1     3pz       -0.0000    0.0000   -0.0008    0.0915   -0.0000   -0.0000   -0.0000   -0.0000   -0.0897   -0.0110
       10 O1     3d2-       0.0000    0.0000   -0.0000    0.0000   -0.0000    0.0000   -0.0000   -0.0000    0.0000   -0.0000
       11 O1     3d1-      -0.0000    0.0000   -0.0000    0.0000   -0.0016   -0.0007    0.0000   -0.0000    0.0000   -0.0002
       12 O1     3d0       -0.0000    0.0000    0.0022    0.0008   -0.0000   -0.0000    0.0000    0.0000   -0.0008    0.9747
       13 O1     3d1+      -0.0000   -0.0000    0.0000   -0.0000    0.0007   -0.0016    0.0000    0.0000   -0.0000    0.0000
       14 O1     3d2+      -0.0000    0.0000   -0.0000    0.0000   -0.0000   -0.0000    0.0000   -0.0000    0.0000   -0.0000
       15 FE2    1s         0.0000   -0.0000   -0.0000    0.0000   -0.0000   -0.0000    0.0000    0.0000   -0.0000   -0.0000
       16 FE2    2s        -0.0000    0.0000    0.0000   -0.0000   -0.0000   -0.0000    0.0000    0.0000   -0.0000   -0.0000
       17 FE2    3s        -0.0000    0.0000   -0.0001   -0.0006   -0.0000   -0.0000    0.0000    0.0000   -0.0007   -0.0000
       18 FE2    4s        -0.0000    0.0000   -0.0002   -0.0082   -0.0000   -0.0000    0.0000    0.0000   -0.0099   -0.0021
       19 FE2    5s         0.0000   -0.0000   -0.0006    0.0061    0.0000    0.0000   -0.0000   -0.0000    0.0043   -0.0043
       20 FE2    2px        0.0015    0.0006    0.0000    0.0000   -0.0000    0.0000    0.0000   -0.0000    0.0000    0.0000
       21 FE2    3px        0.0216    0.0082    0.0000    0.0000   -0.0000    0.0000   -0.0000   -0.0000    0.0000   -0.0000
       22 FE2    4px        0.0115    0.0044    0.0000   -0.0000   -0.0002    0.0004   -0.0000    0.0000   -0.0000    0.0000
       23 FE2    5px        0.0005    0.0002   -0.0000    0.0000   -0.0001    0.0002   -0.0000    0.0000    0.0000    0.0000
       24 FE2    2py        0.0006   -0.0015   -0.0000   -0.0000    0.0000    0.0000    0.0000    0.0000   -0.0000   -0.0000
       25 FE2    3py        0.0082   -0.0216   -0.0000   -0.0000    0.0000    0.0000   -0.0000    0.0000   -0.0000    0.0000
       26 FE2    4py        0.0044   -0.0115   -0.0000    0.0000    0.0004    0.0002   -0.0000   -0.0000    0.0000   -0.0000
       27 FE2    5py        0.0002   -0.0005    0.0000   -0.0000    0.0002    0.0001   -0.0000   -0.0000   -0.0000   -0.0000
       28 FE2    2pz       -0.0000    0.0000   -0.0000   -0.0000   -0.0000   -0.0000    0.0000    0.0000   -0.0000   -0.0000
       29 FE2    3pz       -0.0000    0.0000   -0.0001   -0.0009   -0.0000   -0.0000    0.0000    0.0000   -0.0010   -0.0000
       30 FE2    4pz       -0.0000    0.0000   -0.0003    0.0084    0.0000    0.0000   -0.0000   -0.0000    0.0065   -0.0027
       31 FE2    5pz       -0.0000    0.0000   -0.0002    0.0006    0.0000    0.0000   -0.0000   -0.0000   -0.0000   -0.0014
       32 FE2    3d2-       0.0001    0.0001    0.0000   -0.0000    0.0000   -0.0000   -0.2659   -0.9640   -0.0000   -0.0000
       33 FE2    4d2-       0.0000    0.0000    0.0000   -0.0000    0.0000   -0.0000   -0.0008   -0.0030   -0.0000    0.0000
       34 FE2    3d1-       0.3551   -0.9331   -0.0000    0.0001   -0.0002   -0.0001    0.0000   -0.0001    0.0001    0.0000
       35 FE2    4d1-       0.0178   -0.0467   -0.0000    0.0000    0.0002    0.0001   -0.0000   -0.0000    0.0000   -0.0000
       36 FE2    3d0       -0.0000    0.0002   -0.0000    0.7070    0.0028    0.0004   -0.0000   -0.0000    0.7069   -0.0008
       37 FE2    4d0       -0.0000    0.0000   -0.0001    0.0112    0.0000    0.0000   -0.0000   -0.0000    0.0107   -0.0012
       38 FE2    3d1+       0.9331    0.3551    0.0000   -0.0000    0.0001   -0.0002    0.0000    0.0001   -0.0000   -0.0000
       39 FE2    4d1+       0.0467    0.0178    0.0000   -0.0000   -0.0001    0.0002   -0.0000    0.0000   -0.0000    0.0000
       40 FE2    3d2+       0.0000    0.0000    0.0000   -0.0000    0.0000   -0.0000    0.9640   -0.2659   -0.0000   -0.0000
       41 FE2    4d2+       0.0000    0.0000    0.0000   -0.0000    0.0000    0.0000    0.0030   -0.0008   -0.0000    0.0000
       42 FE2    4f3-       0.0000    0.0000   -0.0000   -0.0000   -0.0000   -0.0000    0.0000    0.0000   -0.0000   -0.0000
       43 FE2    4f2-       0.0000    0.0000    0.0000   -0.0000   -0.0000    0.0000   -0.0002   -0.0006   -0.0000   -0.0000
       44 FE2    4f1-       0.0003   -0.0008   -0.0000    0.0000    0.0000    0.0000    0.0000   -0.0000    0.0000    0.0000
       45 FE2    4f0       -0.0000    0.0000    0.0000    0.0006    0.0000    0.0000   -0.0000   -0.0000    0.0006   -0.0000
       46 FE2    4f1+       0.0008    0.0003    0.0000   -0.0000   -0.0000    0.0000    0.0000    0.0000   -0.0000   -0.0000
       47 FE2    4f2+       0.0000    0.0000   -0.0000   -0.0000   -0.0000   -0.0000    0.0006   -0.0002   -0.0000   -0.0000
       48 FE2    4f3+      -0.0000    0.0000   -0.0000   -0.0000   -0.0000   -0.0000   -0.0000    0.0000   -0.0000   -0.0000
 
          Orbital           21        22        23        24        25        26        27        28        29        30    
          Energy            0.6947    0.6947    3.5209    3.5209    3.4792    0.5493    1.9989    1.9989    2.0390    0.4346
          Occ. No.          0.0011    0.0011    0.0002    0.0002    0.0002    0.0000    0.0000    0.0000    0.0000    0.0000
 
        1 O1     1s         0.0000   -0.0000   -0.0000    0.0000   -0.0001    0.0006    0.0000   -0.0000   -0.0011   -0.0007
        2 O1     2s         0.0000   -0.0000   -0.0000    0.0000   -0.0013    0.0087    0.0000   -0.0000   -0.0146   -0.0607
        3 O1     3s        -0.0000    0.0000   -0.0000    0.0000   -0.0017    0.0160    0.0000   -0.0000   -0.0468   -0.9679
        4 O1     2px       -0.0000    0.0001    0.0001    0.0001    0.0000   -0.0000   -0.0011   -0.0027    0.0000   -0.0000
        5 O1     3px       -0.0007    0.0044    0.0001    0.0002    0.0000   -0.0000   -0.0052   -0.0123    0.0000   -0.0000
        6 O1     2py        0.0001    0.0000    0.0001   -0.0001   -0.0000    0.0000   -0.0027    0.0011   -0.0000    0.0000
        7 O1     3py        0.0044    0.0007    0.0002   -0.0001   -0.0000    0.0000   -0.0123    0.0052   -0.0000    0.0000
        8 O1     2pz       -0.0000    0.0000    0.0000   -0.0000    0.0007   -0.0118   -0.0000    0.0000    0.0155   -0.0069
        9 O1     3pz        0.0000   -0.0000   -0.0000    0.0000    0.0015   -0.0379   -0.0000    0.0000    0.0633   -0.0496
       10 O1     3d2-      -0.0000    0.0000    0.0000   -0.0000    0.0000   -0.0000   -0.0000    0.0000   -0.0000   -0.0000
       11 O1     3d1-      -0.0002   -0.0000   -0.0000    0.0000    0.0000   -0.0000    0.0012   -0.0005   -0.0000   -0.0000
       12 O1     3d0        0.0000   -0.0000   -0.0000    0.0000   -0.0007    0.0051    0.0000   -0.0000    0.0008    0.2197
       13 O1     3d1+       0.0000   -0.0002   -0.0000   -0.0000   -0.0000    0.0000    0.0005    0.0012    0.0000    0.0000
       14 O1     3d2+      -0.0000   -0.0000    0.0000   -0.0000    0.0000   -0.0000   -0.0000    0.0000   -0.0000   -0.0000
       15 FE2    1s        -0.0000    0.0000    0.0000   -0.0000    0.0000   -0.0000   -0.0000    0.0000    0.0000   -0.0000
       16 FE2    2s         0.0000   -0.0000   -0.0000    0.0000   -0.0000    0.0002   -0.0000    0.0000    0.0000   -0.0000
       17 FE2    3s         0.0000   -0.0000   -0.0000    0.0000    0.0000   -0.0019   -0.0000    0.0000    0.0003    0.0004
       18 FE2    4s        -0.0001    0.0000    0.0000   -0.0000   -0.0031    0.3305   -0.0000    0.0000    0.0003    0.0323
       19 FE2    5s         0.0000   -0.0000   -0.0000    0.0000    0.0011   -0.3346   -0.0000    0.0000    0.0195    0.1233
       20 FE2    2px       -0.0000    0.0000   -0.0001   -0.0003   -0.0000    0.0000    0.0000    0.0000   -0.0000   -0.0000
       21 FE2    3px        0.0001   -0.0009   -0.0022   -0.0044   -0.0000    0.0000    0.0027    0.0063   -0.0000    0.0000
       22 FE2    4px       -0.0206    0.1272    0.0940    0.1883    0.0000   -0.0000   -0.0822   -0.1936    0.0000   -0.0000
       23 FE2    5px       -0.0014    0.0087   -0.0953   -0.1909   -0.0000   -0.0000    0.3685    0.8679   -0.0000    0.0000
       24 FE2    2py        0.0000    0.0000   -0.0003    0.0001    0.0000   -0.0000    0.0000   -0.0000    0.0000    0.0000
       25 FE2    3py       -0.0009   -0.0001   -0.0044    0.0022    0.0000   -0.0000    0.0063   -0.0027    0.0000   -0.0000
       26 FE2    4py        0.1272    0.0206    0.1883   -0.0940   -0.0000    0.0000   -0.1936    0.0822   -0.0000    0.0000
       27 FE2    5py        0.0087    0.0014   -0.1909    0.0953    0.0000    0.0000    0.8679   -0.3685    0.0001   -0.0000
       28 FE2    2pz        0.0000   -0.0000    0.0000   -0.0000    0.0006   -0.0000    0.0000   -0.0000    0.0000    0.0000
       29 FE2    3pz        0.0000   -0.0000    0.0000   -0.0000    0.0145   -0.0001   -0.0000    0.0000    0.0057   -0.0004
       30 FE2    4pz       -0.0000    0.0000   -0.0000    0.0000   -0.2443   -0.0324    0.0000   -0.0000   -0.0983    0.0559
       31 FE2    5pz       -0.0000    0.0000    0.0000   -0.0000    0.2098   -0.0022   -0.0001    0.0000    0.9682   -0.0099
       32 FE2    3d2-       0.0000   -0.0000    0.0000   -0.0000   -0.0000    0.0000    0.0000   -0.0000   -0.0000    0.0000
       33 FE2    4d2-      -0.0001    0.0001    0.0000   -0.0000    0.0000   -0.0000   -0.0000    0.0000    0.0000   -0.0000
       34 FE2    3d1-      -0.0504   -0.0082   -0.0012    0.0006    0.0000    0.0000    0.0009   -0.0004    0.0000    0.0000
       35 FE2    4d1-       0.9774    0.1584   -0.0334    0.0167   -0.0000   -0.0001    0.0148   -0.0063   -0.0000   -0.0000
       36 FE2    3d0        0.0000   -0.0000    0.0000   -0.0000    0.0014    0.0203   -0.0000    0.0000    0.0014    0.0005
       37 FE2    4d0       -0.0002    0.0000    0.0000   -0.0000    0.0197   -0.8837   -0.0000    0.0000   -0.0037   -0.0290
       38 FE2    3d1+       0.0082   -0.0504   -0.0006   -0.0012   -0.0000   -0.0000    0.0004    0.0009   -0.0000   -0.0000
       39 FE2    4d1+      -0.1584    0.9774   -0.0167   -0.0334    0.0000    0.0000    0.0063    0.0148    0.0000    0.0000
       40 FE2    3d2+       0.0000   -0.0000   -0.0000   -0.0000   -0.0000   -0.0000    0.0000   -0.0000   -0.0000   -0.0000
       41 FE2    4d2+      -0.0000    0.0000   -0.0000   -0.0000    0.0000    0.0000    0.0000    0.0000    0.0000    0.0000
       42 FE2    4f3-      -0.0000    0.0000    0.0000    0.0000   -0.0001   -0.0000    0.0000    0.0000    0.0000   -0.0000
       43 FE2    4f2-      -0.0000    0.0000   -0.0000    0.0003   -0.0000    0.0000   -0.0000    0.0001    0.0000   -0.0000
       44 FE2    4f1-       0.0121    0.0020    0.8530   -0.4257    0.0002   -0.0000    0.2376   -0.1009   -0.0001    0.0000
       45 FE2    4f0       -0.0000    0.0000   -0.0001    0.0001    0.9464    0.0118   -0.0000    0.0000   -0.2398    0.0180
       46 FE2    4f1+      -0.0020    0.0121    0.4257    0.8530   -0.0000    0.0000    0.1009    0.2376    0.0000   -0.0000
       47 FE2    4f2+      -0.0000    0.0000    0.0000    0.0001   -0.0000    0.0000   -0.0000    0.0000    0.0000   -0.0000
       48 FE2    4f3+      -0.0000   -0.0000   -0.0000   -0.0000   -0.0001   -0.0000    0.0000   -0.0000    0.0000   -0.0000
 
          Orbital           31        32        33        34        35        36        37        38        39        40    
          Energy            0.0602   -0.2331   -0.0119   -0.0119    0.0368    0.0973    0.0964    0.0964    0.7331    0.7331
          Occ. No.          0.0000    0.0000    0.0000    0.0000    0.0000    0.0000    0.0000    0.0000    0.0000    0.0000
 
        1 O1     1s        -0.0009    0.0015   -0.0000   -0.0000    0.0003    0.0005   -0.0000    0.0000    0.0000   -0.0000
        2 O1     2s        -0.0063    0.0131   -0.0000   -0.0000    0.0010    0.0061   -0.0000    0.0000    0.0000   -0.0000
        3 O1     3s         0.0545   -0.0638    0.0000    0.0000   -0.0621    0.0242    0.0000    0.0000    0.0000   -0.0000
        4 O1     2px       -0.0000    0.0000    0.0003   -0.0006   -0.0000   -0.0000   -0.1379   -0.0378    0.0002   -0.0000
        5 O1     3px        0.0000    0.0000    0.0046   -0.0100   -0.0000   -0.0000   -0.9547   -0.2616    0.0012   -0.0001
        6 O1     2py        0.0000   -0.0000   -0.0006   -0.0003   -0.0000   -0.0000   -0.0378    0.1379    0.0001   -0.0001
        7 O1     3py       -0.0000   -0.0000   -0.0101   -0.0045   -0.0000   -0.0000   -0.2616    0.9547    0.0009   -0.0004
        8 O1     2pz        0.0149   -0.0178    0.0000    0.0000    0.0811   -0.1017    0.0000    0.0000    0.0000   -0.0000
        9 O1     3pz        0.0665   -0.0345    0.0000    0.0000    0.6529   -0.7554    0.0000   -0.0000    0.0000   -0.0000
       10 O1     3d2-       0.0000   -0.0000   -0.0000   -0.0000    0.0000    0.0000   -0.0000    0.0000    0.0000    0.0021
       11 O1     3d1-       0.0000   -0.0000    0.0002    0.0001    0.0001    0.0003    0.0006   -0.0009    0.0002   -0.0001
       12 O1     3d0       -0.0179    0.0291   -0.0000   -0.0000    0.0247   -0.0078   -0.0000   -0.0000   -0.0000   -0.0000
       13 O1     3d1+      -0.0000    0.0000   -0.0001    0.0002   -0.0000   -0.0001    0.0017    0.0002    0.0008   -0.0000
       14 O1     3d2+       0.0000   -0.0000   -0.0000   -0.0000    0.0000    0.0000   -0.0003    0.0001    0.0016    0.0004
       15 FE2    1s         0.0000   -0.0000    0.0000    0.0000    0.0000   -0.0000    0.0000   -0.0000    0.0000   -0.0000
       16 FE2    2s         0.0001   -0.0000    0.0000    0.0000    0.0002   -0.0003    0.0000   -0.0000    0.0000   -0.0000
       17 FE2    3s         0.0084    0.0022    0.0000    0.0000    0.0008   -0.0014    0.0000    0.0000    0.0000   -0.0000
       18 FE2    4s        -0.5417   -0.7640   -0.0000    0.0000    0.1251    0.0037   -0.0000   -0.0000   -0.0000   -0.0000
       19 FE2    5s         0.6961   -0.6327    0.0000    0.0000    0.0602    0.0042   -0.0000   -0.0000   -0.0000   -0.0000
       20 FE2    2px        0.0000    0.0000    0.0000   -0.0000    0.0000    0.0000    0.0000    0.0000   -0.0000    0.0000
       21 FE2    3px       -0.0000   -0.0000   -0.0014    0.0030   -0.0000   -0.0000    0.0001    0.0000   -0.0000    0.0000
       22 FE2    4px        0.0000    0.0000    0.3908   -0.8611    0.0000    0.0000    0.0260    0.0072   -0.0000   -0.0000
       23 FE2    5px        0.0000    0.0000    0.1058   -0.2332    0.0000    0.0000    0.0072    0.0020   -0.0000   -0.0000
       24 FE2    2py       -0.0000   -0.0000   -0.0000   -0.0000   -0.0000   -0.0000    0.0000   -0.0000   -0.0000    0.0000
       25 FE2    3py        0.0000    0.0000    0.0030    0.0014    0.0000    0.0000    0.0000   -0.0001   -0.0000    0.0000
       26 FE2    4py       -0.0000   -0.0000   -0.8611   -0.3908   -0.0001   -0.0001    0.0071   -0.0262    0.0000   -0.0000
       27 FE2    5py       -0.0000   -0.0000   -0.2332   -0.1058   -0.0000   -0.0000    0.0020   -0.0072    0.0000   -0.0000
       28 FE2    2pz       -0.0000   -0.0000    0.0000    0.0000   -0.0000   -0.0001    0.0000   -0.0000    0.0000   -0.0000
       29 FE2    3pz        0.0010    0.0007   -0.0000   -0.0000    0.0040    0.0017   -0.0000    0.0000    0.0000   -0.0000
       30 FE2    4pz       -0.0395   -0.1019    0.0001    0.0000   -0.6730   -0.6832    0.0000   -0.0000   -0.0000    0.0000
       31 FE2    5pz       -0.0156   -0.0155    0.0000    0.0000   -0.1105   -0.1117    0.0000   -0.0000   -0.0000    0.0000
       32 FE2    3d2-      -0.0000   -0.0000    0.0000   -0.0000   -0.0000   -0.0000   -0.0000    0.0000   -0.0030    0.0008
       33 FE2    4d2-       0.0000    0.0000    0.0000    0.0000    0.0000    0.0000    0.0014   -0.0006    0.9663   -0.2573
       34 FE2    3d1-       0.0000    0.0000    0.0049    0.0022    0.0000    0.0000    0.0003   -0.0012   -0.0000    0.0000
       35 FE2    4d1-      -0.0002   -0.0001    0.1129    0.0512    0.0000    0.0000    0.0041   -0.0149    0.0001   -0.0000
       36 FE2    3d0       -0.0041   -0.0036   -0.0000   -0.0000    0.0121    0.0020   -0.0000    0.0000    0.0000   -0.0000
       37 FE2    4d0       -0.4620   -0.0497   -0.0000   -0.0000    0.0607    0.0028   -0.0000    0.0000   -0.0000    0.0000
       38 FE2    3d1+      -0.0000   -0.0000   -0.0022    0.0049   -0.0000   -0.0000    0.0012    0.0003   -0.0000    0.0000
       39 FE2    4d1+       0.0000    0.0000   -0.0512    0.1129   -0.0000    0.0000    0.0149    0.0041   -0.0002   -0.0000
       40 FE2    3d2+      -0.0000   -0.0000    0.0000    0.0000   -0.0000   -0.0000   -0.0000   -0.0000   -0.0008   -0.0030
       41 FE2    4d2+       0.0000    0.0000   -0.0000    0.0000    0.0000    0.0000    0.0002    0.0002    0.2573    0.9663
       42 FE2    4f3-       0.0000    0.0000    0.0000   -0.0000    0.0001    0.0000   -0.0013   -0.0005    0.0000   -0.0000
       43 FE2    4f2-      -0.0000   -0.0000    0.0001   -0.0000    0.0000    0.0000    0.0000    0.0000    0.0005   -0.0001
       44 FE2    4f1-       0.0000   -0.0000    0.1423    0.0646   -0.0000   -0.0000   -0.0011    0.0041    0.0000   -0.0000
[...]
ATVX     1  Mu1.0011  Se1.027                       0.20551608     -0.00000098      0.00001191     -0.00000000
ATVX     1  Mu1.0012  Se1.027                       0.20552202     -0.00000160      0.00001947     -0.00000000
ATVX     1  Mu1.0013  Se1.027                       0.20993436     -0.00000000      0.00000000     -0.00000000
ATVX     1  Mu1.0014  Se1.027                       0.20993438      0.00000000     -0.00000000     -0.00000000
ATVX     1  Mu1.0015  Se1.027                       0.22677827      0.00000173     -0.00000698     -0.00000000
ATVX     1  Mu1.0016  Se1.027                       0.22679988     -0.00000024      0.00000096     -0.00000000
ATVX     1  Mu1.0017  Se1.027                       0.24494482     -0.00000000      0.00000000     -0.00000000
ATVX     1  Mu1.0018  Se1.027                       0.24496375      0.00000000     -0.00000000     -0.00000000
ATVX     1  Mu1.0019  Se1.027                       0.24676750     -0.00000000      0.00000000     -0.00000000
ATVX     1  Mu1.0020  Se1.027                       0.24676750      0.00000000     -0.00000000     -0.00000000
ATVX     1  Mu1.0021  Se1.027                       0.27102155     -0.00000000      0.00000000     -0.00000000
ATVX     1  Mu1.0022  Se1.027                       0.27102166      0.00000000     -0.00000000     -0.00000000
ATVX     1  Mu1.0023  Se1.027                       0.29028710     -0.00000014      0.00000046     -0.00000000
ATVX     1  Mu1.0024  Se1.027                       0.29029277     -0.00000010      0.00000032     -0.00000000
ATVX     1  Mu1.0025  Se1.027                       0.29284307      0.00000000     -0.00000000     -0.00000000
ATVX     1  Mu1.0026  Se1.027                       0.29285440      0.00000000     -0.00000000     -0.00000000
ATVX     1  Mu1.0027  Se1.027                       0.29943937     -0.00000000      0.00000000     -0.00000000
ATVX     1  Mu1.0028  Se1.027                       0.29944472      0.00000000     -0.00000000     -0.00000000
ATVX     1  Mu1.0001  Se1.028                      -0.21005032      0.00000000      0.00000000      0.00000000
ATVX     1  Mu1.0002  Se1.028                      -0.15384936      0.00000000     -0.00000000     -0.00000000
ATVX     1  Mu1.0003  Se1.028                      -0.15384413      0.00000015      0.00000388      0.00000000
ATVX     1  Mu1.0004  Se1.028                      -0.11124699      0.00000000      0.00000000      0.00000000
ATVX     1  Mu1.0005  Se1.028                       0.00861477      0.00000251     -0.00377126     -0.00000001
ATVX     1  Mu1.0006  Se1.028                       0.00861479     -0.00000502      0.00754435     -0.00000004
ATVX     1  Mu1.0007  Se1.028                       0.19765878     -0.00000074      0.00006254     -0.00000000
ATVX     1  Mu1.0008  Se1.028                       0.19765878      0.00000002     -0.00000180     -0.00000000
ATVX     1  Mu1.0009  Se1.028                       0.20918548     -0.00000000      0.00000000     -0.00000000
ATVX     1  Mu1.0010  Se1.028                       0.20919089     -0.00000000      0.00000000     -0.00000000
ATVX     1  Mu1.0011  Se1.028                       0.21181256     -0.00000000     -0.00000000      0.00000000
ATVX     1  Mu1.0012  Se1.028                       0.21181851     -0.00000000     -0.00000000      0.00000000
ATVX     1  Mu1.0013  Se1.028                       0.21623084     -0.00000000      0.00000001     -0.00000000
ATVX     1  Mu1.0014  Se1.028                       0.21623086     -0.00000140      0.00000632     -0.00000000
ATVX     1  Mu1.0015  Se1.028                       0.23307475     -0.00000000      0.00000000     -0.00000000
ATVX     1  Mu1.0016  Se1.028                       0.23309636     -0.00000000     -0.00000000      0.00000000
ATVX     1  Mu1.0017  Se1.028                       0.25124131      0.00000000      0.00000000      0.00000000
ATVX     1  Mu1.0018  Se1.028                       0.25126024      0.00000000     -0.00000000     -0.00000000
ATVX     1  Mu1.0019  Se1.028                       0.25306399      0.00000003     -0.00000018     -0.00000000
ATVX     1  Mu1.0020  Se1.028                       0.25306399      0.00000000     -0.00000000     -0.00000000
ATVX     1  Mu1.0021  Se1.028                       0.27731804      0.00000001      0.00000005      0.00000000
ATVX     1  Mu1.0022  Se1.028                       0.27731814      0.00000169      0.00001125      0.00000000
ATVX     1  Mu1.0023  Se1.028                       0.29658359      0.00000000      0.00000000      0.00000000
ATVX     1  Mu1.0024  Se1.028                       0.29658925      0.00000000     -0.00000000     -0.00000000
ATVX     1  Mu1.0025  Se1.028                       0.29913956     -0.00000015      0.00000039     -0.00000000
ATVX     1  Mu1.0026  Se1.028                       0.29915088      0.00000000      0.00000000      0.00000000
ATVX     1  Mu1.0001  Se1.029                      -0.21004919      0.00000000      0.00000000      0.00000000
ATVX     1  Mu1.0002  Se1.029                      -0.15384823      0.00000015      0.00000387      0.00000000
ATVX     1  Mu1.0003  Se1.029                      -0.15384300     -0.00000000      0.00000000     -0.00000000
ATVX     1  Mu1.0004  Se1.029                      -0.11124586     -0.00000000     -0.00000000      0.00000000
ATVX     1  Mu1.0005  Se1.029                       0.00861590      0.00000502     -0.00753099     -0.00000004
ATVX     1  Mu1.0006  Se1.029                       0.00861593      0.00000251     -0.00376429     -0.00000001
ATVX     1  Mu1.0007  Se1.029                       0.19765991      0.00000002     -0.00000179     -0.00000000
ATVX     1  Mu1.0008  Se1.029                       0.19765991      0.00000074     -0.00006248     -0.00000000
ATVX     1  Mu1.0009  Se1.029                       0.20918662      0.00000000     -0.00000000     -0.00000000
ATVX     1  Mu1.0010  Se1.029                       0.20919202      0.00000000     -0.00000000     -0.00000000
ATVX     1  Mu1.0011  Se1.029                       0.21181369     -0.00000000      0.00000000     -0.00000000
ATVX     1  Mu1.0012  Se1.029                       0.21181964     -0.00000000      0.00000000     -0.00000000
ATVX     1  Mu1.0013  Se1.029                       0.21623198     -0.00000140      0.00000632     -0.00000000
ATVX     1  Mu1.0014  Se1.029                       0.21623199      0.00000000     -0.00000001     -0.00000000
ATVX     1  Mu1.0015  Se1.029                       0.23307588      0.00000000     -0.00000000     -0.00000000
ATVX     1  Mu1.0016  Se1.029                       0.23309749     -0.00000000      0.00000000     -0.00000000
ATVX     1  Mu1.0017  Se1.029                       0.25124244      0.00000000     -0.00000000     -0.00000000
ATVX     1  Mu1.0018  Se1.029                       0.25126137     -0.00000000      0.00000000     -0.00000000
ATVX     1  Mu1.0019  Se1.029                       0.25306512     -0.00000000      0.00000000     -0.00000000
ATVX     1  Mu1.0020  Se1.029                       0.25306512      0.00000003     -0.00000018     -0.00000000
ATVX     1  Mu1.0021  Se1.029                       0.27731917     -0.00000169     -0.00001122      0.00000000
ATVX     1  Mu1.0022  Se1.029                       0.27731928      0.00000001      0.00000005      0.00000000
ATVX     1  Mu1.0023  Se1.029                       0.29658472      0.00000000     -0.00000000     -0.00000000
ATVX     1  Mu1.0024  Se1.029                       0.29659038     -0.00000000      0.00000000     -0.00000000
ATVX     1  Mu1.0025  Se1.029                       0.29914069      0.00000000      0.00000000      0.00000000
ATVX     1  Mu1.0026  Se1.029                       0.29915201      0.00000015     -0.00000039     -0.00000000
ATVX     1  Mu1.0001  Se1.030                      -0.04608836     -0.00000000     -0.00000000      0.00000000
ATVX     1  Mu1.0002  Se1.030                       0.01011260      0.00000000     -0.00000000     -0.00000000
ATVX     1  Mu1.0003  Se1.030                       0.01011783     -0.00000000      0.00000000     -0.00000000
ATVX     1  Mu1.0004  Se1.030                       0.05271496     -0.00000000      0.00000000     -0.00000000
ATVX     1  Mu1.0005  Se1.030                       0.17257673     -0.00000000      0.00000000     -0.00000000
ATVX     1  Mu1.0006  Se1.030                       0.17257675     -0.00000000      0.00000000     -0.00000000
ATVX     1  Mu1.0273  Se1.031                       2.29575098      0.09388966     -0.04240136     -0.00398105
ATVX     1  Mu1.0274  Se1.032                       2.29575100     -0.09388965      0.04240136     -0.00398105
AIVX     1  Mu1.0138  In1.011 Se1.033               3.33827741      0.09962722     -0.03009616     -0.00299840
AIVX     1  Mu1.0141  In1.011 Se1.033               3.34969410      0.08040388     -0.02687044     -0.00216049
AIVX     1  Mu1.0130  In1.008 Se1.034               6.29310124      0.16953124     -0.02694217     -0.00456754
AIVX     1  Mu1.0130  In1.009 Se1.035               6.29621471     -0.16918145      0.02686840     -0.00454564
AIVX     1  Mu1.0169  In1.009 Se1.035               6.56074692      0.17703892     -0.02698458     -0.00477732
AIVX     1  Mu1.0130  In1.010 Se1.036               6.29621663     -0.16918176      0.02686844     -0.00454565
AIVX     1  Mu1.0169  In1.010 Se1.036               6.56074884      0.17703899     -0.02698458     -0.00477732
AIVX     1  Mu1.0035  In1.011 Se1.037               3.46864621     -0.10387708      0.02867457     -0.00297863
AIVX     1  Mu1.0036  In1.011 Se1.037               3.46864621     -0.10368970      0.02862285     -0.00296789
AIVX     1  Mu1.0051  In1.011 Se1.038               3.71862092      0.14674084     -0.03787405     -0.00555767
BVATM    1  Mu1.0001  Se1.027 Se1.026               0.22965635      0.00000000     -0.00000000     -0.00000000
BVATM    1  Mu1.0001  Se1.028 Se1.026               0.23595283      0.00000000     -0.00000000     -0.00000000
BVATM    1  Mu1.0001  Se1.029 Se1.026               0.23595396     -0.00000000     -0.00000000      0.00000000
BVATM    1  Mu1.0001  Se1.032 Se1.031               1.95710600      0.07197526     -0.03710556     -0.00267068
BVATM    1  Mu1.0001  Se1.038 Se1.037               5.00978991      0.12960726     -0.02587080     -0.00335304
BJATP    1  Mu1.0002  In1.011 Se1.033 Se1.031       2.94146802      0.08251516     -0.02792565     -0.00230429
BJATP    1  Mu1.0001  In1.011 Se1.033 Se1.032       2.94146802     -0.08251516      0.02792565     -0.00230429
BJATM    1  Mu1.0002  In1.011 Se1.033 Se1.031       2.94146802     -0.07860871      0.02864470     -0.00225172
BJATM    1  Mu1.0001  In1.011 Se1.033 Se1.032       2.94146802      0.07860871     -0.02864470     -0.00225172
BJAIP    1  Se1.033 In1.011 Se1.033 In1.011         3.92582088      0.12235946     -0.03331774     -0.00407674
--
 
   (Skipping property calculation,
    use PROP keyword to activate)
--
 
  Total CASPT2 energies:
::    CASPT2 Root  1     Total energy:  -1345.82565915
 
  A NEW JOBIPH FILE NAMED 'JOBMIX' IS PREPARED.
********************************************************************************
forrtl: warning (528): IEEE_UNDERFLOW is signaling
--- Stop Module: caspt2 at Thu Jan 23 07:19:11 2025 /rc=_RC_ALL_IS_WELL_ ---
*** files: xmldump
    saved to directory /home/grierjones/DDCASPT2/iron_oxo_DDCASPT2/cluster/5.77
--- Module caspt2 spent 14 minutes 49 seconds ---

>>> EXPORT i = B

>>> EXPORT j = P

>>> IF (-FILE GMJ_e2_${i}_${j}.csv)

>>> COPY /tmp/5.77/GMJ_RHS_B_P.csv /home/grierjones/DDCASPT2/iron_oxo_DDCASPT2/cluster/5.77/GMJ_RHS_B_P.csv

>>> COPY /tmp/5.77/GMJ_IVECW_B_P.csv /home/grierjones/DDCASPT2/iron_oxo_DDCASPT2/cluster/5.77/GMJ_IVECW_B_P.csv

>>> COPY /tmp/5.77/GMJ_IVECX_B_P.csv /home/grierjones/DDCASPT2/iron_oxo_DDCASPT2/cluster/5.77/GMJ_IVECX_B_P.csv

>>> COPY /tmp/5.77/GMJ_IVECC2_B_P.csv /home/grierjones/DDCASPT2/iron_oxo_DDCASPT2/cluster/5.77/GMJ_IVECC2_B_P.csv

>>> COPY /tmp/5.77/GMJ_e2_B_P.csv /home/grierjones/DDCASPT2/iron_oxo_DDCASPT2/cluster/5.77/GMJ_e2_B_P.csv

>>> END FOREACH

>>> EXPORT j = M

>>> IF (-FILE GMJ_e2_${i}_${j}.csv)

>>> COPY /tmp/5.77/GMJ_RHS_B_M.csv /home/grierjones/DDCASPT2/iron_oxo_DDCASPT2/cluster/5.77/GMJ_RHS_B_M.csv

>>> COPY /tmp/5.77/GMJ_IVECW_B_M.csv /home/grierjones/DDCASPT2/iron_oxo_DDCASPT2/cluster/5.77/GMJ_IVECW_B_M.csv

>>> COPY /tmp/5.77/GMJ_IVECX_B_M.csv /home/grierjones/DDCASPT2/iron_oxo_DDCASPT2/cluster/5.77/GMJ_IVECX_B_M.csv

>>> COPY /tmp/5.77/GMJ_IVECC2_B_M.csv /home/grierjones/DDCASPT2/iron_oxo_DDCASPT2/cluster/5.77/GMJ_IVECC2_B_M.csv

>>> COPY /tmp/5.77/GMJ_e2_B_M.csv /home/grierjones/DDCASPT2/iron_oxo_DDCASPT2/cluster/5.77/GMJ_e2_B_M.csv

>>> END FOREACH

>>> END FOREACH

>>> EXPORT i = E

>>> EXPORT j = P

>>> IF (-FILE GMJ_e2_${i}_${j}.csv)

>>> COPY /tmp/5.77/GMJ_RHS_E_P.csv /home/grierjones/DDCASPT2/iron_oxo_DDCASPT2/cluster/5.77/GMJ_RHS_E_P.csv

>>> COPY /tmp/5.77/GMJ_IVECW_E_P.csv /home/grierjones/DDCASPT2/iron_oxo_DDCASPT2/cluster/5.77/GMJ_IVECW_E_P.csv

>>> COPY /tmp/5.77/GMJ_IVECX_E_P.csv /home/grierjones/DDCASPT2/iron_oxo_DDCASPT2/cluster/5.77/GMJ_IVECX_E_P.csv

>>> COPY /tmp/5.77/GMJ_IVECC2_E_P.csv /home/grierjones/DDCASPT2/iron_oxo_DDCASPT2/cluster/5.77/GMJ_IVECC2_E_P.csv

>>> COPY /tmp/5.77/GMJ_e2_E_P.csv /home/grierjones/DDCASPT2/iron_oxo_DDCASPT2/cluster/5.77/GMJ_e2_E_P.csv

>>> END FOREACH

>>> EXPORT j = M

>>> IF (-FILE GMJ_e2_${i}_${j}.csv)

>>> COPY /tmp/5.77/GMJ_RHS_E_M.csv /home/grierjones/DDCASPT2/iron_oxo_DDCASPT2/cluster/5.77/GMJ_RHS_E_M.csv

>>> COPY /tmp/5.77/GMJ_IVECW_E_M.csv /home/grierjones/DDCASPT2/iron_oxo_DDCASPT2/cluster/5.77/GMJ_IVECW_E_M.csv

>>> COPY /tmp/5.77/GMJ_IVECX_E_M.csv /home/grierjones/DDCASPT2/iron_oxo_DDCASPT2/cluster/5.77/GMJ_IVECX_E_M.csv

>>> COPY /tmp/5.77/GMJ_IVECC2_E_M.csv /home/grierjones/DDCASPT2/iron_oxo_DDCASPT2/cluster/5.77/GMJ_IVECC2_E_M.csv

>>> COPY /tmp/5.77/GMJ_e2_E_M.csv /home/grierjones/DDCASPT2/iron_oxo_DDCASPT2/cluster/5.77/GMJ_e2_E_M.csv

>>> END FOREACH

>>> END FOREACH

>>> EXPORT i = F

>>> EXPORT j = P

>>> IF (-FILE GMJ_e2_${i}_${j}.csv)

>>> COPY /tmp/5.77/GMJ_RHS_F_P.csv /home/grierjones/DDCASPT2/iron_oxo_DDCASPT2/cluster/5.77/GMJ_RHS_F_P.csv

>>> COPY /tmp/5.77/GMJ_IVECW_F_P.csv /home/grierjones/DDCASPT2/iron_oxo_DDCASPT2/cluster/5.77/GMJ_IVECW_F_P.csv

>>> COPY /tmp/5.77/GMJ_IVECX_F_P.csv /home/grierjones/DDCASPT2/iron_oxo_DDCASPT2/cluster/5.77/GMJ_IVECX_F_P.csv

>>> COPY /tmp/5.77/GMJ_IVECC2_F_P.csv /home/grierjones/DDCASPT2/iron_oxo_DDCASPT2/cluster/5.77/GMJ_IVECC2_F_P.csv

>>> COPY /tmp/5.77/GMJ_e2_F_P.csv /home/grierjones/DDCASPT2/iron_oxo_DDCASPT2/cluster/5.77/GMJ_e2_F_P.csv

>>> END FOREACH

>>> EXPORT j = M

>>> IF (-FILE GMJ_e2_${i}_${j}.csv)

>>> COPY /tmp/5.77/GMJ_RHS_F_M.csv /home/grierjones/DDCASPT2/iron_oxo_DDCASPT2/cluster/5.77/GMJ_RHS_F_M.csv

>>> COPY /tmp/5.77/GMJ_IVECW_F_M.csv /home/grierjones/DDCASPT2/iron_oxo_DDCASPT2/cluster/5.77/GMJ_IVECW_F_M.csv

>>> COPY /tmp/5.77/GMJ_IVECX_F_M.csv /home/grierjones/DDCASPT2/iron_oxo_DDCASPT2/cluster/5.77/GMJ_IVECX_F_M.csv

>>> COPY /tmp/5.77/GMJ_IVECC2_F_M.csv /home/grierjones/DDCASPT2/iron_oxo_DDCASPT2/cluster/5.77/GMJ_IVECC2_F_M.csv

>>> COPY /tmp/5.77/GMJ_e2_F_M.csv /home/grierjones/DDCASPT2/iron_oxo_DDCASPT2/cluster/5.77/GMJ_e2_F_M.csv

>>> END FOREACH

>>> END FOREACH

>>> EXPORT i = G

>>> EXPORT j = P

>>> IF (-FILE GMJ_e2_${i}_${j}.csv)

>>> COPY /tmp/5.77/GMJ_RHS_G_P.csv /home/grierjones/DDCASPT2/iron_oxo_DDCASPT2/cluster/5.77/GMJ_RHS_G_P.csv

>>> COPY /tmp/5.77/GMJ_IVECW_G_P.csv /home/grierjones/DDCASPT2/iron_oxo_DDCASPT2/cluster/5.77/GMJ_IVECW_G_P.csv

>>> COPY /tmp/5.77/GMJ_IVECX_G_P.csv /home/grierjones/DDCASPT2/iron_oxo_DDCASPT2/cluster/5.77/GMJ_IVECX_G_P.csv

>>> COPY /tmp/5.77/GMJ_IVECC2_G_P.csv /home/grierjones/DDCASPT2/iron_oxo_DDCASPT2/cluster/5.77/GMJ_IVECC2_G_P.csv

>>> COPY /tmp/5.77/GMJ_e2_G_P.csv /home/grierjones/DDCASPT2/iron_oxo_DDCASPT2/cluster/5.77/GMJ_e2_G_P.csv

>>> END FOREACH

>>> EXPORT j = M

>>> IF (-FILE GMJ_e2_${i}_${j}.csv)

>>> COPY /tmp/5.77/GMJ_RHS_G_M.csv /home/grierjones/DDCASPT2/iron_oxo_DDCASPT2/cluster/5.77/GMJ_RHS_G_M.csv

>>> COPY /tmp/5.77/GMJ_IVECW_G_M.csv /home/grierjones/DDCASPT2/iron_oxo_DDCASPT2/cluster/5.77/GMJ_IVECW_G_M.csv

>>> COPY /tmp/5.77/GMJ_IVECX_G_M.csv /home/grierjones/DDCASPT2/iron_oxo_DDCASPT2/cluster/5.77/GMJ_IVECX_G_M.csv

>>> COPY /tmp/5.77/GMJ_IVECC2_G_M.csv /home/grierjones/DDCASPT2/iron_oxo_DDCASPT2/cluster/5.77/GMJ_IVECC2_G_M.csv

>>> COPY /tmp/5.77/GMJ_e2_G_M.csv /home/grierjones/DDCASPT2/iron_oxo_DDCASPT2/cluster/5.77/GMJ_e2_G_M.csv

>>> END FOREACH

>>> END FOREACH

>>> EXPORT i = H

>>> EXPORT j = P

>>> IF (-FILE GMJ_e2_${i}_${j}.csv)

>>> COPY /tmp/5.77/GMJ_RHS_H_P.csv /home/grierjones/DDCASPT2/iron_oxo_DDCASPT2/cluster/5.77/GMJ_RHS_H_P.csv

>>> COPY /tmp/5.77/GMJ_IVECW_H_P.csv /home/grierjones/DDCASPT2/iron_oxo_DDCASPT2/cluster/5.77/GMJ_IVECW_H_P.csv

>>> COPY /tmp/5.77/GMJ_IVECX_H_P.csv /home/grierjones/DDCASPT2/iron_oxo_DDCASPT2/cluster/5.77/GMJ_IVECX_H_P.csv

>>> COPY /tmp/5.77/GMJ_IVECC2_H_P.csv /home/grierjones/DDCASPT2/iron_oxo_DDCASPT2/cluster/5.77/GMJ_IVECC2_H_P.csv

>>> COPY /tmp/5.77/GMJ_e2_H_P.csv /home/grierjones/DDCASPT2/iron_oxo_DDCASPT2/cluster/5.77/GMJ_e2_H_P.csv

>>> END FOREACH

>>> EXPORT j = M

>>> IF (-FILE GMJ_e2_${i}_${j}.csv)

>>> COPY /tmp/5.77/GMJ_RHS_H_M.csv /home/grierjones/DDCASPT2/iron_oxo_DDCASPT2/cluster/5.77/GMJ_RHS_H_M.csv

>>> COPY /tmp/5.77/GMJ_IVECW_H_M.csv /home/grierjones/DDCASPT2/iron_oxo_DDCASPT2/cluster/5.77/GMJ_IVECW_H_M.csv

>>> COPY /tmp/5.77/GMJ_IVECX_H_M.csv /home/grierjones/DDCASPT2/iron_oxo_DDCASPT2/cluster/5.77/GMJ_IVECX_H_M.csv

>>> COPY /tmp/5.77/GMJ_IVECC2_H_M.csv /home/grierjones/DDCASPT2/iron_oxo_DDCASPT2/cluster/5.77/GMJ_IVECC2_H_M.csv

>>> COPY /tmp/5.77/GMJ_e2_H_M.csv /home/grierjones/DDCASPT2/iron_oxo_DDCASPT2/cluster/5.77/GMJ_e2_H_M.csv

>>> END FOREACH

>>> END FOREACH

>>> EXPORT i = A

>>> IF (-FILE GMJ_e2_$i.csv)

>>> COPY /tmp/5.77/GMJ_RHS_A.csv /home/grierjones/DDCASPT2/iron_oxo_DDCASPT2/cluster/5.77/GMJ_RHS_A.csv

>>> COPY /tmp/5.77/GMJ_IVECW_A.csv /home/grierjones/DDCASPT2/iron_oxo_DDCASPT2/cluster/5.77/GMJ_IVECW_A.csv

>>> COPY /tmp/5.77/GMJ_IVECX_A.csv /home/grierjones/DDCASPT2/iron_oxo_DDCASPT2/cluster/5.77/GMJ_IVECX_A.csv

>>> COPY /tmp/5.77/GMJ_IVECC2_A.csv /home/grierjones/DDCASPT2/iron_oxo_DDCASPT2/cluster/5.77/GMJ_IVECC2_A.csv

>>> COPY /tmp/5.77/GMJ_e2_A.csv /home/grierjones/DDCASPT2/iron_oxo_DDCASPT2/cluster/5.77/GMJ_e2_A.csv

>>> END FOREACH

>>> EXPORT i = C

>>> IF (-FILE GMJ_e2_$i.csv)

>>> COPY /tmp/5.77/GMJ_RHS_C.csv /home/grierjones/DDCASPT2/iron_oxo_DDCASPT2/cluster/5.77/GMJ_RHS_C.csv

>>> COPY /tmp/5.77/GMJ_IVECW_C.csv /home/grierjones/DDCASPT2/iron_oxo_DDCASPT2/cluster/5.77/GMJ_IVECW_C.csv

>>> COPY /tmp/5.77/GMJ_IVECX_C.csv /home/grierjones/DDCASPT2/iron_oxo_DDCASPT2/cluster/5.77/GMJ_IVECX_C.csv

>>> COPY /tmp/5.77/GMJ_IVECC2_C.csv /home/grierjones/DDCASPT2/iron_oxo_DDCASPT2/cluster/5.77/GMJ_IVECC2_C.csv

>>> COPY /tmp/5.77/GMJ_e2_C.csv /home/grierjones/DDCASPT2/iron_oxo_DDCASPT2/cluster/5.77/GMJ_e2_C.csv

>>> END FOREACH

>>> EXPORT i = D

>>> IF (-FILE GMJ_e2_$i.csv)

>>> COPY /tmp/5.77/GMJ_RHS_D.csv /home/grierjones/DDCASPT2/iron_oxo_DDCASPT2/cluster/5.77/GMJ_RHS_D.csv

>>> COPY /tmp/5.77/GMJ_IVECW_D.csv /home/grierjones/DDCASPT2/iron_oxo_DDCASPT2/cluster/5.77/GMJ_IVECW_D.csv

>>> COPY /tmp/5.77/GMJ_IVECX_D.csv /home/grierjones/DDCASPT2/iron_oxo_DDCASPT2/cluster/5.77/GMJ_IVECX_D.csv

>>> COPY /tmp/5.77/GMJ_IVECC2_D.csv /home/grierjones/DDCASPT2/iron_oxo_DDCASPT2/cluster/5.77/GMJ_IVECC2_D.csv

>>> COPY /tmp/5.77/GMJ_e2_D.csv /home/grierjones/DDCASPT2/iron_oxo_DDCASPT2/cluster/5.77/GMJ_e2_D.csv

>>> END FOREACH

.########################.
.# Non-zero return code #.
.########################.

    Timing: Wall=1037.59 User=1032.88 System=4.43
************************************
*** WorkDir at /tmp/5.77 cleaned ***
************************************
