   This run of MOLCAS is using the pymolcas driver

                             OPE
                             OPE          NMOL  CASOP  ENMOLC A   SO
                 OPE        NMOLC        AS  OP EN  MO LC     AS  OP
                OPENM       OL CA        SO  PE NM  OL CA     SOP EN
                OP EN      MO   LC       AS  OP ENMOL  CASO   PENMOL
                OP  EN     MO   LC       AS  OP EN     MO     LC ASO
               OP   E  NMOL  C  AS       OP  EN MO     LC     AS  OP
               OP  E   NMO   LC AS        OPEN  MO     LCASOP EN   M
               O  PEN   MO  LCA  SO
            OPE   NMO   L   CAS    OP
        OPENMOL  CASOP     ENMOL   CASOPE
     OPENMOLCA   SOPENMOLCASOPEN   MOLCASOPE
    OPENMOLCAS   OP           EN   MOL    CAS
    OPENMOLCAS       OP  ENM        O     LCA
    OPENMOLCAS    OPEN  MOLCASO     P  E  NMO
    OPENMOLCAS     OP               E  N  MOL
    OPENMOLCA   SO           PENM   O  L  CAS    OPEN    MO    LCAS
    OPENMOLCA   SOP           ENM   O  L  CAS   OP  EN  MOLC  AS   O
    OPENMOLCA   SOPE           NM      O  LCA   S      OP  EN MO
    OPENMOLC                AS         O  PEN   M      OL  CA  SOPE
    OPENMO        LCASOPE  NMOL        C  ASO   P      ENMOLC     AS
    OPE     NMO      LCA  SO     P     E   NM   OL  CA SO  PE N   MO
          OPENMOLCA            SOPE   NMO        LCAS  O    P  ENMO
     OPENMOLCASOPENMOLCASOPENMOLCASOPENMOLCA
        OPENMOLCASOPENMOLCASOPENMOLCASOPE
            OPENMOLCASOPENMOLCASOPENM
               OPENMOLCASOPENMOLCA        version: ea724fe96-dirty
                   OPENMOLCASO
                       OPE                tag:

 OpenMolcas is free software; you can redistribute it and/or modify it
 under the terms of the GNU Lesser General Public License version 2.1.
 OpenMolcas is distributed in the hope that it will be useful, but it
 is provided "as is" and without any express or implied warranties.
 For more details see the full text of the license in the file
 LICENSE or in <http://www.gnu.org/licenses/>.

                 Copyright (C) The OpenMolcas Authors
           For the author list and the recommended citation,
                   consult the file CONTRIBUTORS.md

           *************************************************
           * pymolcas version py2.28                       *
           *   build c4a6d18ded8cb6cad61d2372a9abd97c      *
           *   (after the EMIL interpreter by V. Veryazov) *
           *************************************************

configuration info
------------------
C Compiler ID: Intel
C flags: -std=gnu99
Fortran Compiler ID: Intel
Fortran flags: -fpp -i8 -r8 -heap-arrays
Definitions: _MOLCAS_;_I8_;_LINUX_
Parallel: OFF (GA=OFF)


   -------------------------------------------------------------------------------
  |
  |              Project: 5.84
  |       Submitted from: /home/grierjones/DDCASPT2/iron_oxo_DDCASPT2/cluster/5.84
  |         Scratch area: /tmp/5.84
  |      Save outputs to: /home/grierjones/DDCASPT2/iron_oxo_DDCASPT2/cluster/5.84
  |               Molcas: /home/grierjones/Test/build
  |
  | Scratch area is empty
  |
  |       MOLCAS_DRIVER = /usr/local/pymolcas
  | MOLCAS_KEEP_WORKDIR = NO
  |  MOLCAS_NEW_WORKDIR = YES
  |       MOLCAS_NPROCS = 1
  |        MOLCAS_PRINT = NORMAL
  |       MOLCAS_SOURCE = /home/grierjones/Test/build
  |    MOLCAS_STRUCTURE = 0
  |
   -------------------------------------------------------------------------------

++ ---------   Input file   ---------

&GATEWAY
coord=5.84.xyz
Basis = ANO-RCC-VDZP
Group = nosymm
Expert
End of Input

&SEWARD
End of Input

&SCF
UHF
charge
2
spin
5

>>> COPY $WorkDir/5.84.scf.h5 $CurrDir/

&RASSCF
Title= RASSCF
FileOrb
/home/grierjones/DDCASPT2/iron_oxo_DDCASPT2/cluster/5.83/5.83.RasOrb
NACTEL
10 0 0
RAS2
14
Symmetry
1
Spin
5
charge
2
orblisting
all
ITERation
300 200

>>> COPY $WorkDir/5.84.rasscf.h5 $CurrDir/

>>> COPY $WorkDir/GMJ_Fock_MO.csv $CurrDir/5.84.GMJ_Fock_MO.csv

>>> COPY $WorkDir/GMJ_PT2_Fock_MO.csv $CurrDir/5.84.GMJ_PT2_Fock_MO.csv

&MOTRA
Frozen=0
LUMORB

>>> COPY $WorkDir/GMJ_one_int_indx.csv $CurrDir/5.84.GMJ_one_int_indx.csv

>>> COPY $WorkDir/GMJ_one_int.csv $CurrDir/5.84.GMJ_one_int.csv

>>> COPY $WorkDir/GMJ_two_int_indx.csv $CurrDir/5.84.GMJ_two_int_indx.csv

>>> COPY $WorkDir/GMJ_two_int.csv $CurrDir/5.84.GMJ_two_int.csv

&CASPT2
Frozen
0
MAXITER
50

>>> FOREACH i IN (B,E,F,G,H)

  >>> FOREACH j IN (P,M)

    >>> IF (-FILE GMJ_e2_${i}_${j}.csv)

      >>> COPY $WorkDir/GMJ_RHS_${i}_${j}.csv $CurrDir/GMJ_RHS_${i}_${j}.csv

      >>> COPY $WorkDir/GMJ_IVECW_${i}_${j}.csv $CurrDir/GMJ_IVECW_${i}_${j}.csv

      >>> COPY $WorkDir/GMJ_IVECX_${i}_${j}.csv $CurrDir/GMJ_IVECX_${i}_${j}.csv

      >>> COPY $WorkDir/GMJ_IVECC2_${i}_${j}.csv $CurrDir/GMJ_IVECC2_${i}_${j}.csv

      >>> COPY $WorkDir/GMJ_e2_${i}_${j}.csv $CurrDir/GMJ_e2_${i}_${j}.csv

    >>> END IF

  >>> END FOREACH

>>> END FOREACH

>>> FOREACH i IN (A,C,D)

  >>> IF (-FILE GMJ_e2_$i.csv)

    >>> COPY $WorkDir/GMJ_RHS_$i.csv $CurrDir/GMJ_RHS_$i.csv

    >>> COPY $WorkDir/GMJ_IVECW_$i.csv $CurrDir/GMJ_IVECW_$i.csv

    >>> COPY $WorkDir/GMJ_IVECX_$i.csv $CurrDir/GMJ_IVECX_$i.csv

    >>> COPY $WorkDir/GMJ_IVECC2_$i.csv $CurrDir/GMJ_IVECC2_$i.csv

    >>> COPY $WorkDir/GMJ_e2_$i.csv $CurrDir/GMJ_e2_$i.csv

  >>> END IF

>>> END FOREACH

-- ----------------------------------

--- Start Module: gateway at Sun Dec 22 22:13:16 2024 ---
 
()()()()()()()()()()()()()()()()()()()()()()()()()()()()()()()()()()()()()()()()()()()()()()()()()()

                                              &GATEWAY

                                   only a single process is used
                       available to each process: 2.0 GB of memory, 1 thread?
()()()()()()()()()()()()()()()()()()()()()()()()()()()()()()()()()()()()()()()()()()()()()()()()()()
 
 ###############################################################################
 ###############################################################################
 ###                                                                         ###
 ###                                                                         ###
 ###                                                                         ###
 ###    WARNING: EXPERT option is ON!                                        ###
 ###                                                                         ###
 ###                                                                         ###
 ###############################################################################
 ###############################################################################
 
++    Symmetry information:
      ---------------------
 
                    Character Table for C1 
 
                             E  
                    a        1  x, y, xy, Rz, z, xz, Ry, yz, Rx, I
--
 
 
++    Basis set information:
      ----------------------
 
 
      Basis set label: O.ANO-RCC...3S2P1D.
 
      Electronic valence basis set:
      ------------------
      Associated Effective Charge   8.000000 au
      Associated Actual Charge      8.000000 au
      Nuclear Model: Point charge
 
      Shell  nPrim  nBasis  Cartesian Spherical Contaminant
         s      14       3        X                  
         p       9       2        X                  
         d       4       1                 X         
 
 
      Basis set label: FE.ANO-RCC...5S4P2D1F.
 
      Electronic valence basis set:
      ------------------
      Associated Effective Charge  26.000000 au
      Associated Actual Charge     26.000000 au
      Nuclear Model: Point charge
 
      Shell  nPrim  nBasis  Cartesian Spherical Contaminant
         s      21       5        X                  
         p      15       4        X                  
         d      10       2                 X         
         f       6       1                 X         
--
 
 
++    Molecular structure info:
      -------------------------
 
                    ************************************************ 
                    **** Cartesian Coordinates / Bohr, Angstrom **** 
                    ************************************************ 
 
     Center  Label                x              y              z                     x              y              z
        1      O1               0.000000       0.000000       7.033636              0.000000       0.000000       3.722040
        2      FE2              0.000000       0.000000      -4.010074              0.000000       0.000000      -2.122040
--
 
 
            Nuclear Potential Energy             18.83424933 au
 
 ###############################################################################
 ###############################################################################
 ###                                                                         ###
 ###                                                                         ###
 ###    There were warnings during the execution                             ###
 ###    Please, check the output with care!                                  ###
 ###                                                                         ###
 ###                                                                         ###
 ###############################################################################
 ###############################################################################
--- Stop Module: gateway at Sun Dec 22 22:13:17 2024 /rc=_RC_ALL_IS_WELL_ ---
*** files: xmldump
    saved to directory /home/grierjones/DDCASPT2/iron_oxo_DDCASPT2/cluster/5.84

--- Start Module: seward at Sun Dec 22 22:13:17 2024 ---
 
()()()()()()()()()()()()()()()()()()()()()()()()()()()()()()()()()()()()()()()()()()()()()()()()()()

                                              &SEWARD

                                   only a single process is used
                       available to each process: 2.0 GB of memory, 1 thread?
()()()()()()()()()()()()()()()()()()()()()()()()()()()()()()()()()()()()()()()()()()()()()()()()()()
 
 ###############################################################################
 ###############################################################################
 ###                                                                         ###
 ###                                                                         ###
 ###                                                                         ###
 ###    WARNING: EXPERT option is ON!                                        ###
 ###                                                                         ###
 ###                                                                         ###
 ###############################################################################
 ###############################################################################
               SEWARD will generate:
                  Multipole Moment integrals up to order  2
                  Kinetic Energy integrals
                  Nuclear Attraction integrals (point charge)
                  One-Electron Hamiltonian integrals
                  Velocity integrals
                  Relativistic Douglas-Kroll-Hess integrals:
                    - Parametrization         : EXP
                    - DKH order of Hamiltonian: 2
                    - DKH order of Properties : 0
                         - multipole moment operators
                         - electric potential operators
                         - contact operators
                  Atomic mean-field integrals
                  Two-Electron Repulsion integrals
 
                   Integrals are discarded if absolute value <: 0.10E-13
                   Integral cutoff threshold is set to       <: 0.10E-15
 
            Nuclear Potential Energy             18.83424933 au
 
 
      Basis set specifications :
      Symmetry species         a  
      Basis functions           48
 
 
  Input file to MOLDEN was generated!
 
 ###############################################################################
 ###############################################################################
 ###                                                                         ###
 ###                                                                         ###
 ###    There were warnings during the execution                             ###
 ###    Please, check the output with care!                                  ###
 ###                                                                         ###
 ###                                                                         ###
 ###############################################################################
 ###############################################################################
--- Stop Module: seward at Sun Dec 22 22:13:17 2024 /rc=_RC_ALL_IS_WELL_ ---
*** files: 5.84.GssOrb 5.84.guessorb.h5 5.84.guessorb.molden xmldump
    saved to directory /home/grierjones/DDCASPT2/iron_oxo_DDCASPT2/cluster/5.84

*** symbolic link created: INPORB -> 5.84.GssOrb
--- Start Module: scf at Sun Dec 22 22:13:17 2024 ---
 
()()()()()()()()()()()()()()()()()()()()()()()()()()()()()()()()()()()()()()()()()()()()()()()()()()

                                                &SCF

                                   only a single process is used
                       available to each process: 2.0 GB of memory, 1 thread?
()()()()()()()()()()()()()()()()()()()()()()()()()()()()()()()()()()()()()()()()()()()()()()()()()()
 
 *** Possible bug in opening file
 *** isFreeUnit resets the unit number
++    Input section:
      --------------
 
      Header of the integral files:
      
       Integrals generated by seward 4.2.0  , Sun Dec 22 22:13:17 2024
 
 
      Cartesian coordinates in Angstrom:
      -----------------------------------------------------
      No.  Label        X            Y            Z        
      -----------------------------------------------------
       1   O1         0.00000000   0.00000000   3.72204000
       2   FE2        0.00000000   0.00000000  -2.12204000
      -----------------------------------------------------
      Nuclear repulsion energy =   18.83424933
--
 
++    Orbital specifications:
      -----------------------
 
      Symmetry species               1
                                     a
      Frozen orbitals                0
      Start temperature = 0.500
      End temperature   = 0.010
      Temperature Factor= 0.460
      Deleted orbitals               0
      Total number of orbitals      48
      Number of basis functions     48
--
 
      Molecular charge                           2.000
 
++    Optimization specifications:
      ----------------------------
 
      SCF Algorithm: Conventional USCF
      D(i)-D(i-1) density differences are used
      Number of density matrices in core                5
      Maximum number of NDDO SCF iterations           400
      Maximum number of HF SCF iterations             400
      Threshold for SCF energy change            0.10E-08
      Threshold for density matrix               0.10E-03
      Threshold for Fock matrix                  0.15E-03
      Threshold for linear dependence            0.10E-08
      Threshold at which DIIS is turned on       0.15E+00
      Threshold at which QNR/C2DIIS is turned on 0.75E-01
      Threshold for Norm(delta) (QNR/C2DIIS)     0.20E-04
      DIIS extrapolation of the SCF procedure
      All orbitals punched on: UHFORB
--
 
      Input vectors read from INPORB
      Orbital file label: *Guess orbitals
 
 
++ Convergence information
                               UHF SCF        iterations: Energy and convergence statistics
 
Iter     Tot. SCF        One-elec.       Two-elec.     Energy      Max Dij or  Max Fij      DNorm      TNorm      AccCon     Time
         Energy          Energy          Energy        Change      Delta Norm                                                in Sec.
 
 The total and one-electron energies are shifted by a value of      1000. a.u.
 
   1  -343.311299213  -871.696687127   509.551138584   0.00E+00    0.16E+00*   0.35E+00*    0.75E+01   0.18E+03   None         0.
   2  -343.489856184  -867.648797244   505.324691731  -0.18E+00*   0.11E+00*   0.14E+00*    0.10E+01   0.18E+03   EDIIS        0.
   3  -341.587841569  -915.822209038   555.400118140   0.19E+01*   0.63E-01*   0.14E+00*    0.18E+01   0.19E+03   EDIIS        0.
   4  -342.846179718  -855.314608077   493.634179030  -0.13E+01*   0.75E-01*   0.60E-01*    0.15E+01   0.17E+03   EDIIS        0.
   5  -344.050890398  -889.756385031   526.871245304  -0.12E+01*   0.25E-01*   0.35E-01*    0.86E+00   0.18E+03   EDIIS        0.
   6  -344.117444331  -861.158372531   498.206678871  -0.67E-01*   0.99E-01*   0.98E-01*    0.18E+01   0.17E+03   EDIIS        0.
   7  -343.663843579  -899.656837746   537.158744838   0.45E+00*   0.34E-01*   0.42E-01*    0.16E+01   0.18E+03   EDIIS        0.
   8  -344.934289423  -878.668031897   514.899493145  -0.13E+01*   0.28E+00*   0.18E+00*    0.19E+01   0.18E+03   EDIIS        0.
   9  -344.050915256  -864.040877884   501.155713299   0.88E+00*   0.21E+00*   0.32E-01*    0.22E+01   0.17E+03   EDIIS        0.
  10  -345.176754855  -872.056820128   508.045815944  -0.11E+01*   0.14E+00*   0.15E+00*    0.13E+01   0.18E+03   EDIIS        0.
  11  -345.286562790  -870.981709387   506.860897268  -0.11E+00*   0.11E+00*   0.72E-01*    0.67E+00   0.18E+03   EDIIS        0.
  12  -345.297629541  -871.808573640   507.676694770  -0.11E-01*   0.33E-01*   0.24E-01*    0.26E+00   0.18E+03   EDIIS        0.
  13  -345.299016440  -871.523770035   507.390504265  -0.14E-02*   0.20E-01*   0.11E-01*    0.82E-01   0.18E+03   EDIIS        0.
 
       Fermi aufbau procedure completed!
      nOcc(alpha)=   18
      nOcc(beta) =   14
 
  14  -345.299301540  -871.670923546   507.537372677  -0.29E-03*   0.79E-02*   0.44E-02*    0.37E-01   0.18E+03   EDIIS        0.
  15  -345.299377153  -871.615102783   507.481476301  -0.76E-04*   0.54E-02*   0.31E-02*    0.18E-01   0.18E+03   EDIIS        0.
  16  -345.299400002  -871.638756021   507.505106690  -0.23E-04*   0.29E-02*   0.16E-02*    0.10E-01   0.18E+03   EDIIS        0.
  17  -345.299407341  -871.629509112   507.495852443  -0.73E-05*   0.17E-02*   0.98E-03*    0.56E-02   0.18E+03   EDIIS        0.
  18  -345.299409775  -871.633098050   507.499438946  -0.24E-05*   0.17E-03*   0.13E-02*    0.33E-02   0.18E+03   c2DIIS       0.
  19  -345.299411004  -871.629810126   507.496149793  -0.12E-05*   0.18E-03*   0.70E-04     0.59E-03   0.18E+03   QNRc2DIIS    0.
  20  -345.299411017  -871.632805594   507.499145247  -0.13E-07*   0.73E-04*   0.26E-04     0.25E-03   0.18E+03   QNRc2DIIS    0.
  21  -345.299411020  -871.632138576   507.498478226  -0.30E-08*   0.79E-04*   0.12E-04     0.10E-03   0.18E+03   QNRc2DIIS    0.
  22  -345.299411021  -871.631950406   507.498290056  -0.83E-09    0.85E-05    0.15E-05     0.11E-03   0.18E+03   QNRc2DIIS    0.
 
       Convergence after 22 Macro Iterations
--
 
 *****************************************************************************************************************************
 *                                                                                                                           *
 *                                             SCF/KS-DFT Program, Final results                                             *
 *                                                                                                                           *
 *                                                                                                                           *
 *                                                                                                                           *
 *                                                       Final Results                                                       *
 *                                                                                                                           *
 *****************************************************************************************************************************
 
::    Total SCF energy                              -1345.2994110212
      One-electron energy                           -1871.6319504061
      Two-electron energy                             507.4982900557
      Nuclear repulsion energy                         18.8342493291
      Kinetic energy (interpolated)                  1399.7970821872
      Virial theorem                                    0.9610674491
      Total spin, S(S+1)                                8.0093787040
      Total spin, S                                     2.3739134823
      Max non-diagonal density matrix element           0.0000057578
      Max non-diagonal Fock matrix element              0.0000017432
 
 
      All orbitals with orbital energies smaller than  E(LUMO)+0.5 are printed
 
++    Molecular orbitals:
      -------------------
 
      Title: UHF orbitals (alpha)

      Molecular orbitals for symmetry species 1: a  
 
          Orbital            1         2         3         4         5         6         7         8         9        10    
          Energy         -264.6176  -33.4952  -28.5590  -28.5590  -28.5590  -20.8158   -5.4433   -3.9832   -3.9832   -3.9832
          Occ. No.          1.0000    1.0000    1.0000    1.0000    1.0000    1.0000    1.0000    1.0000    1.0000    1.0000
 
        1 O1     1s         0.0000   -0.0000   -0.0000    0.0000    0.0000    1.0000   -0.0000   -0.0000   -0.0000   -0.0000
        2 O1     2s         0.0000   -0.0000   -0.0000    0.0000    0.0000   -0.0022   -0.0001   -0.0000   -0.0000   -0.0001
        3 O1     3s         0.0000   -0.0000   -0.0000    0.0000    0.0000    0.0004   -0.0002   -0.0000   -0.0000   -0.0001
        4 O1     2px        0.0000   -0.0000   -0.0000   -0.0000    0.0000   -0.0000   -0.0000   -0.0000    0.0000   -0.0000
        5 O1     3px        0.0000    0.0000   -0.0000   -0.0000    0.0000    0.0000    0.0000   -0.0001    0.0000    0.0000
        6 O1     2py       -0.0000    0.0000   -0.0000   -0.0000   -0.0000    0.0000   -0.0000   -0.0000   -0.0000   -0.0000
        7 O1     3py       -0.0000    0.0000   -0.0000   -0.0000   -0.0000   -0.0000   -0.0000   -0.0000   -0.0001    0.0000
        8 O1     2pz        0.0000    0.0000    0.0000   -0.0000   -0.0000   -0.0001    0.0002    0.0000    0.0000    0.0001
        9 O1     3pz        0.0000    0.0000    0.0001   -0.0000   -0.0000    0.0000    0.0005    0.0000    0.0000    0.0002
       10 O1     3d2-      -0.0000    0.0000   -0.0000   -0.0000    0.0000   -0.0000    0.0000   -0.0000    0.0000   -0.0000
       11 O1     3d1-       0.0000   -0.0000    0.0000    0.0000    0.0000   -0.0000   -0.0000    0.0000    0.0000    0.0000
       12 O1     3d0       -0.0000   -0.0000   -0.0000    0.0000    0.0000    0.0009   -0.0000    0.0000   -0.0000   -0.0000
       13 O1     3d1+      -0.0000   -0.0000    0.0000    0.0000   -0.0000    0.0000   -0.0000    0.0000   -0.0000   -0.0000
       14 O1     3d2+       0.0000    0.0000   -0.0000   -0.0000    0.0000   -0.0000   -0.0000   -0.0000    0.0000    0.0000
       15 FE2    1s         1.0000   -0.0000   -0.0000    0.0000    0.0000    0.0000    0.0000    0.0000   -0.0000    0.0000
       16 FE2    2s         0.0000    1.0000   -0.0000   -0.0000    0.0000    0.0000   -0.0035   -0.0000   -0.0000   -0.0000
       17 FE2    3s        -0.0000    0.0035    0.0000   -0.0000   -0.0000   -0.0000    0.9999    0.0000    0.0000   -0.0000
       18 FE2    4s         0.0000   -0.0003    0.0000   -0.0000   -0.0000   -0.0000   -0.0077    0.0000    0.0000    0.0000
       19 FE2    5s        -0.0000    0.0004    0.0000   -0.0000   -0.0000   -0.0000    0.0082    0.0000    0.0000    0.0000
       20 FE2    2px       -0.0000    0.0000   -0.0000    0.9921   -0.1257    0.0000   -0.0000   -0.0034    0.0006   -0.0000
       21 FE2    3px       -0.0000    0.0000   -0.0000    0.0034   -0.0004    0.0000   -0.0000    0.9833   -0.1799    0.0000
       22 FE2    4px       -0.0000   -0.0000    0.0000   -0.0006    0.0001   -0.0000    0.0000   -0.0189    0.0035   -0.0000
       23 FE2    5px       -0.0000   -0.0000   -0.0000    0.0015   -0.0002    0.0000    0.0000    0.0179   -0.0033    0.0000
       24 FE2    2py       -0.0000   -0.0000    0.0000    0.1257    0.9921   -0.0000   -0.0000   -0.0006   -0.0034    0.0000
       25 FE2    3py        0.0000    0.0000    0.0000    0.0004    0.0034    0.0000   -0.0000    0.1799    0.9833   -0.0000
       26 FE2    4py       -0.0000   -0.0000   -0.0000   -0.0001   -0.0006    0.0000    0.0000   -0.0035   -0.0189    0.0000
       27 FE2    5py        0.0000    0.0000    0.0000    0.0002    0.0015   -0.0000   -0.0000    0.0033    0.0179   -0.0000
       28 FE2    2pz        0.0000    0.0000    1.0000   -0.0000   -0.0000    0.0000   -0.0000   -0.0000   -0.0000   -0.0035
       29 FE2    3pz       -0.0000    0.0000    0.0035   -0.0000   -0.0000   -0.0000    0.0000    0.0000    0.0000    0.9996
       30 FE2    4pz        0.0000    0.0000   -0.0006    0.0000    0.0000   -0.0000    0.0000   -0.0000   -0.0000   -0.0192
       31 FE2    5pz        0.0000    0.0000    0.0015   -0.0000   -0.0000   -0.0000    0.0000    0.0000    0.0000    0.0182
       32 FE2    3d2-       0.0000   -0.0000   -0.0000   -0.0000   -0.0000   -0.0000    0.0000    0.0000   -0.0000    0.0000
       33 FE2    4d2-      -0.0000    0.0000    0.0000   -0.0000    0.0000   -0.0000   -0.0000    0.0000    0.0000   -0.0000
       34 FE2    3d1-       0.0000   -0.0000    0.0000    0.0000    0.0000    0.0000    0.0000    0.0000    0.0000   -0.0000
       35 FE2    4d1-       0.0000   -0.0000    0.0000    0.0000    0.0000   -0.0000    0.0000   -0.0000   -0.0000    0.0000
       36 FE2    3d0        0.0000    0.0000    0.0000   -0.0000   -0.0000   -0.0000   -0.0000    0.0000    0.0000    0.0000
       37 FE2    4d0        0.0000    0.0000    0.0000   -0.0000   -0.0000   -0.0000    0.0000   -0.0000   -0.0000   -0.0000
       38 FE2    3d1+       0.0000    0.0000    0.0000    0.0000   -0.0000    0.0000    0.0000    0.0000   -0.0000   -0.0000
       39 FE2    4d1+       0.0000   -0.0000    0.0000    0.0000   -0.0000   -0.0000    0.0000   -0.0000    0.0000   -0.0000
       40 FE2    3d2+       0.0000    0.0000    0.0000    0.0000    0.0000   -0.0000    0.0000   -0.0000   -0.0000   -0.0000
       41 FE2    4d2+      -0.0000   -0.0000    0.0000   -0.0000   -0.0000    0.0000    0.0000    0.0000    0.0000    0.0000
       42 FE2    4f3-       0.0000   -0.0000    0.0000    0.0000    0.0000    0.0000    0.0000    0.0000   -0.0000   -0.0000
       43 FE2    4f2-      -0.0000    0.0000    0.0000   -0.0000    0.0000    0.0000   -0.0000   -0.0000    0.0000    0.0000
       44 FE2    4f1-       0.0000   -0.0000   -0.0000   -0.0000   -0.0000    0.0000   -0.0000   -0.0000   -0.0000    0.0000
       45 FE2    4f0        0.0000    0.0000    0.0000    0.0000   -0.0000   -0.0000    0.0000   -0.0000   -0.0000   -0.0000
       46 FE2    4f1+      -0.0000    0.0000   -0.0000   -0.0000    0.0000   -0.0000   -0.0000   -0.0000    0.0000   -0.0000
       47 FE2    4f2+       0.0000   -0.0000   -0.0000   -0.0000    0.0000    0.0000    0.0000    0.0000   -0.0000   -0.0000
       48 FE2    4f3+      -0.0000    0.0000   -0.0000    0.0000    0.0000   -0.0000    0.0000    0.0000   -0.0000   -0.0000
 
          Orbital           11        12        13        14        15        16        17        18        19        20    
          Energy           -1.6639   -1.6639   -1.6639   -1.6639   -1.6639   -1.2607   -0.9510   -0.7006   -0.4827   -0.4827
          Occ. No.          1.0000    1.0000    1.0000    1.0000    1.0000    1.0000    1.0000    1.0000    0.0000    0.0000
 
        1 O1     1s        -0.0000   -0.0000    0.0000   -0.0000    0.0000    0.0021    0.0003    0.0001   -0.0000   -0.0000
        2 O1     2s        -0.0000   -0.0000    0.0002    0.0000    0.0000    0.9992    0.0032    0.0133   -0.0000   -0.0000
        3 O1     3s        -0.0000   -0.0000    0.0002   -0.0000    0.0000    0.0222    0.0033   -0.0083   -0.0000   -0.0000
        4 O1     2px       -0.0000   -0.0000   -0.0000   -0.0000    0.0001    0.0000   -0.0000    0.0000   -0.0008   -0.0000
        5 O1     3px       -0.0000   -0.0000   -0.0000   -0.0000    0.0002   -0.0000    0.0000    0.0000   -0.0017   -0.0000
        6 O1     2py        0.0000    0.0000    0.0000    0.0001    0.0000    0.0000    0.0000   -0.0000   -0.0000    0.0008
        7 O1     3py        0.0000    0.0000    0.0000    0.0002    0.0000    0.0000    0.0000   -0.0000   -0.0000    0.0017
        8 O1     2pz        0.0000    0.0000   -0.0003    0.0000   -0.0000   -0.0128   -0.0043    0.9986    0.0000    0.0000
        9 O1     3pz        0.0000    0.0000   -0.0006   -0.0000   -0.0000   -0.0046   -0.0060    0.0496    0.0000    0.0000
       10 O1     3d2-      -0.0000    0.0000    0.0000    0.0000    0.0000   -0.0000    0.0000   -0.0000   -0.0000   -0.0000
       11 O1     3d1-      -0.0000   -0.0000   -0.0000   -0.0000   -0.0000   -0.0000    0.0000   -0.0000    0.0000   -0.0000
       12 O1     3d0       -0.0000   -0.0000    0.0001    0.0000    0.0000    0.0293    0.0002   -0.0040   -0.0000   -0.0000
       13 O1     3d1+      -0.0000    0.0000    0.0000    0.0000   -0.0000    0.0000    0.0000   -0.0000    0.0000    0.0000
       14 O1     3d2+       0.0000    0.0000    0.0000    0.0000   -0.0000    0.0000   -0.0000   -0.0000    0.0000    0.0000
       15 FE2    1s        -0.0000    0.0000   -0.0000   -0.0000   -0.0000   -0.0000   -0.0000    0.0000    0.0000   -0.0000
       16 FE2    2s         0.0000    0.0000   -0.0000    0.0000   -0.0000   -0.0000    0.0004    0.0000    0.0000   -0.0000
       17 FE2    3s        -0.0000   -0.0000    0.0000   -0.0000    0.0000   -0.0000    0.0101    0.0003   -0.0000    0.0000
       18 FE2    4s         0.0000    0.0000   -0.0001   -0.0000   -0.0000   -0.0000    0.9286    0.0035   -0.0000    0.0000
       19 FE2    5s         0.0000    0.0000   -0.0001    0.0000   -0.0000   -0.0003   -0.3709   -0.0008    0.0000    0.0000
       20 FE2    2px       -0.0000    0.0000   -0.0000    0.0000   -0.0000   -0.0000   -0.0000   -0.0000    0.0005    0.0000
       21 FE2    3px        0.0000    0.0000    0.0000    0.0000   -0.0000   -0.0000    0.0000   -0.0000    0.0186    0.0003
       22 FE2    4px        0.0000    0.0000    0.0000    0.0000   -0.0001   -0.0000    0.0000   -0.0000    0.9992    0.0135
       23 FE2    5px        0.0000    0.0000    0.0000    0.0000   -0.0000   -0.0000    0.0000    0.0000    0.0323    0.0004
       24 FE2    2py       -0.0000   -0.0000   -0.0000   -0.0000   -0.0000    0.0000    0.0000   -0.0000    0.0000   -0.0005
       25 FE2    3py       -0.0000   -0.0000    0.0000   -0.0000   -0.0000   -0.0000   -0.0000    0.0000    0.0003   -0.0186
       26 FE2    4py       -0.0000   -0.0000    0.0000   -0.0001   -0.0000   -0.0000   -0.0000   -0.0000    0.0135   -0.9992
       27 FE2    5py       -0.0000   -0.0000    0.0000   -0.0000   -0.0000    0.0000    0.0000    0.0000    0.0004   -0.0323
       28 FE2    2pz        0.0000    0.0000   -0.0000    0.0000   -0.0000   -0.0000   -0.0000    0.0000    0.0000    0.0000
       29 FE2    3pz        0.0000    0.0000   -0.0000   -0.0000   -0.0000   -0.0000   -0.0001    0.0001    0.0000    0.0000
       30 FE2    4pz        0.0000    0.0000   -0.0001    0.0000   -0.0000   -0.0001   -0.0027   -0.0040    0.0000    0.0000
       31 FE2    5pz        0.0000    0.0000   -0.0000   -0.0000   -0.0000   -0.0001   -0.0002   -0.0001    0.0000    0.0000
       32 FE2    3d2-      -0.5091    0.8498    0.0000   -0.0000    0.0000    0.0000   -0.0000   -0.0000    0.0000    0.0000
       33 FE2    4d2-       0.0701   -0.1170   -0.0000    0.0000   -0.0000    0.0000   -0.0000   -0.0000   -0.0000    0.0000
       34 FE2    3d1-       0.0000    0.0000   -0.0000    0.9887    0.0615   -0.0000    0.0000   -0.0000    0.0000   -0.0000
       35 FE2    4d1-      -0.0000   -0.0000    0.0000   -0.1361   -0.0085    0.0000   -0.0000   -0.0000   -0.0000    0.0003
       36 FE2    3d0       -0.0000   -0.0000    0.9906    0.0000    0.0000   -0.0000   -0.0000    0.0002   -0.0000    0.0000
       37 FE2    4d0        0.0000    0.0000   -0.1364   -0.0000   -0.0000   -0.0000   -0.0003   -0.0005   -0.0000   -0.0000
       38 FE2    3d1+      -0.0000   -0.0000   -0.0000   -0.0615    0.9887   -0.0000   -0.0000    0.0000    0.0000    0.0000
       39 FE2    4d1+       0.0000    0.0000    0.0000    0.0085   -0.1361   -0.0000   -0.0000    0.0000   -0.0003   -0.0000
       40 FE2    3d2+       0.8498    0.5091    0.0000   -0.0000    0.0000   -0.0000    0.0000    0.0000    0.0000    0.0000
       41 FE2    4d2+      -0.1170   -0.0701   -0.0000    0.0000   -0.0000   -0.0000    0.0000    0.0000    0.0000   -0.0000
       42 FE2    4f3-       0.0000    0.0000   -0.0000   -0.0000   -0.0000   -0.0000   -0.0000   -0.0000    0.0000   -0.0000
       43 FE2    4f2-      -0.0000    0.0000    0.0000   -0.0000    0.0000   -0.0000    0.0000   -0.0000   -0.0000   -0.0000
       44 FE2    4f1-       0.0000    0.0000   -0.0000    0.0000    0.0000    0.0000   -0.0000   -0.0000   -0.0000    0.0000
       45 FE2    4f0       -0.0000   -0.0000    0.0000   -0.0000    0.0000    0.0000   -0.0000   -0.0000    0.0000   -0.0000
       46 FE2    4f1+      -0.0000   -0.0000   -0.0000   -0.0000    0.0000   -0.0000   -0.0000   -0.0000   -0.0000   -0.0000
       47 FE2    4f2+       0.0000    0.0000    0.0000   -0.0000    0.0000   -0.0000   -0.0000   -0.0000   -0.0000   -0.0000
       48 FE2    4f3+      -0.0000   -0.0000   -0.0000   -0.0000    0.0000   -0.0000   -0.0000   -0.0000    0.0000   -0.0000
 
          Orbital           21        22        23        24    
          Energy           -0.4824   -0.2490   -0.0920   -0.0920
          Occ. No.          0.0000    0.0000    0.0000    0.0000
 
        1 O1     1s        -0.0006   -0.0017   -0.0000    0.0000
        2 O1     2s        -0.0081   -0.0233   -0.0000    0.0000
        3 O1     3s        -0.0036   -0.0041   -0.0000   -0.0000
        4 O1     2px        0.0000    0.0000    0.0005   -0.9447
        5 O1     3px        0.0000    0.0000    0.0002   -0.3276
        6 O1     2py       -0.0000   -0.0000    0.9447    0.0005
        7 O1     3py       -0.0000   -0.0000    0.3276    0.0002
        8 O1     2pz        0.0193    0.0328    0.0000    0.0000
        9 O1     3pz        0.0081    0.0052    0.0000    0.0000
       10 O1     3d2-       0.0000    0.0000   -0.0000   -0.0000
       11 O1     3d1-       0.0000    0.0000   -0.0039   -0.0000
       12 O1     3d0       -0.0001    0.0001   -0.0000   -0.0000
       13 O1     3d1+       0.0000   -0.0000   -0.0000    0.0039
       14 O1     3d2+       0.0000    0.0000   -0.0000   -0.0000
       15 FE2    1s         0.0000    0.0000    0.0000    0.0000
       16 FE2    2s         0.0000   -0.0002    0.0000   -0.0000
       17 FE2    3s         0.0000   -0.0047    0.0000    0.0000
       18 FE2    4s         0.0022    0.3707    0.0000    0.0000
       19 FE2    5s        -0.0008    0.9302    0.0000    0.0000
       20 FE2    2px       -0.0000   -0.0000   -0.0000    0.0000
       21 FE2    3px       -0.0000   -0.0000   -0.0000    0.0002
       22 FE2    4px       -0.0000    0.0000   -0.0000    0.0048
       23 FE2    5px       -0.0000    0.0000    0.0000   -0.0012
       24 FE2    2py        0.0000    0.0000   -0.0000   -0.0000
       25 FE2    3py        0.0000   -0.0000   -0.0002   -0.0000
       26 FE2    4py        0.0000    0.0000   -0.0048   -0.0000
       27 FE2    5py        0.0000    0.0000    0.0012    0.0000
       28 FE2    2pz        0.0005    0.0000    0.0000   -0.0000
       29 FE2    3pz        0.0186    0.0001    0.0000    0.0000
       30 FE2    4pz        0.9999    0.0019    0.0000    0.0000
       31 FE2    5pz        0.0323   -0.0003   -0.0000   -0.0000
       32 FE2    3d2-       0.0000   -0.0000    0.0000   -0.0000
       33 FE2    4d2-       0.0000   -0.0000    0.0000   -0.0000
       34 FE2    3d1-      -0.0000   -0.0000    0.0008    0.0000
       35 FE2    4d1-      -0.0000   -0.0000    0.0064    0.0000
       36 FE2    3d0        0.0000   -0.0001   -0.0000   -0.0000
       37 FE2    4d0       -0.0005   -0.0006   -0.0000   -0.0000
       38 FE2    3d1+       0.0000   -0.0000    0.0000   -0.0008
       39 FE2    4d1+       0.0000   -0.0000    0.0000   -0.0064
       40 FE2    3d2+       0.0000    0.0000   -0.0000   -0.0000
       41 FE2    4d2+       0.0000    0.0000   -0.0000   -0.0000
       42 FE2    4f3-      -0.0000   -0.0000    0.0000   -0.0000
       43 FE2    4f2-      -0.0000    0.0000   -0.0000    0.0000
       44 FE2    4f1-      -0.0000    0.0000    0.0000    0.0000
       45 FE2    4f0       -0.0000   -0.0000    0.0000   -0.0000
       46 FE2    4f1+      -0.0000   -0.0000    0.0000   -0.0000
       47 FE2    4f2+       0.0000   -0.0000   -0.0000    0.0000
       48 FE2    4f3+       0.0000    0.0000   -0.0000    0.0000
--
 
 
  Input file to MOLDEN was generated!
 
 
++    Static properties:
      ------------------
 
 
      LoProp Charges per center
 

                   O1       FE2   
      Nuclear      8.0000  26.0000
      Electronic  -8.0001 -23.9999
 
      Total       -0.0001   2.0001
--
 
 
      All orbitals with orbital energies smaller than  E(LUMO)+0.5 are printed
 
++    Molecular orbitals:
      -------------------
 
      Title: UHF orbitals (beta)

      Molecular orbitals for symmetry species 1: a  
 
          Orbital            1         2         3         4         5         6         7         8         9        10    
          Energy         -264.6097  -33.3185  -28.3865  -28.3865  -28.3865  -20.9007   -4.9692   -3.4207   -3.4207   -3.4207
          Occ. No.          1.0000    1.0000    1.0000    1.0000    1.0000    1.0000    1.0000    1.0000    1.0000    1.0000
 
        1 O1     1s         0.0000    0.0000    0.0000   -0.0000    0.0000    1.0000   -0.0000    0.0000    0.0000    0.0000
        2 O1     2s         0.0000    0.0000    0.0000   -0.0000    0.0000    0.0019   -0.0000    0.0000    0.0000    0.0000
        3 O1     3s         0.0000    0.0000    0.0000   -0.0000    0.0000   -0.0017   -0.0001    0.0000    0.0000    0.0001
        4 O1     2px        0.0000   -0.0000   -0.0000    0.0000    0.0000   -0.0000   -0.0000    0.0000   -0.0000   -0.0000
        5 O1     3px        0.0000    0.0000   -0.0000    0.0000    0.0000    0.0000    0.0000    0.0000   -0.0000    0.0000
        6 O1     2py       -0.0000    0.0000    0.0000    0.0000   -0.0000    0.0000   -0.0000    0.0000    0.0000   -0.0000
        7 O1     3py       -0.0000    0.0000    0.0000    0.0000   -0.0000   -0.0000   -0.0000    0.0000    0.0000   -0.0000
        8 O1     2pz        0.0000   -0.0000   -0.0000    0.0000   -0.0000   -0.0001    0.0001    0.0000   -0.0000   -0.0000
        9 O1     3pz        0.0000   -0.0000   -0.0000    0.0000   -0.0000    0.0000    0.0002   -0.0000   -0.0000   -0.0002
       10 O1     3d2-      -0.0000    0.0000   -0.0000    0.0000   -0.0000   -0.0000    0.0000   -0.0000    0.0000   -0.0000
       11 O1     3d1-       0.0000   -0.0000   -0.0000   -0.0000    0.0000    0.0000   -0.0000   -0.0000   -0.0000    0.0000
       12 O1     3d0       -0.0000    0.0000    0.0000   -0.0000    0.0000   -0.0004   -0.0000    0.0000    0.0000    0.0000
       13 O1     3d1+      -0.0000   -0.0000    0.0000   -0.0000   -0.0000   -0.0000   -0.0000   -0.0000    0.0000   -0.0000
       14 O1     3d2+       0.0000    0.0000   -0.0000    0.0000   -0.0000    0.0000   -0.0000   -0.0000    0.0000    0.0000
       15 FE2    1s         1.0000   -0.0000   -0.0000    0.0000   -0.0000    0.0000    0.0000    0.0000   -0.0000    0.0000
       16 FE2    2s         0.0000    1.0000   -0.0000    0.0000   -0.0000    0.0000    0.0011   -0.0000   -0.0000   -0.0000
       17 FE2    3s        -0.0000   -0.0011    0.0000   -0.0000    0.0000    0.0000    1.0000    0.0000   -0.0000   -0.0001
       18 FE2    4s         0.0000    0.0002   -0.0000    0.0000   -0.0000    0.0000   -0.0028    0.0000    0.0000   -0.0000
       19 FE2    5s        -0.0000   -0.0002   -0.0000    0.0000   -0.0000    0.0000    0.0033   -0.0000   -0.0000   -0.0000
       20 FE2    2px       -0.0000    0.0000   -0.0000    0.1196    0.9928    0.0000   -0.0000    0.0032   -0.0006   -0.0000
       21 FE2    3px       -0.0000    0.0000    0.0000   -0.0004   -0.0032    0.0000   -0.0000    0.9798   -0.1997   -0.0000
       22 FE2    4px       -0.0000   -0.0000   -0.0000    0.0001    0.0004   -0.0000    0.0000   -0.0112    0.0023    0.0000
       23 FE2    5px       -0.0000   -0.0000    0.0000   -0.0001   -0.0011    0.0000    0.0000    0.0054   -0.0011   -0.0000
       24 FE2    2py       -0.0000   -0.0000    0.0000    0.9928   -0.1196   -0.0000   -0.0000    0.0006    0.0032   -0.0000
       25 FE2    3py        0.0000    0.0000   -0.0000   -0.0032    0.0004    0.0000   -0.0000    0.1997    0.9798   -0.0000
       26 FE2    4py       -0.0000   -0.0000    0.0000    0.0004   -0.0001    0.0000    0.0000   -0.0023   -0.0112    0.0000
       27 FE2    5py        0.0000    0.0000   -0.0000   -0.0011    0.0001   -0.0000   -0.0000    0.0011    0.0054   -0.0000
       28 FE2    2pz        0.0000    0.0000    1.0000   -0.0000    0.0000    0.0000   -0.0000    0.0000    0.0000    0.0032
       29 FE2    3pz       -0.0000    0.0000   -0.0032    0.0000   -0.0000    0.0000    0.0001    0.0000    0.0000    0.9999
       30 FE2    4pz        0.0000   -0.0000    0.0004   -0.0000    0.0000    0.0000    0.0000   -0.0000   -0.0000   -0.0115
       31 FE2    5pz        0.0000   -0.0000   -0.0011    0.0000   -0.0000    0.0000    0.0000    0.0000    0.0000    0.0055
       32 FE2    3d2-       0.0000   -0.0000   -0.0000   -0.0000   -0.0000    0.0000    0.0000    0.0000   -0.0000   -0.0000
       33 FE2    4d2-      -0.0000    0.0000    0.0000    0.0000   -0.0000   -0.0000   -0.0000    0.0000    0.0000   -0.0000
       34 FE2    3d1-       0.0000   -0.0000    0.0000    0.0000   -0.0000    0.0000    0.0000    0.0000    0.0000   -0.0000
       35 FE2    4d1-       0.0000   -0.0000   -0.0000   -0.0000    0.0000   -0.0000    0.0000   -0.0000   -0.0000    0.0000
       36 FE2    3d0        0.0000   -0.0000    0.0000   -0.0000    0.0000    0.0000   -0.0000    0.0000    0.0000    0.0000
       37 FE2    4d0        0.0000   -0.0000   -0.0000    0.0000   -0.0000    0.0000    0.0000   -0.0000   -0.0000   -0.0000
       38 FE2    3d1+       0.0000    0.0000   -0.0000    0.0000    0.0000    0.0000    0.0000    0.0000   -0.0000   -0.0000
       39 FE2    4d1+       0.0000   -0.0000    0.0000   -0.0000   -0.0000   -0.0000    0.0000   -0.0000    0.0000   -0.0000
       40 FE2    3d2+       0.0000    0.0000    0.0000    0.0000    0.0000   -0.0000    0.0000   -0.0000   -0.0000   -0.0000
       41 FE2    4d2+      -0.0000   -0.0000    0.0000   -0.0000   -0.0000    0.0000   -0.0000    0.0000    0.0000    0.0000
       42 FE2    4f3-       0.0000   -0.0000    0.0000    0.0000   -0.0000    0.0000    0.0000    0.0000   -0.0000   -0.0000
       43 FE2    4f2-      -0.0000    0.0000    0.0000    0.0000   -0.0000    0.0000   -0.0000   -0.0000    0.0000    0.0000
       44 FE2    4f1-       0.0000   -0.0000    0.0000    0.0000   -0.0000    0.0000   -0.0000   -0.0000   -0.0000    0.0000
       45 FE2    4f0        0.0000   -0.0000   -0.0000    0.0000   -0.0000    0.0000   -0.0000   -0.0000   -0.0000   -0.0000
       46 FE2    4f1+      -0.0000    0.0000   -0.0000    0.0000    0.0000   -0.0000    0.0000   -0.0000    0.0000   -0.0000
       47 FE2    4f2+       0.0000   -0.0000   -0.0000    0.0000   -0.0000    0.0000    0.0000    0.0000   -0.0000    0.0000
       48 FE2    4f3+      -0.0000    0.0000   -0.0000    0.0000   -0.0000   -0.0000    0.0000    0.0000   -0.0000   -0.0000
 
          Orbital           11        12        13        14        15        16        17        18        19        20    
          Energy           -1.6030   -0.8935   -0.8935   -0.7950   -0.5745   -0.5726   -0.5726   -0.5725   -0.5725   -0.5725
          Occ. No.          1.0000    1.0000    1.0000    1.0000    0.0000    0.0000    0.0000    0.0000    0.0000    0.0000
 
        1 O1     1s        -0.0020    0.0000   -0.0000    0.0000    0.0001    0.0000    0.0000   -0.0000    0.0000   -0.0000
        2 O1     2s         0.9993   -0.0000    0.0000    0.0100    0.0006    0.0000    0.0000   -0.0000    0.0000   -0.0005
        3 O1     3s        -0.0284    0.0000    0.0000   -0.0077    0.0008    0.0000   -0.0000   -0.0000    0.0000   -0.0002
        4 O1     2px        0.0000    0.9989   -0.0021    0.0000    0.0000    0.0000    0.0000    0.0000   -0.0002   -0.0000
        5 O1     3px        0.0000   -0.0469    0.0001   -0.0000    0.0000    0.0000   -0.0000    0.0000   -0.0003   -0.0000
        6 O1     2py        0.0000   -0.0021   -0.9989   -0.0000   -0.0000   -0.0000    0.0000   -0.0002   -0.0000   -0.0000
        7 O1     3py        0.0000    0.0001    0.0469    0.0000    0.0000   -0.0000   -0.0000   -0.0003   -0.0000    0.0000
        8 O1     2pz       -0.0104   -0.0000   -0.0000    0.9999    0.0028   -0.0000   -0.0000    0.0000   -0.0000    0.0024
        9 O1     3pz       -0.0022    0.0000    0.0000   -0.0096   -0.0016   -0.0000   -0.0000    0.0000   -0.0000    0.0012
       10 O1     3d2-       0.0000    0.0000    0.0000    0.0000    0.0000    0.0000    0.0000    0.0000   -0.0000    0.0000
       11 O1     3d1-       0.0000    0.0000    0.0037   -0.0000    0.0000   -0.0000    0.0000    0.0000    0.0000   -0.0000
       12 O1     3d0       -0.0213    0.0000    0.0000   -0.0048    0.0001   -0.0000   -0.0000    0.0000    0.0000   -0.0000
       13 O1     3d1+      -0.0000   -0.0037    0.0000   -0.0000    0.0000   -0.0000    0.0000   -0.0000    0.0000    0.0000
       14 O1     3d2+      -0.0000   -0.0000    0.0000    0.0000   -0.0000    0.0000   -0.0000    0.0000   -0.0000    0.0000
       15 FE2    1s        -0.0000   -0.0000   -0.0000    0.0000   -0.0000   -0.0000    0.0000   -0.0000   -0.0000   -0.0000
       16 FE2    2s        -0.0000    0.0000    0.0000    0.0000   -0.0002    0.0000    0.0000   -0.0000    0.0000   -0.0000
       17 FE2    3s        -0.0000    0.0000   -0.0000    0.0001    0.0035   -0.0000   -0.0000    0.0000   -0.0000    0.0001
       18 FE2    4s        -0.0002   -0.0000   -0.0000   -0.0006    0.9682   -0.0000   -0.0000    0.0000   -0.0000    0.0344
       19 FE2    5s        -0.0006   -0.0000    0.0000    0.0014   -0.2474    0.0000    0.0000   -0.0000    0.0000   -0.0087
       20 FE2    2px       -0.0000   -0.0000    0.0000   -0.0000   -0.0000   -0.0000    0.0000    0.0000   -0.0000   -0.0000
       21 FE2    3px       -0.0000   -0.0000    0.0000   -0.0000   -0.0000    0.0000   -0.0000    0.0000   -0.0000   -0.0000
       22 FE2    4px       -0.0000   -0.0002    0.0000   -0.0000    0.0000   -0.0000   -0.0000    0.0000   -0.0000    0.0000
       23 FE2    5px       -0.0000   -0.0001    0.0000    0.0000    0.0000   -0.0000   -0.0000    0.0000   -0.0000   -0.0000
       24 FE2    2py        0.0000    0.0000    0.0000   -0.0000    0.0000   -0.0000    0.0000   -0.0000   -0.0000    0.0000
       25 FE2    3py       -0.0000    0.0000    0.0000    0.0000   -0.0000   -0.0000   -0.0000   -0.0000   -0.0000    0.0000
       26 FE2    4py       -0.0000    0.0000    0.0002   -0.0000   -0.0000    0.0000   -0.0000   -0.0000   -0.0000   -0.0000
       27 FE2    5py        0.0000    0.0000    0.0001    0.0000    0.0000   -0.0000   -0.0000   -0.0000   -0.0000    0.0000
       28 FE2    2pz       -0.0000    0.0000    0.0000    0.0000    0.0000   -0.0000    0.0000    0.0000   -0.0000   -0.0000
       29 FE2    3pz       -0.0000    0.0000   -0.0000    0.0001   -0.0000    0.0000    0.0000   -0.0000    0.0000   -0.0000
       30 FE2    4pz       -0.0003   -0.0000   -0.0000    0.0002   -0.0008    0.0000   -0.0000   -0.0000    0.0000   -0.0002
       31 FE2    5pz       -0.0002   -0.0000    0.0000    0.0002   -0.0001    0.0000    0.0000   -0.0000    0.0000   -0.0000
       32 FE2    3d2-      -0.0000   -0.0000    0.0000    0.0000    0.0000    0.3088    0.9427   -0.0000   -0.0000    0.0000
       33 FE2    4d2-       0.0000   -0.0000   -0.0000    0.0000    0.0000    0.0394    0.1202   -0.0000   -0.0000    0.0000
       34 FE2    3d1-       0.0000    0.0000    0.0000    0.0000   -0.0000    0.0000    0.0000    0.9902    0.0597   -0.0000
       35 FE2    4d1-       0.0000    0.0000    0.0001   -0.0000   -0.0000    0.0000    0.0000    0.1262    0.0076   -0.0000
       36 FE2    3d0       -0.0000   -0.0000   -0.0000   -0.0005   -0.0352   -0.0000   -0.0000    0.0000   -0.0000    0.9914
       37 FE2    4d0       -0.0001   -0.0000   -0.0000   -0.0000   -0.0046   -0.0000   -0.0000    0.0000   -0.0000    0.1264
       38 FE2    3d1+      -0.0000   -0.0000    0.0000   -0.0000    0.0000   -0.0000    0.0000   -0.0597    0.9902    0.0000
       39 FE2    4d1+      -0.0000   -0.0001    0.0000    0.0000    0.0000   -0.0000    0.0000   -0.0076    0.1262    0.0000
       40 FE2    3d2+       0.0000    0.0000   -0.0000   -0.0000    0.0000    0.9427   -0.3088   -0.0000    0.0000    0.0000
       41 FE2    4d2+      -0.0000    0.0000    0.0000    0.0000    0.0000    0.1202   -0.0394   -0.0000    0.0000    0.0000
       42 FE2    4f3-      -0.0000    0.0000   -0.0000   -0.0000   -0.0000    0.0000   -0.0000   -0.0000   -0.0000   -0.0000
       43 FE2    4f2-      -0.0000   -0.0000    0.0000   -0.0000    0.0000    0.0000    0.0000   -0.0000    0.0000    0.0000
       44 FE2    4f1-       0.0000    0.0000    0.0000   -0.0000   -0.0000    0.0000    0.0000    0.0000    0.0000   -0.0000
       45 FE2    4f0       -0.0000    0.0000   -0.0000   -0.0000   -0.0000   -0.0000   -0.0000    0.0000   -0.0000    0.0000
       46 FE2    4f1+      -0.0000   -0.0000    0.0000   -0.0000   -0.0000   -0.0000   -0.0000   -0.0000    0.0000    0.0000
       47 FE2    4f2+      -0.0000   -0.0000    0.0000   -0.0000   -0.0000    0.0000   -0.0000   -0.0000   -0.0000    0.0000
       48 FE2    4f3+      -0.0000   -0.0000    0.0000   -0.0000   -0.0000   -0.0000   -0.0000   -0.0000    0.0000   -0.0000
 
          Orbital           21        22        23        24    
          Energy           -0.3926   -0.3926   -0.3922   -0.2272
          Occ. No.          0.0000    0.0000    0.0000    0.0000
 
        1 O1     1s        -0.0000   -0.0000   -0.0006   -0.0016
        2 O1     2s        -0.0000   -0.0000   -0.0073   -0.0203
        3 O1     3s        -0.0000   -0.0000   -0.0021   -0.0015
        4 O1     2px       -0.0014   -0.0001    0.0000    0.0000
        5 O1     3px       -0.0007   -0.0000    0.0000    0.0000
        6 O1     2py       -0.0001    0.0014   -0.0000   -0.0000
        7 O1     3py       -0.0000    0.0007   -0.0000   -0.0000
        8 O1     2pz        0.0000    0.0000    0.0121    0.0254
        9 O1     3pz        0.0000    0.0000    0.0024    0.0004
       10 O1     3d2-      -0.0000   -0.0000    0.0000    0.0000
       11 O1     3d1-      -0.0000    0.0000   -0.0000   -0.0000
       12 O1     3d0       -0.0000    0.0000    0.0002    0.0006
       13 O1     3d1+      -0.0000   -0.0000    0.0000   -0.0000
       14 O1     3d2+       0.0000   -0.0000   -0.0000   -0.0000
       15 FE2    1s         0.0000   -0.0000    0.0000    0.0000
       16 FE2    2s         0.0000   -0.0000    0.0000    0.0002
       17 FE2    3s        -0.0000    0.0000    0.0000   -0.0024
       18 FE2    4s        -0.0000   -0.0000    0.0003    0.2476
       19 FE2    5s        -0.0000    0.0000   -0.0018    0.9696
       20 FE2    2px       -0.0003   -0.0000    0.0000   -0.0000
       21 FE2    3px        0.0110    0.0005   -0.0000   -0.0000
       22 FE2    4px        0.9962    0.0471   -0.0000    0.0000
       23 FE2    5px        0.0720    0.0034   -0.0000    0.0000
       24 FE2    2py       -0.0000    0.0003   -0.0000    0.0000
       25 FE2    3py        0.0005   -0.0110    0.0000   -0.0000
       26 FE2    4py        0.0471   -0.9962    0.0000    0.0000
       27 FE2    5py        0.0034   -0.0720    0.0000    0.0000
       28 FE2    2pz       -0.0000   -0.0000   -0.0003   -0.0000
       29 FE2    3pz        0.0000    0.0000    0.0110    0.0000
       30 FE2    4pz        0.0000    0.0000    0.9977    0.0026
       31 FE2    5pz        0.0000    0.0000    0.0720   -0.0000
       32 FE2    3d2-       0.0000   -0.0000    0.0000    0.0000
       33 FE2    4d2-      -0.0000    0.0000    0.0000   -0.0000
       34 FE2    3d1-       0.0000   -0.0000   -0.0000    0.0000
       35 FE2    4d1-      -0.0000    0.0001   -0.0000   -0.0000
       36 FE2    3d0       -0.0000    0.0000    0.0004    0.0002
       37 FE2    4d0        0.0000   -0.0000   -0.0002   -0.0003
       38 FE2    3d1+       0.0000    0.0000    0.0000   -0.0000
       39 FE2    4d1+      -0.0001   -0.0000   -0.0000   -0.0000
       40 FE2    3d2+       0.0000    0.0000    0.0000   -0.0000
       41 FE2    4d2+      -0.0000    0.0000    0.0000    0.0000
       42 FE2    4f3-       0.0000   -0.0000   -0.0000   -0.0000
       43 FE2    4f2-      -0.0000   -0.0000   -0.0000    0.0000
       44 FE2    4f1-      -0.0000    0.0000   -0.0000    0.0000
       45 FE2    4f0        0.0000   -0.0000   -0.0000   -0.0000
       46 FE2    4f1+      -0.0000   -0.0000   -0.0000   -0.0000
       47 FE2    4f2+      -0.0000   -0.0000    0.0000   -0.0000
       48 FE2    4f3+       0.0000   -0.0000    0.0000    0.0000
--
 
 
++    Molecular charges:
      ------------------
 
      Mulliken charges per centre and basis function type
      ---------------------------------------------------
 
                            O1                      FE2   
                     alpha        beta       alpha        beta
      1s           1.0000      1.0000      1.0000      1.0000
      2s           0.9986      0.9987      1.0000      1.0000
      2px          0.0000      0.9978      1.0000      1.0000
      2pz          0.9974      0.9999      1.0000      1.0000
      2py          0.0000      0.9978      1.0000      1.0000
      3s           0.0006      0.0009      1.0000      1.0000
      3px          0.0000      0.0022      0.9993      0.9998
      3pz          0.0026      0.0001      0.9993      0.9998
      3py          0.0000      0.0022      0.9993      0.9998
      4s           0.0000      0.0000      0.8626      0.0000
      3d2+        -0.0000      0.0000      0.9814      0.0000
      3d1+        -0.0000      0.0000      0.9814     -0.0000
      3d0          0.0009      0.0005      0.9814      0.0000
      3d1-        -0.0000      0.0000      0.9814     -0.0000
      3d2-        -0.0000      0.0000      0.9814      0.0000
      4px          0.0000      0.0000      0.0004      0.0001
      4pz          0.0000      0.0000      0.0004      0.0001
      4py          0.0000      0.0000      0.0004      0.0001
      5s           0.0000      0.0000      0.1373     -0.0000
      4d2+         0.0000      0.0000      0.0186      0.0000
      4d1+         0.0000      0.0000      0.0186     -0.0000
      4d0          0.0000      0.0000      0.0186      0.0000
      4d1-         0.0000      0.0000      0.0186     -0.0000
      4d2-         0.0000      0.0000      0.0186      0.0000
      5px          0.0000      0.0000      0.0003      0.0000
      5pz          0.0000      0.0000      0.0003      0.0000
      5py          0.0000      0.0000      0.0003      0.0000
      4f3+         0.0000      0.0000      0.0000      0.0000
      4f2+         0.0000      0.0000      0.0000      0.0000
      4f1+         0.0000      0.0000      0.0000     -0.0000
      4f0          0.0000      0.0000      0.0000      0.0000
      4f1-         0.0000      0.0000      0.0000     -0.0000
      4f2-         0.0000      0.0000      0.0000      0.0000
      4f3-         0.0000      0.0000      0.0000      0.0000
      Total        3.0000      5.0001     15.0000      8.9999
      Total              8.0001                 23.9999
 
      Charge           -0.0001                  2.0001
 
      Total electronic charge=   32.000000
 
      Total            charge=    2.000000
--
 
 
  Input file to MOLDEN was generated!
 
 
++    Static properties:
      ------------------
 
 
      LoProp Charges per center
 

                   O1       FE2   
      Nuclear      8.0000  26.0000
      Electronic  -8.0001 -23.9999
 
      Total       -0.0001   2.0001
--
 
 
++    Natural Bond Order analysis
      ---------------------------
      Based on LoProp computed density
      -------------------------------------------------------------------------------------
      Atom A       Atom B       Bond Order
      -------------------------------------------------------------------------------------
      NBO located     20.000 core electrons.
      NBO located      3.996 lone pair electrons.
      NBO located      1.000 non-bonded electrons on atom O1        
      NBO located      1.000 non-bonded electrons on atom O1        
      The remaining    6.005 electrons are to be considered as diffuse
--
 
 
++    Molecular orbitals:
      -------------------
 
      Title: Natural orbitals

      Molecular orbitals for symmetry species 1: a  
 
          Orbital            1         2         3         4         5         6         7         8         9        10    
          Energy         -264.6137  -33.0555  -27.6951  -27.7129  -27.7121  -20.8417   -5.5699   -4.4614   -4.4616   -4.4623
          Occ. No.          2.0000    2.0000    2.0000    2.0000    2.0000    2.0000    2.0000    1.9999    1.9999    1.9999
 
        1 O1     1s         0.0000    0.0029    0.0514   -0.0000   -0.0000   -0.9977    0.0280   -0.0012   -0.0000   -0.0000
        2 O1     2s         0.0000   -0.0001   -0.0017    0.0000    0.0000    0.0336   -0.0006   -0.0009    0.0000    0.0000
        3 O1     3s         0.0000    0.0000   -0.0000    0.0000    0.0000    0.0005    0.0001    0.0000   -0.0000   -0.0000
        4 O1     2px        0.0000   -0.0000   -0.0000    0.0000   -0.0000    0.0000   -0.0000   -0.0000   -0.0000    0.0000
        5 O1     3px        0.0000    0.0000   -0.0000   -0.0000    0.0000   -0.0000   -0.0000    0.0000   -0.0000    0.0000
        6 O1     2py       -0.0000    0.0000   -0.0000    0.0000    0.0000   -0.0000    0.0000    0.0000   -0.0000   -0.0000
        7 O1     3py       -0.0000    0.0000   -0.0000   -0.0000   -0.0000    0.0000    0.0000   -0.0000   -0.0000   -0.0000
        8 O1     2pz        0.0000   -0.0000    0.0004    0.0000    0.0000    0.0005   -0.0019   -0.0085    0.0000    0.0000
        9 O1     3pz        0.0000   -0.0000    0.0000   -0.0000   -0.0000   -0.0001   -0.0003   -0.0002    0.0000    0.0000
       10 O1     3d2-      -0.0000   -0.0000   -0.0000   -0.0000    0.0000   -0.0000   -0.0000   -0.0000   -0.0000    0.0000
       11 O1     3d1-       0.0000   -0.0000   -0.0000    0.0000    0.0000    0.0000    0.0000    0.0000    0.0000    0.0000
       12 O1     3d0       -0.0000    0.0000    0.0000   -0.0000   -0.0000   -0.0002    0.0000    0.0000    0.0000   -0.0000
       13 O1     3d1+      -0.0000   -0.0000    0.0000    0.0000   -0.0000   -0.0000    0.0000   -0.0000    0.0000   -0.0000
       14 O1     3d2+       0.0000   -0.0000   -0.0000   -0.0000    0.0000    0.0000   -0.0000    0.0000   -0.0000    0.0000
       15 FE2    1s         1.0000   -0.0000    0.0000    0.0000    0.0000   -0.0000   -0.0000    0.0000    0.0000   -0.0000
       16 FE2    2s         0.0000    0.9939    0.0008    0.0000   -0.0000   -0.0001   -0.1105    0.0002   -0.0000   -0.0000
       17 FE2    3s        -0.0000   -0.1104    0.0003   -0.0000   -0.0000   -0.0281   -0.9935    0.0009   -0.0000   -0.0000
       18 FE2    4s         0.0000    0.0005   -0.0000    0.0000    0.0000    0.0001    0.0022   -0.0000    0.0000    0.0000
       19 FE2    5s        -0.0000   -0.0006    0.0000   -0.0000   -0.0000   -0.0001   -0.0045   -0.0000    0.0000    0.0000
       20 FE2    2px       -0.0000   -0.0000   -0.0000    0.9767   -0.1239   -0.0000    0.0000   -0.0000    0.1727   -0.0282
       21 FE2    3px        0.0000    0.0000    0.0000   -0.1736    0.0220    0.0000   -0.0000   -0.0000    0.9715   -0.1588
       22 FE2    4px       -0.0000   -0.0000   -0.0000    0.0026   -0.0003   -0.0000    0.0000    0.0000   -0.0149    0.0024
       23 FE2    5px       -0.0000    0.0000    0.0000   -0.0019    0.0002    0.0000   -0.0000   -0.0000    0.0116   -0.0019
       24 FE2    2py       -0.0000    0.0000    0.0000    0.1239    0.9767   -0.0000   -0.0000    0.0000    0.0282    0.1728
       25 FE2    3py        0.0000   -0.0000   -0.0000   -0.0220   -0.1737    0.0000    0.0000    0.0000    0.1588    0.9715
       26 FE2    4py       -0.0000    0.0000    0.0000    0.0003    0.0026   -0.0000   -0.0000   -0.0000   -0.0024   -0.0149
       27 FE2    5py        0.0000   -0.0000   -0.0000   -0.0002   -0.0019    0.0000    0.0000    0.0000    0.0019    0.0116
       28 FE2    2pz       -0.0000   -0.0009    0.9833   -0.0000   -0.0000    0.0504   -0.0009    0.1750   -0.0000   -0.0000
       29 FE2    3pz       -0.0000    0.0001   -0.1747    0.0000    0.0000   -0.0101    0.0011    0.9843   -0.0000   -0.0000
       30 FE2    4pz        0.0000   -0.0000    0.0026   -0.0000   -0.0000    0.0001   -0.0000   -0.0151    0.0000    0.0000
       31 FE2    5pz        0.0000   -0.0000   -0.0019    0.0000    0.0000   -0.0001   -0.0000    0.0117   -0.0000   -0.0000
       32 FE2    3d2-       0.0000   -0.0000   -0.0000   -0.0000   -0.0000   -0.0000   -0.0000   -0.0000    0.0000   -0.0000
       33 FE2    4d2-      -0.0000    0.0000    0.0000    0.0000    0.0000    0.0000    0.0000   -0.0000    0.0000    0.0000
       34 FE2    3d1-       0.0000   -0.0000   -0.0000   -0.0000   -0.0000    0.0000   -0.0000    0.0000    0.0000    0.0000
       35 FE2    4d1-       0.0000   -0.0000    0.0000    0.0000    0.0000   -0.0000   -0.0000   -0.0000   -0.0000   -0.0000
       36 FE2    3d0        0.0000   -0.0000   -0.0000    0.0000    0.0000   -0.0000    0.0000    0.0000   -0.0000   -0.0000
       37 FE2    4d0        0.0000   -0.0000    0.0000   -0.0000   -0.0000   -0.0000   -0.0000   -0.0000   -0.0000    0.0000
       38 FE2    3d1+       0.0000    0.0000    0.0000   -0.0000    0.0000    0.0000   -0.0000   -0.0000    0.0000   -0.0000
       39 FE2    4d1+       0.0000   -0.0000    0.0000    0.0000   -0.0000   -0.0000   -0.0000   -0.0000   -0.0000    0.0000
       40 FE2    3d2+       0.0000   -0.0000    0.0000    0.0000    0.0000    0.0000   -0.0000   -0.0000   -0.0000   -0.0000
       41 FE2    4d2+      -0.0000   -0.0000    0.0000   -0.0000   -0.0000   -0.0000    0.0000   -0.0000    0.0000    0.0000
       42 FE2    4f3-       0.0000   -0.0000    0.0000   -0.0000    0.0000   -0.0000   -0.0000   -0.0000    0.0000   -0.0000
       43 FE2    4f2-      -0.0000    0.0000    0.0000   -0.0000    0.0000    0.0000    0.0000    0.0000   -0.0000    0.0000
       44 FE2    4f1-       0.0000   -0.0000    0.0000    0.0000    0.0000   -0.0000    0.0000   -0.0000   -0.0000   -0.0000
       45 FE2    4f0        0.0000   -0.0000    0.0000    0.0000   -0.0000    0.0000    0.0000   -0.0000   -0.0000   -0.0000
       46 FE2    4f1+      -0.0000    0.0000   -0.0000    0.0000   -0.0000   -0.0000    0.0000   -0.0000   -0.0000    0.0000
       47 FE2    4f2+       0.0000   -0.0000   -0.0000   -0.0000    0.0000   -0.0000   -0.0000   -0.0000    0.0000   -0.0000
       48 FE2    4f3+      -0.0000    0.0000    0.0000   -0.0000    0.0000    0.0000   -0.0000   -0.0000    0.0000   -0.0000
 
          Orbital           11        12        13        14        15        16        17        18        19        20    
          Energy           -0.7527   -1.4445   -0.7666   -0.7666   -1.0846   -1.0846   -1.0846   -0.7599   -0.7666   -0.7666
          Occ. No.          1.9982    1.9974    1.0000    1.0000    1.0000    1.0000    1.0000    1.0000    1.0000    1.0000
 
        1 O1     1s        -0.0039    0.0334   -0.0000   -0.0000   -0.0000    0.0000   -0.0000   -0.0003    0.0000   -0.0000
        2 O1     2s        -0.0996    0.9945   -0.0000   -0.0000   -0.0000    0.0000   -0.0002   -0.0033    0.0000   -0.0000
        3 O1     3s         0.0083   -0.0024   -0.0000   -0.0000   -0.0000    0.0000   -0.0002   -0.0033    0.0000   -0.0000
        4 O1     2px       -0.0000   -0.0000    0.0436   -0.7049    0.0000    0.0000    0.0000   -0.0000    0.0439    0.7050
        5 O1     3px       -0.0000   -0.0000   -0.0021    0.0332   -0.0000   -0.0000    0.0000   -0.0000   -0.0021   -0.0329
        6 O1     2py        0.0000    0.0000   -0.7049   -0.0436   -0.0000    0.0000   -0.0000    0.0000   -0.7050    0.0439
        7 O1     3py        0.0000    0.0000    0.0332    0.0021    0.0000   -0.0000   -0.0000    0.0000    0.0329   -0.0021
        8 O1     2pz       -0.9947   -0.0997   -0.0000    0.0000   -0.0000    0.0000   -0.0003    0.0005    0.0000   -0.0000
        9 O1     3pz       -0.0197   -0.0051    0.0000    0.0000    0.0000   -0.0000    0.0006    0.0058   -0.0000    0.0000
       10 O1     3d2-      -0.0000   -0.0000    0.0000   -0.0000   -0.0000   -0.0000   -0.0000   -0.0000    0.0000    0.0000
       11 O1     3d1-       0.0000   -0.0000    0.0026    0.0002    0.0000   -0.0000    0.0000   -0.0000    0.0026   -0.0002
       12 O1     3d0        0.0041    0.0044   -0.0000   -0.0000   -0.0000    0.0000   -0.0001   -0.0002    0.0000   -0.0000
       13 O1     3d1+       0.0000    0.0000   -0.0002    0.0026   -0.0000   -0.0000   -0.0000    0.0000   -0.0002   -0.0026
       14 O1     3d2+       0.0000    0.0000    0.0000    0.0000    0.0000   -0.0000   -0.0000   -0.0000    0.0000   -0.0000
       15 FE2    1s        -0.0000   -0.0000   -0.0000    0.0000    0.0000   -0.0000    0.0000    0.0000    0.0000    0.0000
       16 FE2    2s         0.0001    0.0000   -0.0000    0.0000    0.0000   -0.0000    0.0000    0.0003    0.0000    0.0000
       17 FE2    3s         0.0016    0.0004    0.0000   -0.0000   -0.0000    0.0000   -0.0000   -0.0038   -0.0000   -0.0000
       18 FE2    4s         0.0003   -0.0001    0.0000   -0.0000   -0.0000    0.0000    0.0001   -0.9286   -0.0000   -0.0000
       19 FE2    5s        -0.0010   -0.0005   -0.0000    0.0000    0.0000   -0.0000    0.0001    0.3710    0.0000    0.0000
       20 FE2    2px        0.0000    0.0000    0.0000   -0.0000   -0.0000   -0.0000    0.0000    0.0000   -0.0000   -0.0000
       21 FE2    3px       -0.0000   -0.0000    0.0000   -0.0000   -0.0000   -0.0000   -0.0000    0.0000   -0.0000   -0.0000
       22 FE2    4px        0.0000   -0.0000   -0.0000    0.0001   -0.0000   -0.0000   -0.0000    0.0000   -0.0000   -0.0002
       23 FE2    5px       -0.0000   -0.0000   -0.0000    0.0001   -0.0000   -0.0000   -0.0000    0.0000   -0.0000   -0.0001
       24 FE2    2py        0.0000   -0.0000   -0.0000   -0.0000   -0.0000   -0.0000    0.0000   -0.0000    0.0000   -0.0000
       25 FE2    3py       -0.0000   -0.0000   -0.0000   -0.0000   -0.0000   -0.0000    0.0000   -0.0000    0.0000   -0.0000
       26 FE2    4py        0.0000   -0.0000    0.0001    0.0000   -0.0000   -0.0000    0.0000   -0.0000    0.0002   -0.0000
       27 FE2    5py       -0.0000    0.0000    0.0001    0.0000   -0.0000   -0.0000    0.0000   -0.0000    0.0001   -0.0000
       28 FE2    2pz       -0.0011   -0.0000    0.0000   -0.0000    0.0000   -0.0000    0.0000   -0.0000   -0.0000    0.0000
       29 FE2    3pz       -0.0086    0.0001    0.0000    0.0000    0.0000   -0.0000    0.0000    0.0000   -0.0000    0.0000
       30 FE2    4pz        0.0020   -0.0000    0.0000    0.0000    0.0000   -0.0000    0.0001    0.0027   -0.0000    0.0000
       31 FE2    5pz       -0.0001   -0.0001    0.0000    0.0000    0.0000   -0.0000    0.0000    0.0002   -0.0000    0.0000
       32 FE2    3d2-      -0.0000   -0.0000    0.0000    0.0000   -0.5091   -0.8498   -0.0000   -0.0000   -0.0000    0.0000
       33 FE2    4d2-       0.0000    0.0000   -0.0000   -0.0000    0.0701    0.1170    0.0000    0.0000    0.0000   -0.0000
       34 FE2    3d1-      -0.0000   -0.0000    0.6992    0.0433    0.0000    0.0000   -0.0000    0.0000   -0.6991    0.0436
       35 FE2    4d1-       0.0000    0.0000   -0.0962   -0.0060   -0.0000   -0.0000    0.0000   -0.0000    0.0963   -0.0060
       36 FE2    3d0        0.0005    0.0000   -0.0000   -0.0000   -0.0000    0.0000   -0.9906    0.0000    0.0000   -0.0000
       37 FE2    4d0        0.0002   -0.0000    0.0000    0.0000    0.0000   -0.0000    0.1364    0.0003   -0.0000    0.0000
       38 FE2    3d1+       0.0000    0.0000   -0.0433    0.6992    0.0000    0.0000    0.0000   -0.0000    0.0436    0.6991
       39 FE2    4d1+      -0.0000   -0.0000    0.0060   -0.0962   -0.0000   -0.0000   -0.0000    0.0000   -0.0060   -0.0963
       40 FE2    3d2+       0.0000    0.0000   -0.0000   -0.0000    0.8498   -0.5091   -0.0000   -0.0000    0.0000   -0.0000
       41 FE2    4d2+      -0.0000    0.0000    0.0000    0.0000   -0.1170    0.0701    0.0000    0.0000   -0.0000    0.0000
       42 FE2    4f3-       0.0000   -0.0000   -0.0000   -0.0000    0.0000   -0.0000    0.0000    0.0000    0.0000    0.0000
       43 FE2    4f2-       0.0000   -0.0000    0.0000    0.0000   -0.0000   -0.0000   -0.0000   -0.0000   -0.0000    0.0000
       44 FE2    4f1-       0.0000    0.0000    0.0000    0.0000    0.0000    0.0000   -0.0000    0.0000   -0.0000    0.0000
       45 FE2    4f0        0.0000    0.0000   -0.0000   -0.0000   -0.0000    0.0000   -0.0000    0.0000    0.0000   -0.0000
       46 FE2    4f1+       0.0000   -0.0000   -0.0000    0.0000    0.0000    0.0000    0.0000   -0.0000    0.0000    0.0000
       47 FE2    4f2+       0.0000    0.0000   -0.0000   -0.0000    0.0000   -0.0000   -0.0000    0.0000    0.0000   -0.0000
       48 FE2    4f3+       0.0000   -0.0000    0.0000   -0.0000   -0.0000    0.0000    0.0000    0.0000    0.0000   -0.0000
 
          Orbital           21        22        23        24        25        26        27        28        29        30    
          Energy            1.3299    0.3975    0.9452    0.9452    0.9521   -0.2286    1.1053   -0.0426   -0.0426    0.2174
          Occ. No.          0.0026    0.0018    0.0001    0.0001    0.0001    0.0000    0.0000    0.0000    0.0000    0.0000
 
        1 O1     1s         0.0002    0.0000    0.0000    0.0000   -0.0007    0.0017    0.0010    0.0000   -0.0000    0.0006
        2 O1     2s        -0.0010    0.0037    0.0000    0.0000   -0.0081    0.0217    0.0102    0.0000    0.0000    0.0095
        3 O1     3s         0.7036    0.0652    0.0000    0.0000   -0.0154    0.0555    0.6533   -0.0000   -0.0000   -0.2724
        4 O1     2px       -0.0000   -0.0000   -0.0017    0.0001   -0.0000   -0.0000   -0.0000   -0.0034    0.0000   -0.0000
        5 O1     3px       -0.0000    0.0000   -0.0066    0.0005   -0.0000   -0.0000    0.0000   -0.0233    0.0003   -0.0000
        6 O1     2py       -0.0000    0.0000   -0.0001   -0.0017   -0.0000    0.0000    0.0000   -0.0000   -0.0034    0.0000
        7 O1     3py        0.0000   -0.0000   -0.0005   -0.0066    0.0000    0.0000   -0.0000   -0.0003   -0.0233    0.0000
        8 O1     2pz        0.0112   -0.0204   -0.0000   -0.0000    0.0073   -0.0266   -0.0063   -0.0000   -0.0000   -0.0179
        9 O1     3pz       -0.1056    0.9853   -0.0000    0.0000   -0.0089   -0.1264   -0.0502   -0.0000    0.0000   -0.1463
       10 O1     3d2-      -0.0000   -0.0000    0.0000   -0.0000    0.0000   -0.0000   -0.0000    0.0000   -0.0000    0.0000
       11 O1     3d1-      -0.0000   -0.0000    0.0000    0.0005    0.0000    0.0000    0.0000    0.0000    0.0028   -0.0000
       12 O1     3d0        0.7019    0.0889    0.0000    0.0000   -0.0045    0.0072   -0.6364    0.0000    0.0000    0.3060
       13 O1     3d1+       0.0000    0.0000    0.0005   -0.0000   -0.0000    0.0000   -0.0000    0.0028   -0.0000    0.0000
       14 O1     3d2+       0.0000    0.0000    0.0000   -0.0000   -0.0000    0.0000    0.0000   -0.0000   -0.0000   -0.0000
       15 FE2    1s        -0.0000    0.0000    0.0000   -0.0000   -0.0000   -0.0000   -0.0000    0.0000   -0.0000   -0.0000
       16 FE2    2s        -0.0000    0.0003   -0.0000   -0.0000   -0.0000   -0.0000   -0.0000    0.0000   -0.0000   -0.0000
       17 FE2    3s        -0.0002    0.0018    0.0000    0.0000   -0.0000    0.0031   -0.0001   -0.0000   -0.0000   -0.0002
       18 FE2    4s         0.0021    0.0089    0.0000   -0.0000    0.0001   -0.3748   -0.0000   -0.0000    0.0000   -0.0076
       19 FE2    5s         0.0045   -0.0136   -0.0000   -0.0000    0.0046   -0.9364    0.0005   -0.0000    0.0000   -0.0081
       20 FE2    2px       -0.0000   -0.0000   -0.0002    0.0000   -0.0000    0.0000   -0.0000   -0.0000    0.0000    0.0000
       21 FE2    3px       -0.0000   -0.0000   -0.0180    0.0014   -0.0000    0.0000    0.0000    0.0070   -0.0001   -0.0000
       22 FE2    4px       -0.0000   -0.0000   -0.5148    0.0387   -0.0000   -0.0000    0.0000    0.8563   -0.0119   -0.0000
       23 FE2    5px       -0.0000    0.0000    0.8538   -0.0642    0.0000   -0.0000    0.0000    0.5166   -0.0072   -0.0000
       24 FE2    2py        0.0000   -0.0000   -0.0000   -0.0002   -0.0000   -0.0000    0.0000   -0.0000   -0.0000    0.0000
       25 FE2    3py       -0.0000    0.0000   -0.0014   -0.0180   -0.0000    0.0000   -0.0000    0.0001    0.0070   -0.0000
       26 FE2    4py        0.0000   -0.0000   -0.0387   -0.5148   -0.0000    0.0000    0.0000    0.0119    0.8563   -0.0000
       27 FE2    5py        0.0000    0.0000    0.0642    0.8538    0.0000   -0.0000    0.0000    0.0072    0.5166   -0.0000
       28 FE2    2pz       -0.0000    0.0001    0.0000    0.0000   -0.0002   -0.0000    0.0000    0.0000    0.0000    0.0000
       29 FE2    3pz       -0.0001    0.0002    0.0000    0.0000   -0.0180   -0.0002   -0.0031   -0.0000   -0.0000   -0.0065
       30 FE2    4pz        0.0076   -0.0717    0.0000    0.0000   -0.5123   -0.0026   -0.3656   -0.0000   -0.0000   -0.7766
       31 FE2    5pz        0.0016   -0.0016   -0.0000   -0.0000    0.8585   -0.0019   -0.2224   -0.0000   -0.0000   -0.4685
       32 FE2    3d2-      -0.0000   -0.0000   -0.0000    0.0000    0.0000    0.0000   -0.0000    0.0000   -0.0000    0.0000
       33 FE2    4d2-      -0.0000   -0.0000   -0.0000    0.0000    0.0000    0.0000   -0.0000    0.0000   -0.0000    0.0000
       34 FE2    3d1-       0.0000   -0.0000   -0.0000   -0.0001   -0.0000   -0.0000   -0.0000    0.0000    0.0005   -0.0000
       35 FE2    4d1-       0.0000   -0.0000   -0.0000   -0.0004   -0.0000   -0.0000   -0.0000    0.0000    0.0029   -0.0000
       36 FE2    3d0        0.0002    0.0005    0.0000   -0.0000    0.0000   -0.0008   -0.0049    0.0000   -0.0000    0.0008
       37 FE2    4d0        0.0015   -0.0055    0.0000   -0.0000    0.0008   -0.0046   -0.0352    0.0000   -0.0000    0.0078
       38 FE2    3d1+      -0.0000    0.0000   -0.0001    0.0000    0.0000   -0.0000    0.0000    0.0005   -0.0000    0.0000
       39 FE2    4d1+      -0.0000    0.0000   -0.0004    0.0000    0.0000   -0.0000    0.0000    0.0029   -0.0000    0.0000
       40 FE2    3d2+      -0.0000    0.0000    0.0000    0.0000   -0.0000    0.0000    0.0000   -0.0000   -0.0000   -0.0000
       41 FE2    4d2+      -0.0000    0.0000    0.0000    0.0000   -0.0000    0.0000    0.0000   -0.0000   -0.0000    0.0000
       42 FE2    4f3-      -0.0000    0.0000    0.0000   -0.0000   -0.0000   -0.0000    0.0000   -0.0000   -0.0000   -0.0000
       43 FE2    4f2-       0.0000   -0.0000   -0.0000   -0.0000   -0.0000    0.0000   -0.0000    0.0000   -0.0000    0.0000
       44 FE2    4f1-       0.0000   -0.0000   -0.0000   -0.0000    0.0000   -0.0000    0.0000    0.0000    0.0002   -0.0000
       45 FE2    4f0        0.0000   -0.0002   -0.0000    0.0000    0.0000   -0.0002   -0.0011   -0.0000   -0.0000   -0.0000
       46 FE2    4f1+      -0.0000    0.0000   -0.0000    0.0000   -0.0000    0.0000   -0.0000    0.0002   -0.0000    0.0000
       47 FE2    4f2+      -0.0000   -0.0000   -0.0000    0.0000   -0.0000    0.0000   -0.0000   -0.0000   -0.0000   -0.0000
       48 FE2    4f3+       0.0000   -0.0000    0.0000   -0.0000    0.0000    0.0000    0.0000    0.0000    0.0000   -0.0000
 
          Orbital           31        32        33        34        35        36        37        38        39        40    
          Energy            0.2724    0.4009    0.2683    0.4012    0.2683    0.2691    0.2692    2.7716    2.5202    2.0118
          Occ. No.          0.0000    0.0000    0.0000    0.0000    0.0000    0.0000    0.0000    0.0000    0.0000    0.0000
 
        1 O1     1s         0.0001   -0.0000    0.0000    0.0000    0.0000   -0.0000    0.0000    0.0000   -0.0000   -0.0000
        2 O1     2s         0.0028   -0.0000    0.0000    0.0000    0.0000   -0.0000    0.0000    0.0000   -0.0000   -0.0000
        3 O1     3s        -0.0142    0.0000   -0.0000   -0.0000   -0.0000    0.0000   -0.0000   -0.0000    0.0000   -0.0000
        4 O1     2px        0.0000    0.0000   -0.0002   -0.0468    0.0004    0.0000   -0.0022    0.0012    0.0015    0.0035
        5 O1     3px        0.0000    0.0010   -0.0033   -0.9985    0.0089   -0.0002   -0.0239    0.0023    0.0027    0.0078
        6 O1     2py       -0.0000   -0.0468   -0.0002   -0.0000    0.0001   -0.0027   -0.0001    0.0002    0.0002   -0.0009
        7 O1     3py       -0.0000   -0.9983   -0.0047   -0.0009    0.0028   -0.0335   -0.0011    0.0004    0.0007   -0.0010
        8 O1     2pz       -0.0080    0.0000   -0.0000   -0.0000   -0.0000    0.0000   -0.0000   -0.0000    0.0000    0.0000
        9 O1     3pz       -0.0451    0.0000   -0.0000   -0.0000   -0.0000    0.0000   -0.0000   -0.0002    0.0001    0.0000
       10 O1     3d2-      -0.0000    0.0001   -0.0002    0.0002    0.0001    0.0018    0.0031   -0.4371   -0.5793    0.3497
       11 O1     3d1-       0.0000    0.0033    0.0000    0.0000    0.0000    0.0017    0.0009    0.0379    0.0504   -0.2462
       12 O1     3d0        0.0289   -0.0000    0.0000    0.0000    0.0000   -0.0000    0.0000    0.0001   -0.0001    0.0000
       13 O1     3d1+       0.0000    0.0000    0.0001    0.0085    0.0001    0.0019    0.0150    0.2830    0.3739    0.8623
       14 O1     3d2+      -0.0000   -0.0004   -0.0001   -0.0008   -0.0004    0.0005    0.0007   -0.1082   -0.1434    0.0869
       15 FE2    1s        -0.0000    0.0000   -0.0000   -0.0000   -0.0000    0.0000   -0.0000   -0.0000    0.0000    0.0000
       16 FE2    2s        -0.0000    0.0000   -0.0000   -0.0000   -0.0000    0.0000   -0.0000   -0.0000    0.0000    0.0000
       17 FE2    3s        -0.0001    0.0000    0.0000   -0.0000   -0.0000    0.0000   -0.0000   -0.0000    0.0000    0.0000
       18 FE2    4s        -0.0009    0.0000    0.0000   -0.0000   -0.0000    0.0000   -0.0000   -0.0000    0.0000   -0.0000
       19 FE2    5s        -0.0006    0.0000    0.0000   -0.0000   -0.0000    0.0000   -0.0000   -0.0000    0.0000   -0.0000
       20 FE2    2px       -0.0000   -0.0000    0.0000    0.0000   -0.0000   -0.0000    0.0000   -0.0000   -0.0000   -0.0000
       21 FE2    3px       -0.0000   -0.0000    0.0000    0.0001   -0.0000    0.0000   -0.0000   -0.0000   -0.0000   -0.0000
       22 FE2    4px        0.0000    0.0000   -0.0000   -0.0045    0.0000    0.0001   -0.0027   -0.0003   -0.0004   -0.0010
       23 FE2    5px        0.0000    0.0000   -0.0000   -0.0016    0.0000    0.0000   -0.0011   -0.0001   -0.0001   -0.0003
       24 FE2    2py        0.0000    0.0000    0.0000    0.0000   -0.0000    0.0000    0.0000   -0.0000   -0.0000    0.0000
       25 FE2    3py        0.0000    0.0001    0.0000    0.0000   -0.0000   -0.0000   -0.0000   -0.0000   -0.0000    0.0000
       26 FE2    4py       -0.0000   -0.0044   -0.0000   -0.0000   -0.0000   -0.0027   -0.0001   -0.0000   -0.0001    0.0003
       27 FE2    5py       -0.0000   -0.0016   -0.0000   -0.0000   -0.0000   -0.0011   -0.0000   -0.0000   -0.0000    0.0001
       28 FE2    2pz       -0.0000    0.0000   -0.0000   -0.0000   -0.0000    0.0000   -0.0000   -0.0000    0.0000   -0.0000
       29 FE2    3pz       -0.0000    0.0000    0.0000   -0.0000   -0.0000    0.0000   -0.0000   -0.0000    0.0000   -0.0000
       30 FE2    4pz        0.0040   -0.0000   -0.0000    0.0000    0.0000   -0.0000    0.0000    0.0000   -0.0000   -0.0000
       31 FE2    5pz        0.0016   -0.0000   -0.0000    0.0000    0.0000   -0.0000    0.0000    0.0000   -0.0000   -0.0000
       32 FE2    3d2-       0.0000   -0.0004   -0.0112   -0.0012   -0.1359    0.0007   -0.0001   -0.0000    0.0000    0.0000
       33 FE2    4d2-       0.0000   -0.0026   -0.0813   -0.0085   -0.9873    0.0049   -0.0010   -0.0000    0.0000    0.0002
       34 FE2    3d1-       0.0000   -0.0028   -0.0001   -0.0001    0.0007    0.1363    0.0047    0.0002   -0.0000   -0.0004
       35 FE2    4d1-       0.0000   -0.0219   -0.0006   -0.0010    0.0050    0.9899    0.0338    0.0017   -0.0002   -0.0029
       36 FE2    3d0       -0.1365    0.0000   -0.0000   -0.0000   -0.0000    0.0000   -0.0000   -0.0001    0.0000    0.0000
       37 FE2    4d0       -0.9909    0.0000   -0.0000   -0.0000   -0.0000    0.0000   -0.0000   -0.0004    0.0003    0.0000
       38 FE2    3d1+      -0.0000    0.0000   -0.0000   -0.0015   -0.0001   -0.0047    0.1363   -0.0004   -0.0003   -0.0018
       39 FE2    4d1+      -0.0000    0.0000   -0.0001   -0.0125   -0.0011   -0.0339    0.9900   -0.0027   -0.0021   -0.0131
       40 FE2    3d2+       0.0000    0.0007   -0.1359    0.0005    0.0112   -0.0001    0.0000   -0.0000    0.0001    0.0000
       41 FE2    4d2+       0.0000    0.0049   -0.9873    0.0040    0.0812   -0.0009    0.0000   -0.0002    0.0004    0.0000
       42 FE2    4f3-      -0.0003   -0.0012   -0.0002    0.0009    0.0003    0.0002    0.0021    0.1437   -0.6176    0.2234
       43 FE2    4f2-       0.0000    0.0000    0.0000   -0.0000    0.0000    0.0000   -0.0000   -0.0004    0.0003    0.0000
       44 FE2    4f1-      -0.0000    0.0001   -0.0000   -0.0001   -0.0000   -0.0000   -0.0000    0.0005   -0.0004    0.0000
       45 FE2    4f0       -0.0007    0.0000    0.0000   -0.0000   -0.0000    0.0002   -0.0001   -0.0823    0.0647   -0.0000
       46 FE2    4f1+      -0.0000   -0.0002    0.0000   -0.0002    0.0000   -0.0000   -0.0000   -0.0000   -0.0000   -0.0001
       47 FE2    4f2+      -0.0000   -0.0000    0.0000    0.0000    0.0000   -0.0000    0.0000    0.0002   -0.0002    0.0000
       48 FE2    4f3+      -0.0005    0.0006   -0.0004   -0.0003   -0.0002   -0.0018   -0.0002    0.8296   -0.3404   -0.1260
 
          Orbital           41        42        43        44        45        46        47    
          Energy            1.9358    2.7728    1.9300    3.1053    3.1053    3.1053    3.1053
          Occ. No.          0.0000    0.0000    0.0000    0.0000    0.0000    0.0000    0.0000
 
        1 O1     1s        -0.0000    0.0000    0.0000    0.0000   -0.0000   -0.0000    0.0000
        2 O1     2s        -0.0000    0.0000   -0.0000    0.0000   -0.0000   -0.0000    0.0000
        3 O1     3s        -0.0000    0.0000    0.0000   -0.0000    0.0000    0.0000   -0.0000
        4 O1     2px        0.0008    0.0000    0.0000   -0.0001   -0.0000    0.0000    0.0000
        5 O1     3px        0.0017    0.0008    0.0008   -0.0007   -0.0004    0.0000    0.0000
        6 O1     2py        0.0037    0.0004    0.0000    0.0000   -0.0001   -0.0000   -0.0000
        7 O1     3py        0.0031   -0.0008    0.0004   -0.0000   -0.0006   -0.0000   -0.0000
        8 O1     2pz        0.0000   -0.0000    0.0000   -0.0000    0.0000    0.0000   -0.0000
        9 O1     3pz        0.0000   -0.0000    0.0000   -0.0000    0.0000    0.0000   -0.0000
       10 O1     3d2-       0.1946   -0.5053    0.2405    0.0000   -0.0000    0.0000   -0.0000
       11 O1     3d1-       0.9610    0.1093    0.0001   -0.0000    0.0001    0.0000    0.0000
       12 O1     3d0        0.0000    0.0000   -0.0000    0.0000   -0.0000   -0.0000    0.0000
       13 O1     3d1+       0.1904   -0.0032    0.0003    0.0001    0.0000    0.0000    0.0000
       14 O1     3d2+       0.0484   -0.1252   -0.9707    0.0000   -0.0000   -0.0000   -0.0000
       15 FE2    1s         0.0000   -0.0000    0.0000   -0.0000    0.0000    0.0000   -0.0000
       16 FE2    2s         0.0000   -0.0000    0.0000   -0.0000    0.0000    0.0000   -0.0000
       17 FE2    3s         0.0000   -0.0000    0.0000   -0.0000    0.0000    0.0000   -0.0000
       18 FE2    4s        -0.0000    0.0000    0.0000   -0.0000    0.0000    0.0000    0.0000
       19 FE2    5s        -0.0000    0.0000   -0.0000    0.0000   -0.0000   -0.0000    0.0000
       20 FE2    2px       -0.0000   -0.0000   -0.0000    0.0000    0.0000   -0.0000   -0.0000
       21 FE2    3px       -0.0000   -0.0000   -0.0000   -0.0000   -0.0000   -0.0000   -0.0000
       22 FE2    4px       -0.0002    0.0000    0.0000   -0.0002   -0.0001    0.0000    0.0000
       23 FE2    5px       -0.0001    0.0000    0.0000   -0.0001   -0.0000    0.0000    0.0000
       24 FE2    2py       -0.0000    0.0000   -0.0000    0.0000    0.0000    0.0000    0.0000
       25 FE2    3py       -0.0000   -0.0000   -0.0000    0.0000   -0.0000    0.0000    0.0000
       26 FE2    4py       -0.0012   -0.0001    0.0000    0.0001   -0.0002   -0.0000   -0.0000
       27 FE2    5py       -0.0004   -0.0000    0.0000    0.0000   -0.0001   -0.0000   -0.0000
       28 FE2    2pz        0.0000   -0.0000    0.0000   -0.0000    0.0000    0.0000    0.0000
       29 FE2    3pz       -0.0000   -0.0000    0.0000   -0.0000    0.0000    0.0000   -0.0000
       30 FE2    4pz       -0.0000    0.0000    0.0000    0.0000   -0.0000   -0.0000    0.0000
       31 FE2    5pz       -0.0000    0.0000   -0.0000    0.0000   -0.0000   -0.0000    0.0000
       32 FE2    3d2-       0.0000    0.0000    0.0000    0.0000   -0.0000    0.0000    0.0000
       33 FE2    4d2-       0.0000    0.0003    0.0004    0.0000   -0.0000   -0.0000    0.0000
       34 FE2    3d1-      -0.0002   -0.0000    0.0000    0.0000   -0.0000    0.0000    0.0000
       35 FE2    4d1-      -0.0015   -0.0000    0.0001   -0.0000    0.0000    0.0000    0.0000
       36 FE2    3d0        0.0000   -0.0000    0.0000   -0.0000    0.0000    0.0000   -0.0000
       37 FE2    4d0        0.0000   -0.0000    0.0000   -0.0000    0.0000    0.0000   -0.0000
       38 FE2    3d1+      -0.0006   -0.0000   -0.0000   -0.0000   -0.0000   -0.0000   -0.0000
       39 FE2    4d1+      -0.0041   -0.0001   -0.0001    0.0000    0.0000   -0.0000   -0.0000
       40 FE2    3d2+      -0.0000    0.0000    0.0000    0.0000   -0.0000    0.0000   -0.0000
       41 FE2    4d2+      -0.0000    0.0001    0.0001    0.0000   -0.0000    0.0000    0.0000
       42 FE2    4f3-       0.0000    0.7385   -0.0000    0.0001   -0.0003   -0.0002   -0.0001
       43 FE2    4f2-       0.0000   -0.0000    0.0000   -0.0000    0.0000   -0.9998   -0.0186
       44 FE2    4f1-      -0.0001   -0.0000    0.0000   -0.3432    0.9393   -0.0000   -0.0000
       45 FE2    4f0        0.0000   -0.0000   -0.0000   -0.0000    0.0000    0.0000    0.0000
       46 FE2    4f1+      -0.0000    0.0000    0.0000    0.9393    0.3432    0.0000    0.0000
       47 FE2    4f2+       0.0000   -0.0000   -0.0000    0.0000   -0.0000   -0.0186    0.9998
       48 FE2    4f3+      -0.0000   -0.4144    0.0000    0.0002   -0.0005   -0.0004   -0.0003
--
 
 
++    Molecular properties:
      ---------------------
 
      Charge (e):
                      =    2.0000
      Dipole Moment (Debye):
      Origin of the operator (Ang)=    0.0000    0.0000    0.0000
                   X= -2.2526E-12               Y=  2.2296E-13               Z= -2.0265E+01           Total=  2.0265E+01
      Center of Charge (Ang)
                     X=   -0.00000000               Y=    0.00000000               Z=   -2.10952687
      Quadrupole Moment (Debye*Ang):
      Origin of the operator (Ang)=    0.0000    0.0000   -0.8225
                  XX= -1.4215E+01              XY=  6.4405E-14              XZ= -1.9448E-11              YY= -1.4215E+01
                  YZ=  3.1495E-11              ZZ=  1.4445E+00
      In traceless form (Debye*Ang)
                  XX= -7.8299E+00              XY=  9.6608E-14              XZ= -2.9172E-11              YY= -7.8299E+00
                  YZ=  4.7243E-11              ZZ=  1.5660E+01
--
 
 
  Input file to MOLDEN was generated!
 
 ###############################################################################
 ###############################################################################
 ###                                                                         ###
 ###                                                                         ###
 ###    RunFile label nBas                                                   ###
 ###    was used       86 times                                              ###
 ###                                                                         ###
 ###                                                                         ###
 ###############################################################################
 ###############################################################################
--- Stop Module: scf at Sun Dec 22 22:13:18 2024 /rc=_RC_ALL_IS_WELL_ ---
*** files: 5.84.LprOrb 5.84.LoProp.molden 5.84.scf.molden 5.84.scf.h5 5.84.UhfOrb 5.84.UnaOrb xmldump
    saved to directory /home/grierjones/DDCASPT2/iron_oxo_DDCASPT2/cluster/5.84

>>> COPY /tmp/5.84/5.84.scf.h5 /home/grierjones/DDCASPT2/iron_oxo_DDCASPT2/cluster/5.84/

*** symbolic link created: INPORB -> 5.84.UnaOrb
--- Start Module: rasscf at Sun Dec 22 22:13:18 2024 ---
 
()()()()()()()()()()()()()()()()()()()()()()()()()()()()()()()()()()()()()()()()()()()()()()()()()()

                                              &RASSCF

                                   only a single process is used
                       available to each process: 2.0 GB of memory, 1 thread?
()()()()()()()()()()()()()()()()()()()()()()()()()()()()()()()()()()()()()()()()()()()()()()()()()()
 
 ###############################################################################
 ###############################################################################
 ###                                                                         ###
 ###                                                                         ###
 ###    LUMORB input error.                                                  ###
 ###                                                                         ###
 ###                                                                         ###
 ###############################################################################
 ###############################################################################
  Keyword LUMORB used with file name StartOrbFile=
 /home/grierjones/DDCASPT2/iron_oxo_DDCASPT2/cluster/5.83/5.83.RasOrb           
                                                  
  but that file cannot be used. Perhaps it does
  not exist?
 
 *************** WARNING ****************
 ###############################################################################
 ###############################################################################
 ###                                                                         ###
 ###                                                                         ###
 ###    Too many macro-iterations.                                           ###
 ###                                                                         ###
 ###                                                                         ###
 ###############################################################################
 ###############################################################################
 Too many macro-iterations requested.
 Reset to maximum, new MAXIT=     200
 ****************************************
 
 *************** WARNING ****************
 ###############################################################################
 ###############################################################################
 ###                                                                         ###
 ###                                                                         ###
 ###    Too many SX-iterations.                                              ###
 ###                                                                         ###
 ###                                                                         ###
 ###############################################################################
 ###############################################################################
 Too many SX-iterations requested.
 Reset to maximum, new ITMAX=     100
 ****************************************
 
      Header of the ONEINT file:
      --------------------------
      
      Integrals generated by seward 4.2.0  , Sun Dec 22 22:13:17 2024
 
 
      OrdInt status: non-squared
 
 
      Cartesian coordinates in Angstrom:
      -----------------------------------------------------
      No.  Label        X            Y            Z        
      -----------------------------------------------------
       1   O1         0.00000000   0.00000000   3.72204000
       2   FE2        0.00000000   0.00000000  -2.12204000
      -----------------------------------------------------
      Nuclear repulsion energy =   18.83424933
 
++    Wave function specifications:
      -----------------------------
 
      Number of closed shell electrons          22
      Number of electrons in active shells      10
      Max number of holes in RAS1 space          0
      Max nr of electrons in RAS3 space          0
      Number of inactive orbitals               11
      Number of active orbitals                 14
      Number of secondary orbitals              23
      Spin quantum number                      2.0
      State symmetry                             1
--
 
++    Orbital specifications:
      -----------------------
 
      Symmetry species                           1
                                                 a
      Frozen orbitals                            0
      Inactive orbitals                         11
      Active orbitals                           14
      RAS1 orbitals                              0
      RAS2 orbitals                             14
      RAS3 orbitals                              0
      Secondary orbitals                        23
      Deleted orbitals                           0
      Number of basis functions                 48
--
 
++    CI expansion specifications:
      ----------------------------
 
      Number of CSFs                        975975
      Number of determinants               1249248
      Number of root(s) required                 1
      Root chosen for geometry opt.              1
      CI root used                               1
         
      highest root included in the CI            1
      max. size of the explicit Hamiltonian    200
--
 
++    Optimization specifications:
      ----------------------------
 
      RASSCF algorithm: Conventional
      Maximum number of macro iterations       200
      Maximum number of SX iterations          100
      Threshold for RASSCF energy            0.100E-07
      Threshold for max MO rotation          0.100E+00
      Threshold for max BLB element          0.100E-03
      Level shift parameter                  0.500E+00
      Make Quasi-Newton update
--
 
 ###############################################################################
 ###############################################################################
 ###                                                                         ###
 ###                                                                         ###
 ###    Location: rdVec_                                                     ###
 ###    File: /home/grierjones/DDCASPT2/iron_oxo_DDCASPT2/cluster/5.83/5.83.RasOrb\n\n\n
 ###    ile: /home/grierjones/DDCASPT2/iron_oxo_DDCASPT2/cluster/5.83/5.83.RasOrb\n\n\n
 ###    le: /home/grierjones/DDCASPT2/iron_oxo_DDCASPT2/cluster/5.83/5.83.RasOrb\n\n\n
 ###    e: /home/grierjones/DDCASPT2/iron_oxo_DDCASPT2/cluster/5.83/5.83.RasOrb\n\n\n
 ###    : /home/grierjones/DDCASPT2/iron_oxo_DDCASPT2/cluster/5.83/5.83.RasOrb\n\n\n
 ###     /home/grierjones/DDCASPT2/iron_oxo_DDCASPT2/cluster/5.83/5.83.RasOrb\n\n\n
 ###    /home/grierjones/DDCASPT2/iron_oxo_DDCASPT2/cluster/5.83/5.83.RasOrb\n\n\n
 ###    home/grierjones/DDCASPT2/iron_oxo_DDCASPT2/cluster/5.83/5.83.RasOrb\n\n\n
 ###    ome/grierjones/DDCASPT2/iron_oxo_DDCASPT2/cluster/5.83/5.83.RasOrb\n\n\n
 ###    me/grierjones/DDCASPT2/iron_oxo_DDCASPT2/cluster/5.83/5.83.RasOrb\n\n\n
 ###    e/grierjones/DDCASPT2/iron_oxo_DDCASPT2/cluster/5.83/5.83.RasOrb\n\n\n
 ###    /grierjones/DDCASPT2/iron_oxo_DDCASPT2/cluster/5.83/5.83.RasOrb\n\n\n
 ###    grierjones/DDCASPT2/iron_oxo_DDCASPT2/cluster/5.83/5.83.RasOrb\n\n\n
 ###    rierjones/DDCASPT2/iron_oxo_DDCASPT2/cluster/5.83/5.83.RasOrb\n\n\n  ###
 ###    ierjones/DDCASPT2/iron_oxo_DDCASPT2/cluster/5.83/5.83.RasOrb\n\n\n   ###
 ###    erjones/DDCASPT2/iron_oxo_DDCASPT2/cluster/5.83/5.83.RasOrb          ###
 ###                                                                         ###
 ###                                                                         ###
 ###    Error during reading INPORB                                          ###
 ###     not defined yet                                                     ###
 ###                                                                         ###
 ###                                                                         ###
 ###############################################################################
 ###############################################################################
[ process      0]: xquit (rc =    128): _INTERNAL_ERROR_
abort: 
--- Stop Module: rasscf at Sun Dec 22 22:13:18 2024 /rc=_RC_FLOATING_EXCEPTION_ ---
*** files: xmldump
    saved to directory /home/grierjones/DDCASPT2/iron_oxo_DDCASPT2/cluster/5.84

.########################.
.# Non-zero return code #.
.########################.

    Timing: Wall=1.67 User=1.40 System=0.27
************************************
*** WorkDir at /tmp/5.84 cleaned ***
************************************
