[Molden Format]
[N_Atoms]
                     2
[Atoms] (AU)
BE1         1      4           0.00000000      0.00000000      0.00000000
F2          2      9           0.00000000      0.00000000      1.32280829
[Charge] (Mulliken)
  0.749269701737153     
 -0.749269701737177     
[GTO] (AU)
   1
   s  14
  2.262859900E+04  8.443999941E-05
  3.372318100E+03  4.601499968E-04
  7.603504000E+02  2.285389984E-03
  2.117404800E+02  9.648129932E-03
  6.722346800E+01  3.494469975E-02
  2.337217700E+01  1.061099893E-01
  8.721373000E+00  2.458240383E-01
  3.468091000E+00  3.862428773E-01
  1.452144000E+00  3.105526078E-01
  6.086150000E-01  6.415933955E-02
  2.576860000E-01 -2.265049984E-03
  1.041760000E-01 -5.217499963E-04
  4.242700000E-02 -8.757499938E-04
  1.484900000E-02  1.242199991E-04
   s  14
  2.262859900E+04 -1.586999994E-05
  3.372318100E+03 -8.656999968E-05
  7.603504000E+02 -4.302199984E-04
  2.117404800E+02 -1.825079993E-03
  6.722346800E+01 -6.682749976E-03
  2.337217700E+01 -2.095119992E-02
  8.721373000E+00 -5.200308981E-02
  3.468091000E+00 -9.849176964E-02
  1.452144000E+00 -1.355800695E-01
  6.086150000E-01 -6.429875976E-02
  2.576860000E-01  3.125414989E-01
  1.041760000E-01  6.270468577E-01
  4.242700000E-02  2.110231492E-01
  1.484900000E-02 -4.104669985E-03
   p   9
  3.371018400E+01  1.069960000E-03
  8.057649500E+00  6.828550001E-03
  2.836471400E+00  2.119065000E-02
  1.099965700E+00  5.843696001E-02
  4.433964000E-01  2.020920800E-01
  1.822264000E-01  4.582953101E-01
  7.572410000E-02  3.691239601E-01
  3.168540000E-02  6.611471001E-02
  1.108990000E-02  1.405160000E-03
 
   2
   s  14
  1.031094600E+05  1.713099991E-04
  1.528100700E+04  7.123999962E-04
  3.441539200E+03  2.990479984E-03
  9.670948300E+02  1.164036994E-02
  3.140353400E+02  3.968642979E-02
  1.134423000E+02  1.128546094E-01
  4.464472700E+01  2.473650687E-01
  1.894287400E+01  3.672702681E-01
  8.532743000E+00  2.896286985E-01
  3.919401000E+00  7.786681959E-02
  1.568157000E+00  4.562139976E-03
  6.232900000E-01  2.468879987E-03
  2.408610000E-01  1.106309994E-03
  8.430100000E-02  1.739699991E-04
   s  14
  1.031094600E+05 -4.044999995E-05
  1.528100700E+04 -1.682299998E-04
  3.441539200E+03 -7.084299991E-04
  9.670948300E+02 -2.767999996E-03
  3.140353400E+02 -9.611379987E-03
  1.134423000E+02 -2.833957996E-02
  4.464472700E+01 -6.839343991E-02
  1.894287400E+01 -1.237379298E-01
  8.532743000E+00 -1.512859698E-01
  3.919401000E+00 -9.099909988E-03
  1.568157000E+00  3.716257695E-01
  6.232900000E-01  5.500214393E-01
  2.408610000E-01  2.092318697E-01
  8.430100000E-02  8.074639989E-03
   p   9
  2.453302900E+02  1.024860004E-03
  5.691900500E+01  8.344290032E-03
  1.760456800E+01  4.078927016E-02
  6.274995000E+00  1.351370605E-01
  2.447030000E+00  2.798830811E-01
  9.950600000E-01  3.597966414E-01
  4.039730000E-01  3.055347412E-01
  1.548100000E-01  1.354703905E-01
  5.418400000E-02  2.804449011E-02
 
[MO]
Sym=     1a  
Ene=   -26.4050
Spin= Alpha
Occup=    1.00000
   1        -0.00140647
   2        -0.00139205
   3         0.00000000
   4        -0.00000000
   5        -0.00001570
   6         1.00012263
   7        -0.00057081
   8         0.00000000
   9         0.00000000
  10        -0.00293240
Sym=     1a  
Ene=   -26.4070
Spin= Beta
Occup=    1.00000
   1        -0.00144137
   2        -0.00144625
   3         0.00000000
   4        -0.00000000
   5        -0.00004199
   6         1.00012982
   7        -0.00042787
   8         0.00000000
   9         0.00000000
  10        -0.00294615
Sym=     2a  
Ene=    -5.1175
Spin= Alpha
Occup=    1.00000
   1         0.94362887
   2        -0.02628007
   3        -0.00000000
   4        -0.00000000
   5         0.01114818
   6        -0.02361304
   7         0.08065136
   8         0.00000000
   9         0.00000000
  10        -0.07653028
Sym=     2a  
Ene=    -5.1007
Spin= Beta
Occup=    1.00000
   1         0.94278891
   2        -0.02714036
   3        -0.00000000
   4        -0.00000000
   5         0.01209055
   6        -0.02365317
   7         0.08155792
   8         0.00000000
   9        -0.00000000
  10        -0.07770342
Sym=     3a  
Ene=    -1.6452
Spin= Alpha
Occup=    1.00000
   1        -0.39507129
   2        -0.03096381
   3         0.00000000
   4        -0.00000000
   5         0.07881081
   6         0.00541748
   7         1.01970431
   8         0.00000000
   9         0.00000000
  10        -0.10297896
Sym=     3a  
Ene=    -1.6466
Spin= Beta
Occup=    1.00000
   1        -0.39803228
   2        -0.03705710
   3         0.00000000
   4        -0.00000000
   5         0.07860975
   6         0.00580241
   7         1.02284771
   8         0.00000000
   9         0.00000000
  10        -0.10536380
Sym=     4a  
Ene=    -0.9061
Spin= Alpha
Occup=    1.00000
   1         0.00000000
   2         0.00000000
   3         0.09864807
   4        -0.01264715
   5         0.00000000
   6        -0.00000000
   7        -0.00000000
   8         0.93856327
   9        -0.12032826
  10         0.00000000
Sym=     4a  
Ene=    -0.9106
Spin= Beta
Occup=    1.00000
   1         0.00000000
   2         0.00000000
   3         0.06692445
   4        -0.01234681
   5         0.00000000
   6        -0.00000000
   7        -0.00000000
   8         0.94802005
   9        -0.17489903
  10         0.00000000
Sym=     5a  
Ene=    -0.9061
Spin= Alpha
Occup=    1.00000
   1         0.00000000
   2         0.00000000
   3         0.01264715
   4         0.09864807
   5        -0.00000000
   6         0.00000000
   7         0.00000000
   8         0.12032826
   9         0.93856327
  10         0.00000000
Sym=     5a  
Ene=    -0.9106
Spin= Beta
Occup=    1.00000
   1         0.00000000
   2         0.00000000
   3         0.01234681
   4         0.06692445
   5        -0.00000000
   6         0.00000000
   7         0.00000000
   8         0.17489903
   9         0.94802005
  10         0.00000000
Sym=     6a  
Ene=    -0.6290
Spin= Alpha
Occup=    1.00000
   1         0.49949637
   2         0.19719857
   3        -0.00000000
   4        -0.00000000
   5        -0.22247578
   6         0.00011351
   7        -0.01428436
   8        -0.00000000
   9        -0.00000000
  10         1.11863629
Sym=     6a  
Ene=    -0.6206
Spin= Beta
Occup=    1.00000
   1         0.50422843
   2         0.19868466
   3        -0.00000000
   4         0.00000000
   5        -0.19655230
   6        -0.00277025
   7        -0.02768140
   8        -0.00000000
   9        -0.00000000
  10         1.11862221
Sym=     7a  
Ene=    -0.3494
Spin= Alpha
Occup=    1.00000
   1        -0.01994253
   2        -0.87568178
   3        -0.00000000
   4        -0.00000000
   5         0.48634629
   6         0.00627289
   7         0.14178945
   8        -0.00000000
   9         0.00000000
  10         0.06412345
Sym=     7a  
Ene=     0.0588
Spin= Beta
Occup=    0.00000
   1        -0.05448901
   2        -0.95378941
   3        -0.00000000
   4        -0.00000000
   5         0.38087889
   6         0.02296947
   7         0.23850863
   8        -0.00000000
   9         0.00000000
  10         0.05207156
Sym=     8a  
Ene=     0.2524
Spin= Alpha
Occup=    0.00000
   1        -0.00000000
   2         0.00000000
   3        -1.15008874
   4        -0.08144878
   5        -0.00000000
   6         0.00000000
   7         0.00000000
   8         0.66455589
   9         0.04706356
  10         0.00000000
Sym=     8a  
Ene=     0.3105
Spin= Beta
Occup=    0.00000
   1        -0.00000000
   2        -0.00000000
   3        -1.15299132
   4        -0.07217415
   5        -0.00000000
   6         0.00000000
   7         0.00000000
   8         0.63898188
   9         0.03999854
  10         0.00000000
Sym=     9a  
Ene=     0.2524
Spin= Alpha
Occup=    0.00000
   1        -0.00000000
   2        -0.00000000
   3         0.08144878
   4        -1.15008874
   5        -0.00000000
   6         0.00000000
   7         0.00000000
   8        -0.04706356
   9         0.66455589
  10        -0.00000000
Sym=     9a  
Ene=     0.3105
Spin= Beta
Occup=    0.00000
   1        -0.00000000
   2         0.00000000
   3         0.07217415
   4        -1.15299132
   5        -0.00000000
   6         0.00000000
   7         0.00000000
   8        -0.03999854
   9         0.63898188
  10         0.00000000
Sym=    10a  
Ene=     0.4266
Spin= Alpha
Occup=    0.00000
   1        -0.32140668
   2        -0.87561233
   3         0.00000000
   4         0.00000000
   5        -1.16688769
   6         0.18457586
   7         1.11975313
   8         0.00000000
   9        -0.00000000
  10         0.02082887
Sym=    10a  
Ene=     0.4576
Spin= Beta
Occup=    0.00000
   1        -0.30857295
   2        -0.78914662
   3         0.00000000
   4         0.00000000
   5        -1.20994351
   6         0.18317134
   7         1.09997058
   8         0.00000000
   9        -0.00000000
  10         0.03446478
