[Molden Format]
[N_Atoms]
                     2
[Atoms] (AU)
C1          1      6           0.00000000      0.00000000      0.00000000
F2          2      9           0.00000000      0.00000000      3.59047964
[Charge] (Mulliken)
  0.214879355867296     
 -0.214879355867328     
[GTO] (AU)
   1
   s  14
  5.055750100E+04  1.128874000E-04
  7.524785600E+03  5.295373000E-04
  1.694327600E+03  2.450038300E-03
  4.728227900E+02  1.005398470E-02
  1.517107500E+02  3.545398060E-02
  5.391874600E+01  1.044071086E-01
  2.065931100E+01  2.412894918E-01
  8.383976000E+00  3.834225483E-01
  3.577015000E+00  3.078514393E-01
  1.547118000E+00  6.872442990E-02
  6.130130000E-01  2.224445000E-04
  2.460680000E-01  1.976748900E-03
  9.908700000E-02  2.057859400E-03
  3.468000000E-02  4.182020000E-04
   s  14
  5.055750100E+04 -2.507420000E-05
  7.524785600E+03 -1.175945000E-04
  1.694327600E+03 -5.456275000E-04
  4.728227900E+02 -2.245077100E-03
  1.517107500E+02 -8.043471800E-03
  5.391874600E+01 -2.442588710E-02
  2.065931100E+01 -6.136791180E-02
  8.383976000E+00 -1.177767835E-01
  3.577015000E+00 -1.550487783E-01
  1.547118000E+00 -1.933316860E-02
  6.130130000E-01  3.996930678E-01
  2.460680000E-01  5.589420949E-01
  9.908700000E-02  1.711195023E-01
  3.468000000E-02  7.456244600E-03
   p   9
  8.333315500E+01  1.344656000E-03
  1.955761100E+01  1.023555500E-02
  6.080365000E+00  4.520067100E-02
  2.179317000E+00  1.410756198E-01
  8.651500000E-01  3.047388085E-01
  3.619440000E-01  3.995281011E-01
  1.547400000E-01  2.719163432E-01
  6.542900000E-02  5.857669330E-02
  2.290000000E-02 -1.263813000E-04
 
   2
   s  14
  1.031094600E+05  1.713099991E-04
  1.528100700E+04  7.123999962E-04
  3.441539200E+03  2.990479984E-03
  9.670948300E+02  1.164036994E-02
  3.140353400E+02  3.968642979E-02
  1.134423000E+02  1.128546094E-01
  4.464472700E+01  2.473650687E-01
  1.894287400E+01  3.672702681E-01
  8.532743000E+00  2.896286985E-01
  3.919401000E+00  7.786681959E-02
  1.568157000E+00  4.562139976E-03
  6.232900000E-01  2.468879987E-03
  2.408610000E-01  1.106309994E-03
  8.430100000E-02  1.739699991E-04
   s  14
  1.031094600E+05 -4.044999995E-05
  1.528100700E+04 -1.682299998E-04
  3.441539200E+03 -7.084299991E-04
  9.670948300E+02 -2.767999996E-03
  3.140353400E+02 -9.611379987E-03
  1.134423000E+02 -2.833957996E-02
  4.464472700E+01 -6.839343991E-02
  1.894287400E+01 -1.237379298E-01
  8.532743000E+00 -1.512859698E-01
  3.919401000E+00 -9.099909988E-03
  1.568157000E+00  3.716257695E-01
  6.232900000E-01  5.500214393E-01
  2.408610000E-01  2.092318697E-01
  8.430100000E-02  8.074639989E-03
   p   9
  2.453302900E+02  1.024860004E-03
  5.691900500E+01  8.344290032E-03
  1.760456800E+01  4.078927016E-02
  6.274995000E+00  1.351370605E-01
  2.447030000E+00  2.798830811E-01
  9.950600000E-01  3.597966414E-01
  4.039730000E-01  3.055347412E-01
  1.548100000E-01  1.354703905E-01
  5.418400000E-02  2.804449011E-02
 
[MO]
Sym=     1a  
Ene=   -26.2610
Spin= Alpha
Occup=    1.00000
   1        -0.00001112
   2        -0.00010613
   3        -0.00000000
   4         0.00000000
   5        -0.00006977
   6         0.99999503
   7        -0.00371156
   8         0.00000000
   9         0.00000000
  10        -0.00028202
Sym=     1a  
Ene=   -26.2930
Spin= Beta
Occup=    1.00000
   1        -0.00002006
   2        -0.00022139
   3        -0.00000000
   4         0.00000000
   5        -0.00022269
   6         1.00000262
   7        -0.00235352
   8         0.00000000
   9         0.00000000
  10        -0.00036205
Sym=     2a  
Ene=   -11.3820
Spin= Alpha
Occup=    1.00000
   1         1.00000472
   2        -0.00060708
   3        -0.00000000
   4         0.00000000
   5         0.00067375
   6        -0.00007756
   7        -0.00057741
   8         0.00000000
   9        -0.00000000
  10         0.00017419
Sym=     2a  
Ene=   -11.3430
Spin= Beta
Occup=    1.00000
   1         0.99998842
   2        -0.00503736
   3        -0.00000000
   4        -0.00000000
   5         0.00060319
   6        -0.00003995
   7        -0.00026004
   8         0.00000000
   9        -0.00000000
  10         0.00002282
Sym=     3a  
Ene=    -1.4648
Spin= Alpha
Occup=    1.00000
   1        -0.00353300
   2         0.06712689
   3         0.00000000
   4         0.00000000
   5         0.05137188
   6         0.00230398
   7         0.97971643
   8         0.00000000
   9        -0.00000000
  10        -0.00157423
Sym=     3a  
Ene=    -1.5852
Spin= Beta
Occup=    1.00000
   1        -0.00393179
   2         0.02331307
   3         0.00000000
   4         0.00000000
   5         0.01735544
   6         0.00192423
   7         0.99273618
   8        -0.00000000
   9         0.00000000
  10        -0.04059990
Sym=     4a  
Ene=    -0.8436
Spin= Alpha
Occup=    1.00000
   1         0.00077747
   2        -0.97392033
   3         0.00000000
   4        -0.00000000
   5         0.00609203
   6         0.00777090
   7         0.17134458
   8        -0.00000000
   9        -0.00000000
  10         0.12637824
Sym=     4a  
Ene=    -0.7681
Spin= Beta
Occup=    1.00000
   1         0.01081424
   2        -0.40653989
   3        -0.00000000
   4        -0.00000000
   5        -0.06000165
   6         0.00453413
   7         0.10867645
   8         0.00000000
   9         0.00000000
  10         0.83459329
Sym=     5a  
Ene=    -0.6300
Spin= Alpha
Occup=    1.00000
   1         0.00000000
   2         0.00000000
   3         0.15542558
   4        -0.07712711
   5        -0.00000000
   6         0.00000000
   7         0.00000000
   8         0.86896373
   9        -0.43120739
  10         0.00000000
Sym=     5a  
Ene=    -0.6538
Spin= Beta
Occup=    1.00000
   1         0.00000000
   2         0.00000000
   3         0.01562854
   4         0.03149445
   5        -0.00000000
   6        -0.00000000
   7        -0.00000000
   8         0.44289866
   9         0.89252383
  10        -0.00000000
Sym=     6a  
Ene=    -0.6207
Spin= Alpha
Occup=    1.00000
   1        -0.00000000
   2        -0.00000000
   3         0.02396713
   4         0.04829825
   5         0.00000000
   6        -0.00000000
   7        -0.00000000
   8         0.44181483
   9         0.89033971
  10        -0.00000000
Sym=     6a  
Ene=    -0.6514
Spin= Beta
Occup=    1.00000
   1         0.00000000
   2         0.00000000
   3         0.02538702
   4        -0.01259784
   5        -0.00000000
   6        -0.00000000
   7        -0.00000000
   8         0.89323995
   9        -0.44325402
  10        -0.00000000
Sym=     7a  
Ene=    -0.4615
Spin= Alpha
Occup=    1.00000
   1         0.00000000
   2         0.00000000
   3         0.88554645
   4        -0.43943626
   5        -0.00000000
   6         0.00000000
   7         0.00000000
   8        -0.23076323
   9         0.11451204
  10         0.00000000
Sym=     7a  
Ene=    -0.5817
Spin= Beta
Occup=    1.00000
   1         0.01352766
   2         0.93175793
   3         0.00000000
   4        -0.00000000
   5        -0.08752755
   6        -0.00551290
   7        -0.08513088
   8        -0.00000000
   9        -0.00000000
  10         0.53457441
Sym=     8a  
Ene=    -0.4580
Spin= Alpha
Occup=    1.00000
   1        -0.00666403
   2        -0.12348981
   3         0.00000000
   4        -0.00000000
   5         0.85021361
   6        -0.01411821
   7        -0.18667617
   8        -0.00000000
   9         0.00000000
  10        -0.41296298
Sym=     8a  
Ene=     0.1008
Spin= Beta
Occup=    0.00000
   1        -0.00000000
   2        -0.00000000
   3         0.44587954
   4         0.89853087
   5        -0.00000000
   6         0.00000000
   7         0.00000000
   8        -0.05379216
   9        -0.10840129
  10        -0.00000000
Sym=     9a  
Ene=     0.0501
Spin= Alpha
Occup=    0.00000
   1        -0.00000000
   2        -0.00000000
   3         0.44550914
   4         0.89778444
   5        -0.00000000
   6         0.00000000
   7         0.00000000
   8        -0.06206830
   9        -0.12507927
  10        -0.00000000
Sym=     9a  
Ene=     0.1630
Spin= Beta
Occup=    0.00000
   1        -0.00000000
   2        -0.00000000
   3         0.89872417
   4        -0.44597546
   5        -0.00000000
   6         0.00000000
   7         0.00000000
   8        -0.10233291
   9         0.05078084
  10        -0.00000000
Sym=    10a  
Ene=     0.1509
Spin= Alpha
Occup=    0.00000
   1         0.01595279
   2         0.27948080
   3         0.00000000
   4         0.00000000
   5         0.59206308
   6        -0.01236220
   7        -0.16613618
   8        -0.00000000
   9        -0.00000000
  10         0.94031880
Sym=    10a  
Ene=     0.1974
Spin= Beta
Occup=    0.00000
   1         0.00540261
   2         0.11122057
   3         0.00000000
   4         0.00000000
   5         1.03175367
   6        -0.01865559
   7        -0.21697467
   8        -0.00000000
   9        -0.00000000
  10         0.29452957
