[Molden Format]
[N_Atoms]
                     2
[Atoms] (AU)
N1          1      7           0.00000000      0.00000000      0.00000000
N2          2      7           0.00000000      0.00000000      3.96842486
[Charge] (Mulliken)
  2.090179121339020E-006
 -2.090179139102588E-006
[GTO] (AU)
   1
   s  14
  7.476171500E+04  1.182599996E-04
  1.112365400E+04  5.172899983E-04
  2.512685700E+03  2.266659992E-03
  7.037772900E+02  9.145289970E-03
  2.254787900E+02  3.239342989E-02
  7.961581000E+01  9.770792967E-02
  3.023728300E+01  2.317036792E-01
  1.226362200E+01  3.768898887E-01
  5.265086000E+00  3.177420689E-01
  2.333471000E+00  8.211308973E-02
  9.018560000E-01  3.312089989E-03
  3.583360000E-01  3.720819988E-03
  1.410930000E-01  3.165419989E-03
  4.938300000E-02  4.595799985E-04
   s  14
  7.476171500E+04 -2.707000010E-05
  1.112365400E+04 -1.183700004E-04
  2.512685700E+03 -5.203800020E-04
  7.037772900E+02 -2.102930008E-03
  2.254787900E+02 -7.568200028E-03
  7.961581000E+01 -2.346767009E-02
  3.023728300E+01 -6.042901023E-02
  1.226362200E+01 -1.170549104E-01
  5.265086000E+00 -1.555321506E-01
  2.333471000E+00 -2.468935009E-02
  9.018560000E-01  3.625054514E-01
  3.583360000E-01  5.550845021E-01
  1.410930000E-01  2.148376908E-01
  4.938300000E-02  8.983850034E-03
   p   9
  1.266665700E+02  1.233630000E-03
  2.983738900E+01  9.493409996E-03
  9.394038000E+00  4.293961998E-02
  3.405104000E+00  1.362925399E-01
  1.350000000E+00  2.921362499E-01
  5.576960000E-01  3.887887598E-01
  2.324490000E-01  2.946801399E-01
  9.426400000E-02  8.012875997E-02
  3.299200000E-02  5.405199998E-04
 
   2
   s  14
  7.476171500E+04  1.182599996E-04
  1.112365400E+04  5.172899983E-04
  2.512685700E+03  2.266659992E-03
  7.037772900E+02  9.145289970E-03
  2.254787900E+02  3.239342989E-02
  7.961581000E+01  9.770792967E-02
  3.023728300E+01  2.317036792E-01
  1.226362200E+01  3.768898887E-01
  5.265086000E+00  3.177420689E-01
  2.333471000E+00  8.211308973E-02
  9.018560000E-01  3.312089989E-03
  3.583360000E-01  3.720819988E-03
  1.410930000E-01  3.165419989E-03
  4.938300000E-02  4.595799985E-04
   s  14
  7.476171500E+04 -2.707000010E-05
  1.112365400E+04 -1.183700004E-04
  2.512685700E+03 -5.203800020E-04
  7.037772900E+02 -2.102930008E-03
  2.254787900E+02 -7.568200028E-03
  7.961581000E+01 -2.346767009E-02
  3.023728300E+01 -6.042901023E-02
  1.226362200E+01 -1.170549104E-01
  5.265086000E+00 -1.555321506E-01
  2.333471000E+00 -2.468935009E-02
  9.018560000E-01  3.625054514E-01
  3.583360000E-01  5.550845021E-01
  1.410930000E-01  2.148376908E-01
  4.938300000E-02  8.983850034E-03
   p   9
  1.266665700E+02  1.233630000E-03
  2.983738900E+01  9.493409996E-03
  9.394038000E+00  4.293961998E-02
  3.405104000E+00  1.362925399E-01
  1.350000000E+00  2.921362499E-01
  5.576960000E-01  3.887887598E-01
  2.324490000E-01  2.946801399E-01
  9.426400000E-02  8.012875997E-02
  3.299200000E-02  5.405199998E-04
 
[MO]
Sym=     1a  
Ene=   -15.6410
Spin= Alpha
Occup=    2.00000
   1         0.70740492
   2        -0.00448960
   3         0.00000000
   4         0.00000000
   5         0.00027977
   6         0.70671538
   7        -0.00447590
   8        -0.00000000
   9        -0.00000000
  10        -0.00027818
Sym=     2a  
Ene=   -15.6370
Spin= Alpha
Occup=    2.00000
   1        -0.70662891
   2         0.01389408
   3        -0.00000000
   4         0.00000000
   5        -0.00161365
   6         0.70731854
   7        -0.01389835
   8         0.00000000
   9        -0.00000000
  10        -0.00161390
Sym=     3a  
Ene=    -1.0165
Spin= Alpha
Occup=    2.00000
   1        -0.00031480
   2        -0.66578934
   3         0.00000000
   4        -0.00000000
   5        -0.05470258
   6        -0.00031486
   7        -0.66579665
   8         0.00000000
   9        -0.00000000
  10         0.05470190
Sym=     4a  
Ene=    -0.3917
Spin= Alpha
Occup=    2.00000
   1         0.00810139
   2         0.14340855
   3         0.00000000
   4         0.00000000
   5        -0.65871388
   6         0.00810141
   7         0.14341086
   8         0.00000000
   9         0.00000000
  10         0.65871407
Sym=     5a  
Ene=    -0.3286
Spin= Alpha
Occup=    2.00000
   1         0.00000000
   2         0.00000000
   3         0.68559473
   4         0.04470404
   5         0.00000000
   6        -0.00000000
   7         0.00000000
   8         0.68560027
   9         0.04470440
  10        -0.00000000
Sym=     6a  
Ene=    -0.3277
Spin= Alpha
Occup=    2.00000
   1        -0.00000000
   2        -0.00000000
   3        -0.04470435
   4         0.68559951
   5         0.00000000
   6        -0.00000000
   7        -0.00000000
   8        -0.04470409
   9         0.68559549
  10        -0.00000000
Sym=     7a  
Ene=    -0.9029
Spin= Alpha
Occup=    1.98857
   1        -0.01664492
   2        -0.72968418
   3         0.00000000
   4         0.00000000
   5         0.06879923
   6         0.01664475
   7         0.72967706
   8        -0.00000000
   9         0.00000000
  10         0.06879770
Sym=     8a  
Ene=     0.0000
Spin= Alpha
Occup=    0.01143
   1         0.00000000
   2         0.00000000
   3        -0.72748297
   4        -0.04743535
   5        -0.00000000
   6         0.00000000
   7         0.00000000
   8         0.72747775
   9         0.04743501
  10        -0.00000000
Sym=     9a  
Ene=    -0.0286
Spin= Alpha
Occup=    0.00000
   1         0.00000000
   2         0.00000000
   3         0.04743506
   4        -0.72747847
   5         0.00000000
   6        -0.00000000
   7        -0.00000000
   8        -0.04743531
   9         0.72748225
  10         0.00000000
Sym=    10a  
Ene=     0.0868
Spin= Alpha
Occup=    0.00000
   1         0.01050025
   2         0.19128177
   3        -0.00000000
   4         0.00000000
   5         0.78149059
   6        -0.01050025
   7        -0.19128177
   8         0.00000000
   9        -0.00000000
  10         0.78149060
