   This run of MOLCAS is using the pymolcas driver

                             OPE
                             OPE          NMOL  CASOP  ENMOLC A   SO
                 OPE        NMOLC        AS  OP EN  MO LC     AS  OP
                OPENM       OL CA        SO  PE NM  OL CA     SOP EN
                OP EN      MO   LC       AS  OP ENMOL  CASO   PENMOL
                OP  EN     MO   LC       AS  OP EN     MO     LC ASO
               OP   E  NMOL  C  AS       OP  EN MO     LC     AS  OP
               OP  E   NMO   LC AS        OPEN  MO     LCASOP EN   M
               O  PEN   MO  LCA  SO
            OPE   NMO   L   CAS    OP
        OPENMOL  CASOP     ENMOL   CASOPE
     OPENMOLCA   SOPENMOLCASOPEN   MOLCASOPE
    OPENMOLCAS   OP           EN   MOL    CAS
    OPENMOLCAS       OP  ENM        O     LCA
    OPENMOLCAS    OPEN  MOLCASO     P  E  NMO
    OPENMOLCAS     OP               E  N  MOL
    OPENMOLCA   SO           PENM   O  L  CAS    OPEN    MO    LCAS
    OPENMOLCA   SOP           ENM   O  L  CAS   OP  EN  MOLC  AS   O
    OPENMOLCA   SOPE           NM      O  LCA   S      OP  EN MO
    OPENMOLC                AS         O  PEN   M      OL  CA  SOPE
    OPENMO        LCASOPE  NMOL        C  ASO   P      ENMOLC     AS
    OPE     NMO      LCA  SO     P     E   NM   OL  CA SO  PE N   MO
          OPENMOLCA            SOPE   NMO        LCAS  O    P  ENMO
     OPENMOLCASOPENMOLCASOPENMOLCASOPENMOLCA
        OPENMOLCASOPENMOLCASOPENMOLCASOPE
            OPENMOLCASOPENMOLCASOPENM
               OPENMOLCASOPENMOLCA        version: 1d1d16313-dirty
                   OPENMOLCASO
                       OPE                tag:

 OpenMolcas is free software; you can redistribute it and/or modify it
 under the terms of the GNU Lesser General Public License version 2.1.
 OpenMolcas is distributed in the hope that it will be useful, but it
 is provided "as is" and without any express or implied warranties.
 For more details see the full text of the license in the file
 LICENSE or in <http://www.gnu.org/licenses/>.

                 Copyright (C) The OpenMolcas Authors
           For the author list and the recommended citation,
                   consult the file CONTRIBUTORS.md

           *************************************************
           * pymolcas version py2.28                       *
           *   build c4a6d18ded8cb6cad61d2372a9abd97c      *
           *   (after the EMIL interpreter by V. Veryazov) *
           *************************************************

configuration info
------------------
C Compiler ID: IntelLLVM
C flags: -std=gnu99
Fortran Compiler ID: IntelLLVM
Fortran flags: -standard-semantics -fltconsistency -fpp -i8 -heap-arrays
Definitions: _MOLCAS_;_I8_;_LINUX_
Parallel: OFF (GA=OFF)


   --------------------------------------------------------------------------------
  |
  |              Project: ozone_171.50
  |       Submitted from: /home/grierjones/DDCASPT2/ozone/ANO-RCC-VDZP/ozone_171.50
  |         Scratch area: /tmp/ozone_171.50
  |      Save outputs to: /home/grierjones/DDCASPT2/ozone/ANO-RCC-VDZP/ozone_171.50
  |               Molcas: /home/grierjones/Test/build
  |
  | Scratch area is empty
  |
  |       MOLCAS_DRIVER = /usr/local/pymolcas
  | MOLCAS_KEEP_WORKDIR = NO
  |  MOLCAS_NEW_WORKDIR = YES
  |       MOLCAS_NPROCS = 1
  |        MOLCAS_PRINT = NORMAL
  |       MOLCAS_SOURCE = /home/grierjones/Test
  |    MOLCAS_STRUCTURE = 0
  |
   --------------------------------------------------------------------------------

++ ---------   Input file   ---------

&GATEWAY
coord=ozone_171.50.xyz
Basis = ANO-RCC-VDZP
Group = nosymm
Expert
End of Input

&SEWARD
End of Input

&SCF

>>> COPY $WorkDir/ozone_171.50.scf.h5 $CurrDir/

&RASSCF
Title= RASSCF
FileOrb
/home/grierjones/DDCASPT2/ozone/ANO-RCC-VDZP/ozone_171.25/ozone_171.25.RasOrb
NACTEL
4 0 0
Inactive
10
RAS2
3
Symmetry
1
Spin
1
orblisting
all
ITERation
300 200

>>> COPY $WorkDir/ozone_171.50.rasscf.h5 $CurrDir/

>>> COPY $WorkDir/GMJ_Fock_MO.csv $CurrDir/ozone_171.50.GMJ_Fock_MO.csv

>>> COPY $WorkDir/GMJ_PT2_Fock_MO.csv $CurrDir/ozone_171.50.GMJ_PT2_Fock_MO.csv

&MOTRA
Frozen=0
LUMORB

>>> COPY $WorkDir/GMJ_one_int_indx.csv $CurrDir/ozone_171.50.GMJ_one_int_indx.csv

>>> COPY $WorkDir/GMJ_one_int.csv $CurrDir/ozone_171.50.GMJ_one_int.csv

>>> COPY $WorkDir/GMJ_two_int_indx.csv $CurrDir/ozone_171.50.GMJ_two_int_indx.csv

>>> COPY $WorkDir/GMJ_two_int.csv $CurrDir/ozone_171.50.GMJ_two_int.csv

&CASPT2
Frozen
0
MAXITER
50

>>> FOREACH i IN (B,E,F,G,H)

  >>> FOREACH j IN (P,M)

    >>> IF (-FILE GMJ_e2_${i}_${j}.csv)

      >>> COPY $WorkDir/GMJ_RHS_${i}_${j}.csv $CurrDir/GMJ_RHS_${i}_${j}.csv

      >>> COPY $WorkDir/GMJ_IVECW_${i}_${j}.csv $CurrDir/GMJ_IVECW_${i}_${j}.csv

      >>> COPY $WorkDir/GMJ_IVECX_${i}_${j}.csv $CurrDir/GMJ_IVECX_${i}_${j}.csv

      >>> COPY $WorkDir/GMJ_IVECC2_${i}_${j}.csv $CurrDir/GMJ_IVECC2_${i}_${j}.csv

      >>> COPY $WorkDir/GMJ_e2_${i}_${j}.csv $CurrDir/GMJ_e2_${i}_${j}.csv

    >>> END IF

  >>> END FOREACH

>>> END FOREACH

>>> FOREACH i IN (A,C,D)

  >>> IF (-FILE GMJ_e2_$i.csv)

    >>> COPY $WorkDir/GMJ_RHS_$i.csv $CurrDir/GMJ_RHS_$i.csv

    >>> COPY $WorkDir/GMJ_IVECW_$i.csv $CurrDir/GMJ_IVECW_$i.csv

    >>> COPY $WorkDir/GMJ_IVECX_$i.csv $CurrDir/GMJ_IVECX_$i.csv

    >>> COPY $WorkDir/GMJ_IVECC2_$i.csv $CurrDir/GMJ_IVECC2_$i.csv

    >>> COPY $WorkDir/GMJ_e2_$i.csv $CurrDir/GMJ_e2_$i.csv

  >>> END IF

>>> END FOREACH

-- ----------------------------------

--- Start Module: gateway at Fri Jan 24 18:13:49 2025 ---
 
()()()()()()()()()()()()()()()()()()()()()()()()()()()()()()()()()()()()()()()()()()()()()()()()()()

                                              &GATEWAY

                                   only a single process is used
                       available to each process: 2.0 GB of memory, 1 thread?
()()()()()()()()()()()()()()()()()()()()()()()()()()()()()()()()()()()()()()()()()()()()()()()()()()
 
 ###############################################################################
 ###############################################################################
 ###                                                                         ###
 ###                                                                         ###
 ###                                                                         ###
 ###    WARNING: EXPERT option is ON!                                        ###
 ###                                                                         ###
 ###                                                                         ###
 ###############################################################################
 ###############################################################################
 
++    Symmetry information:
      ---------------------
 
                    Character Table for C1 
 
                             E  
                    a        1  x, y, xy, Rz, z, xz, Ry, yz, Rx, I
--
 
 
++    Basis set information:
      ----------------------
 
 
      Basis set label: O.ANO-RCC...3S2P1D.
 
      Electronic valence basis set:
      ------------------
      Associated Effective Charge   8.000000 au
      Associated Actual Charge      8.000000 au
      Nuclear Model: Point charge
 
      Shell  nPrim  nBasis  Cartesian Spherical Contaminant
         s      14       3        X                  
         p       9       2        X                  
         d       4       1                 X         
--
 
 
++    Molecular structure info:
      -------------------------
 
                    ************************************************ 
                    **** Cartesian Coordinates / Bohr, Angstrom **** 
                    ************************************************ 
 
     Center  Label                x              y              z                     x              y              z
        1      O1               0.178978       2.408429       0.000000              0.094711       1.274486       0.000000
        2      O2               0.000000       0.000000       0.000000              0.000000       0.000000       0.000000
        3      O3               0.178978      -2.408429       0.000000              0.094711      -1.274486       0.000000
 
                    *************************************** 
                    *    InterNuclear Distances / Bohr    * 
                    *************************************** 
 
               1 O1            2 O2            3 O3    
    1 O1       0.000000
    2 O2       2.415071        0.000000
    3 O3       4.816859        2.415071        0.000000
 
                    ******************************************* 
                    *    InterNuclear Distances / Angstrom    * 
                    ******************************************* 
 
               1 O1            2 O2            3 O3    
    1 O1       0.000000
    2 O2       1.278000        0.000000
    3 O3       2.548972        1.278000        0.000000
 
                    ************************************** 
                    *    Valence Bond Angles / Degree    * 
                    ************************************** 
                          Atom centers                 Phi
                      1 O1       2 O2       3 O3       171.50
--
 
 
            Nuclear Potential Energy             66.28718917 au
 
 ###############################################################################
 ###############################################################################
 ###                                                                         ###
 ###                                                                         ###
 ###    There were warnings during the execution                             ###
 ###    Please, check the output with care!                                  ###
 ###                                                                         ###
 ###                                                                         ###
 ###############################################################################
 ###############################################################################
--- Stop Module: gateway at Fri Jan 24 18:13:49 2025 /rc=_RC_ALL_IS_WELL_ ---
*** files: xmldump
    saved to directory /home/grierjones/DDCASPT2/ozone/ANO-RCC-VDZP/ozone_171.50

--- Start Module: seward at Fri Jan 24 18:13:49 2025 ---
 
()()()()()()()()()()()()()()()()()()()()()()()()()()()()()()()()()()()()()()()()()()()()()()()()()()

                                              &SEWARD

                                   only a single process is used
                       available to each process: 2.0 GB of memory, 1 thread?
()()()()()()()()()()()()()()()()()()()()()()()()()()()()()()()()()()()()()()()()()()()()()()()()()()
 
 ###############################################################################
 ###############################################################################
 ###                                                                         ###
 ###                                                                         ###
 ###                                                                         ###
 ###    WARNING: EXPERT option is ON!                                        ###
 ###                                                                         ###
 ###                                                                         ###
 ###############################################################################
 ###############################################################################
               SEWARD will generate:
                  Multipole Moment integrals up to order  2
                  Kinetic Energy integrals
                  Nuclear Attraction integrals (point charge)
                  One-Electron Hamiltonian integrals
                  Velocity integrals
                  Relativistic Douglas-Kroll-Hess integrals:
                    - Parametrization         : EXP
                    - DKH order of Hamiltonian: 2
                    - DKH order of Properties : 0
                         - multipole moment operators
                         - electric potential operators
                         - contact operators
                  Atomic mean-field integrals
                  Two-Electron Repulsion integrals
 
                   Integrals are discarded if absolute value <: 0.10E-13
                   Integral cutoff threshold is set to       <: 0.10E-15
 
            Nuclear Potential Energy             66.28718917 au
 
 
      Basis set specifications :
      Symmetry species         a  
      Basis functions           42
 
 
  Input file to MOLDEN was generated!
 
 ###############################################################################
 ###############################################################################
 ###                                                                         ###
 ###                                                                         ###
 ###    There were warnings during the execution                             ###
 ###    Please, check the output with care!                                  ###
 ###                                                                         ###
 ###                                                                         ###
 ###############################################################################
 ###############################################################################
forrtl: warning (525): IEEE_DIVIDE_BY_ZERO is signaling
forrtl: warning (526): IEEE_INVALID is signaling
forrtl: warning (528): IEEE_UNDERFLOW is signaling
--- Stop Module: seward at Fri Jan 24 18:13:50 2025 /rc=_RC_ALL_IS_WELL_ ---
*** files: ozone_171.50.GssOrb ozone_171.50.guessorb.h5 ozone_171.50.guessorb.molden xmldump
    saved to directory /home/grierjones/DDCASPT2/ozone/ANO-RCC-VDZP/ozone_171.50
--- Module seward spent 1 second ---

*** symbolic link created: INPORB -> ozone_171.50.GssOrb
--- Start Module: scf at Fri Jan 24 18:13:50 2025 ---
 
()()()()()()()()()()()()()()()()()()()()()()()()()()()()()()()()()()()()()()()()()()()()()()()()()()

                                                &SCF

                                   only a single process is used
                       available to each process: 2.0 GB of memory, 1 thread?
()()()()()()()()()()()()()()()()()()()()()()()()()()()()()()()()()()()()()()()()()()()()()()()()()()
 
++    Input section:
      --------------
 
      Header of the integral files:
      
       Integrals generated by seward 4.2.0  , Fri Jan 24 18:13:49 2025
 
 
      Cartesian coordinates in Angstrom:
      -----------------------------------------------------
      No.  Label        X            Y            Z        
      -----------------------------------------------------
       1   O1         0.09471100   1.27448600   0.00000000
       2   O2         0.00000000   0.00000000   0.00000000
       3   O3         0.09471100  -1.27448600   0.00000000
      -----------------------------------------------------
      Nuclear repulsion energy =   66.28718917
--
 
++    Orbital specifications:
      -----------------------
 
      Symmetry species               1
                                     a
      Frozen orbitals                0
      Aufbau                        12
      Start temperature = 0.500
      End temperature   = 0.010
      Temperature Factor= 0.460
      Deleted orbitals               0
      Total number of orbitals      42
      Number of basis functions     42
--
 
      Molecular charge                           0.000
 
++    Optimization specifications:
      ----------------------------
 
      SCF Algorithm: Conventional
      Minimized density differences are used
      Number of density matrices in core                5
      Maximum number of NDDO SCF iterations           400
      Maximum number of HF SCF iterations             400
      Threshold for SCF energy change            0.10E-08
      Threshold for density matrix               0.10E-03
      Threshold for Fock matrix                  0.15E-03
      Threshold for linear dependence            0.10E-08
      Threshold at which DIIS is turned on       0.15E+00
      Threshold at which QNR/C2DIIS is turned on 0.75E-01
      Threshold for Norm(delta) (QNR/C2DIIS)     0.20E-04
      DIIS extrapolation of the SCF procedure
      All orbitals punched on: SCFORB
--
 
      Input vectors read from INPORB
      Orbital file label: *Guess orbitals
 
 
++ Convergence information
                                   SCF        iterations: Energy and convergence statistics
 
Iter     Tot. SCF        One-elec.       Two-elec.     Energy      Max Dij or  Max Fij      DNorm      TNorm      AccCon     Time
         Energy          Energy          Energy        Change      Delta Norm                                                in Sec.
   1  -221.451784719  -440.216515096   152.477541209   0.00E+00    0.11E+00*   0.71E+00*    0.77E+01   0.76E+02   None         0.
   2  -222.512574431  -435.306976067   146.507212467  -0.11E+01*   0.11E+00*   0.80E-01*    0.34E+01   0.75E+02   EDIIS        0.
   3  -223.818603165  -441.686670477   151.580878144  -0.13E+01*   0.91E-01*   0.12E+00*    0.31E+01   0.76E+02   EDIIS        0.
   4  -224.125907244  -438.914840258   148.501743845  -0.31E+00*   0.13E+00*   0.89E-01*    0.13E+01   0.75E+02   EDIIS        0.
   5  -224.150355329  -440.907726355   150.470181858  -0.24E-01*   0.14E+00*   0.85E-01*    0.87E+00   0.76E+02   EDIIS        0.
   6  -224.356128411  -439.816189579   149.172872000  -0.21E+00*   0.12E+00*   0.89E-01*    0.15E+01   0.76E+02   EDIIS        0.
   7  -224.367719290  -440.619772373   149.964863915  -0.12E-01*   0.87E-01*   0.58E-01*    0.32E+00   0.76E+02   EDIIS        0.
   8  -224.381703685  -440.154324757   149.485431904  -0.14E-01*   0.42E-01*   0.38E-01*    0.16E+00   0.76E+02   EDIIS        0.
   9  -224.382396757  -440.379680378   149.710094453  -0.69E-03*   0.21E-01*   0.18E-01*    0.34E-01   0.76E+02   EDIIS        0.
 
       Fermi aufbau procedure completed!
      nOcc=   12
 
  10  -224.384413962  -440.252016381   149.580413251  -0.20E-02*   0.74E-02*   0.59E-02*    0.68E-02   0.76E+02   EDIIS        0.
  11  -224.384507877  -440.284627228   149.612930182  -0.94E-04*   0.13E-01*   0.45E-02*    0.25E-02   0.76E+02   EDIIS        0.
  12  -224.384548565  -440.253092474   149.581354741  -0.41E-04*   0.43E-02*   0.32E-02*    0.92E-03   0.76E+02   EDIIS        0.
  13  -224.384586388  -440.277294208   149.605518651  -0.38E-04*   0.59E-02*   0.22E-02*    0.44E-03   0.76E+02   EDIIS        0.
  14  -224.384600334  -440.260587814   149.588798312  -0.14E-04*   0.25E-02*   0.93E-03*    0.12E-03   0.76E+02   c2DIIS       0.
  15  -224.384612246  -440.267580652   149.595779238  -0.12E-04*   0.11E-02*   0.58E-03*    0.45E-04   0.76E+02   QNRc2DIIS    0.
  16  -224.384615655  -440.268241008   149.596436185  -0.34E-05*   0.34E-02*   0.43E-03*    0.27E-04   0.76E+02   QNRc2DIIS    0.
  17  -224.384619049  -440.266502302   149.594694085  -0.34E-05*   0.41E-03*   0.35E-03*    0.62E-02   0.76E+02   QNRc2DIIS    0.
  18  -224.384619422  -440.267715107   149.595906518  -0.37E-06*   0.34E-03*   0.83E-04     0.48E-02   0.76E+02   QNRc2DIIS    0.
  19  -224.384619490  -440.267965611   149.596156953  -0.69E-07*   0.15E-04    0.40E-05     0.11E-01   0.76E+02   QNRc2DIIS    0.
  20  -224.384619491  -440.267959643   149.596150984  -0.28E-09    0.11E-05    0.52E-06     0.47E-02   0.76E+02   QNRc2DIIS    0.
 
       Convergence after 20 Macro Iterations
--
 
 *****************************************************************************************************************************
 *                                                                                                                           *
 *                                             SCF/KS-DFT Program, Final results                                             *
 *                                                                                                                           *
 *                                                                                                                           *
 *                                                                                                                           *
 *                                                       Final Results                                                       *
 *                                                                                                                           *
 *****************************************************************************************************************************
 
::    Total SCF energy                               -224.3846194905
      One-electron energy                            -440.2679596429
      Two-electron energy                             149.5961509841
      Nuclear repulsion energy                         66.2871891682
      Kinetic energy (interpolated)                   225.6383649955
      Virial theorem                                    0.9944435624
      Total spin, S(S+1)                                0.0000000000
      Total spin, S                                     0.0000000000
      Max non-diagonal density matrix element           0.0000011077
      Max non-diagonal Fock matrix element              0.0000002510
 
 
      All orbitals with orbital energies smaller than  E(LUMO)+0.5 are printed
 
++    Molecular orbitals:
      -------------------
 
      Title: SCF orbitals

      Molecular orbitals for symmetry species 1: a  
 
          Orbital            1         2         3         4         5         6         7         8         9        10    
          Energy          -20.8414  -20.7360  -20.7359   -1.7058   -1.4693   -1.0608   -0.8395   -0.7853   -0.7509   -0.6222
          Occ. No.          2.0000    2.0000    2.0000    2.0000    2.0000    2.0000    2.0000    2.0000    2.0000    2.0000
 
        1 O1     1s         0.0028   -0.7072    0.7072   -0.0155    0.0096    0.0142   -0.0020   -0.0195    0.0000    0.0030
        2 O1     2s         0.0001   -0.0008    0.0005    0.3269   -0.5735    0.6541   -0.0457   -0.4113    0.0000    0.0387
        3 O1     3s         0.0000   -0.0002   -0.0001   -0.0241    0.0127    0.0188   -0.0033   -0.0260    0.0000    0.0034
        4 O1     2px        0.0001    0.0001   -0.0000   -0.0064    0.0116    0.0230    0.3419   -0.0924    0.0000   -0.6984
        5 O1     3px        0.0001    0.0000    0.0000    0.0026   -0.0016   -0.0036   -0.0321    0.0051   -0.0000    0.0044
        6 O1     2py       -0.0002    0.0009   -0.0010   -0.1020    0.0936    0.1795   -0.0585   -0.4192    0.0000    0.0890
        7 O1     3py       -0.0000   -0.0005    0.0003    0.0251   -0.0188   -0.0270    0.0050    0.0289    0.0000    0.0001
        8 O1     2pz        0.0000    0.0000    0.0000    0.0000    0.0000   -0.0000   -0.0000    0.0000    0.4222    0.0000
        9 O1     3pz       -0.0000    0.0000    0.0000    0.0000   -0.0000   -0.0000    0.0000    0.0000   -0.0241   -0.0000
       10 O1     3d2-       0.0000   -0.0000    0.0000    0.0012   -0.0027   -0.0023   -0.0225    0.0058    0.0000    0.0141
       11 O1     3d1-       0.0000   -0.0000   -0.0000    0.0000    0.0000   -0.0000    0.0000   -0.0000   -0.0309   -0.0000
       12 O1     3d0        0.0000    0.0000   -0.0001   -0.0083    0.0083    0.0070   -0.0021   -0.0171    0.0000    0.0024
       13 O1     3d1+       0.0000    0.0000    0.0000   -0.0000    0.0000    0.0000   -0.0000   -0.0000   -0.0019   -0.0000
       14 O1     3d2+      -0.0001   -0.0002    0.0001   -0.0169    0.0154    0.0149   -0.0065   -0.0319    0.0000    0.0055
       15 O2     1s         1.0000    0.0000   -0.0041   -0.0208   -0.0000   -0.0149   -0.0012   -0.0000   -0.0000   -0.0000
       16 O2     2s         0.0000    0.0000   -0.0008    0.6721    0.0000   -0.6249   -0.0134   -0.0000   -0.0000   -0.0000
       17 O2     3s        -0.0009    0.0000   -0.0007   -0.0356   -0.0000   -0.0148   -0.0010   -0.0000    0.0000   -0.0000
       18 O2     2px        0.0002    0.0000   -0.0000    0.0241    0.0000    0.0429    0.7471    0.0000    0.0000    0.0000
       19 O2     3px       -0.0004    0.0000   -0.0001   -0.0054   -0.0000   -0.0054   -0.0643   -0.0000    0.0000   -0.0000
       20 O2     2py        0.0000    0.0010    0.0000    0.0000   -0.3275    0.0000   -0.0000    0.5355   -0.0000   -0.0623
       21 O2     3py       -0.0000    0.0013    0.0000   -0.0000    0.0821    0.0000   -0.0000   -0.0835   -0.0000    0.0019
       22 O2     2pz        0.0000   -0.0000   -0.0000    0.0000    0.0000    0.0000   -0.0000    0.0000    0.6393   -0.0000
       23 O2     3pz       -0.0000   -0.0000   -0.0000    0.0000    0.0000    0.0000    0.0000   -0.0000   -0.0147    0.0000
       24 O2     3d2-       0.0000    0.0000    0.0000    0.0000   -0.0091    0.0000    0.0000    0.0060   -0.0000   -0.0388
       25 O2     3d1-       0.0000   -0.0000   -0.0000   -0.0000    0.0000    0.0000   -0.0000    0.0000    0.0000    0.0000
       26 O2     3d0       -0.0003   -0.0000    0.0003   -0.0183   -0.0000    0.0011   -0.0048   -0.0000   -0.0000   -0.0000
       27 O2     3d1+      -0.0000   -0.0000   -0.0000    0.0000   -0.0000    0.0000   -0.0000    0.0000    0.0077   -0.0000
       28 O2     3d2+       0.0002   -0.0000    0.0004   -0.0324   -0.0000   -0.0024    0.0048   -0.0000    0.0000   -0.0000
       29 O3     1s         0.0028    0.7072    0.7072   -0.0155   -0.0096    0.0142   -0.0020    0.0195   -0.0000   -0.0030
       30 O3     2s         0.0001    0.0008    0.0005    0.3269    0.5735    0.6541   -0.0457    0.4113   -0.0000   -0.0387
       31 O3     3s         0.0000    0.0002   -0.0001   -0.0241   -0.0127    0.0188   -0.0033    0.0260   -0.0000   -0.0034
       32 O3     2px        0.0001   -0.0001   -0.0000   -0.0064   -0.0116    0.0230    0.3419    0.0924    0.0000    0.6984
       33 O3     3px        0.0001   -0.0000    0.0000    0.0026    0.0016   -0.0036   -0.0321   -0.0051   -0.0000   -0.0044
       34 O3     2py        0.0002    0.0009    0.0010    0.1020    0.0936   -0.1795    0.0585   -0.4192    0.0000    0.0890
       35 O3     3py        0.0000   -0.0005   -0.0003   -0.0251   -0.0188    0.0270   -0.0050    0.0289   -0.0000    0.0001
       36 O3     2pz       -0.0000    0.0000    0.0000   -0.0000   -0.0000   -0.0000   -0.0000    0.0000    0.4222   -0.0000
       37 O3     3pz        0.0000    0.0000    0.0000   -0.0000   -0.0000   -0.0000    0.0000   -0.0000   -0.0241   -0.0000
       38 O3     3d2-      -0.0000   -0.0000   -0.0000   -0.0012   -0.0027    0.0023    0.0225    0.0058    0.0000    0.0141
       39 O3     3d1-       0.0000    0.0000    0.0000   -0.0000   -0.0000   -0.0000   -0.0000    0.0000    0.0309   -0.0000
       40 O3     3d0        0.0000   -0.0000   -0.0001   -0.0083   -0.0083    0.0070   -0.0021    0.0171   -0.0000   -0.0024
       41 O3     3d1+      -0.0000   -0.0000   -0.0000    0.0000    0.0000   -0.0000    0.0000   -0.0000   -0.0019    0.0000
       42 O3     3d2+      -0.0001    0.0002    0.0001   -0.0169   -0.0154    0.0149   -0.0065    0.0319   -0.0000   -0.0055
 
          Orbital           11        12        13        14        15        16    
          Energy           -0.5178   -0.4729   -0.0275    0.1334    0.2858    0.4680
          Occ. No.          2.0000    2.0000    0.0000    0.0000    0.0000    0.0000
 
        1 O1     1s        -0.0000    0.0008    0.0000    0.0254   -0.1645   -0.0120
        2 O1     2s        -0.0000   -0.0014    0.0000    0.3245   -1.1920   -0.0836
        3 O1     3s         0.0000    0.0061   -0.0000    0.0087   -0.4287   -0.0486
        4 O1     2px       -0.0000    0.6673    0.0000    0.0230    0.0715   -0.0959
        5 O1     3px       -0.0000    0.0410    0.0000    0.0084    0.0587    0.4314
        6 O1     2py        0.0000    0.0399    0.0000   -0.8070    0.5945    0.0649
        7 O1     3py       -0.0000   -0.0069    0.0000   -0.1673    0.6554    0.1334
        8 O1     2pz       -0.7024   -0.0000    0.6501   -0.0000    0.0000    0.0000
        9 O1     3pz       -0.0350    0.0000    0.1293   -0.0000    0.0000   -0.0000
       10 O1     3d2-      -0.0000    0.0037    0.0000    0.0043   -0.0052    0.0278
       11 O1     3d1-       0.0246   -0.0000    0.0139    0.0000   -0.0000   -0.0000
       12 O1     3d0       -0.0000    0.0013    0.0000   -0.0002    0.0198    0.0031
       13 O1     3d1+       0.0012    0.0000    0.0012   -0.0000    0.0000   -0.0000
       14 O1     3d2+      -0.0000    0.0035    0.0000    0.0002    0.0328    0.0111
       15 O2     1s         0.0000    0.0081    0.0000   -0.1168    0.0000    0.0395
       16 O2     2s         0.0000    0.1014    0.0000   -1.1096    0.0000    0.2421
       17 O2     3s        -0.0000    0.0153    0.0000   -0.2559    0.0000    0.0935
       18 O2     2px       -0.0000   -0.7335   -0.0000   -0.1673    0.0000   -0.0753
       19 O2     3px       -0.0000   -0.0433   -0.0000   -0.0332   -0.0000    0.4534
       20 O2     2py        0.0000    0.0000   -0.0000   -0.0000    1.3311   -0.0000
       21 O2     3py        0.0000   -0.0000   -0.0000    0.0000    1.1166    0.0000
       22 O2     2pz        0.0000    0.0000   -0.9000    0.0000    0.0000    0.0000
       23 O2     3pz        0.0000    0.0000   -0.1676    0.0000   -0.0000   -0.0000
       24 O2     3d2-      -0.0000   -0.0000   -0.0000   -0.0000    0.0127   -0.0000
       25 O2     3d1-      -0.0556    0.0000   -0.0000   -0.0000   -0.0000    0.0000
       26 O2     3d0        0.0000    0.0078    0.0000   -0.0392    0.0000   -0.0181
       27 O2     3d1+       0.0000    0.0000   -0.0025    0.0000    0.0000    0.0000
       28 O2     3d2+       0.0000    0.0109    0.0000   -0.0722    0.0000   -0.0422
       29 O3     1s         0.0000    0.0008    0.0000    0.0254    0.1645   -0.0120
       30 O3     2s        -0.0000   -0.0014    0.0000    0.3245    1.1920   -0.0836
       31 O3     3s        -0.0000    0.0061    0.0000    0.0087    0.4287   -0.0486
       32 O3     2px        0.0000    0.6673    0.0000    0.0230   -0.0715   -0.0959
       33 O3     3px        0.0000    0.0410    0.0000    0.0084   -0.0587    0.4314
       34 O3     2py       -0.0000   -0.0399    0.0000    0.8070    0.5945   -0.0649
       35 O3     3py        0.0000    0.0069    0.0000    0.1673    0.6554   -0.1334
       36 O3     2pz        0.7024   -0.0000    0.6501   -0.0000    0.0000    0.0000
       37 O3     3pz        0.0350   -0.0000    0.1293   -0.0000    0.0000   -0.0000
       38 O3     3d2-       0.0000   -0.0037   -0.0000   -0.0043   -0.0052   -0.0278
       39 O3     3d1-       0.0246   -0.0000   -0.0139   -0.0000    0.0000    0.0000
       40 O3     3d0        0.0000    0.0013   -0.0000   -0.0002   -0.0198    0.0031
       41 O3     3d1+      -0.0012    0.0000    0.0012    0.0000   -0.0000   -0.0000
       42 O3     3d2+       0.0000    0.0035   -0.0000    0.0002   -0.0328    0.0111
--
 
 
++    Molecular charges:
      ------------------
 
      Mulliken charges per centre and basis function type
      ---------------------------------------------------
 
                O1      O2      O3    
      1s       2.0003  1.9999  2.0003
      2s       1.9373  1.6756  1.9373
      2px      2.0118  1.9727  2.0118
      2pz      1.4516  1.0481  1.4516
      2py      0.7262  1.0083  0.7262
      3s      -0.0148 -0.0240 -0.0148
      3px     -0.0201 -0.0445 -0.0201
      3pz     -0.0108 -0.0059 -0.0108
      3py     -0.0132  0.0269 -0.0132
      3d2+     0.0203  0.0184  0.0203
      3d1+     0.0001  0.0004  0.0001
      3d0      0.0057  0.0049  0.0057
      3d1-     0.0136  0.0484  0.0136
      3d2-     0.0115  0.0317  0.0115
      Total    8.1195  7.7610  8.1195
 
      N-E     -0.1195  0.2390 -0.1195
 
      Total electronic charge=   24.000000
 
      Total            charge=   -0.000000
--
 
 
  Input file to MOLDEN was generated!
 
 
++    Static properties:
      ------------------
 
 
      LoProp Charges per center
 

                   O1       O2       O3    
      Nuclear      8.0000   8.0000   8.0000
      Electronic  -8.1665  -7.6671  -8.1665
 
      Total       -0.1665   0.3329  -0.1665
--
 
 
++    Natural Bond Order analysis
      ---------------------------
      Based on LoProp computed density
      -------------------------------------------------------------------------------------
      Atom A       Atom B       Bond Order | Atom A       Atom B       Bond Order
        O1           O2             2.000  |   O2           O3             2.000
      -------------------------------------------------------------------------------------
      NBO located     16.000 core electrons.
      NBO located      8.000 electrons involved in    2 bonds.
--
 
 
++    Molecular properties:
      ---------------------
 
      Charge (e):
                      =   -0.0000
      Dipole Moment (Debye):
      Origin of the operator (Ang)=    0.0000    0.0000    0.0000
                   X=  2.2904E-03               Y= -2.3627E-10               Z= -3.2322E-14           Total=  2.2904E-03
      Quadrupole Moment (Debye*Ang):
      Origin of the operator (Ang)=    0.0631    0.0000    0.0000
                  XX= -1.6362E+01              XY= -2.3592E-12              XZ=  2.4152E-13              YY= -1.7016E+01
                  YZ=  3.7859E-14              ZZ= -1.5160E+01
      In traceless form (Debye*Ang)
                  XX= -2.7412E-01              XY= -3.5389E-12              XZ=  3.6228E-13              YY= -1.2546E+00
                  YZ=  5.6788E-14              ZZ=  1.5288E+00
--
 
 
  Input file to MOLDEN was generated!
 
 ###############################################################################
 ###############################################################################
 ###                                                                         ###
 ###                                                                         ###
 ###    RunFile label nBas                                                   ###
 ###    was used       78 times                                              ###
 ###                                                                         ###
 ###                                                                         ###
 ###############################################################################
 ###############################################################################
forrtl: warning (528): IEEE_UNDERFLOW is signaling
--- Stop Module: scf at Fri Jan 24 18:13:51 2025 /rc=_RC_ALL_IS_WELL_ ---
*** files: ozone_171.50.LprOrb ozone_171.50.LoProp.molden ozone_171.50.scf.molden ozone_171.50.ScfOrb ozone_171.50.scf.h5 xmldump
    saved to directory /home/grierjones/DDCASPT2/ozone/ANO-RCC-VDZP/ozone_171.50

>>> COPY /tmp/ozone_171.50/ozone_171.50.scf.h5 /home/grierjones/DDCASPT2/ozone/ANO-RCC-VDZP/ozone_171.50/

*** symbolic link created: INPORB -> ozone_171.50.ScfOrb
--- Start Module: rasscf at Fri Jan 24 18:13:51 2025 ---
 
()()()()()()()()()()()()()()()()()()()()()()()()()()()()()()()()()()()()()()()()()()()()()()()()()()

                                              &RASSCF

                                   only a single process is used
                       available to each process: 2.0 GB of memory, 1 thread?
()()()()()()()()()()()()()()()()()()()()()()()()()()()()()()()()()()()()()()()()()()()()()()()()()()
 
 
 *************** WARNING ****************
 ###############################################################################
 ###############################################################################
 ###                                                                         ###
 ###                                                                         ###
 ###    Too many macro-iterations.                                           ###
 ###                                                                         ###
 ###                                                                         ###
 ###############################################################################
 ###############################################################################
 Too many macro-iterations requested.
 Reset to maximum, new MAXIT=     200
 ****************************************
 
 *************** WARNING ****************
 ###############################################################################
 ###############################################################################
 ###                                                                         ###
 ###                                                                         ###
 ###    Too many SX-iterations.                                              ###
 ###                                                                         ###
 ###                                                                         ###
 ###############################################################################
 ###############################################################################
 Too many SX-iterations requested.
 Reset to maximum, new ITMAX=     100
 ****************************************
 
      Header of the ONEINT file:
      --------------------------
      
      Integrals generated by seward 4.2.0  , Fri Jan 24 18:13:49 2025
 
 
      OrdInt status: non-squared
 
 
      Cartesian coordinates in Angstrom:
      -----------------------------------------------------
      No.  Label        X            Y            Z        
      -----------------------------------------------------
       1   O1         0.09471100   1.27448600   0.00000000
       2   O2         0.00000000   0.00000000   0.00000000
       3   O3         0.09471100  -1.27448600   0.00000000
      -----------------------------------------------------
      Nuclear repulsion energy =   66.28718917
 
++    Wave function specifications:
      -----------------------------
 
      Number of closed shell electrons          20
      Number of electrons in active shells       4
      Max number of holes in RAS1 space          0
      Max nr of electrons in RAS3 space          0
      Number of inactive orbitals               10
      Number of active orbitals                  3
      Number of secondary orbitals              29
      Spin quantum number                      0.0
      State symmetry                             1
--
 
++    Orbital specifications:
      -----------------------
 
      Symmetry species                           1
                                                 a
      Frozen orbitals                            0
      Inactive orbitals                         10
      Active orbitals                            3
      RAS1 orbitals                              0
      RAS2 orbitals                              3
      RAS3 orbitals                              0
      Secondary orbitals                        29
      Deleted orbitals                           0
      Number of basis functions                 42
--
 
++    CI expansion specifications:
      ----------------------------
 
      Number of CSFs                             6
      Number of determinants                     6
      Number of root(s) required                 1
      Root chosen for geometry opt.              1
      CI root used                               1
         
      highest root included in the CI            1
      max. size of the explicit Hamiltonian      6
--
 
++    Optimization specifications:
      ----------------------------
 
      RASSCF algorithm: Conventional
      Maximum number of macro iterations       200
      Maximum number of SX iterations          100
      Threshold for RASSCF energy            0.100E-07
      Threshold for max MO rotation          0.100E+00
      Threshold for max BLB element          0.100E-03
      Level shift parameter                  0.500E+00
      Make Quasi-Newton update
--
 
      The MO-coefficients are taken from the file:
      /home/grierjones/DDCASPT2/ozone/ANO-RCC-VDZP/ozone_171.25/ozone_171.25.RasOrb                                                   
      Title: RASSCF average (pseudo-natural) orbitals                                      
 
      Total molecular charge    0.00
 
      ************************************************************************************************************************
      *                                                                                                                      *
      *                                            Wave function control section                                             *
      *                                                                                                                      *
      ************************************************************************************************************************
 
 
                                         RASSCF iterations: Energy and convergence statistics
                                         ----------------------------------------------------
 
      Iter CI   SX   CI       RASSCF       Energy    max ROT     max BLB   max BLB  Level Ln srch  Step   QN   Walltime
          iter iter root      energy       change     param      element    value   shift minimum  type update hh:mm:ss
 Nr of preliminary CI iterations:   1
        1   1    3    1  -224.45702099    0.00E+00   0.72E-03    7  14 1 -0.16E-02*  0.19   0.00    SX    NO    0:00:00
        2   1    3    1  -224.45702814   -0.71E-05*  0.44E-03    7  14 1 -0.99E-03*  0.19   0.00    SX    NO    0:00:00
        3   1    3    1  -224.45702997   -0.18E-05* -0.31E-03    7  14 1 -0.59E-03*  0.19   0.00    SX    NO    0:00:00
        4   1    3    1  -224.45703062   -0.65E-06* -0.23E-03   10  14 1  0.35E-03*  0.19   0.00    SX    NO    0:00:00
        5   1    3    1  -224.45703087   -0.25E-06* -0.34E-03   10  14 1  0.27E-03*  0.19   2.50    LS   YES    0:00:00
        6   1    3    1  -224.45703106   -0.19E-06* -0.22E-03   10  14 1  0.15E-03*  0.19   1.30    QN   YES    0:00:00
        7   1    3    1  -224.45703113   -0.70E-07*  0.18E-03    7  14 1  0.98E-04   0.19   1.20    QN   YES    0:00:00
        8   1    2    1  -224.45703117   -0.36E-07* -0.18E-03    7  14 1  0.71E-04   0.19   1.50    QN   YES    0:00:00
        9   1    3    1  -224.45703118   -0.15E-07* -0.70E-04    8  19 1 -0.56E-04   0.19   0.77    QN   YES    0:00:00
       10   1    2    1  -224.45703118   -0.12E-08  -0.14E-04    8  19 1  0.42E-04   0.19   0.55    QN   YES    0:00:00
      Convergence after 10 iterations
 
  Dmat in MO in SXCTL bf call to SXHAM                                                                                    
  mat. size =     3x    3
 
        1.9835583855440524
        0.0000000000006697      1.7768909373151540
        0.0008953620286953      0.0000000000015656      0.2395506771407936
       11   1    2    1  -224.45703118   -0.60E-09  -0.14E-04   10  18 1  0.36E-05   0.19   0.55    QN   YES    0:00:00
 
      ************************************************************************************************************************
                                                      Wave function printout:
                       occupation of active orbitals, and spin coupling of open shells (u,d: Spin up or down)
      ************************************************************************************************************************
 
      Note: transformation to natural orbitals
      has been made, which may change the order of the CSFs.
 
      printout of CI-coefficients larger than  0.05 for root  1
      energy=    -224.457031
      conf/sym  111     Coeff  Weight
             1  220  -0.93820 0.88022
             3  202   0.33400 0.11155
             6  022   0.09067 0.00822
 
      Natural orbitals and occupation numbers for root  1
      sym 1:   1.983559   1.776891   0.239550
 
      ************************************************************************************************************************
      *                                                                                                                      *
      *                                                    Final results                                                     *
      *                                                                                                                      *
      ************************************************************************************************************************
 
 
++    Wave function specifications:
      -----------------------------
 
      Number of closed shell electrons          20
      Number of electrons in active shells       4
      Max number of holes in RAS1 space          0
      Max nr of electrons in RAS3 space          0
      Number of inactive orbitals               10
      Number of active orbitals                  3
      Number of secondary orbitals              29
      Spin quantum number                      0.0
      State symmetry                             1
--
 
++    Orbital specifications:
      -----------------------
 
      Symmetry species                           1
                                                 a
      Frozen orbitals                            0
      Inactive orbitals                         10
      Active orbitals                            3
      RAS1 orbitals                              0
      RAS2 orbitals                              3
      RAS3 orbitals                              0
      Secondary orbitals                        29
      Deleted orbitals                           0
      Number of basis functions                 42
--
 
++    CI expansion specifications:
      ----------------------------
 
      Number of CSFs                             6
      Number of determinants                     6
      Number of root(s) required                 1
      CI root used                               1
      highest root included in the CI            1
      Root passed to geometry opt.               1
--
 
++    Final optimization conditions:
      ------------------------------
 
      Average CI energy                            -224.45703118
      RASSCF energy for state  1                   -224.45703118
      Super-CI energy                                -0.00000000
      RASSCF energy change                           -0.00000000
      Max change in MO coefficients              -0.126E-04
      Max non-diagonal density matrix element    -0.140E-04
      Maximum BLB matrix element                  0.363E-05
      (orbital pair  10,  18 in symmetry   1)
      Norm of electronic gradient            0.130E-04
--
 
 
      Final state energy(ies):
      ------------------------
 
::    RASSCF root number  1 Total energy:   -224.45703118
 
++    Molecular orbitals:
      -------------------
 
      Pseudonatural active orbitals and approximate occupation numbers
 
 
 
 
      Molecular orbitals for symmetry species 1: a  
 
 
      Orbital                1         2         3         4         5         6         7         8         9        10
      Energy          -20.7529  -20.7396  -20.7395   -1.6731   -1.4536   -1.0503   -0.8035   -0.7720   -0.6245   -0.4512
      Occ. No.          2.0000    2.0000    2.0000    2.0000    2.0000    2.0000    2.0000    2.0000    2.0000    2.0000
 
    1 O1     1s         0.0206   -0.7072    0.7069   -0.0153    0.0085    0.0148   -0.0017   -0.0187    0.0034    0.0005
    2 O1     2s         0.0002   -0.0008    0.0005    0.3481   -0.5907    0.6407   -0.0370   -0.3825    0.0437   -0.0071
    3 O1     3s         0.0001   -0.0001   -0.0001   -0.0250    0.0120    0.0187   -0.0027   -0.0249    0.0039    0.0070
    4 O1     2px        0.0001    0.0001   -0.0000   -0.0063    0.0112    0.0235    0.3956   -0.1052   -0.6974    0.6404
    5 O1     3px        0.0002    0.0001   -0.0000    0.0026   -0.0016   -0.0033   -0.0332    0.0056    0.0066    0.0462
    6 O1     2py       -0.0003    0.0009   -0.0010   -0.1038    0.0902    0.1987   -0.0598   -0.4432    0.0971    0.0579
    7 O1     3py       -0.0000   -0.0005    0.0003    0.0253   -0.0177   -0.0274    0.0040    0.0271    0.0002   -0.0072
    8 O1     2pz        0.0000   -0.0000   -0.0000    0.0000   -0.0000   -0.0000   -0.0000    0.0000    0.0000   -0.0000
    9 O1     3pz        0.0000    0.0000    0.0000    0.0000   -0.0000    0.0000   -0.0000    0.0000    0.0000   -0.0000
   10 O1     3d2-       0.0000   -0.0000    0.0000    0.0009   -0.0025   -0.0020   -0.0227    0.0056    0.0129    0.0076
   11 O1     3d1-       0.0000    0.0000    0.0000   -0.0000   -0.0000    0.0000    0.0000    0.0000   -0.0000   -0.0000
   12 O1     3d0        0.0000    0.0001   -0.0002   -0.0089    0.0087    0.0073   -0.0022   -0.0173    0.0029    0.0014
   13 O1     3d1+       0.0000    0.0000    0.0000   -0.0000    0.0000    0.0000    0.0000    0.0000    0.0000   -0.0000
   14 O1     3d2+      -0.0001   -0.0002    0.0001   -0.0168    0.0149    0.0159   -0.0061   -0.0320    0.0057    0.0043
   15 O2     1s         0.9995    0.0000   -0.0293   -0.0219    0.0000   -0.0122   -0.0015   -0.0000    0.0000    0.0099
   16 O2     2s         0.0001    0.0000   -0.0008    0.6450   -0.0000   -0.6271   -0.0206    0.0000    0.0000    0.1263
   17 O2     3s        -0.0012    0.0000   -0.0006   -0.0297    0.0000   -0.0188   -0.0010   -0.0000    0.0000    0.0191
   18 O2     2px        0.0002   -0.0000    0.0000    0.0253   -0.0000    0.0319    0.6824    0.0000    0.0000   -0.7987
   19 O2     3px       -0.0005    0.0000   -0.0000   -0.0051   -0.0000   -0.0041   -0.0502   -0.0000   -0.0000   -0.0631
   20 O2     2py       -0.0000    0.0010    0.0000    0.0000   -0.2989    0.0000   -0.0000    0.5113   -0.0698    0.0000
   21 O2     3py       -0.0000    0.0012    0.0000    0.0000    0.0788   -0.0000    0.0000   -0.0764    0.0007    0.0000
   22 O2     2pz       -0.0000   -0.0000   -0.0000   -0.0000    0.0000   -0.0000   -0.0000   -0.0000   -0.0000    0.0000
   23 O2     3pz       -0.0000    0.0000   -0.0000   -0.0000    0.0000   -0.0000    0.0000   -0.0000   -0.0000    0.0000
   24 O2     3d2-       0.0000    0.0000    0.0000   -0.0000   -0.0095    0.0000    0.0000    0.0070   -0.0364    0.0000
   25 O2     3d1-      -0.0000   -0.0000    0.0000   -0.0000   -0.0000    0.0000    0.0000    0.0000    0.0000   -0.0000
   26 O2     3d0       -0.0002   -0.0000    0.0003   -0.0177    0.0000    0.0014   -0.0052   -0.0000    0.0000    0.0096
   27 O2     3d1+      -0.0000   -0.0000   -0.0000    0.0000    0.0000    0.0000    0.0000    0.0000    0.0000   -0.0000
   28 O2     3d2+       0.0002   -0.0000    0.0004   -0.0325    0.0000    0.0005    0.0056   -0.0000   -0.0000    0.0104
   29 O3     1s         0.0206    0.7072    0.7069   -0.0153   -0.0085    0.0148   -0.0017    0.0187   -0.0034    0.0005
   30 O3     2s         0.0002    0.0008    0.0005    0.3481    0.5907    0.6407   -0.0370    0.3825   -0.0437   -0.0071
   31 O3     3s         0.0001    0.0001   -0.0001   -0.0250   -0.0120    0.0187   -0.0027    0.0249   -0.0039    0.0070
   32 O3     2px        0.0001   -0.0001   -0.0000   -0.0063   -0.0112    0.0235    0.3956    0.1052    0.6974    0.6404
   33 O3     3px        0.0002   -0.0001   -0.0000    0.0026    0.0016   -0.0033   -0.0332   -0.0056   -0.0066    0.0462
   34 O3     2py        0.0003    0.0009    0.0010    0.1038    0.0902   -0.1987    0.0598   -0.4432    0.0971   -0.0579
   35 O3     3py        0.0000   -0.0005   -0.0003   -0.0253   -0.0177    0.0274   -0.0040    0.0271    0.0002    0.0072
   36 O3     2pz        0.0000    0.0000    0.0000    0.0000   -0.0000   -0.0000   -0.0000   -0.0000   -0.0000    0.0000
   37 O3     3pz        0.0000   -0.0000   -0.0000    0.0000   -0.0000   -0.0000    0.0000    0.0000    0.0000   -0.0000
   38 O3     3d2-      -0.0000   -0.0000   -0.0000   -0.0009   -0.0025    0.0020    0.0227    0.0056    0.0129   -0.0076
   39 O3     3d1-       0.0000   -0.0000    0.0000    0.0000    0.0000    0.0000    0.0000   -0.0000    0.0000   -0.0000
   40 O3     3d0        0.0000   -0.0001   -0.0002   -0.0089   -0.0087    0.0073   -0.0022    0.0173   -0.0029    0.0014
   41 O3     3d1+       0.0000    0.0000    0.0000    0.0000    0.0000    0.0000   -0.0000    0.0000   -0.0000    0.0000
   42 O3     3d2+      -0.0001    0.0002    0.0001   -0.0168   -0.0149    0.0159   -0.0061    0.0320   -0.0057    0.0043
 
 
      Orbital               11        12        13        14        15        16        17        18        19        20
      Energy            0.0000    0.0000    0.0000    0.1381    0.2869    0.4681    0.4775    0.5154    0.6598    0.6732
      Occ. No.          1.9836    1.7769    0.2396    0.0000    0.0000    0.0000    0.0000    0.0000    0.0000    0.0000
 
    1 O1     1s        -0.0000    0.0000    0.0000   -0.0268   -0.1650    0.0000   -0.0112    0.0350   -0.0359    0.0089
    2 O1     2s        -0.0000    0.0000   -0.0000   -0.3384   -1.1907    0.0000   -0.0784    0.2608   -0.0948    0.0217
    3 O1     3s        -0.0000    0.0000    0.0000   -0.0074   -0.4305    0.0000   -0.0418    0.2161   -0.1179    0.0352
    4 O1     2px       -0.0000   -0.0000    0.0000   -0.0343    0.0694   -0.0000   -0.0738   -0.0434   -0.0519   -0.0850
    5 O1     3px        0.0000    0.0000   -0.0000   -0.0113    0.0602    0.0000    0.4615    0.0566   -0.1973   -0.8016
    6 O1     2py        0.0000   -0.0000    0.0000    0.8014    0.5765   -0.0000    0.0589   -0.2777   -0.4753    0.1311
    7 O1     3py        0.0000   -0.0000    0.0000    0.1639    0.6600   -0.0000    0.1202   -0.8287    0.0507   -0.0116
    8 O1     2pz        0.3359   -0.7037    0.6593   -0.0000   -0.0000    0.0261    0.0000    0.0000    0.0000   -0.0000
    9 O1     3pz       -0.0296   -0.0096   -0.0634   -0.0000    0.0000    0.4916   -0.0000   -0.0000    0.0000   -0.0000
   10 O1     3d2-      -0.0000    0.0000   -0.0000   -0.0046   -0.0055    0.0000    0.0290   -0.0010   -0.0306   -0.0143
   11 O1     3d1-      -0.0300    0.0199    0.0093    0.0000    0.0000    0.0360   -0.0000   -0.0000    0.0000   -0.0000
   12 O1     3d0       -0.0000   -0.0000    0.0000   -0.0004    0.0199    0.0000    0.0033    0.0025    0.0654   -0.0179
   13 O1     3d1+      -0.0017    0.0007    0.0007   -0.0000    0.0000    0.0033   -0.0000   -0.0000    0.0000   -0.0000
   14 O1     3d2+       0.0000   -0.0000    0.0000   -0.0020    0.0335    0.0000    0.0118    0.0005    0.1089   -0.0301
   15 O2     1s         0.0000   -0.0000   -0.0000    0.1157    0.0000   -0.0000    0.0366   -0.1806   -0.0000    0.0000
   16 O2     2s         0.0000   -0.0000    0.0000    1.1256    0.0000   -0.0000    0.2249   -1.0783   -0.0000    0.0000
   17 O2     3s         0.0000   -0.0000    0.0000    0.2656    0.0000   -0.0000    0.0934   -0.3577    0.0000   -0.0000
   18 O2     2px        0.0000    0.0000   -0.0000    0.1912    0.0000   -0.0000   -0.1164   -0.0353   -0.0000   -0.0000
   19 O2     3px       -0.0000   -0.0000   -0.0000    0.0417    0.0000    0.0000    0.4042   -0.0009   -0.0000   -0.0000
   20 O2     2py        0.0000   -0.0000   -0.0000   -0.0000    1.3209    0.0000    0.0000   -0.0000   -0.4048    0.1070
   21 O2     3py        0.0000   -0.0000   -0.0000   -0.0000    1.1281    0.0000    0.0000   -0.0000    0.7450   -0.1969
   22 O2     2pz        0.7472    0.0000   -0.6949   -0.0000    0.0000   -0.2915    0.0000    0.0000   -0.0000    0.0000
   23 O2     3pz       -0.0035   -0.0000   -0.0730    0.0000   -0.0000    0.3384   -0.0000   -0.0000   -0.0000    0.0000
   24 O2     3d2-       0.0000    0.0000    0.0000   -0.0000    0.0138   -0.0000    0.0000   -0.0000    0.0338    0.0610
   25 O2     3d1-       0.0000   -0.0467   -0.0000   -0.0000   -0.0000    0.0000   -0.0000   -0.0000   -0.0000    0.0000
   26 O2     3d0       -0.0000    0.0000   -0.0000    0.0380    0.0000    0.0000   -0.0160    0.0983    0.0000   -0.0000
   27 O2     3d1+       0.0088   -0.0000   -0.0058   -0.0000    0.0000   -0.0070    0.0000    0.0000   -0.0000   -0.0000
   28 O2     3d2+       0.0000    0.0000    0.0000    0.0689    0.0000    0.0000   -0.0387    0.1598    0.0000   -0.0000
   29 O3     1s         0.0000   -0.0000   -0.0000   -0.0268    0.1650    0.0000   -0.0112    0.0350    0.0359   -0.0089
   30 O3     2s         0.0000    0.0000   -0.0000   -0.3384    1.1907    0.0000   -0.0784    0.2608    0.0948   -0.0217
   31 O3     3s        -0.0000    0.0000   -0.0000   -0.0074    0.4305    0.0000   -0.0418    0.2161    0.1179   -0.0352
   32 O3     2px        0.0000    0.0000    0.0000   -0.0343   -0.0694   -0.0000   -0.0738   -0.0434    0.0519    0.0850
   33 O3     3px       -0.0000    0.0000    0.0000   -0.0113   -0.0602    0.0000    0.4615    0.0566    0.1973    0.8016
   34 O3     2py       -0.0000    0.0000   -0.0000   -0.8014    0.5765    0.0000   -0.0589    0.2777   -0.4753    0.1311
   35 O3     3py       -0.0000    0.0000   -0.0000   -0.1639    0.6600    0.0000   -0.1202    0.8287    0.0507   -0.0116
   36 O3     2pz        0.3359    0.7037    0.6593    0.0000    0.0000    0.0261   -0.0000   -0.0000   -0.0000   -0.0000
   37 O3     3pz       -0.0296    0.0096   -0.0634    0.0000    0.0000    0.4916   -0.0000   -0.0000   -0.0000    0.0000
   38 O3     3d2-       0.0000   -0.0000    0.0000    0.0046   -0.0055   -0.0000   -0.0290    0.0010   -0.0306   -0.0143
   39 O3     3d1-       0.0300    0.0199   -0.0093    0.0000    0.0000   -0.0360    0.0000    0.0000    0.0000   -0.0000
   40 O3     3d0        0.0000    0.0000    0.0000   -0.0004   -0.0199    0.0000    0.0033    0.0025   -0.0654    0.0179
   41 O3     3d1+      -0.0017   -0.0007    0.0007    0.0000    0.0000    0.0033    0.0000   -0.0000   -0.0000    0.0000
   42 O3     3d2+       0.0000   -0.0000    0.0000   -0.0020   -0.0335    0.0000    0.0118    0.0005   -0.1089    0.0301
 
 
      Orbital               21        22        23        24        25        26        27        28        29        30
      Energy            0.6838    0.8576    1.0242    1.0359    1.0766    1.6897    1.7051    1.7304    1.7304    1.9988
      Occ. No.          0.0000    0.0000    0.0000    0.0000    0.0000    0.0000    0.0000    0.0000    0.0000    0.0000
 
    1 O1     1s        -0.0000   -0.0198   -0.0089   -0.0000    0.0964   -0.0000   -0.0228    0.0000   -0.0013   -0.2750
    2 O1     2s         0.0000   -0.1026   -0.0483   -0.0000    0.5690   -0.0000   -0.1753    0.0000   -0.0119   -1.8832
    3 O1     3s        -0.0000    0.4525   -0.0226    0.0000   -0.0741   -0.0000   -0.2864    0.0000   -0.0169   -1.7120
    4 O1     2px       -0.0000   -0.0077   -0.4818   -0.0000   -0.0673    0.0000    0.1679   -0.0000    0.0208    0.0692
    5 O1     3px        0.0000   -0.0020   -0.9219   -0.0000   -0.0461   -0.0000   -0.0097   -0.0000    0.0131    0.0995
    6 O1     2py       -0.0000   -0.0465    0.0193    0.0000   -0.0738    0.0000    0.0452   -0.0000    0.0095    0.6533
    7 O1     3py       -0.0000    0.3074    0.0092   -0.0000    0.6904    0.0000    0.1125   -0.0000    0.0086    0.1769
    8 O1     2pz       -0.0849   -0.0000   -0.0000    0.5124    0.0000   -0.1794    0.0000   -0.0191   -0.0000    0.0000
    9 O1     3pz       -0.8256   -0.0000   -0.0000    0.9122    0.0000    0.0306   -0.0000   -0.0139   -0.0000    0.0000
   10 O1     3d2-      -0.0000   -0.0158   -0.0456   -0.0000   -0.0152    0.0000    0.4434   -0.0000    0.0759   -0.0938
   11 O1     3d1-      -0.0265   -0.0000    0.0000    0.0386    0.0000   -0.4519    0.0000   -0.0760   -0.0000    0.0000
   12 O1     3d0        0.0000    0.0501    0.0140    0.0000   -0.0659   -0.0000   -0.0302   -0.0000    0.3781   -0.0138
   13 O1     3d1+      -0.0004   -0.0000   -0.0000    0.0096    0.0000   -0.0570   -0.0000    0.4327    0.0000   -0.0000
   14 O1     3d2+       0.0000    0.0780    0.0044    0.0000   -0.1104    0.0000    0.0666    0.0000   -0.2104   -0.0107
   15 O2     1s        -0.0000    0.0114   -0.0033   -0.0000   -0.0000    0.0000   -0.0000   -0.0000    0.0047   -0.0000
   16 O2     2s        -0.0000    0.0502   -0.0088    0.0000   -0.0000    0.0000   -0.0000   -0.0000    0.0305   -0.0000
   17 O2     3s        -0.0000    0.5653   -0.0107    0.0000   -0.0000   -0.0000   -0.0000   -0.0000    0.0226   -0.0000
   18 O2     2px        0.0000    0.0038    0.6648    0.0000   -0.0000    0.0000   -0.0000   -0.0000    0.0172   -0.0000
   19 O2     3px        0.0000    0.0060    1.6380    0.0000   -0.0000    0.0000   -0.0000    0.0000   -0.0272   -0.0000
   20 O2     2py       -0.0000    0.0000    0.0000    0.0000   -0.8282    0.0000    0.1641   -0.0000   -0.0000    2.0363
   21 O2     3py        0.0000   -0.0000    0.0000    0.0000   -0.9874    0.0000    0.2098   -0.0000   -0.0000    2.2030
   22 O2     2pz       -0.0000   -0.0000    0.0000   -0.6713   -0.0000    0.0000    0.0000   -0.0197   -0.0000   -0.0000
   23 O2     3pz       -0.0000   -0.0000    0.0000   -1.6599   -0.0000    0.0000   -0.0000    0.0311    0.0000   -0.0000
   24 O2     3d2-       0.0000    0.0000   -0.0000   -0.0000    0.0692   -0.0000   -0.5534   -0.0000   -0.0000    0.1399
   25 O2     3d1-       0.0808    0.0000   -0.0000    0.0000   -0.0000    0.5715   -0.0000    0.0000   -0.0000   -0.0000
   26 O2     3d0        0.0000    0.0489    0.0215    0.0000   -0.0000    0.0000   -0.0000   -0.0000    0.5737   -0.0000
   27 O2     3d1+       0.0000    0.0000   -0.0000    0.0155    0.0000   -0.0000   -0.0000    0.6640    0.0000    0.0000
   28 O2     3d2+       0.0000    0.0705    0.0083   -0.0000   -0.0000   -0.0000   -0.0000    0.0000   -0.3345   -0.0000
   29 O3     1s         0.0000   -0.0198   -0.0089   -0.0000   -0.0964    0.0000    0.0228    0.0000   -0.0013    0.2750
   30 O3     2s         0.0000   -0.1026   -0.0483    0.0000   -0.5690    0.0000    0.1753    0.0000   -0.0119    1.8832
   31 O3     3s         0.0000    0.4525   -0.0226   -0.0000    0.0741    0.0000    0.2864    0.0000   -0.0169    1.7120
   32 O3     2px       -0.0000   -0.0077   -0.4818   -0.0000    0.0673   -0.0000   -0.1679   -0.0000    0.0208   -0.0692
   33 O3     3px       -0.0000   -0.0020   -0.9219   -0.0000    0.0461   -0.0000    0.0097   -0.0000    0.0131   -0.0995
   34 O3     2py       -0.0000    0.0465   -0.0193   -0.0000   -0.0738    0.0000    0.0452    0.0000   -0.0095    0.6533
   35 O3     3py        0.0000   -0.3074   -0.0092   -0.0000    0.6904    0.0000    0.1125    0.0000   -0.0086    0.1769
   36 O3     2pz        0.0849    0.0000   -0.0000    0.5124    0.0000    0.1794   -0.0000   -0.0191   -0.0000    0.0000
   37 O3     3pz        0.8256    0.0000   -0.0000    0.9122    0.0000   -0.0306    0.0000   -0.0139   -0.0000    0.0000
   38 O3     3d2-      -0.0000    0.0158    0.0456    0.0000   -0.0152    0.0000    0.4434    0.0000   -0.0759   -0.0938
   39 O3     3d1-      -0.0265   -0.0000    0.0000   -0.0386   -0.0000   -0.4519    0.0000    0.0760    0.0000    0.0000
   40 O3     3d0       -0.0000    0.0501    0.0140    0.0000    0.0659    0.0000    0.0302   -0.0000    0.3781    0.0138
   41 O3     3d1+       0.0004    0.0000   -0.0000    0.0096    0.0000    0.0570   -0.0000    0.4327    0.0000    0.0000
   42 O3     3d2+      -0.0000    0.0780    0.0044   -0.0000    0.1104   -0.0000   -0.0666    0.0000   -0.2104    0.0107
 
 
      Orbital               31        32        33        34        35        36        37        38        39        40
      Energy            2.0275    2.0932    2.0934    2.4875    2.4878    2.6321    2.6743    2.7028    3.0022    3.5980
      Occ. No.          0.0000    0.0000    0.0000    0.0000    0.0000    0.0000    0.0000    0.0000    0.0000    0.0000
 
    1 O1     1s        -0.1131   -0.0000   -0.0054    0.0122    0.0000    0.0217    0.0000   -0.0223    0.0286   -0.0000
    2 O1     2s        -0.8580   -0.0000   -0.0390    0.0738    0.0000    0.0312    0.0000   -0.2304    0.3312   -0.0000
    3 O1     3s        -0.9508   -0.0000   -0.0437    0.0279    0.0000   -0.2238    0.0000   -0.3165    0.3990   -0.0000
    4 O1     2px        0.0306    0.0000    0.0026    0.0931    0.0000    0.1619    0.0000   -0.2595   -0.0404   -0.0000
    5 O1     3px        0.0448   -0.0000   -0.0074    0.1653    0.0000    0.2672    0.0000   -0.3698   -0.0263   -0.0000
    6 O1     2py        0.5825    0.0000    0.0162   -0.0403   -0.0000    0.0791   -0.0000    0.2284   -0.4242    0.0000
    7 O1     3py        0.6025    0.0000    0.0115   -0.0053   -0.0000    0.2767   -0.0000    0.2909   -0.4120    0.0000
    8 O1     2pz       -0.0000    0.0011   -0.0000    0.0000   -0.0985    0.0000   -0.3179   -0.0000   -0.0000   -0.3335
    9 O1     3pz       -0.0000   -0.0097    0.0000    0.0000   -0.1634    0.0000   -0.4596   -0.0000   -0.0000   -0.2035
   10 O1     3d2-      -0.0615    0.0000    0.0809   -0.2564   -0.0000   -0.4413   -0.0000    0.6145    0.1459    0.0000
   11 O1     3d1-       0.0000    0.0816   -0.0000   -0.0000    0.2571   -0.0000    0.7702    0.0000    0.0000    0.6798
   12 O1     3d0       -0.0384    0.0000    0.6132    0.4905    0.0000    0.1559   -0.0000    0.3080   -0.4087    0.0000
   13 O1     3d1+      -0.0000   -0.7046    0.0000   -0.0000    0.5601   -0.0000   -0.1343   -0.0000   -0.0000    0.0700
   14 O1     3d2+      -0.0718   -0.0000   -0.3467   -0.2663   -0.0000    0.4932   -0.0000    0.3558   -0.6924    0.0000
   15 O2     1s         0.2711    0.0000    0.0000   -0.0019   -0.0000    0.1473   -0.0000    0.1515   -0.0000   -0.0000
   16 O2     2s         1.9471   -0.0000    0.0000   -0.0482   -0.0000    0.7686   -0.0000    0.9248   -0.0000    0.0000
   17 O2     3s         1.9565   -0.0000    0.0000   -0.1108   -0.0000   -0.0019   -0.0000    0.3861   -0.0000   -0.0000
   18 O2     2px        0.0330    0.0000    0.0000   -0.2995   -0.0000   -0.3812   -0.0000    0.7196   -0.0000   -0.0000
   19 O2     3px        0.0506    0.0000    0.0000   -0.2745   -0.0000   -0.4338   -0.0000    0.6596   -0.0000   -0.0000
   20 O2     2py        0.0000    0.0000    0.0401    0.0000    0.0000    0.0000   -0.0000    0.0000   -0.7506    0.0000
   21 O2     3py        0.0000    0.0000    0.0428    0.0000    0.0000    0.0000   -0.0000    0.0000    0.2961    0.0000
   22 O2     2pz       -0.0000    0.0000    0.0000   -0.0000    0.3054   -0.0000    0.8093    0.0000   -0.0000    0.0000
   23 O2     3pz        0.0000   -0.0000   -0.0000   -0.0000    0.2648   -0.0000    0.7729    0.0000    0.0000    0.0000
   24 O2     3d2-       0.0000   -0.0000   -0.0068    0.0000   -0.0000    0.0000   -0.0000   -0.0000    0.0418    0.0000
   25 O2     3d1-       0.0000   -0.0078    0.0000   -0.0000   -0.0000   -0.0000   -0.0000   -0.0000    0.0000    1.1063
   26 O2     3d0        0.0820   -0.0000    0.0000   -0.5677   -0.0000    0.4152    0.0000   -0.1305   -0.0000    0.0000
   27 O2     3d1+      -0.0000   -0.0000    0.0000    0.0000   -0.6878   -0.0000    0.3659    0.0000    0.0000    0.0000
   28 O2     3d2+       0.1452   -0.0000   -0.0000    0.3869    0.0000    0.2290   -0.0000    0.3309   -0.0000    0.0000
   29 O3     1s        -0.1131    0.0000    0.0054    0.0122   -0.0000    0.0217    0.0000   -0.0223   -0.0286    0.0000
   30 O3     2s        -0.8580    0.0000    0.0390    0.0738    0.0000    0.0312    0.0000   -0.2304   -0.3312    0.0000
   31 O3     3s        -0.9508    0.0000    0.0437    0.0279    0.0000   -0.2238    0.0000   -0.3165   -0.3990    0.0000
   32 O3     2px        0.0306   -0.0000   -0.0026    0.0931    0.0000    0.1619    0.0000   -0.2595    0.0404    0.0000
   33 O3     3px        0.0448    0.0000    0.0074    0.1653    0.0000    0.2672    0.0000   -0.3698    0.0263    0.0000
   34 O3     2py       -0.5825    0.0000    0.0162    0.0403    0.0000   -0.0791    0.0000   -0.2284   -0.4242    0.0000
   35 O3     3py       -0.6025    0.0000    0.0115    0.0053   -0.0000   -0.2767    0.0000   -0.2909   -0.4120    0.0000
   36 O3     2pz       -0.0000   -0.0011    0.0000    0.0000   -0.0985    0.0000   -0.3179   -0.0000   -0.0000    0.3335
   37 O3     3pz       -0.0000    0.0097   -0.0000    0.0000   -0.1634    0.0000   -0.4596   -0.0000    0.0000    0.2035
   38 O3     3d2-       0.0615    0.0000    0.0809    0.2564    0.0000    0.4413    0.0000   -0.6145    0.1459    0.0000
   39 O3     3d1-      -0.0000    0.0816   -0.0000    0.0000   -0.2571    0.0000   -0.7702   -0.0000    0.0000    0.6798
   40 O3     3d0       -0.0384   -0.0000   -0.6132    0.4905    0.0000    0.1559   -0.0000    0.3080    0.4087   -0.0000
   41 O3     3d1+       0.0000    0.7046   -0.0000   -0.0000    0.5601    0.0000   -0.1343   -0.0000   -0.0000   -0.0700
   42 O3     3d2+      -0.0718    0.0000    0.3467   -0.2663   -0.0000    0.4932   -0.0000    0.3558    0.6924   -0.0000
 
 
      Orbital               41        42
      Energy            3.6070    4.4670
      Occ. No.          0.0000    0.0000
 
    1 O1     1s        -0.0160    0.2403
    2 O1     2s        -0.1003    1.5855
    3 O1     3s        -0.0343    0.7994
    4 O1     2px       -0.3234   -0.1338
    5 O1     3px       -0.2032   -0.0612
    6 O1     2py        0.0977   -1.1766
    7 O1     3py        0.0241   -0.4966
    8 O1     2pz        0.0000    0.0000
    9 O1     3pz        0.0000    0.0000
   10 O1     3d2-       0.6606    0.1660
   11 O1     3d1-      -0.0000   -0.0000
   12 O1     3d0        0.0185   -0.3444
   13 O1     3d1+      -0.0000   -0.0000
   14 O1     3d2+       0.1699   -0.5774
   15 O2     1s        -0.0000   -0.4306
   16 O2     2s         0.0000   -3.0421
   17 O2     3s         0.0000   -1.9575
   18 O2     2px        0.0000   -0.0786
   19 O2     3px        0.0000   -0.0014
   20 O2     2py        0.0901    0.0000
   21 O2     3py        0.0112    0.0000
   22 O2     2pz       -0.0000   -0.0000
   23 O2     3pz        0.0000   -0.0000
   24 O2     3d2-       1.1079    0.0000
   25 O2     3d1-      -0.0000   -0.0000
   26 O2     3d0       -0.0000    0.7135
   27 O2     3d1+      -0.0000   -0.0000
   28 O2     3d2+      -0.0000    1.2383
   29 O3     1s         0.0160    0.2403
   30 O3     2s         0.1003    1.5855
   31 O3     3s         0.0343    0.7994
   32 O3     2px        0.3234   -0.1338
   33 O3     3px        0.2032   -0.0612
   34 O3     2py        0.0977    1.1766
   35 O3     3py        0.0241    0.4966
   36 O3     2pz       -0.0000   -0.0000
   37 O3     3pz       -0.0000    0.0000
   38 O3     3d2-       0.6606   -0.1660
   39 O3     3d1-      -0.0000    0.0000
   40 O3     3d0       -0.0185   -0.3444
   41 O3     3d1+       0.0000   -0.0000
   42 O3     3d2+      -0.1699   -0.5774
--
 
      Von Neumann Entropy (Root  1) =  0.53012
 

      Mulliken population analysis for root number:  1
      -----------------------------------------------
 
 
++    Molecular charges:
      ------------------
 
      Mulliken charges per centre and basis function type
      ---------------------------------------------------
 
                O1      O2      O3    
      1s       2.0003  1.9999  2.0003
      2s       1.9344  1.6440  1.9344
      2px      2.0131  1.9786  2.0131
      2pz      1.2833  1.3916  1.2833
      2py      0.7912  0.9408  0.7912
      3s      -0.0145 -0.0258 -0.0145
      3px     -0.0231 -0.0567 -0.0231
      3pz     -0.0087 -0.0051 -0.0087
      3py     -0.0134  0.0147 -0.0134
      3d2+     0.0198  0.0178  0.0198
      3d1+     0.0001  0.0004  0.0001
      3d0      0.0057  0.0051  0.0057
      3d1-     0.0145  0.0348  0.0145
      3d2-     0.0126  0.0295  0.0126
      Total    8.0152  7.9697  8.0152
 
      N-E     -0.0152  0.0303 -0.0152
 
      Total electronic charge=   24.000000
 
      Total            charge=   -0.000000
--
 
 

      Expectation values of various properties for root number:  1
      -----------------------------------------------------------
 
 
++    Molecular properties:
      ---------------------
 
      Charge (e):
                      =   -0.0000
      Dipole Moment (Debye):
      Origin of the operator (Ang)=    0.0000    0.0000    0.0000
                   X=  1.2840E-01               Y= -9.0649E-11               Z= -4.8632E-14           Total=  1.2840E-01
      Quadrupole Moment (Debye*Ang):
      Origin of the operator (Ang)=    0.0631    0.0000    0.0000
                  XX= -1.6313E+01              XY=  1.7136E-12              XZ=  2.6380E-13              YY= -1.5793E+01
                  YZ=  2.6055E-13              ZZ= -1.4796E+01
      In traceless form (Debye*Ang)
                  XX= -1.0191E+00              XY=  2.5703E-12              XZ=  3.9571E-13              YY= -2.3828E-01
                  YZ=  3.9082E-13              ZZ=  1.2573E+00
--
 

      LoProp population analysis for root number:  1
      -----------------------------------------------
 
 
++    LoProp analysis:
      ----------------
 
 
 
  Input file to MOLDEN was generated!
 
 
++    Static properties:
      ------------------
 
 
      LoProp Charges per center
 

                   O1       O2       O3    
      Nuclear      8.0000   8.0000   8.0000
      Electronic  -8.0532  -7.8936  -8.0532
 
      Total       -0.0532   0.1064  -0.0532
--
 
 
      Natural Bond Order analysis for root number:  1
 
++    Natural Bond Order analysis
      ---------------------------
      Based on LoProp computed density
      -------------------------------------------------------------------------------------
      Atom A       Atom B       Bond Order | Atom A       Atom B       Bond Order
        O1           O2             1.969  |   O2           O3             1.969
      -------------------------------------------------------------------------------------
      NBO located     16.000 core electrons.
      NBO located      7.875 electrons involved in    2 bonds.
      The remaining    0.125 electrons are to be considered as diffuse
--
 
--
 
 
  Input file to MOLDEN was generated!
 
      Average orbitals are written to the RASORB file
      Natural orbitals for root   1 are written to the RASORB.1 file
      Spin density orbitals for root   1 are written to the SPDORB.1 file
 
forrtl: warning (525): IEEE_DIVIDE_BY_ZERO is signaling
forrtl: warning (526): IEEE_INVALID is signaling
forrtl: warning (528): IEEE_UNDERFLOW is signaling
--- Stop Module: rasscf at Fri Jan 24 18:13:52 2025 /rc=_RC_ALL_IS_WELL_ ---
*** files: ozone_171.50.LprOrb ozone_171.50.rasscf.molden ozone_171.50.LoProp.molden ozone_171.50.RasOrb ozone_171.50.RasOrb.1 ozone_171.50.rasscf.h5 ozone_171.50.SpdOrb.1 xmldump
    saved to directory /home/grierjones/DDCASPT2/ozone/ANO-RCC-VDZP/ozone_171.50

>>> COPY /tmp/ozone_171.50/ozone_171.50.rasscf.h5 /home/grierjones/DDCASPT2/ozone/ANO-RCC-VDZP/ozone_171.50/

>>> COPY /tmp/ozone_171.50/GMJ_Fock_MO.csv /home/grierjones/DDCASPT2/ozone/ANO-RCC-VDZP/ozone_171.50/ozone_171.50.GMJ_Fock_MO.csv

>>> COPY /tmp/ozone_171.50/GMJ_PT2_Fock_MO.csv /home/grierjones/DDCASPT2/ozone/ANO-RCC-VDZP/ozone_171.50/ozone_171.50.GMJ_PT2_Fock_MO.csv

*** symbolic link created: INPORB -> ozone_171.50.RasOrb
--- Start Module: motra at Fri Jan 24 18:13:52 2025 ---
 
()()()()()()()()()()()()()()()()()()()()()()()()()()()()()()()()()()()()()()()()()()()()()()()()()()

                                               &MOTRA

                                   only a single process is used
                       available to each process: 2.0 GB of memory, 1 thread?
()()()()()()()()()()()()()()()()()()()()()()()()()()()()()()()()()()()()()()()()()()()()()()()()()()
 
 
      *** WARNING: Default frozen orbitals is overwritten by user input.
      *** Default values:   3
 
      Header of the integral files:
      
       Integrals generated by seward 4.2.0  , Fri Jan 24 18:13:49 2025
 
 
      Header of MO coefficients source file:
      * RASSCF average (pseudo-natural) orbitals                                      
 
 
      Cartesian coordinates in Angstrom:
      -----------------------------------------------------
      No.  Label        X            Y            Z        
      -----------------------------------------------------
       1   O1         0.09471100   1.27448600   0.00000000
       2   O2         0.00000000   0.00000000   0.00000000
       3   O3         0.09471100  -1.27448600   0.00000000
      -----------------------------------------------------
      Nuclear repulsion energy =   66.28718917
 
      Orbital specifications:
      -----------------------
 
      Symmetry species:              1
      Number of basis functions:    42
      Frozen orbitals:               0
      Deleted orbitals:              0
      Number of orbitals used:      42

       SYMMETRY  BASIS FUNCTIONS       ORBITALS      INTEGRALS   CPU(SEC)  I/O(SEC)
 
        1 1 1 1   42  42  42  42    42  42  42  42      408156       0.00      0.00

       TOTAL CPU TIME(SEC)    0.35TOTAL I/O TIME(SEC)    0.77
 
--- Stop Module: motra at Fri Jan 24 18:13:52 2025 /rc=_RC_ALL_IS_WELL_ ---
*** files: xmldump
    saved to directory /home/grierjones/DDCASPT2/ozone/ANO-RCC-VDZP/ozone_171.50

>>> COPY /tmp/ozone_171.50/GMJ_one_int_indx.csv /home/grierjones/DDCASPT2/ozone/ANO-RCC-VDZP/ozone_171.50/ozone_171.50.GMJ_one_int_indx.csv

>>> COPY /tmp/ozone_171.50/GMJ_one_int.csv /home/grierjones/DDCASPT2/ozone/ANO-RCC-VDZP/ozone_171.50/ozone_171.50.GMJ_one_int.csv

>>> COPY /tmp/ozone_171.50/GMJ_two_int_indx.csv /home/grierjones/DDCASPT2/ozone/ANO-RCC-VDZP/ozone_171.50/ozone_171.50.GMJ_two_int_indx.csv

>>> COPY /tmp/ozone_171.50/GMJ_two_int.csv /home/grierjones/DDCASPT2/ozone/ANO-RCC-VDZP/ozone_171.50/ozone_171.50.GMJ_two_int.csv

*** symbolic link created: INPORB -> ozone_171.50.RasOrb
--- Start Module: caspt2 at Fri Jan 24 18:13:52 2025 ---
 
()()()()()()()()()()()()()()()()()()()()()()()()()()()()()()()()()()()()()()()()()()()()()()()()()()

                                              &CASPT2

                                   only a single process is used
                       available to each process: 2.0 GB of memory, 1 thread?
()()()()()()()()()()()()()()()()()()()()()()()()()()()()()()()()()()()()()()()()()()()()()()()()()()
 
 Cholesky algorithm in CASPT2 =    1
 
 ###############################################################################
 ###############################################################################
 ###                                                                         ###
 ###                                                                         ###
 ###    User changed nr of frozen orbitals.                                  ###
 ###                                                                         ###
 ###                                                                         ###
 ###############################################################################
 ###############################################################################
 
++    Wave function specifications:
      -----------------------------
 
      Number of closed shell electrons          20
      Number of electrons in active shells       4
      Max number of holes in RAS1 space          0
      Max number of electrons in RAS3 space      0
      Number of inactive orbitals               10
      Number of active orbitals                  3
      Number of secondary orbitals              29
      Spin quantum number                      0.0
      State symmetry                             1
      Number of CSFs                             6
      Number of root(s) available                1
      Root passed to geometry opt.               1
      A file JOBMIX will be created.
      This is a CASSCF or RASSCF reference function
--
 
++    Orbital specifications:
      -----------------------
 
      Symmetry species                           1
                                                 a
      Frozen orbitals                            0
      Inactive orbitals                         10
      Active orbitals                            3
      Secondary orbitals                        29
      Deleted orbitals                           0
      Number of basis functions                 42
--
 
      Type of Fock operator: STANDARD
      Type of 0-order Hamiltonian: STANDARD WITH DEFAULT IPEA
        "IP-EA" denominator shift =      0.25
      The input orbitals and the CI vector will be transformed.
 
--------------------------------------------------------------------------------
 Estimated memory requirements:
  POLY3 :                   250202
  RHS:                      279634
  SIGMA :                   302200
  PRPCTL:                        0
 Available workspace:    230396563
 
++ CASPT2 computation for group   1
 
********************************************************************************
 Multi-State initialization phase begins for group   1
--------------------------------------------------------------------------------
********************************************************************************
 Compute H0 matrices for state    1
--------------------------------------------------------------------------------
--------------------------------------------------------------------------------
 H0 matrices have been computed.
 
********************************************************************************
  CASPT2 EQUATION SOLUTION
--------------------------------------------------------------------------------
 
  Total nr of CASPT2 parameters:
   Before reduction:       86691
   After  reduction:       82880
 
 The contributions to the second order correlation energy in atomic units.
-----------------------------------------------------------------------------------------------------------------------------
  IT.      VJTU        VJTI        ATVX        AIVX        VJAI        BVAT        BJAT        BJAI        TOTAL       RNORM  
-----------------------------------------------------------------------------------------------------------------------------
   1    -0.000000   -0.001571   -0.015524   -0.101158   -0.016798   -0.017094   -0.120933   -0.258217   -0.531295    0.002162
   2    -0.000000   -0.001591   -0.015580   -0.101501   -0.016814   -0.017099   -0.120947   -0.258219   -0.531750    0.000175
   3    -0.000000   -0.001591   -0.015581   -0.101505   -0.016814   -0.017099   -0.120948   -0.258219   -0.531756    0.000025
   4    -0.000000   -0.001591   -0.015580   -0.101503   -0.016814   -0.017099   -0.120947   -0.258219   -0.531753    0.000003
-------------------------------------------------------------------------------------------------------------------
 
  FINAL CASPT2 RESULT:
 
  Correlation energy /Case, /Symm, and sums:
 VJTU     -0.00000000 -0.00000000
 VJTIP    -0.00159093 -0.00159093
 VJTIM     0.00000000  0.00000000
 ATVX     -0.01558010 -0.01558010
 AIVX     -0.10150280 -0.10150280
 VJAIP    -0.01169005 -0.01169005
 VJAIM    -0.00512409 -0.00512409
 BVATP    -0.01624638 -0.01624638
 BVATM    -0.00085230 -0.00085230
 BJATP    -0.04532302 -0.04532302
 BJATM    -0.07562434 -0.07562434
 BJAIP    -0.17382367 -0.17382367
 BJAIM    -0.08439541 -0.08439541
 Summed:  -0.53175309 -0.53175309
 
      Reference energy:        -224.4570311844
      E2 (Non-variational):      -0.5317530902
      E2 (Variational):          -0.5317531173
      Total energy:            -224.9887843018
      Residual norm:              0.0000002971
      Reference weight:           0.85715
 
      Contributions to the CASPT2 correlation energy
      Active & Virtual Only:         -0.0326787837
      One Inactive Excited:          -0.2224501550
      Two Inactive Excited:          -0.2766241515
 
 
++ Denominators, etc.
----------------------------------------------------------------------------------------------------
 Report on small energy denominators, large coefficients, and large energy contributions.
CASE  SYMM ACTIVE-MIX  NON-ACTIVE INDICES          DENOMINATOR     RHS VALUE       COEFFICIENT     CONTRIBUTION
ATVX     1  Mu1.0006  Se1.016                       1.90294320     -0.06889130      0.03690394     -0.00254236
ATVX     1  Mu1.0005  Se1.021                       1.87323201     -0.11058869      0.05786029     -0.00639869
ATVX     1  Mu1.0005  Se1.026                       2.87912968      0.07991242     -0.02784307     -0.00222501
AIVX     1  Mu1.0005  In1.004 Se1.014               2.60517926      0.08646237     -0.03318299     -0.00286908
AIVX     1  Mu1.0002  In1.005 Se1.014               1.98282924      0.05171216     -0.02550226     -0.00131878
AIVX     1  Mu1.0003  In1.005 Se1.014               2.08285522      0.06632609     -0.03135655     -0.00207976
AIVX     1  Mu1.0004  In1.006 Se1.014               1.82791018      0.06486554     -0.03583511     -0.00232446
AIVX     1  Mu1.0005  In1.006 Se1.014               1.98238263     -0.06129913      0.03139336     -0.00192439
AIVX     1  Mu1.0002  In1.008 Se1.014               1.30118756     -0.11938151      0.09097096     -0.01086025
AIVX     1  Mu1.0003  In1.008 Se1.014               1.40121354     -0.06810030      0.04823206     -0.00328462
AIVX     1  Mu1.0002  In1.009 Se1.014               1.15372633      0.03197584     -0.02743452     -0.00087724
AIVX     1  Mu1.0002  In1.009 Se1.017               1.49319949      0.05743310     -0.03735396     -0.00214535
AIVX     1  Mu1.0004  In1.010 Se1.017               1.56834619     -0.06074023      0.03859396     -0.00234421
AIVX     1  Mu1.0002  In1.008 Se1.018               1.67852599     -0.04571682      0.02648378     -0.00121075
AIVX     1  Mu1.0004  In1.008 Se1.019               2.07138263      0.12618190     -0.06124591     -0.00772813
AIVX     1  Mu1.0005  In1.008 Se1.019               2.22585508     -0.07779700      0.03508872     -0.00272980
AIVX     1  Mu1.0002  In1.010 Se1.020               1.51553645      0.06560910     -0.04211048     -0.00276283
AIVX     1  Mu1.0003  In1.010 Se1.020               1.61556242      0.04440816     -0.02664624     -0.00118331
AIVX     1  Mu1.0004  In1.006 Se1.022               2.54745215     -0.06949814      0.02723167     -0.00189255
AIVX     1  Mu1.0002  In1.008 Se1.022               2.02072953      0.05444267     -0.02647886     -0.00144158
BJATM    1  Mu1.0002  In1.008 Se1.019 Se1.016       2.61886807      0.06096534     -0.02557008     -0.00155889
BJATM    1  Mu1.0001  In1.009 Se1.021 Se1.020       2.38104306     -0.06222193      0.02613553     -0.00162620
BJATM    1  Mu1.0002  In1.010 Se1.023 Se1.016       2.66247395     -0.06531247      0.02538171     -0.00165774
BJAIP    1  Se1.014 In1.006 Se1.014 In1.006         2.37665658      0.06563969     -0.02761850     -0.00181287
BJAIP    1  Se1.014 In1.006 Se1.019 In1.008         2.62012903      0.09810412     -0.03744247     -0.00367326
BJAIP    1  Se1.014 In1.008 Se1.014 In1.008         1.82011370      0.08777772     -0.04822650     -0.00423321
BJAIP    1  Se1.019 In1.008 Se1.019 In1.008         2.86360147      0.11334286     -0.03958052     -0.00448617
BJAIP    1  Se1.017 In1.007 Se1.023 In1.010         2.75639569     -0.07443130      0.02700312     -0.00200988
BJAIP    1  Se1.017 In1.009 Se1.020 In1.010         2.22647451      0.06534728     -0.02935011     -0.00191795
BJAIP    1  Se1.014 In1.010 Se1.014 In1.010         1.17858227      0.03014855     -0.02558035     -0.00077121
BJAIM    1  Se1.014 In1.006 Se1.018 In1.008         2.62012903      0.07134517     -0.02722963     -0.00194270
BJAIM    1  Se1.014 In1.008 Se1.016 In1.009         2.01212563     -0.05623128      0.02794621     -0.00157145
BJAIM    1  Se1.017 In1.008 Se1.018 In1.010         2.36056503      0.05978634     -0.02532712     -0.00151422
BJAIM    1  Se1.014 In1.008 Se1.019 In1.010         2.03446258     -0.05406098      0.02657261     -0.00143654
BJAIM    1  Se1.014 In1.008 Se1.026 In1.010         3.06643267     -0.08452151      0.02756347     -0.00232971
--
 
   (Skipping property calculation,
    use PROP keyword to activate)
--
 
  Total CASPT2 energies:
::    CASPT2 Root  1     Total energy:   -224.98878430
 
  A NEW JOBIPH FILE NAMED 'JOBMIX' IS PREPARED.
********************************************************************************
forrtl: warning (528): IEEE_UNDERFLOW is signaling
--- Stop Module: caspt2 at Fri Jan 24 18:13:53 2025 /rc=_RC_ALL_IS_WELL_ ---
*** files: xmldump
    saved to directory /home/grierjones/DDCASPT2/ozone/ANO-RCC-VDZP/ozone_171.50

>>> EXPORT i = B

>>> EXPORT j = P

>>> IF (-FILE GMJ_e2_${i}_${j}.csv)

>>> COPY /tmp/ozone_171.50/GMJ_RHS_B_P.csv /home/grierjones/DDCASPT2/ozone/ANO-RCC-VDZP/ozone_171.50/GMJ_RHS_B_P.csv

>>> COPY /tmp/ozone_171.50/GMJ_IVECW_B_P.csv /home/grierjones/DDCASPT2/ozone/ANO-RCC-VDZP/ozone_171.50/GMJ_IVECW_B_P.csv

>>> COPY /tmp/ozone_171.50/GMJ_IVECX_B_P.csv /home/grierjones/DDCASPT2/ozone/ANO-RCC-VDZP/ozone_171.50/GMJ_IVECX_B_P.csv

>>> COPY /tmp/ozone_171.50/GMJ_IVECC2_B_P.csv /home/grierjones/DDCASPT2/ozone/ANO-RCC-VDZP/ozone_171.50/GMJ_IVECC2_B_P.csv

>>> COPY /tmp/ozone_171.50/GMJ_e2_B_P.csv /home/grierjones/DDCASPT2/ozone/ANO-RCC-VDZP/ozone_171.50/GMJ_e2_B_P.csv

>>> END FOREACH

>>> EXPORT j = M

>>> IF (-FILE GMJ_e2_${i}_${j}.csv)
(Skipped)

>>> END FOREACH

>>> END FOREACH

>>> EXPORT i = E

>>> EXPORT j = P

>>> IF (-FILE GMJ_e2_${i}_${j}.csv)

>>> COPY /tmp/ozone_171.50/GMJ_RHS_E_P.csv /home/grierjones/DDCASPT2/ozone/ANO-RCC-VDZP/ozone_171.50/GMJ_RHS_E_P.csv

>>> COPY /tmp/ozone_171.50/GMJ_IVECW_E_P.csv /home/grierjones/DDCASPT2/ozone/ANO-RCC-VDZP/ozone_171.50/GMJ_IVECW_E_P.csv

>>> COPY /tmp/ozone_171.50/GMJ_IVECX_E_P.csv /home/grierjones/DDCASPT2/ozone/ANO-RCC-VDZP/ozone_171.50/GMJ_IVECX_E_P.csv

>>> COPY /tmp/ozone_171.50/GMJ_IVECC2_E_P.csv /home/grierjones/DDCASPT2/ozone/ANO-RCC-VDZP/ozone_171.50/GMJ_IVECC2_E_P.csv

>>> COPY /tmp/ozone_171.50/GMJ_e2_E_P.csv /home/grierjones/DDCASPT2/ozone/ANO-RCC-VDZP/ozone_171.50/GMJ_e2_E_P.csv

>>> END FOREACH

>>> EXPORT j = M

>>> IF (-FILE GMJ_e2_${i}_${j}.csv)

>>> COPY /tmp/ozone_171.50/GMJ_RHS_E_M.csv /home/grierjones/DDCASPT2/ozone/ANO-RCC-VDZP/ozone_171.50/GMJ_RHS_E_M.csv

>>> COPY /tmp/ozone_171.50/GMJ_IVECW_E_M.csv /home/grierjones/DDCASPT2/ozone/ANO-RCC-VDZP/ozone_171.50/GMJ_IVECW_E_M.csv

>>> COPY /tmp/ozone_171.50/GMJ_IVECX_E_M.csv /home/grierjones/DDCASPT2/ozone/ANO-RCC-VDZP/ozone_171.50/GMJ_IVECX_E_M.csv

>>> COPY /tmp/ozone_171.50/GMJ_IVECC2_E_M.csv /home/grierjones/DDCASPT2/ozone/ANO-RCC-VDZP/ozone_171.50/GMJ_IVECC2_E_M.csv

>>> COPY /tmp/ozone_171.50/GMJ_e2_E_M.csv /home/grierjones/DDCASPT2/ozone/ANO-RCC-VDZP/ozone_171.50/GMJ_e2_E_M.csv

>>> END FOREACH

>>> END FOREACH

>>> EXPORT i = F

>>> EXPORT j = P

>>> IF (-FILE GMJ_e2_${i}_${j}.csv)

>>> COPY /tmp/ozone_171.50/GMJ_RHS_F_P.csv /home/grierjones/DDCASPT2/ozone/ANO-RCC-VDZP/ozone_171.50/GMJ_RHS_F_P.csv

>>> COPY /tmp/ozone_171.50/GMJ_IVECW_F_P.csv /home/grierjones/DDCASPT2/ozone/ANO-RCC-VDZP/ozone_171.50/GMJ_IVECW_F_P.csv

>>> COPY /tmp/ozone_171.50/GMJ_IVECX_F_P.csv /home/grierjones/DDCASPT2/ozone/ANO-RCC-VDZP/ozone_171.50/GMJ_IVECX_F_P.csv

>>> COPY /tmp/ozone_171.50/GMJ_IVECC2_F_P.csv /home/grierjones/DDCASPT2/ozone/ANO-RCC-VDZP/ozone_171.50/GMJ_IVECC2_F_P.csv

>>> COPY /tmp/ozone_171.50/GMJ_e2_F_P.csv /home/grierjones/DDCASPT2/ozone/ANO-RCC-VDZP/ozone_171.50/GMJ_e2_F_P.csv

>>> END FOREACH

>>> EXPORT j = M

>>> IF (-FILE GMJ_e2_${i}_${j}.csv)

>>> COPY /tmp/ozone_171.50/GMJ_RHS_F_M.csv /home/grierjones/DDCASPT2/ozone/ANO-RCC-VDZP/ozone_171.50/GMJ_RHS_F_M.csv

>>> COPY /tmp/ozone_171.50/GMJ_IVECW_F_M.csv /home/grierjones/DDCASPT2/ozone/ANO-RCC-VDZP/ozone_171.50/GMJ_IVECW_F_M.csv

>>> COPY /tmp/ozone_171.50/GMJ_IVECX_F_M.csv /home/grierjones/DDCASPT2/ozone/ANO-RCC-VDZP/ozone_171.50/GMJ_IVECX_F_M.csv

>>> COPY /tmp/ozone_171.50/GMJ_IVECC2_F_M.csv /home/grierjones/DDCASPT2/ozone/ANO-RCC-VDZP/ozone_171.50/GMJ_IVECC2_F_M.csv

>>> COPY /tmp/ozone_171.50/GMJ_e2_F_M.csv /home/grierjones/DDCASPT2/ozone/ANO-RCC-VDZP/ozone_171.50/GMJ_e2_F_M.csv

>>> END FOREACH

>>> END FOREACH

>>> EXPORT i = G

>>> EXPORT j = P

>>> IF (-FILE GMJ_e2_${i}_${j}.csv)

>>> COPY /tmp/ozone_171.50/GMJ_RHS_G_P.csv /home/grierjones/DDCASPT2/ozone/ANO-RCC-VDZP/ozone_171.50/GMJ_RHS_G_P.csv

>>> COPY /tmp/ozone_171.50/GMJ_IVECW_G_P.csv /home/grierjones/DDCASPT2/ozone/ANO-RCC-VDZP/ozone_171.50/GMJ_IVECW_G_P.csv

>>> COPY /tmp/ozone_171.50/GMJ_IVECX_G_P.csv /home/grierjones/DDCASPT2/ozone/ANO-RCC-VDZP/ozone_171.50/GMJ_IVECX_G_P.csv

>>> COPY /tmp/ozone_171.50/GMJ_IVECC2_G_P.csv /home/grierjones/DDCASPT2/ozone/ANO-RCC-VDZP/ozone_171.50/GMJ_IVECC2_G_P.csv

>>> COPY /tmp/ozone_171.50/GMJ_e2_G_P.csv /home/grierjones/DDCASPT2/ozone/ANO-RCC-VDZP/ozone_171.50/GMJ_e2_G_P.csv

>>> END FOREACH

>>> EXPORT j = M

>>> IF (-FILE GMJ_e2_${i}_${j}.csv)

>>> COPY /tmp/ozone_171.50/GMJ_RHS_G_M.csv /home/grierjones/DDCASPT2/ozone/ANO-RCC-VDZP/ozone_171.50/GMJ_RHS_G_M.csv

>>> COPY /tmp/ozone_171.50/GMJ_IVECW_G_M.csv /home/grierjones/DDCASPT2/ozone/ANO-RCC-VDZP/ozone_171.50/GMJ_IVECW_G_M.csv

>>> COPY /tmp/ozone_171.50/GMJ_IVECX_G_M.csv /home/grierjones/DDCASPT2/ozone/ANO-RCC-VDZP/ozone_171.50/GMJ_IVECX_G_M.csv

>>> COPY /tmp/ozone_171.50/GMJ_IVECC2_G_M.csv /home/grierjones/DDCASPT2/ozone/ANO-RCC-VDZP/ozone_171.50/GMJ_IVECC2_G_M.csv

>>> COPY /tmp/ozone_171.50/GMJ_e2_G_M.csv /home/grierjones/DDCASPT2/ozone/ANO-RCC-VDZP/ozone_171.50/GMJ_e2_G_M.csv

>>> END FOREACH

>>> END FOREACH

>>> EXPORT i = H

>>> EXPORT j = P

>>> IF (-FILE GMJ_e2_${i}_${j}.csv)

>>> COPY /tmp/ozone_171.50/GMJ_RHS_H_P.csv /home/grierjones/DDCASPT2/ozone/ANO-RCC-VDZP/ozone_171.50/GMJ_RHS_H_P.csv

>>> COPY /tmp/ozone_171.50/GMJ_IVECW_H_P.csv /home/grierjones/DDCASPT2/ozone/ANO-RCC-VDZP/ozone_171.50/GMJ_IVECW_H_P.csv

>>> COPY /tmp/ozone_171.50/GMJ_IVECX_H_P.csv /home/grierjones/DDCASPT2/ozone/ANO-RCC-VDZP/ozone_171.50/GMJ_IVECX_H_P.csv

>>> COPY /tmp/ozone_171.50/GMJ_IVECC2_H_P.csv /home/grierjones/DDCASPT2/ozone/ANO-RCC-VDZP/ozone_171.50/GMJ_IVECC2_H_P.csv

>>> COPY /tmp/ozone_171.50/GMJ_e2_H_P.csv /home/grierjones/DDCASPT2/ozone/ANO-RCC-VDZP/ozone_171.50/GMJ_e2_H_P.csv

>>> END FOREACH

>>> EXPORT j = M

>>> IF (-FILE GMJ_e2_${i}_${j}.csv)

>>> COPY /tmp/ozone_171.50/GMJ_RHS_H_M.csv /home/grierjones/DDCASPT2/ozone/ANO-RCC-VDZP/ozone_171.50/GMJ_RHS_H_M.csv

>>> COPY /tmp/ozone_171.50/GMJ_IVECW_H_M.csv /home/grierjones/DDCASPT2/ozone/ANO-RCC-VDZP/ozone_171.50/GMJ_IVECW_H_M.csv

>>> COPY /tmp/ozone_171.50/GMJ_IVECX_H_M.csv /home/grierjones/DDCASPT2/ozone/ANO-RCC-VDZP/ozone_171.50/GMJ_IVECX_H_M.csv

>>> COPY /tmp/ozone_171.50/GMJ_IVECC2_H_M.csv /home/grierjones/DDCASPT2/ozone/ANO-RCC-VDZP/ozone_171.50/GMJ_IVECC2_H_M.csv

>>> COPY /tmp/ozone_171.50/GMJ_e2_H_M.csv /home/grierjones/DDCASPT2/ozone/ANO-RCC-VDZP/ozone_171.50/GMJ_e2_H_M.csv

>>> END FOREACH

>>> END FOREACH

>>> EXPORT i = A

>>> IF (-FILE GMJ_e2_$i.csv)

>>> COPY /tmp/ozone_171.50/GMJ_RHS_A.csv /home/grierjones/DDCASPT2/ozone/ANO-RCC-VDZP/ozone_171.50/GMJ_RHS_A.csv

>>> COPY /tmp/ozone_171.50/GMJ_IVECW_A.csv /home/grierjones/DDCASPT2/ozone/ANO-RCC-VDZP/ozone_171.50/GMJ_IVECW_A.csv

>>> COPY /tmp/ozone_171.50/GMJ_IVECX_A.csv /home/grierjones/DDCASPT2/ozone/ANO-RCC-VDZP/ozone_171.50/GMJ_IVECX_A.csv

>>> COPY /tmp/ozone_171.50/GMJ_IVECC2_A.csv /home/grierjones/DDCASPT2/ozone/ANO-RCC-VDZP/ozone_171.50/GMJ_IVECC2_A.csv

>>> COPY /tmp/ozone_171.50/GMJ_e2_A.csv /home/grierjones/DDCASPT2/ozone/ANO-RCC-VDZP/ozone_171.50/GMJ_e2_A.csv

>>> END FOREACH

>>> EXPORT i = C

>>> IF (-FILE GMJ_e2_$i.csv)

>>> COPY /tmp/ozone_171.50/GMJ_RHS_C.csv /home/grierjones/DDCASPT2/ozone/ANO-RCC-VDZP/ozone_171.50/GMJ_RHS_C.csv

>>> COPY /tmp/ozone_171.50/GMJ_IVECW_C.csv /home/grierjones/DDCASPT2/ozone/ANO-RCC-VDZP/ozone_171.50/GMJ_IVECW_C.csv

>>> COPY /tmp/ozone_171.50/GMJ_IVECX_C.csv /home/grierjones/DDCASPT2/ozone/ANO-RCC-VDZP/ozone_171.50/GMJ_IVECX_C.csv

>>> COPY /tmp/ozone_171.50/GMJ_IVECC2_C.csv /home/grierjones/DDCASPT2/ozone/ANO-RCC-VDZP/ozone_171.50/GMJ_IVECC2_C.csv

>>> COPY /tmp/ozone_171.50/GMJ_e2_C.csv /home/grierjones/DDCASPT2/ozone/ANO-RCC-VDZP/ozone_171.50/GMJ_e2_C.csv

>>> END FOREACH

>>> EXPORT i = D

>>> IF (-FILE GMJ_e2_$i.csv)

>>> COPY /tmp/ozone_171.50/GMJ_RHS_D.csv /home/grierjones/DDCASPT2/ozone/ANO-RCC-VDZP/ozone_171.50/GMJ_RHS_D.csv

>>> COPY /tmp/ozone_171.50/GMJ_IVECW_D.csv /home/grierjones/DDCASPT2/ozone/ANO-RCC-VDZP/ozone_171.50/GMJ_IVECW_D.csv

>>> COPY /tmp/ozone_171.50/GMJ_IVECX_D.csv /home/grierjones/DDCASPT2/ozone/ANO-RCC-VDZP/ozone_171.50/GMJ_IVECX_D.csv

>>> COPY /tmp/ozone_171.50/GMJ_IVECC2_D.csv /home/grierjones/DDCASPT2/ozone/ANO-RCC-VDZP/ozone_171.50/GMJ_IVECC2_D.csv

>>> COPY /tmp/ozone_171.50/GMJ_e2_D.csv /home/grierjones/DDCASPT2/ozone/ANO-RCC-VDZP/ozone_171.50/GMJ_e2_D.csv

>>> END FOREACH

.########################.
.# Non-zero return code #.
.########################.

    Timing: Wall=3.63 User=2.66 System=0.96
********************************************
*** WorkDir at /tmp/ozone_171.50 cleaned ***
********************************************
