[Molden Format]
[N_Atoms]
                     2
[Atoms] (AU)
LI1         1      3           0.00000000      0.00000000      0.00000000
O2          2      8           0.00000000      0.00000000      5.10226054
[Charge] (Mulliken)
  0.551457665068156     
 -0.551457665068224     
[GTO] (AU)
   1
   s  14
  9.497934400E+03  9.668999974E-05
  1.416811200E+03  6.087099984E-04
  3.214599400E+02  3.101519992E-03
  9.112416300E+01  1.266904997E-02
  2.999989100E+01  4.248012989E-02
  1.101763100E+01  1.150183297E-01
  4.372801000E+00  2.398650094E-01
  1.831256000E+00  3.584300090E-01
  8.022610000E-01  3.048527792E-01
  3.626480000E-01  8.824261976E-02
  1.139950000E-01 -8.445899977E-04
  5.123700000E-02 -7.943959979E-03
  2.246800000E-02 -3.764419990E-03
  7.860000000E-03 -8.868999976E-05
   s  14
  9.497934400E+03 -1.244999993E-05
  1.416811200E+03 -7.838999954E-05
  3.214599400E+02 -4.007099976E-04
  9.112416300E+01 -1.645249990E-03
  2.999989100E+01 -5.634599967E-03
  1.101763100E+01 -1.590780991E-02
  4.372801000E+00 -3.612581979E-02
  1.831256000E+00 -6.459927962E-02
  8.022610000E-01 -1.008321794E-01
  3.626480000E-01 -9.757613942E-02
  1.139950000E-01  2.301215886E-01
  5.123700000E-02  6.102389764E-01
  2.246800000E-02  2.849406083E-01
  7.860000000E-03  4.026899976E-03
   p   9
  1.311950400E+01  1.524940000E-03
  3.077424200E+00  8.314830000E-03
  1.098800500E+00  1.933203000E-02
  4.357784000E-01  4.934293000E-02
  1.802432000E-01  1.623554000E-01
  7.613330000E-02  3.847505400E-01
  3.254650000E-02  4.336100400E-01
  1.401820000E-02  1.287005900E-01
  4.906400000E-03 -1.018520000E-03
 
   2
   s  14
  1.053749500E+05  1.238600013E-04
  1.567924000E+04  5.120100053E-04
  3.534544700E+03  2.152910022E-03
  9.873651600E+02  8.528440089E-03
  3.159787500E+02  3.018049031E-02
  1.116542800E+02  9.099702095E-02
  4.269945100E+01  2.177936423E-01
  1.739559600E+01  3.686245738E-01
  7.438309000E+00  3.366707335E-01
  3.222862000E+00  9.657630101E-02
  1.253877000E+00  2.144520022E-03
  4.951550000E-01  1.194350012E-03
  1.916650000E-01  5.390200056E-04
  6.708300000E-02  2.103400022E-04
   s  14
  1.053749500E+05 -2.815000008E-05
  1.567924000E+04 -1.163000003E-04
  3.534544700E+03 -4.909200013E-04
  9.873651600E+02 -1.946160005E-03
  3.159787500E+02 -7.005300019E-03
  1.116542800E+02 -2.167814006E-02
  4.269945100E+01 -5.641213015E-02
  1.739559600E+01 -1.127053003E-01
  7.438309000E+00 -1.589119704E-01
  3.222862000E+00 -3.355083009E-02
  1.253877000E+00  3.531902810E-01
  4.951550000E-01  5.534199315E-01
  1.916650000E-01  2.301839106E-01
  6.708300000E-02  1.127267003E-02
   p   9
  2.000000000E+02  9.173000030E-04
  4.653336700E+01  7.377140024E-03
  1.462180900E+01  3.483515011E-02
  5.313064000E+00  1.144397004E-01
  2.102525000E+00  2.554966408E-01
  8.502230000E-01  3.722557412E-01
  3.375970000E-01  3.323314911E-01
  1.288920000E-01  1.400847905E-01
  4.511200000E-02  2.395784008E-02
 
[MO]
Sym=     1a  
Ene=   -20.2870
Spin= Alpha
Occup=    1.00000
   1        -0.00002410
   2        -0.00034380
   3        -0.00000000
   4         0.00000000
   5        -0.00050184
   6         1.00001778
   7         0.00148111
   8        -0.00000000
   9        -0.00000000
  10        -0.00050740
Sym=     1a  
Ene=   -20.2570
Spin= Beta
Occup=    1.00000
   1        -0.00002002
   2        -0.00021588
   3        -0.00000000
   4         0.00000000
   5        -0.00029382
   6         1.00001107
   7        -0.00018937
   8        -0.00000000
   9        -0.00000000
  10        -0.00046524
Sym=     2a  
Ene=    -2.5405
Spin= Alpha
Occup=    1.00000
   1         0.99991199
   2         0.01217774
   3         0.00000000
   4         0.00000000
   5        -0.00192203
   6         0.00004869
   7         0.00097766
   8         0.00000000
   9         0.00000000
  10        -0.00055687
Sym=     2a  
Ene=    -2.5387
Spin= Beta
Occup=    1.00000
   1         0.99990996
   2         0.01232142
   3         0.00000000
   4         0.00000000
   5        -0.00201236
   6         0.00005030
   7         0.00094770
   8         0.00000000
   9         0.00000000
  10        -0.00056885
Sym=     3a  
Ene=    -1.0610
Spin= Alpha
Occup=    1.00000
   1         0.00378232
   2        -0.02119750
   3         0.00000000
   4         0.00000000
   5        -0.02217014
   6         0.00219811
   7        -0.99005765
   8         0.00000000
   9         0.00000000
  10         0.00329409
Sym=     3a  
Ene=    -0.9248
Spin= Beta
Occup=    1.00000
   1         0.00390792
   2        -0.03014184
   3         0.00000000
   4         0.00000000
   5        -0.03638274
   6         0.00113283
   7        -0.98406250
   8         0.00000000
   9         0.00000000
  10         0.00865006
Sym=     4a  
Ene=    -0.4038
Spin= Alpha
Occup=    1.00000
   1        -0.00000000
   2         0.00000000
   3        -0.02061401
   4         0.03254492
   5         0.00000000
   6        -0.00000000
   7         0.00000000
   8        -0.53257535
   9         0.84081778
  10        -0.00000000
Sym=     4a  
Ene=    -0.2834
Spin= Beta
Occup=    1.00000
   1         0.00000000
   2        -0.00000000
   3         0.08853141
   4         0.05607594
   5        -0.00000000
   6         0.00000000
   7         0.00000000
   8         0.83106495
   9         0.52639789
  10         0.00000000
Sym=     5a  
Ene=    -0.3224
Spin= Alpha
Occup=    1.00000
   1        -0.00000000
   2        -0.00000000
   3         0.06660997
   4         0.04219087
   5        -0.00000000
   6         0.00000000
   7         0.00000000
   8         0.83532464
   9         0.52909599
  10        -0.00000000
Sym=     5a  
Ene=    -0.2726
Spin= Beta
Occup=    1.00000
   1         0.01755395
   2        -0.24959962
   3        -0.00000000
   4         0.00000000
   5        -0.15291823
   6         0.00820755
   7         0.10967957
   8        -0.00000000
   9        -0.00000000
  10         0.91216560
Sym=     6a  
Ene=    -0.2414
Spin= Alpha
Occup=    1.00000
   1        -0.01804795
   2         0.42397547
   3         0.00000000
   4        -0.00000000
   5         0.18765618
   6        -0.01156561
   7        -0.13922958
   8         0.00000000
   9        -0.00000000
  10        -0.82313270
Sym=     6a  
Ene=    -0.0158
Spin= Beta
Occup=    0.00000
   1        -0.00854517
   2         0.84356618
   3         0.00000000
   4        -0.00000000
   5        -0.52147349
   6         0.00187570
   7         0.00162209
   8         0.00000000
   9         0.00000000
  10         0.17701476
Sym=     7a  
Ene=    -0.0181
Spin= Alpha
Occup=    0.00000
   1        -0.00600556
   2         0.78911095
   3         0.00000000
   4        -0.00000000
   5        -0.55929135
   6         0.00373999
   7         0.02252670
   8        -0.00000000
   9         0.00000000
  10         0.28809757
Sym=     7a  
Ene=     0.0495
Spin= Beta
Occup=    0.00000
   1        -0.00000000
   2         0.00000000
   3        -0.53180483
   4         0.83960131
   5        -0.00000000
   6        -0.00000000
   7         0.00000000
   8        -0.02588748
   9         0.04087056
  10        -0.00000000
Sym=     8a  
Ene=     0.0483
Spin= Alpha
Occup=    0.00000
   1        -0.00000000
   2         0.00000000
   3        -0.53756389
   4         0.84869357
   5        -0.00000000
   6        -0.00000000
   7        -0.00000000
   8         0.07591685
   9        -0.11985579
  10        -0.00000000
Sym=     8a  
Ene=     0.0580
Spin= Beta
Occup=    0.00000
   1        -0.00000000
   2         0.00000000
   3         0.84469056
   4         0.53502837
   5         0.00000000
   6        -0.00000000
   7        -0.00000000
   8        -0.17513139
   9        -0.11092851
  10        -0.00000000
Sym=     9a  
Ene=     0.0513
Spin= Alpha
Occup=    0.00000
   1        -0.00000000
   2         0.00000000
   3         0.84670128
   4         0.53630197
   5         0.00000000
   6        -0.00000000
   7        -0.00000000
   8        -0.15353401
   9        -0.09724869
  10        -0.00000000
Sym=     9a  
Ene=     0.1571
Spin= Beta
Occup=    0.00000
   1        -0.00305353
   2        -0.52206703
   3         0.00000000
   4         0.00000000
   5        -0.89750646
   6         0.03194038
   7         0.36787523
   8        -0.00000000
   9        -0.00000000
  10        -0.41181752
Sym=    10a  
Ene=     0.1572
Spin= Alpha
Occup=    0.00000
   1         0.00505872
   2         0.49443827
   3        -0.00000000
   4        -0.00000000
   5         0.86812854
   6        -0.03043590
   7        -0.34005110
   8         0.00000000
   9         0.00000000
  10         0.52200601
Sym=    10a  
Ene=     0.3938
Spin= Beta
Occup=    0.00000
   1        -0.00000000
   2        -0.00000000
   3         0.08113872
   4        -0.12809995
   5        -0.00000000
   6         0.00000000
   7         0.00000000
   8        -0.53733575
   9         0.84833339
  10        -0.00000000
