   This run of MOLCAS is using the pymolcas driver

                             OPE
                             OPE          NMOL  CASOP  ENMOLC A   SO
                 OPE        NMOLC        AS  OP EN  MO LC     AS  OP
                OPENM       OL CA        SO  PE NM  OL CA     SOP EN
                OP EN      MO   LC       AS  OP ENMOL  CASO   PENMOL
                OP  EN     MO   LC       AS  OP EN     MO     LC ASO
               OP   E  NMOL  C  AS       OP  EN MO     LC     AS  OP
               OP  E   NMO   LC AS        OPEN  MO     LCASOP EN   M
               O  PEN   MO  LCA  SO
            OPE   NMO   L   CAS    OP
        OPENMOL  CASOP     ENMOL   CASOPE
     OPENMOLCA   SOPENMOLCASOPEN   MOLCASOPE
    OPENMOLCAS   OP           EN   MOL    CAS
    OPENMOLCAS       OP  ENM        O     LCA
    OPENMOLCAS    OPEN  MOLCASO     P  E  NMO
    OPENMOLCAS     OP               E  N  MOL
    OPENMOLCA   SO           PENM   O  L  CAS    OPEN    MO    LCAS
    OPENMOLCA   SOP           ENM   O  L  CAS   OP  EN  MOLC  AS   O
    OPENMOLCA   SOPE           NM      O  LCA   S      OP  EN MO
    OPENMOLC                AS         O  PEN   M      OL  CA  SOPE
    OPENMO        LCASOPE  NMOL        C  ASO   P      ENMOLC     AS
    OPE     NMO      LCA  SO     P     E   NM   OL  CA SO  PE N   MO
          OPENMOLCA            SOPE   NMO        LCAS  O    P  ENMO
     OPENMOLCASOPENMOLCASOPENMOLCASOPENMOLCA
        OPENMOLCASOPENMOLCASOPENMOLCASOPE
            OPENMOLCASOPENMOLCASOPENM
               OPENMOLCASOPENMOLCA        version: 24.02
                   OPENMOLCASO
                       OPE                tag: 126-g611b04c8f

 OpenMolcas is free software; you can redistribute it and/or modify it
 under the terms of the GNU Lesser General Public License version 2.1.
 OpenMolcas is distributed in the hope that it will be useful, but it
 is provided "as is" and without any express or implied warranties.
 For more details see the full text of the license in the file
 LICENSE or in <http://www.gnu.org/licenses/>.

                 Copyright (C) The OpenMolcas Authors
           For the author list and the recommended citation,
                   consult the file CONTRIBUTORS.md

           *************************************************
           * pymolcas version py2.28                       *
           *   build c4a6d18ded8cb6cad61d2372a9abd97c      *
           *   (after the EMIL interpreter by V. Veryazov) *
           *************************************************

configuration info
------------------
Host name: debian (Linux)
C Compiler ID: GNU
C flags: -std=gnu99
Fortran Compiler ID: Intel
Fortran flags: -fpp -i8 -heap-arrays
Definitions: _MOLCAS_;_I8_;_LINUX_
Parallel: OFF (GA=OFF)


   -----------------------------------------------------------------
  |
  |              Project: 2.60
  |       Submitted from: /home/grierjones/DDCASPT2/delta_ML/BF/2.60
  |         Scratch area: /tmp/2.60
  |      Save outputs to: /home/grierjones/DDCASPT2/delta_ML/BF/2.60
  |               Molcas: /usr/local
  |
  | Scratch area is empty
  |
  |       MOLCAS_DRIVER = /usr/local/pymolcas
  | MOLCAS_KEEP_WORKDIR = NO
  |  MOLCAS_NEW_WORKDIR = YES
  |       MOLCAS_NPROCS = 1
  |       MOLCAS_SOURCE = /usr/local
  |    MOLCAS_STRUCTURE = 0
  |
   -----------------------------------------------------------------

++ ---------   Input file   ---------

&GATEWAY
coord=2.60.xyz
Basis = ANO-RCC-MB
Group = nosymm
End of Input

&SEWARD
End of Input

&SCF
UHF

&MBPT2
Frozen
0

&RASSCF
Title= RASSCF
FileOrb
/home/grierjones/DDCASPT2/delta_ML/BF/2.50/2.50.RasOrb

NACTEL
2 0 0
Inactive
6
RAS2
2
Symmetry
1
Spin
1
orblisting
all
ITERation
200 100
CIMX
200
SDAV
500

&CASPT2
Imaginary Shift
0.0
Frozen
0

-- ----------------------------------

--- Start Module: gateway at Thu Apr 25 13:34:56 2024 ---
 
()()()()()()()()()()()()()()()()()()()()()()()()()()()()()()()()()()()()()()()()()()()()()()()()()()

                                              &GATEWAY

                                   only a single process is used
                       available to each process: 2.0 GB of memory, 1 thread?
                                             pid: 95482
()()()()()()()()()()()()()()()()()()()()()()()()()()()()()()()()()()()()()()()()()()()()()()()()()()
 
 
++    Symmetry information:
      ---------------------
 
                    Character Table for C1 
 
                             E  
                    a        1  x, y, xy, Rz, z, xz, Ry, yz, Rx, I
--
 
 
++    Basis set information:
      ----------------------
 
 
      Basis set label: B.ANO-RCC...2S1P.
 
      Electronic valence basis set:
      ------------------
      Associated Effective Charge   5.000000 au
      Associated Actual Charge      5.000000 au
      Nuclear Model: Point charge
 
      Shell  nPrim  nBasis  Cartesian Spherical Contaminant
         s      14       2        X                  
         p       9       1        X                  
 
 
      Basis set label: F.ANO-RCC...2S1P.
 
      Electronic valence basis set:
      ------------------
      Associated Effective Charge   9.000000 au
      Associated Actual Charge      9.000000 au
      Nuclear Model: Point charge
 
      Shell  nPrim  nBasis  Cartesian Spherical Contaminant
         s      14       2        X                  
         p       9       1        X                  
--
 
 
++    Molecular structure info:
      -------------------------
 
                    ************************************************ 
                    **** Cartesian Coordinates / Bohr, Angstrom **** 
                    ************************************************ 
 
     Center  Label                x              y              z                     x              y              z
        1      B1               0.000000       0.000000       0.000000              0.000000       0.000000       0.000000
        2      F2               0.000000       0.000000       4.913288              0.000000       0.000000       2.600000
--
 
 
            Nuclear Potential Energy              9.15883634 au
 
--- Stop Module: gateway at Thu Apr 25 13:34:56 2024 /rc=_RC_ALL_IS_WELL_ ---
*** files: xmldump
    saved to directory /home/grierjones/DDCASPT2/delta_ML/BF/2.60

--- Start Module: seward at Thu Apr 25 13:34:56 2024 ---
 
()()()()()()()()()()()()()()()()()()()()()()()()()()()()()()()()()()()()()()()()()()()()()()()()()()

                                              &SEWARD

                                   only a single process is used
                       available to each process: 2.0 GB of memory, 1 thread?
                                             pid: 95485
()()()()()()()()()()()()()()()()()()()()()()()()()()()()()()()()()()()()()()()()()()()()()()()()()()
 
               SEWARD will generate:
                  Multipole Moment integrals up to order  2
                  Kinetic Energy integrals
                  Nuclear Attraction integrals (point charge)
                  One-Electron Hamiltonian integrals
                  Velocity integrals
                  Relativistic Douglas-Kroll-Hess integrals:
                    - Parametrization         : EXP
                    - DKH order of Hamiltonian: 2
                    - DKH order of Properties : 0
                         - multipole moment operators
                         - electric potential operators
                         - contact operators
                  Orbital angular momentum around ( 0.0000  0.0000  3.1107 )
                  Velocity quadrupole around ( 0.0000  0.0000  3.1107 )
                  Atomic mean-field integrals
                  Two-Electron Repulsion integrals
 
                   Integrals are discarded if absolute value <: 1.00E-14
                   Integral cutoff threshold is set to       <: 1.00E-16
 
            Nuclear Potential Energy              9.15883634 au
 
 
      Basis set specifications :
      Symmetry species         a  
      Basis functions           10
 
 
      Input file to MOLDEN was generated!
 
--- Stop Module: seward at Thu Apr 25 13:34:57 2024 /rc=_RC_ALL_IS_WELL_ ---
*** files: 2.60.GssOrb 2.60.guessorb.h5 2.60.guessorb.molden xmldump
    saved to directory /home/grierjones/DDCASPT2/delta_ML/BF/2.60

*** symbolic link created: INPORB -> 2.60.GssOrb
--- Start Module: scf at Thu Apr 25 13:34:57 2024 ---
 
()()()()()()()()()()()()()()()()()()()()()()()()()()()()()()()()()()()()()()()()()()()()()()()()()()

                                                &SCF

                                   only a single process is used
                       available to each process: 2.0 GB of memory, 1 thread?
                                             pid: 95488
()()()()()()()()()()()()()()()()()()()()()()()()()()()()()()()()()()()()()()()()()()()()()()()()()()
 
++    Input section:
      --------------
 
      Header of the integral files:
      
       Integrals generated by Gateway/Seward, Thu Apr 25 13:34:56 2024
 
 
      Cartesian coordinates in Angstrom:
      -----------------------------------------------------
      No.  Label        X            Y            Z        
      -----------------------------------------------------
       1   B1         0.00000000   0.00000000   0.00000000
       2   F2         0.00000000   0.00000000   2.60000000
      -----------------------------------------------------
      Nuclear repulsion energy =    9.15883634
--
 
++    Orbital specifications:
      -----------------------
 
      Symmetry species               1
                                     a
      Frozen orbitals                0
      Occupied orbitals alpha        7
      Occupied orbitals beta         7
      Secondary orbitals alpha       3
      Secondary orbitals beta        3
      Deleted orbitals               0
      Total number of orbitals      10
      Number of basis functions     10
--
 
      Molecular charge                           0.000
 
++    Optimization specifications:
      ----------------------------
 
      SCF Algorithm: Conventional USCF
      D(i)-D(i-1) density differences are used
      Number of density matrices in core                 5
      Maximum number of NDDO SCF iterations            400
      Maximum number of HF SCF iterations              400
      Threshold for SCF energy change             1.00E-09
      Threshold for density matrix                1.00E-04
      Threshold for Fock matrix                   1.50E-04
      Threshold for linear dependence             1.00E-09
      Threshold at which DIIS is turned on        1.50E-01
      Maximum depth in the DIIS procedure                5
      Maximum depth in the BFGS Hessian update          30
      Threshold at which QNR/C2DIIS is turned on  7.50E-02
      Threshold for Norm(delta) (QNR/C2DIIS)      1.00E-03
      All orbitals punched on: UHFORB
--
 
      Input vectors read from INPORB
      Orbital file label: *Guess orbitals
 
 
++ Convergence information
                               UHF SCF        iterations: Energy and convergence statistics
 
Iter     Tot. SCF        One-elec.       Two-elec.     Energy      Max Dij or  Max Fij      DNorm      TNorm      AccCon     Time
         Energy          Energy          Energy        Change      Delta Norm                                                in Sec.
   1  -123.892902724  -194.573240195    61.521501128   0.00E+00    7.26E-01*   6.36E-02*    5.30E+00   2.61E+01   None         0.
   2  -123.848444167  -190.203151967    57.195871457   4.45E-02*   2.07E-01*   5.08E-02*    2.00E+00   2.51E+01   EDIIS        0.
   3  -123.960291668  -192.891255420    59.772127410  -1.12E-01*   1.26E-01*   2.14E-02*    4.82E-01   2.57E+01   EDIIS        0.
   4  -123.964058466  -192.488204879    59.365310071  -3.77E-03*   9.29E-02*   2.93E-03*    2.40E-01   2.56E+01   c2DIIS       0.
   5  -123.964726422  -192.527726693    59.404163929  -6.68E-04*   9.89E-03*   2.29E-02*    1.97E-01   2.56E+01   c2DIIS       0.
   6  -123.966462421  -192.315319624    59.190020860  -1.74E-03*   6.03E-02*   7.74E-03*    4.41E-02   2.55E+01   QNRc2DIIS    0.
   7  -123.966688850  -192.492832634    59.367307441  -2.26E-04*   1.67E-02*   2.29E-03*    7.30E-02   2.56E+01   QNRc2DIIS    0.
   8  -123.966737573  -192.452926952    59.327353037  -4.87E-05*   1.14E-02*   6.13E-04*    2.21E-02   2.56E+01   QNRc2DIIS    0.
   9  -123.966744577  -192.452459360    59.326878441  -7.00E-06*   1.12E-03*   9.23E-05     1.60E-02   2.56E+01   QNRc2DIIS    0.
  10  -123.966744643  -192.454285293    59.328704308  -6.58E-08*   1.82E-04    3.56E-05     1.44E-03   2.56E+01   QNRc2DIIS    0.
  11  -123.966744648  -192.453778453    59.328197462  -5.55E-09*   4.67E-05    6.77E-06     2.18E-04   2.56E+01   QNRc2DIIS    0.
  12  -123.966744649  -192.453661417    59.328080426  -2.13E-10    1.83E-06    1.20E-07     5.67E-05   2.56E+01   QNRc2DIIS    0.
 
       Convergence after  12 Macro Iterations
--
 
 *****************************************************************************************************************************
 *                                                                                                                           *
 *                                             SCF/KS-DFT Program, Final results                                             *
 *                                                                                                                           *
 *                                                                                                                           *
 *                                                                                                                           *
 *                                                       Final Results                                                       *
 *                                                                                                                           *
 *****************************************************************************************************************************
 
::    Total SCF energy                               -123.9667446486
      One-electron energy                            -192.4536614173
      Two-electron energy                              59.3280804262
      Nuclear repulsion energy                          9.1588363426
      Kinetic energy (interpolated)                   125.8702623665
      Virial theorem                                    0.9848771451
      Total spin, S(S+1)                               -0.0000000000
      Total spin, S                                    -0.0000000000
      Max non-diagonal density matrix element           0.0000009085
      Max non-diagonal Fock matrix element              0.0000000899
 
 
      All orbitals with orbital energies smaller than  E(LUMO)+0.5 are printed
 
++    Molecular orbitals:
      -------------------
 
      Title: UHF orbitals (alpha)

      Molecular orbitals for symmetry species 1: a  
 
          Orbital            1         2         3         4         5         6         7         8         9        10    
          Energy          -25.9325   -7.8753   -1.3047   -0.6000   -0.4226   -0.4226   -0.3412   -0.0040   -0.0040    0.0169
          Occ. No.          1.0000    1.0000    1.0000    1.0000    1.0000    1.0000    1.0000    0.0000    0.0000    0.0000
 
        1 B1     1s        -0.0000    0.9999   -0.0009    0.0133   -0.0000    0.0000    0.0031   -0.0000    0.0000    0.0007
        2 B1     2s        -0.0001    0.0129    0.0206   -0.9796   -0.0000    0.0000    0.1682    0.0000    0.0000    0.1473
        3 B1     2px       -0.0000   -0.0000    0.0000   -0.0000   -0.0139    0.0442   -0.0000   -0.2184    0.9757   -0.0000
        4 B1     2py        0.0000   -0.0000   -0.0000    0.0000    0.0442    0.0139    0.0000    0.9757    0.2184   -0.0000
        5 B1     2pz       -0.0001    0.0006    0.0231    0.0488    0.0000   -0.0000   -0.4278    0.0000    0.0000    0.9161
        6 F2     1s         1.0000   -0.0000    0.0023    0.0028   -0.0000    0.0000    0.0034   -0.0000   -0.0000   -0.0084
        7 F2     2s        -0.0026   -0.0000    0.9961    0.0626   -0.0000    0.0000    0.0546    0.0000   -0.0000   -0.1186
        8 F2     2px        0.0000    0.0000   -0.0000    0.0000   -0.2985    0.9513   -0.0000    0.0193   -0.0861   -0.0000
        9 F2     2py        0.0000   -0.0000    0.0000    0.0000    0.9513    0.2985   -0.0000   -0.0861   -0.0193    0.0000
       10 F2     2pz       -0.0002   -0.0001   -0.0095    0.1330   -0.0000    0.0000    0.8540   -0.0000    0.0000    0.5245
--
 
 
      Input file to MOLDEN was generated!
 
 
++    Static properties:
      ------------------
 
 
      LoProp Charges per center
 

                   B1       F2    
      Nuclear      5.0000   9.0000
      Electronic  -4.4547  -9.5453
 
      Total        0.5453  -0.5453
--
 
 
      All orbitals with orbital energies smaller than  E(LUMO)+0.5 are printed
 
++    Molecular orbitals:
      -------------------
 
      Title: UHF orbitals (beta)

      Molecular orbitals for symmetry species 1: a  
 
          Orbital            1         2         3         4         5         6         7         8         9        10    
          Energy          -25.9325   -7.8753   -1.3047   -0.6000   -0.4226   -0.4226   -0.3412   -0.0040   -0.0040    0.0169
          Occ. No.          1.0000    1.0000    1.0000    1.0000    1.0000    1.0000    1.0000    0.0000    0.0000    0.0000
 
        1 B1     1s        -0.0000    0.9999   -0.0009    0.0133   -0.0000    0.0000    0.0031   -0.0000    0.0000    0.0007
        2 B1     2s        -0.0001    0.0129    0.0206   -0.9796   -0.0000    0.0000    0.1682    0.0000    0.0000    0.1473
        3 B1     2px       -0.0000   -0.0000    0.0000   -0.0000   -0.0139    0.0442   -0.0000   -0.2184    0.9757   -0.0000
        4 B1     2py        0.0000   -0.0000   -0.0000    0.0000    0.0442    0.0139    0.0000    0.9757    0.2184   -0.0000
        5 B1     2pz       -0.0001    0.0006    0.0231    0.0488    0.0000   -0.0000   -0.4278    0.0000    0.0000    0.9161
        6 F2     1s         1.0000   -0.0000    0.0023    0.0028   -0.0000    0.0000    0.0034   -0.0000   -0.0000   -0.0084
        7 F2     2s        -0.0026   -0.0000    0.9961    0.0626   -0.0000    0.0000    0.0546    0.0000   -0.0000   -0.1186
        8 F2     2px        0.0000    0.0000   -0.0000    0.0000   -0.2985    0.9513   -0.0000    0.0193   -0.0861   -0.0000
        9 F2     2py        0.0000   -0.0000    0.0000    0.0000    0.9513    0.2985   -0.0000   -0.0861   -0.0193    0.0000
       10 F2     2pz       -0.0002   -0.0001   -0.0095    0.1330   -0.0000    0.0000    0.8540   -0.0000    0.0000    0.5245
--
 
 
++    Molecular charges:
      ------------------
 
      Mulliken charges per centre and basis function type
      ---------------------------------------------------
 
                            B1                      F2    
                     alpha        beta       alpha        beta
      1s           1.0000      1.0000      1.0000      1.0000
      2s           0.9859      0.9859      0.9979      0.9979
      2px          0.0041      0.0041      0.9959      0.9959
      2pz          0.2282      0.2282      0.7880      0.7880
      2py          0.0041      0.0041      0.9959      0.9959
      Total        2.2223      2.2223      4.7777      4.7777
      Total              4.4446                  9.5554
 
      Charge            0.5554                 -0.5554
 
      Total electronic charge=   14.000000
 
      Total            charge=   -0.000000
--
 
 
      Input file to MOLDEN was generated!
 
 
++    Static properties:
      ------------------
 
 
      LoProp Charges per center
 

                   B1       F2    
      Nuclear      5.0000   9.0000
      Electronic  -4.4547  -9.5453
 
      Total        0.5453  -0.5453
--
 
 
++    Natural Bond Order analysis
      ---------------------------
      Based on LoProp computed density
      -------------------------------------------------------------------------------------
      Atom A       Atom B       Bond Order
      -------------------------------------------------------------------------------------
      NBO located      1.000 non-bonded electrons on atom B1        
      The remaining    6.087 electrons are to be considered as diffuse
--
 
 
++    Molecular orbitals:
      -------------------
 
      Title: Natural orbitals

      Molecular orbitals for symmetry species 1: a  
 
          Orbital            1         2         3         4         5         6         7         8         9        10    
          Energy          -25.9325   -7.3045   -1.3047   -0.6146   -0.4226   -0.4226   -0.8974   -0.0040   -0.0040    0.0169
          Occ. No.          2.0000    2.0000    2.0000    2.0000    2.0000    2.0000    2.0000    0.0000    0.0000    0.0000
 
        1 B1     1s        -0.0000   -0.9598    0.0009   -0.0581   -0.0000    0.0000    0.2745   -0.0000    0.0000   -0.0007
        2 B1     2s        -0.0001   -0.0105   -0.0206    0.9791   -0.0000    0.0000    0.1715    0.0000    0.0000   -0.1473
        3 B1     2px       -0.0000   -0.0000   -0.0000    0.0000   -0.0139    0.0442   -0.0000   -0.2184    0.9757    0.0000
        4 B1     2py        0.0000    0.0000    0.0000   -0.0000    0.0442    0.0139    0.0000    0.9757    0.2184    0.0000
        5 B1     2pz       -0.0001   -0.1146   -0.0231   -0.0514    0.0000   -0.0000   -0.4118    0.0000    0.0000   -0.9161
        6 F2     1s         1.0000    0.0011   -0.0023   -0.0028   -0.0000    0.0000    0.0033   -0.0000   -0.0000    0.0084
        7 F2     2s        -0.0026    0.0177   -0.9961   -0.0622   -0.0000    0.0000    0.0521    0.0000   -0.0000    0.1186
        8 F2     2px        0.0000   -0.0000    0.0000   -0.0000   -0.2985    0.9513   -0.0000    0.0193   -0.0861    0.0000
        9 F2     2py        0.0000   -0.0000   -0.0000   -0.0000    0.9513    0.2985   -0.0000   -0.0861   -0.0193   -0.0000
       10 F2     2pz       -0.0002    0.2381    0.0095   -0.1276   -0.0000    0.0000    0.8210   -0.0000    0.0000   -0.5245
--
 
 
++    Molecular properties:
      ---------------------
 
      Charge (e):
                      =   -0.0000
      Dipole Moment (Debye):
      Origin of the operator (Ang)=    0.0000    0.0000    0.0000
                   X= -1.7691E-13               Y=  1.0596E-14               Z= -5.9475E+00           Total=  5.9475E+00
      Quadrupole Moment (Debye*Ang):
      Origin of the operator (Ang)=    0.0000    0.0000    1.6461
                  XX= -1.0128E+01              XY=  1.4411E-14              XZ=  2.9417E-14              YY= -1.0128E+01
                  YZ= -6.6889E-16              ZZ= -9.0237E+00
      In traceless form (Debye*Ang)
                  XX= -5.5224E-01              XY=  2.1617E-14              XZ=  4.4126E-14              YY= -5.5224E-01
                  YZ= -1.0033E-15              ZZ=  1.1045E+00
--
 
 
      Input file to MOLDEN was generated!
 
 ###############################################################################
 ###############################################################################
 ###                                                                         ###
 ###                                                                         ###
 ###    WARNING: RunFile label nBas                                          ###
 ###    was used       87 times                                              ###
 ###                                                                         ###
 ###                                                                         ###
 ###############################################################################
 ###############################################################################
--- Stop Module: scf at Thu Apr 25 13:34:58 2024 /rc=_RC_ALL_IS_WELL_ ---
*** files: 2.60.LprOrb 2.60.LoProp.molden 2.60.scf.molden 2.60.scf.h5 2.60.UhfOrb 2.60.UnaOrb xmldump
    saved to directory /home/grierjones/DDCASPT2/delta_ML/BF/2.60

*** symbolic link created: INPORB -> 2.60.UnaOrb
--- Start Module: mbpt2 at Thu Apr 25 13:34:58 2024 ---
 
()()()()()()()()()()()()()()()()()()()()()()()()()()()()()()()()()()()()()()()()()()()()()()()()()()

                                               &MBPT2

                                   only a single process is used
                       available to each process: 2.0 GB of memory, 1 thread?
                                             pid: 95491
()()()()()()()()()()()()()()()()()()()()()()()()()()()()()()()()()()()()()()()()()()()()()()()()()()
 
 
 ###############################################################################
 ###############################################################################
 ###                                                                         ###
 ###                                                                         ###
 ###    WARNING: MP2 implementation intended for RHF references only         ###
 ###                                                                         ###
 ###                                                                         ###
 ###############################################################################
 ###############################################################################
MBPT2 WARNING: Reference function according to RunFile:UHF-SCF 
I'll assume you know what you're doing and continue
 
 
WARNING!
Default frozen orbitals as non valence orbitals is overwritten by user input.
Default values:   2
 
 
      Cartesian coordinates in Angstrom:
      -----------------------------------------------------
      No.  Label        X            Y            Z        
      -----------------------------------------------------
       1   B1         0.00000000   0.00000000   0.00000000
       2   F2         0.00000000   0.00000000   2.60000000
      -----------------------------------------------------
      Nuclear repulsion energy =    9.15883634
 
      Contents of RUNFILE file:
      -------------------------
 
      Symmetry species                           1
                                                 a
      Number of basis functions                 10
      Frozen occupied orbitals                   0
      Active occupied orbitals                   7
      Active external orbitals                   3
      Deleted external orbitals                  0
 
 
      Energies of the active occupied orbitals
 
      symmetry species 1                   -25.932452     -7.875301     -1.304690     -0.599993     -0.422556
                                            -0.422556     -0.341201
 
 
      Energies of the active external orbitals
 
      symmetry species 1                    -0.004037     -0.004037      0.016890
 
 
      ********************************************************************************************************
      *                                               Results                                                *
      ********************************************************************************************************
 
 Conventional algorithm used...

       SCF energy                           =     -123.9667446486 a.u.
       Second-order correlation energy      =       -0.0661067962 a.u.

       Total energy                         =     -124.0328514448 a.u.
       Reference weight ( Cref**2 )         =        0.92675
 
::    Total MBPT2 energy                             -124.0328514448
 
 
       Zeroth-order energy (E0)             =      -64.6386642224 a.u.
 
       Shanks-type energy S1(E)             =     -124.0329251870 a.u.
 
 


       Data processing and timing information:

       Section                                              time(sec)
                                                          CPU  Elapsed

      Input data processing                              0.02      0.03
      Transformation of integrals                        0.00      0.00
      MBPT2 calculations (BJAI)                          0.00      0.00
      Total MBPT2 calculations                           0.02      0.03
 
 
--- Stop Module: mbpt2 at Thu Apr 25 13:34:58 2024 /rc=_RC_ALL_IS_WELL_ ---
*** files: xmldump
    saved to directory /home/grierjones/DDCASPT2/delta_ML/BF/2.60

*** symbolic link created: INPORB -> 2.60.UnaOrb
--- Start Module: rasscf at Thu Apr 25 13:34:58 2024 ---
 
()()()()()()()()()()()()()()()()()()()()()()()()()()()()()()()()()()()()()()()()()()()()()()()()()()

                                              &RASSCF

                                   only a single process is used
                       available to each process: 2.0 GB of memory, 1 thread?
                                             pid: 95495
()()()()()()()()()()()()()()()()()()()()()()()()()()()()()()()()()()()()()()()()()()()()()()()()()()
 
 
      Header of the ONEINT file:
      --------------------------
      
      Integrals generated by Gateway/Seward, Thu Apr 25 13:34:56 2024
 
 
      OrdInt status: non-squared
 
 
      Cartesian coordinates in Angstrom:
      -----------------------------------------------------
      No.  Label        X            Y            Z        
      -----------------------------------------------------
       1   B1         0.00000000   0.00000000   0.00000000
       2   F2         0.00000000   0.00000000   2.60000000
      -----------------------------------------------------
      Nuclear repulsion energy =    9.15883634
 
++    Wave function specifications:
      -----------------------------
 
      Number of closed shell electrons          12
      Number of electrons in active shells       2
      Max number of holes in RAS1 space          0
      Max nr of electrons in RAS3 space          0
      Number of inactive orbitals                6
      Number of active orbitals                  2
      Number of secondary orbitals               2
      Spin quantum number                      0.0
      State symmetry                             1
--
 
++    Orbital specifications:
      -----------------------
 
      Symmetry species                           1
                                                 a
      Frozen orbitals                            0
      Inactive orbitals                          6
      Active orbitals                            2
      RAS1 orbitals                              0
      RAS2 orbitals                              2
      RAS3 orbitals                              0
      Secondary orbitals                         2
      Deleted orbitals                           0
      Number of basis functions                 10
--
 
++    CI expansion specifications:
      ----------------------------
 
      Number of CSFs                             3
      Number of determinants                     3
      Number of root(s) required                 1
      Root chosen for geometry opt.              1
      CI root used                               1
         
      highest root included in the CI            1
      max. size of the explicit Hamiltonian      3
--
 
++    Optimization specifications:
      ----------------------------
 
      RASSCF algorithm: Conventional
      Maximum number of macro iterations       200
      Maximum number of SX iterations          100
      Threshold for RASSCF energy            1.000E-08
      Threshold for max MO rotation          1.000E-01
      Threshold for max BLB element          1.000E-04
      Level shift parameter                  5.000E-01
      Make Quasi-Newton update
--
 
      The MO-coefficients are taken from the file:
      /home/grierjones/DDCASPT2/delta_ML/BF/2.50/2.50.RasOrb                                                                                                                                                                                                          
      Title: RASSCF average (pseudo-natural) orbitals                                      
 
      Total molecular charge    0.00
 
      ************************************************************************************************************************
      *                                                                                                                      *
      *                                            Wave function control section                                             *
      *                                                                                                                      *
      ************************************************************************************************************************
 
 
                                         RASSCF iterations: Energy and convergence statistics
                                         ----------------------------------------------------
 
      Iter CI   SX   CI       RASSCF       Energy    max ROT     max BLB   max BLB  Level Ln srch  Step   QN   Walltime
          iter iter root      energy       change     param      element    value   shift minimum  type update hh:mm:ss
 Nr of preliminary CI iterations:   1
        1   1    4    1  -123.98493217    0.00E+00   4.77E-03    7  10 1 -6.95E-03*  0.20   0.00    SX    NO    0:00:00
        2   1    4    1  -123.98500710   -7.49E-05*  1.85E-03    7  10 1 -2.80E-03*  0.20   0.00    SX    NO    0:00:00
        3   1    4    1  -123.98502402   -1.69E-05* -1.02E-03    7  10 1 -1.17E-03*  0.20   0.00    SX    NO    0:00:00
        4   1    4    1  -123.98502923   -5.21E-06* -7.61E-04    5   9 1 -7.64E-04*  0.20   0.00    SX    NO    0:00:00
        5   1    4    1  -123.98503118   -1.95E-06* -1.14E-03    5   9 1 -5.35E-04*  0.20   2.50    LS   YES    0:00:00
        6   1    4    1  -123.98503247   -1.29E-06*  4.15E-04    7  10 1  2.28E-04*  0.20   1.16    QN   YES    0:00:00
        7   1    4    1  -123.98503262   -1.47E-07*  2.50E-04    7  10 1  1.47E-04*  0.20   1.60    LS   YES    0:00:00
        8   1    4    1  -123.98503264   -2.43E-08*  9.25E-05    7  10 1  9.80E-05   0.20   1.00    QN   YES    0:00:00
        9   1    3    1  -123.98503266   -1.58E-08*  2.64E-05    7  10 1  1.78E-05   0.20   1.28    QN   YES    0:00:00
       10   1    3    1  -123.98503266   -1.10E-09   8.16E-06    4   8 1  6.28E-06   0.20   1.13    QN   YES    0:00:00
      Convergence after 10 iterations
       11   1    3    1  -123.98503266   -1.11E-10   8.16E-06    7  10 1 -2.96E-06   0.20   1.13    QN   YES    0:00:00
 
      ************************************************************************************************************************
                                                      Wave function printout:
                       occupation of active orbitals, and spin coupling of open shells (u,d: Spin up or down)
      ************************************************************************************************************************
 
      Note: transformation to natural orbitals
      has been made, which may change the order of the CSFs.
 
      printout of CI-coefficients larger than  0.05 for root  1
      energy=    -123.985033
      conf/sym  11     Coeff  Weight
             1  20   0.98209 0.96451
             3  02  -0.18840 0.03549
 
      Natural orbitals and occupation numbers for root  1
      sym 1:   1.929015   0.070985
 
      ************************************************************************************************************************
      *                                                                                                                      *
      *                                                    Final results                                                     *
      *                                                                                                                      *
      ************************************************************************************************************************
 
 
++    Wave function specifications:
      -----------------------------
 
      Number of closed shell electrons          12
      Number of electrons in active shells       2
      Max number of holes in RAS1 space          0
      Max nr of electrons in RAS3 space          0
      Number of inactive orbitals                6
      Number of active orbitals                  2
      Number of secondary orbitals               2
      Spin quantum number                      0.0
      State symmetry                             1
--
 
++    Orbital specifications:
      -----------------------
 
      Symmetry species                           1
                                                 a
      Frozen orbitals                            0
      Inactive orbitals                          6
      Active orbitals                            2
      RAS1 orbitals                              0
      RAS2 orbitals                              2
      RAS3 orbitals                              0
      Secondary orbitals                         2
      Deleted orbitals                           0
      Number of basis functions                 10
--
 
++    CI expansion specifications:
      ----------------------------
 
      Number of CSFs                             3
      Number of determinants                     3
      Number of root(s) required                 1
      CI root used                               1
      highest root included in the CI            1
      Root passed to geometry opt.               1
--
 
++    Final optimization conditions:
      ------------------------------
 
      Average CI energy                            -123.98503266
      RASSCF energy for state  1                   -123.98503266
      Super-CI energy                                -0.00000000
      RASSCF energy change                           -0.00000000
      Max change in MO coefficients               8.042E-06
      Max non-diagonal density matrix element     8.162E-06
      Maximum BLB matrix element                 -2.956E-06
      (orbital pair   7,  10 in symmetry   1)
      Norm of electronic gradient            4.639E-06
--
 
 
      Final state energy(ies):
      ------------------------
 
::    RASSCF root number  1 Total energy:   -123.98503266
 
++    Molecular orbitals:
      -------------------
 
      Pseudonatural active orbitals and approximate occupation numbers
 
 
 
 
      Molecular orbitals for symmetry species 1: a  
 
 
      Orbital                 1         2         3         4         5         6         7         8         9        10
      Energy           -25.9307   -7.8761   -1.3033   -0.4216   -0.4213   -0.3549   -0.5739    0.0000   -0.0038    0.0177
      Occ. No.           2.0000    2.0000    2.0000    2.0000    2.0000    2.0000    1.9290    0.0710    0.0000    0.0000
 
     1 B1     1s        -0.0000    1.0000   -0.0008    0.0000    0.0000    0.0061    0.0019   -0.0000    0.0000   -0.0008
     2 B1     2s        -0.0001    0.0027    0.0099   -0.0000   -0.0000   -0.0737   -0.9920   -0.0000   -0.0000   -0.1437
     3 B1     2px        0.0000   -0.0000   -0.0000    0.0416    0.0080    0.0000    0.0000   -0.9852   -0.1714    0.0000
     4 B1     2py        0.0000    0.0000   -0.0000   -0.0072    0.0458    0.0000   -0.0000    0.1714   -0.9850    0.0000
     5 B1     2pz       -0.0001    0.0020    0.0245   -0.0000   -0.0000   -0.4038    0.1472    0.0000   -0.0000   -0.9164
     6 F2     1s         1.0000    0.0000    0.0023    0.0000    0.0000    0.0040    0.0019   -0.0000    0.0000    0.0084
     7 F2     2s        -0.0026    0.0003    0.9966    0.0000    0.0000    0.0674    0.0372   -0.0000    0.0000    0.1185
     8 F2     2px       -0.0000    0.0000   -0.0000    0.9826    0.1709   -0.0000   -0.0000    0.0829    0.0152   -0.0000
     9 F2     2py       -0.0000   -0.0000    0.0000   -0.1710    0.9822   -0.0000   -0.0000   -0.0144    0.0872   -0.0000
    10 F2     2pz       -0.0002   -0.0009   -0.0096    0.0000    0.0000    0.8605   -0.0792    0.0000   -0.0000   -0.5247
--
 
      Von Neumann Entropy (Root   1) =  0.22123
 

      Mulliken population analysis for root number:  1
      -----------------------------------------------
 
 
++    Molecular charges:
      ------------------
 
      Mulliken charges per centre and basis function type
      ---------------------------------------------------
 
                B1      F2    
      1s       2.0000  2.0000
      2s       1.9043  1.9958
      2px      0.0758  1.9931
      2pz      0.4537  1.5752
      2py      0.0103  1.9918
      Total    4.4441  9.5559
 
      N-E      0.5559 -0.5559
 
      Total electronic charge=   14.000000
 
      Total            charge=   -0.000000
--
 
 

      Expectation values of various properties for root number:  1
      -----------------------------------------------------------
 
 
++    Molecular properties:
      ---------------------
 
      Charge (e):
                      =   -0.0000
      Dipole Moment (Debye):
      Origin of the operator (Ang)=    0.0000    0.0000    0.0000
                   X=  8.4894E-14               Y= -5.9200E-14               Z= -6.0492E+00           Total=  6.0492E+00
      Quadrupole Moment (Debye*Ang):
      Origin of the operator (Ang)=    0.0000    0.0000    1.6461
                  XX= -1.0283E+01              XY=  3.3168E-02              XZ= -8.9333E-14              YY= -1.0098E+01
                  YZ=  1.2810E-13              ZZ= -8.6634E+00
      In traceless form (Debye*Ang)
                  XX= -9.0218E-01              XY=  4.9752E-02              XZ= -1.3400E-13              YY= -6.2490E-01
                  YZ=  1.9216E-13              ZZ=  1.5271E+00
--
 

      LoProp population analysis for root number:  1
      -----------------------------------------------
 
 
++    LoProp analysis:
      ----------------
 
 
 
      Input file to MOLDEN was generated!
 
 
++    Static properties:
      ------------------
 
 
      LoProp Charges per center
 

                   B1       F2    
      Nuclear      5.0000   9.0000
      Electronic  -4.4542  -9.5458
 
      Total        0.5458  -0.5458
--
 
 
      Natural Bond Order analysis for root number:  1
 
++    Natural Bond Order analysis
      ---------------------------
      Based on LoProp computed density
      -------------------------------------------------------------------------------------
      Atom A       Atom B       Bond Order
      -------------------------------------------------------------------------------------
      NBO located      1.000 non-bonded electrons on atom B1        
      NBO located      1.000 non-bonded electrons on atom B1        
      The remaining    5.087 electrons are to be considered as diffuse
--
 
--
 
 
      Input file to MOLDEN was generated!
 
      Average orbitals are written to the RASORB file
      Natural orbitals for root   1 are written to the RASORB.1 file
      Spin density orbitals for root   1 are written to the SPDORB.1 file
 
--- Stop Module: rasscf at Thu Apr 25 13:34:58 2024 /rc=_RC_ALL_IS_WELL_ ---
*** files: 2.60.LprOrb 2.60.rasscf.molden 2.60.LoProp.molden 2.60.RasOrb 2.60.RasOrb.1 2.60.rasscf.h5 2.60.SpdOrb.1 xmldump
    saved to directory /home/grierjones/DDCASPT2/delta_ML/BF/2.60

*** symbolic link created: INPORB -> 2.60.RasOrb
--- Start Module: caspt2 at Thu Apr 25 13:34:58 2024 ---
 
()()()()()()()()()()()()()()()()()()()()()()()()()()()()()()()()()()()()()()()()()()()()()()()()()()

                                              &CASPT2

                                   only a single process is used
                       available to each process: 2.0 GB of memory, 1 thread?
                                             pid: 95499
()()()()()()()()()()()()()()()()()()()()()()()()()()()()()()()()()()()()()()()()()()()()()()()()()()
 
 ###############################################################################
 ###############################################################################
 ###                                                                         ###
 ###                                                                         ###
 ###    WARNING: User changed nr of frozen orbitals.                         ###
 ###                                                                         ###
 ###                                                                         ###
 ###############################################################################
 ###############################################################################
 
++    Wave function specifications:
      -----------------------------
 
      Number of closed shell electrons          12
      Number of electrons in active shells       2
      Max number of holes in RAS1 space          0
      Max number of electrons in RAS3 space      0
      Number of inactive orbitals                6
      Number of active orbitals                  2
      Number of secondary orbitals               2
      Spin quantum number                      0.0
      State symmetry                             1
      Number of CSFs                             3
      Number of CASSCF root(s) available         1
      CASPT2 state passed to geometry opt.       1
      A file JOBMIX will be created
      This is a CASSCF or RASSCF reference function
--
 
++    Orbital specifications:
      -----------------------
 
      Symmetry species                           1
                                                 a
      Frozen orbitals                            0
      Inactive orbitals                          6
      Active orbitals                            2
      Secondary orbitals                         2
      Deleted orbitals                           0
      Number of basis functions                 10
--
 
++    CASPT2 specifications:
      ----------------------
 
      Type of calculation                        SS-CASPT2
      Fock operator                              state-specific
      IPEA shift                                 0.25
      Real shift                                 0.00
      Imaginary shift                            0.00
      The input orbitals will be transformed to quasi-canonical
--
 
--------------------------------------------------------------------------------
 Estimated memory requirements:
  POLY3 :                   250070
  RHS:                      250428
  SIGMA :                   250384
  PRPCTL:                        0
 Available workspace:    230392690
 
++ CASPT2 computation for group   1
 
********************************************************************************
 Multi-State initialization phase begins for group   1
--------------------------------------------------------------------------------
********************************************************************************
 Compute H0 matrices for state    1
--------------------------------------------------------------------------------
--------------------------------------------------------------------------------
 H0 matrices have been computed.
 
********************************************************************************
  CASPT2 EQUATION SOLUTION
--------------------------------------------------------------------------------
 
  Total nr of CASPT2 parameters:
   Before reduction:         518
   After  reduction:         358
 
 Variance of |WF0>:       0.0496083035
 
 The contributions to the second order correlation energy in atomic units.
-----------------------------------------------------------------------------------------------------------------------------
  IT.      VJTU        VJTI        ATVX        AIVX        VJAI        BVAT        BJAT        BJAI        TOTAL       RNORM  
-----------------------------------------------------------------------------------------------------------------------------
   1     0.000000   -0.000037   -0.000000   -0.000055   -0.002783   -0.010302   -0.001164   -0.040895   -0.055237    0.003871
   2     0.000000   -0.000037   -0.000000   -0.000056   -0.002795   -0.010482   -0.001174   -0.041382   -0.055927    0.000136
   3     0.000000   -0.000037   -0.000000   -0.000055   -0.002795   -0.010483   -0.001174   -0.041382   -0.055926    0.000007
-----------------------------------------------------------------------------------------------------------------------------
 
  FINAL CASPT2 RESULT:
 
      Reference energy:        -123.9850326569
      E2 (Non-variational):      -0.0559260898
      E2 (Variational):          -0.0559260899
      Total energy:            -124.0409587467
      Residual norm:              0.0000005675
      Reference weight:           0.93436
 
      Contributions to the CASPT2 correlation energy
      Active & Virtual Only:         -0.0104828050
      One Inactive Excited:          -0.0012293990
      Two Inactive Excited:          -0.0442138858
 
 
++ Denominators, etc.
--------------------------------------------------------------------------------------------------------------
 Report on small energy denominators, large coefficients, and large energy contributions.
CASE  SYMM ACTIVE-MIX  NON-ACTIVE INDICES          DENOMINATOR     RHS VALUE       COEFFICIENT     CONTRIBUTION
VJAIP    1  Mu1.0001  Se1.010 In1.006 In1.004       0.74720064      0.02511796     -0.03388031     -0.00085100
VJAIM    1  Mu1.0001  Se1.010 In1.006 In1.004       0.74720064      0.03669833     -0.04980314     -0.00182769
BVATP    1  Mu1.0001  Se1.009 Se1.009               1.22567606     -0.08904365      0.07207376     -0.00641771
BVATP    1  Mu1.0001  Se1.010 Se1.010               1.26853090     -0.06991165      0.05814616     -0.00406509
BJATP    1  Mu1.0001  In1.006 Se1.010 Se1.010       0.93343528     -0.01969408      0.04673171     -0.00092034
BJAIP    1  Se1.009 In1.005 Se1.010 In1.006         0.79007480     -0.02718536      0.03472107     -0.00094390
BJAIP    1  Se1.010 In1.006 Se1.010 In1.006         0.74517548      0.16389357     -0.22517968     -0.03690550
BJAIM    1  Se1.009 In1.005 Se1.009 In1.006         0.79007480     -0.03971802      0.05100012     -0.00202562
--
 
   (Skipping property calculation,
    use PROP keyword to activate)
--
 
  Total CASPT2 energies:
::    CASPT2 Root  1     Total energy:   -124.04095875
 
  A NEW JOBIPH FILE NAMED 'JOBMIX' IS PREPARED.
********************************************************************************
--- Stop Module: caspt2 at Thu Apr 25 13:34:58 2024 /rc=_RC_ALL_IS_WELL_ ---
*** files: xmldump
    saved to directory /home/grierjones/DDCASPT2/delta_ML/BF/2.60

.##################.
.# Happy landing! #.
.##################.

    Timing: Wall=2.33 User=1.59 System=0.23
************************************
*** WorkDir at /tmp/2.60 removed ***
************************************
