[Molden Format]
[N_Atoms]
                     2
[Atoms] (AU)
F1          1      9           0.00000000      0.00000000      0.00000000
F2          2      9           0.00000000      0.00000000      4.91328792
[Charge] (Mulliken)
  1.029754059800325E-011
 -1.031352780955785E-011
[GTO] (AU)
   1
   s  14
  1.031094600E+05  1.713099991E-04
  1.528100700E+04  7.123999962E-04
  3.441539200E+03  2.990479984E-03
  9.670948300E+02  1.164036994E-02
  3.140353400E+02  3.968642979E-02
  1.134423000E+02  1.128546094E-01
  4.464472700E+01  2.473650687E-01
  1.894287400E+01  3.672702681E-01
  8.532743000E+00  2.896286985E-01
  3.919401000E+00  7.786681959E-02
  1.568157000E+00  4.562139976E-03
  6.232900000E-01  2.468879987E-03
  2.408610000E-01  1.106309994E-03
  8.430100000E-02  1.739699991E-04
   s  14
  1.031094600E+05 -4.044999995E-05
  1.528100700E+04 -1.682299998E-04
  3.441539200E+03 -7.084299991E-04
  9.670948300E+02 -2.767999996E-03
  3.140353400E+02 -9.611379987E-03
  1.134423000E+02 -2.833957996E-02
  4.464472700E+01 -6.839343991E-02
  1.894287400E+01 -1.237379298E-01
  8.532743000E+00 -1.512859698E-01
  3.919401000E+00 -9.099909988E-03
  1.568157000E+00  3.716257695E-01
  6.232900000E-01  5.500214393E-01
  2.408610000E-01  2.092318697E-01
  8.430100000E-02  8.074639989E-03
   p   9
  2.453302900E+02  1.024860004E-03
  5.691900500E+01  8.344290032E-03
  1.760456800E+01  4.078927016E-02
  6.274995000E+00  1.351370605E-01
  2.447030000E+00  2.798830811E-01
  9.950600000E-01  3.597966414E-01
  4.039730000E-01  3.055347412E-01
  1.548100000E-01  1.354703905E-01
  5.418400000E-02  2.804449011E-02
 
   2
   s  14
  1.031094600E+05  1.713099991E-04
  1.528100700E+04  7.123999962E-04
  3.441539200E+03  2.990479984E-03
  9.670948300E+02  1.164036994E-02
  3.140353400E+02  3.968642979E-02
  1.134423000E+02  1.128546094E-01
  4.464472700E+01  2.473650687E-01
  1.894287400E+01  3.672702681E-01
  8.532743000E+00  2.896286985E-01
  3.919401000E+00  7.786681959E-02
  1.568157000E+00  4.562139976E-03
  6.232900000E-01  2.468879987E-03
  2.408610000E-01  1.106309994E-03
  8.430100000E-02  1.739699991E-04
   s  14
  1.031094600E+05 -4.044999995E-05
  1.528100700E+04 -1.682299998E-04
  3.441539200E+03 -7.084299991E-04
  9.670948300E+02 -2.767999996E-03
  3.140353400E+02 -9.611379987E-03
  1.134423000E+02 -2.833957996E-02
  4.464472700E+01 -6.839343991E-02
  1.894287400E+01 -1.237379298E-01
  8.532743000E+00 -1.512859698E-01
  3.919401000E+00 -9.099909988E-03
  1.568157000E+00  3.716257695E-01
  6.232900000E-01  5.500214393E-01
  2.408610000E-01  2.092318697E-01
  8.430100000E-02  8.074639989E-03
   p   9
  2.453302900E+02  1.024860004E-03
  5.691900500E+01  8.344290032E-03
  1.760456800E+01  4.078927016E-02
  6.274995000E+00  1.351370605E-01
  2.447030000E+00  2.798830811E-01
  9.950600000E-01  3.597966414E-01
  4.039730000E-01  3.055347412E-01
  1.548100000E-01  1.354703905E-01
  5.418400000E-02  2.804449011E-02
 
[MO]
Sym=     1a  
Ene=   -26.4790
Spin= Alpha
Occup=    1.00000
   1         0.70710124
   2        -0.00242815
   3        -0.00000000
   4         0.00000000
   5         0.00007212
   6         0.70710158
   7        -0.00242815
   8        -0.00000000
   9        -0.00000000
  10        -0.00007212
Sym=     1a  
Ene=   -26.4790
Spin= Beta
Occup=    1.00000
   1         0.70710124
   2        -0.00242815
   3        -0.00000000
   4         0.00000000
   5         0.00007212
   6         0.70710158
   7        -0.00242815
   8        -0.00000000
   9        -0.00000000
  10        -0.00007212
Sym=     2a  
Ene=   -26.4790
Spin= Alpha
Occup=    1.00000
   1        -0.70710402
   2         0.00240885
   3        -0.00000000
   4         0.00000000
   5        -0.00006029
   6         0.70710368
   7        -0.00240885
   8        -0.00000000
   9        -0.00000000
  10        -0.00006029
Sym=     2a  
Ene=   -26.4790
Spin= Beta
Occup=    1.00000
   1        -0.70710402
   2         0.00240885
   3        -0.00000000
   4         0.00000000
   5        -0.00006029
   6         0.70710368
   7        -0.00240885
   8        -0.00000000
   9        -0.00000000
  10        -0.00006029
Sym=     3a  
Ene=    -1.6247
Spin= Alpha
Occup=    1.00000
   1         0.00225958
   2         0.70412360
   3        -0.00000000
   4         0.00000000
   5         0.00792936
   6         0.00225958
   7         0.70412360
   8        -0.00000000
   9        -0.00000000
  10        -0.00792936
Sym=     3a  
Ene=    -1.6247
Spin= Beta
Occup=    1.00000
   1         0.00225958
   2         0.70412360
   3        -0.00000000
   4         0.00000000
   5         0.00792936
   6         0.00225958
   7         0.70412360
   8        -0.00000000
   9        -0.00000000
  10        -0.00792936
Sym=     4a  
Ene=    -1.6122
Spin= Alpha
Occup=    1.00000
   1        -0.00253561
   2        -0.70940554
   3         0.00000000
   4         0.00000000
   5         0.01029788
   6         0.00253561
   7         0.70940554
   8        -0.00000000
   9         0.00000000
  10         0.01029788
Sym=     4a  
Ene=    -1.6122
Spin= Beta
Occup=    1.00000
   1        -0.00253561
   2        -0.70940554
   3         0.00000000
   4         0.00000000
   5         0.01029788
   6         0.00253561
   7         0.70940554
   8        -0.00000000
   9         0.00000000
  10         0.01029788
Sym=     5a  
Ene=    -0.7478
Spin= Alpha
Occup=    1.00000
   1        -0.00000000
   2        -0.00000000
   3        -0.37760830
   4         0.59158279
   5        -0.00000000
   6         0.00000000
   7         0.00000000
   8        -0.37760830
   9         0.59158279
  10        -0.00000000
Sym=     5a  
Ene=    -0.7478
Spin= Beta
Occup=    1.00000
   1        -0.00000000
   2        -0.00000000
   3        -0.37760830
   4         0.59158279
   5        -0.00000000
   6         0.00000000
   7         0.00000000
   8        -0.37760830
   9         0.59158279
  10        -0.00000000
Sym=     6a  
Ene=    -0.7478
Spin= Alpha
Occup=    1.00000
   1         0.00000000
   2         0.00000000
   3         0.59158279
   4         0.37760830
   5         0.00000000
   6         0.00000000
   7        -0.00000000
   8         0.59158279
   9         0.37760830
  10         0.00000000
Sym=     6a  
Ene=    -0.7478
Spin= Beta
Occup=    1.00000
   1         0.00000000
   2         0.00000000
   3         0.59158279
   4         0.37760830
   5         0.00000000
   6         0.00000000
   7        -0.00000000
   8         0.59158279
   9         0.37760830
  10         0.00000000
Sym=     7a  
Ene=    -0.7415
Spin= Alpha
Occup=    1.00000
   1         0.00000000
   2        -0.00000000
   3        -0.51121295
   4         0.49631785
   5        -0.00000000
   6         0.00000000
   7         0.00000000
   8         0.51121295
   9        -0.49631785
  10         0.00000000
Sym=     7a  
Ene=    -0.7415
Spin= Beta
Occup=    1.00000
   1         0.00000000
   2        -0.00000000
   3        -0.51121295
   4         0.49631785
   5        -0.00000000
   6         0.00000000
   7         0.00000000
   8         0.51121295
   9        -0.49631785
  10         0.00000000
Sym=     8a  
Ene=    -0.7415
Spin= Alpha
Occup=    1.00000
   1         0.00000000
   2        -0.00000000
   3        -0.49631785
   4        -0.51121295
   5        -0.00000000
   6        -0.00000000
   7         0.00000000
   8         0.49631785
   9         0.51121295
  10         0.00000000
Sym=     8a  
Ene=    -0.7415
Spin= Beta
Occup=    1.00000
   1         0.00000000
   2        -0.00000000
   3        -0.49631785
   4        -0.51121295
   5        -0.00000000
   6        -0.00000000
   7         0.00000000
   8         0.49631785
   9         0.51121295
  10         0.00000000
Sym=     9a  
Ene=    -0.5284
Spin= Alpha
Occup=    1.00000
   1         0.00169394
   2         0.03020114
   3         0.00000000
   4        -0.00000000
   5        -0.68989506
   6         0.00169394
   7         0.03020114
   8        -0.00000000
   9        -0.00000000
  10         0.68989506
Sym=     9a  
Ene=    -0.5284
Spin= Beta
Occup=    1.00000
   1         0.00169394
   2         0.03020114
   3         0.00000000
   4        -0.00000000
   5        -0.68989506
   6         0.00169394
   7         0.03020114
   8        -0.00000000
   9        -0.00000000
  10         0.68989506
Sym=    10a  
Ene=    -0.2679
Spin= Alpha
Occup=    0.00000
   1         0.00166607
   2         0.03369439
   3        -0.00000000
   4         0.00000000
   5         0.72635051
   6        -0.00166607
   7        -0.03369439
   8        -0.00000000
   9        -0.00000000
  10         0.72635051
Sym=    10a  
Ene=    -0.2679
Spin= Beta
Occup=    0.00000
   1         0.00166607
   2         0.03369439
   3        -0.00000000
   4         0.00000000
   5         0.72635051
   6        -0.00166607
   7        -0.03369439
   8        -0.00000000
   9        -0.00000000
  10         0.72635051
