[Molden Format]
[N_Atoms]
                     2
[Atoms] (AU)
B1          1      5           0.00000000      0.00000000      0.00000000
F2          2      9           0.00000000      0.00000000      2.26767135
[Charge] (Mulliken)
   2.23691659668217     
 -0.236916596682208     
[GTO] (AU)
   1
   s  14
  3.336021700E+04  1.039699991E-04
  4.972095200E+03  5.254399956E-04
  1.125641700E+03  2.509059979E-03
  3.164913600E+02  1.031887991E-02
  1.020072600E+02  3.636632969E-02
  3.629587300E+01  1.064607991E-01
  1.397141000E+01  2.403999880E-01
  5.741156000E+00  3.748581168E-01
  2.494268000E+00  3.100066974E-01
  1.114202000E+00  7.922455933E-02
  4.215490000E-01 -4.947589958E-03
  1.696330000E-01 -7.737119935E-03
  6.853500000E-02 -1.501079987E-03
  2.398700000E-02 -1.333299989E-04
   s  14
  3.336021700E+04 -2.030000008E-05
  4.972095200E+03 -1.025700004E-04
  1.125641700E+03 -4.911300020E-04
  3.164913600E+02 -2.026570008E-03
  1.020072600E+02 -7.261010030E-03
  3.629587300E+01 -2.197722009E-02
  1.397141000E+01 -5.408428022E-02
  5.741156000E+00 -1.022402604E-01
  2.494268000E+00 -1.423595206E-01
  1.114202000E+00 -4.658690019E-02
  4.215490000E-01  3.799402916E-01
  1.696330000E-01  5.890463624E-01
  6.853500000E-02  1.749075107E-01
  2.398700000E-02 -1.142030005E-03
   p   9
  5.500000000E+01  1.229800005E-03
  1.336610100E+01  8.827380035E-03
  4.135394000E+00  3.843340015E-02
  1.481256000E+00  1.150031805E-01
  6.021360000E-01  2.733674011E-01
  2.556360000E-01  4.061972116E-01
  1.111510000E-01  3.014967912E-01
  4.764800000E-02  7.684809030E-02
  1.667700000E-02 -8.170000032E-06
 
   2
   s  14
  1.031094600E+05  1.713099991E-04
  1.528100700E+04  7.123999962E-04
  3.441539200E+03  2.990479984E-03
  9.670948300E+02  1.164036994E-02
  3.140353400E+02  3.968642979E-02
  1.134423000E+02  1.128546094E-01
  4.464472700E+01  2.473650687E-01
  1.894287400E+01  3.672702681E-01
  8.532743000E+00  2.896286985E-01
  3.919401000E+00  7.786681959E-02
  1.568157000E+00  4.562139976E-03
  6.232900000E-01  2.468879987E-03
  2.408610000E-01  1.106309994E-03
  8.430100000E-02  1.739699991E-04
   s  14
  1.031094600E+05 -4.044999995E-05
  1.528100700E+04 -1.682299998E-04
  3.441539200E+03 -7.084299991E-04
  9.670948300E+02 -2.767999996E-03
  3.140353400E+02 -9.611379987E-03
  1.134423000E+02 -2.833957996E-02
  4.464472700E+01 -6.839343991E-02
  1.894287400E+01 -1.237379298E-01
  8.532743000E+00 -1.512859698E-01
  3.919401000E+00 -9.099909988E-03
  1.568157000E+00  3.716257695E-01
  6.232900000E-01  5.500214393E-01
  2.408610000E-01  2.092318697E-01
  8.430100000E-02  8.074639989E-03
   p   9
  2.453302900E+02  1.024860004E-03
  5.691900500E+01  8.344290032E-03
  1.760456800E+01  4.078927016E-02
  6.274995000E+00  1.351370605E-01
  2.447030000E+00  2.798830811E-01
  9.950600000E-01  3.597966414E-01
  4.039730000E-01  3.055347412E-01
  1.548100000E-01  1.354703905E-01
  5.418400000E-02  2.804449011E-02
 
[MO]
Sym=     1a  
Ene=   -27.2560
Spin= Alpha
Occup=    2.00000
   1        -0.00021085
   2        -0.00060939
   3         0.00011624
   4        -0.00000416
   5        -0.00024609
   6         1.00003908
   7        -0.00297346
   8         0.00024750
   9        -0.00000886
  10        -0.00149355
Sym=     2a  
Ene=    -8.9932
Spin= Alpha
Occup=    2.00000
   1         0.99975074
   2         0.01127334
   3         0.00127879
   4        -0.00004577
   5        -0.00093914
   6        -0.00011846
   7         0.00228001
   8         0.00445329
   9        -0.00015940
  10        -0.00067771
Sym=     3a  
Ene=    -2.4952
Spin= Alpha
Occup=    2.00000
   1        -0.06485865
   2         0.04346591
   3         0.03193194
   4        -0.00114294
   5         0.07516857
   6        -0.00464959
   7         0.90695306
   8         0.13311692
   9        -0.00476464
  10        -0.20721701
Sym=     4a  
Ene=    -1.5526
Spin= Alpha
Occup=    2.00000
   1        -0.06435365
   2         0.21616493
   3         0.05812459
   4        -0.00208045
   5         0.18817094
   6        -0.02569372
   7        -0.44565797
   8         0.25178289
   9        -0.00901203
  10        -0.80417019
Sym=     5a  
Ene=    -1.4768
Spin= Alpha
Occup=    2.00000
   1         0.00000000
   2        -0.00000000
   3         0.00691503
   4         0.19319572
   5         0.00000000
   6        -0.00000000
   7        -0.00000000
   8         0.03307037
   9         0.92393723
  10         0.00000000
Sym=     6a  
Ene=    -1.4942
Spin= Alpha
Occup=    1.98571
   1        -0.02250659
   2         0.08745141
   3        -0.22440056
   4         0.00803194
   5         0.06476826
   6        -0.00854874
   7         0.00430514
   8        -0.85738687
   9         0.03068834
  10        -0.25695647
Sym=     7a  
Ene=    -0.0007
Spin= Alpha
Occup=    0.01429
   1        -0.03149533
   2        -0.41626051
   3         0.95548954
   4        -0.03419972
   5        -0.19423310
   6         0.03278787
   7         0.25647053
   8        -0.50169922
   9         0.01795726
  10        -0.24311377
Sym=     8a  
Ene=    -0.9051
Spin= Alpha
Occup=    0.00000
   1         0.01482807
   2         0.83908732
   3         0.23007516
   4        -0.00823505
   5        -0.52584704
   6         0.00168628
   7        -0.03819380
   8        -0.10535154
   9         0.00377083
  10         0.23106582
Sym=     9a  
Ene=    -0.6768
Spin= Alpha
Occup=    0.00000
   1        -0.00000000
   2         0.00000000
   3        -0.03687646
   4        -1.03027371
   5        -0.00000000
   6         0.00000000
   7         0.00000000
   8         0.01772122
   9         0.49510453
  10         0.00000000
Sym=    10a  
Ene=    -0.2634
Spin= Alpha
Occup=    0.00000
   1        -0.09360117
   2        -0.75245974
   3        -0.27953225
   4         0.01000526
   5        -1.10101665
   6         0.11486677
   7         0.85271390
   8         0.14050117
   9        -0.00502894
  10        -0.62543382
