[Molden Format]
[N_Atoms]
                     2
[Atoms] (AU)
BE1         1      4           0.00000000      0.00000000      0.00000000
N2          2      7           0.00000000      0.00000000      5.10226054
[Charge] (Mulliken)
 -5.614227239669489E-002
  5.614227239664871E-002
[GTO] (AU)
   1
   s  14
  2.262859900E+04  8.443999941E-05
  3.372318100E+03  4.601499968E-04
  7.603504000E+02  2.285389984E-03
  2.117404800E+02  9.648129932E-03
  6.722346800E+01  3.494469975E-02
  2.337217700E+01  1.061099893E-01
  8.721373000E+00  2.458240383E-01
  3.468091000E+00  3.862428773E-01
  1.452144000E+00  3.105526078E-01
  6.086150000E-01  6.415933955E-02
  2.576860000E-01 -2.265049984E-03
  1.041760000E-01 -5.217499963E-04
  4.242700000E-02 -8.757499938E-04
  1.484900000E-02  1.242199991E-04
   s  14
  2.262859900E+04 -1.586999994E-05
  3.372318100E+03 -8.656999968E-05
  7.603504000E+02 -4.302199984E-04
  2.117404800E+02 -1.825079993E-03
  6.722346800E+01 -6.682749976E-03
  2.337217700E+01 -2.095119992E-02
  8.721373000E+00 -5.200308981E-02
  3.468091000E+00 -9.849176964E-02
  1.452144000E+00 -1.355800695E-01
  6.086150000E-01 -6.429875976E-02
  2.576860000E-01  3.125414989E-01
  1.041760000E-01  6.270468577E-01
  4.242700000E-02  2.110231492E-01
  1.484900000E-02 -4.104669985E-03
   p   9
  3.371018400E+01  1.069960000E-03
  8.057649500E+00  6.828550001E-03
  2.836471400E+00  2.119065000E-02
  1.099965700E+00  5.843696001E-02
  4.433964000E-01  2.020920800E-01
  1.822264000E-01  4.582953101E-01
  7.572410000E-02  3.691239601E-01
  3.168540000E-02  6.611471001E-02
  1.108990000E-02  1.405160000E-03
 
   2
   s  14
  7.476171500E+04  1.182599996E-04
  1.112365400E+04  5.172899983E-04
  2.512685700E+03  2.266659992E-03
  7.037772900E+02  9.145289970E-03
  2.254787900E+02  3.239342989E-02
  7.961581000E+01  9.770792967E-02
  3.023728300E+01  2.317036792E-01
  1.226362200E+01  3.768898887E-01
  5.265086000E+00  3.177420689E-01
  2.333471000E+00  8.211308973E-02
  9.018560000E-01  3.312089989E-03
  3.583360000E-01  3.720819988E-03
  1.410930000E-01  3.165419989E-03
  4.938300000E-02  4.595799985E-04
   s  14
  7.476171500E+04 -2.707000010E-05
  1.112365400E+04 -1.183700004E-04
  2.512685700E+03 -5.203800020E-04
  7.037772900E+02 -2.102930008E-03
  2.254787900E+02 -7.568200028E-03
  7.961581000E+01 -2.346767009E-02
  3.023728300E+01 -6.042901023E-02
  1.226362200E+01 -1.170549104E-01
  5.265086000E+00 -1.555321506E-01
  2.333471000E+00 -2.468935009E-02
  9.018560000E-01  3.625054514E-01
  3.583360000E-01  5.550845021E-01
  1.410930000E-01  2.148376908E-01
  4.938300000E-02  8.983850034E-03
   p   9
  1.266665700E+02  1.233630000E-03
  2.983738900E+01  9.493409996E-03
  9.394038000E+00  4.293961998E-02
  3.405104000E+00  1.362925399E-01
  1.350000000E+00  2.921362499E-01
  5.576960000E-01  3.887887598E-01
  2.324490000E-01  2.946801399E-01
  9.426400000E-02  8.012875997E-02
  3.299200000E-02  5.405199998E-04
 
[MO]
Sym=     1a  
Ene=   -15.6220
Spin= Alpha
Occup=    1.00000
   1        -0.00004253
   2        -0.00060692
   3        -0.00000000
   4        -0.00000000
   5        -0.00074575
   6         1.00001006
   7        -0.00443468
   8        -0.00000000
   9         0.00000000
  10        -0.00030054
Sym=     1a  
Ene=   -15.5890
Spin= Beta
Occup=    1.00000
   1        -0.00003504
   2        -0.00042539
   3        -0.00000000
   4        -0.00000000
   5        -0.00047934
   6         0.99998993
   7        -0.00677283
   8         0.00000000
   9         0.00000000
  10        -0.00021657
Sym=     2a  
Ene=    -4.6765
Spin= Alpha
Occup=    1.00000
   1         0.99999746
   2         0.00216096
   3         0.00000000
   4         0.00000000
   5         0.00077615
   6        -0.00001574
   7        -0.00007916
   8        -0.00000000
   9        -0.00000000
  10        -0.00001698
Sym=     2a  
Ene=    -4.6760
Spin= Beta
Occup=    1.00000
   1         0.99999660
   2         0.00228954
   3        -0.00000000
   4        -0.00000000
   5         0.00045151
   6        -0.00001088
   7        -0.00000716
   8         0.00000000
   9         0.00000000
  10        -0.00008256
Sym=     3a  
Ene=    -1.0281
Spin= Alpha
Occup=    1.00000
   1        -0.00308868
   2         0.00579217
   3        -0.00000000
   4        -0.00000000
   5         0.00397415
   6         0.00452580
   7         0.99828652
   8        -0.00000000
   9        -0.00000000
  10        -0.01656731
Sym=     3a  
Ene=    -0.8844
Spin= Beta
Occup=    1.00000
   1        -0.00305144
   2         0.02139074
   3         0.00000000
   4         0.00000000
   5         0.01973423
   6         0.00631681
   7         0.99284998
   8         0.00000000
   9         0.00000000
  10        -0.00662018
Sym=     4a  
Ene=    -0.5472
Spin= Alpha
Occup=    1.00000
   1         0.00000000
   2         0.00000000
   3         0.01389721
   4        -0.00431772
   5        -0.00000000
   6         0.00000000
   7        -0.00000000
   8         0.95392924
   9        -0.29637565
  10        -0.00000000
Sym=     4a  
Ene=    -0.4421
Spin= Beta
Occup=    1.00000
   1         0.00833874
   2        -0.21340496
   3        -0.00000000
   4        -0.00000000
   5        -0.07649536
   6         0.00381117
   7         0.05957477
   8        -0.00000000
   9        -0.00000000
  10         0.93520843
Sym=     5a  
Ene=    -0.4856
Spin= Alpha
Occup=    1.00000
   1         0.00834869
   2        -0.16747367
   3         0.00000000
   4         0.00000000
   5        -0.07377778
   6         0.00324295
   7         0.05435232
   8         0.00000000
   9         0.00000000
  10         0.95018390
Sym=     5a  
Ene=    -0.2704
Spin= Beta
Occup=    1.00000
   1         0.00060206
   2         0.97578768
   3        -0.00000000
   4        -0.00000000
   5        -0.16374603
   6        -0.00634087
   7        -0.09825533
   8        -0.00000000
   9        -0.00000000
  10         0.29015666
Sym=     6a  
Ene=    -0.2694
Spin= Alpha
Occup=    1.00000
   1         0.00067359
   2         1.00249277
   3         0.00000000
   4         0.00000000
   5        -0.00102993
   6        -0.00959775
   7        -0.12360551
   8         0.00000000
   9         0.00000000
  10         0.28981791
Sym=     6a  
Ene=     0.0880
Spin= Beta
Occup=    0.00000
   1         0.00000000
   2         0.00000000
   3         0.17850393
   4         0.57454155
   5        -0.00000000
   6         0.00000000
   7         0.00000000
   8         0.22521601
   9         0.72489134
  10         0.00000000
Sym=     7a  
Ene=     0.0597
Spin= Alpha
Occup=    0.00000
   1        -0.00000000
   2        -0.00000000
   3         0.11107627
   4         0.35751556
   5         0.00000000
   6        -0.00000000
   7        -0.00000000
   8         0.26770400
   9         0.86164528
  10        -0.00000000
Sym=     7a  
Ene=     0.1120
Spin= Beta
Occup=    0.00000
   1        -0.00000000
   2        -0.00000000
   3         0.87967588
   4        -0.27330592
   5         0.00000000
   6        -0.00000000
   7        -0.00000000
   8         0.31684743
   9        -0.09844112
  10         0.00000000
Sym=     8a  
Ene=     0.1221
Spin= Alpha
Occup=    0.00000
   1        -0.00000000
   2         0.00000000
   3         0.95706706
   4        -0.29735053
   5         0.00000000
   6        -0.00000000
   7        -0.00000000
   8        -0.07867331
   9         0.02444296
  10         0.00000000
Sym=     8a  
Ene=     0.1434
Spin= Beta
Occup=    0.00000
   1        -0.00000000
   2        -0.00000000
   3        -0.23784938
   4        -0.76555372
   5        -0.00000000
   6         0.00000000
   7         0.00000000
   8         0.19420023
   9         0.62506243
  10        -0.00000000
Sym=     9a  
Ene=     0.1321
Spin= Alpha
Occup=    0.00000
   1        -0.00000000
   2         0.00000000
   3        -0.27585874
   4        -0.88789251
   5         0.00000000
   6        -0.00000000
   7        -0.00000000
   8         0.12950115
   9         0.41681878
  10        -0.00000000
Sym=     9a  
Ene=     0.1630
Spin= Beta
Occup=    0.00000
   1         0.00243036
   2         0.19100528
   3        -0.00000000
   4        -0.00000000
   5         1.02345244
   6        -0.02240654
   7        -0.25478460
   8         0.00000000
   9         0.00000000
  10         0.30314209
Sym=    10a  
Ene=     0.1585
Spin= Alpha
Occup=    0.00000
   1         0.00192406
   2         0.03964221
   3         0.00000000
   4         0.00000000
   5         1.03684516
   6        -0.02081583
   7        -0.22155644
   8        -0.00000000
   9        -0.00000000
  10         0.25224249
Sym=    10a  
Ene=     0.1943
Spin= Beta
Occup=    0.00000
   1         0.00000000
   2         0.00000000
   3        -0.37728085
   4         0.11721714
   5         0.00000000
   6        -0.00000000
   7        -0.00000000
   8         0.90320440
   9        -0.28061598
  10         0.00000000
