   This run of MOLCAS is using the pymolcas driver

                             OPE
                             OPE          NMOL  CASOP  ENMOLC A   SO
                 OPE        NMOLC        AS  OP EN  MO LC     AS  OP
                OPENM       OL CA        SO  PE NM  OL CA     SOP EN
                OP EN      MO   LC       AS  OP ENMOL  CASO   PENMOL
                OP  EN     MO   LC       AS  OP EN     MO     LC ASO
               OP   E  NMOL  C  AS       OP  EN MO     LC     AS  OP
               OP  E   NMO   LC AS        OPEN  MO     LCASOP EN   M
               O  PEN   MO  LCA  SO
            OPE   NMO   L   CAS    OP
        OPENMOL  CASOP     ENMOL   CASOPE
     OPENMOLCA   SOPENMOLCASOPEN   MOLCASOPE
    OPENMOLCAS   OP           EN   MOL    CAS
    OPENMOLCAS       OP  ENM        O     LCA
    OPENMOLCAS    OPEN  MOLCASO     P  E  NMO
    OPENMOLCAS     OP               E  N  MOL
    OPENMOLCA   SO           PENM   O  L  CAS    OPEN    MO    LCAS
    OPENMOLCA   SOP           ENM   O  L  CAS   OP  EN  MOLC  AS   O
    OPENMOLCA   SOPE           NM      O  LCA   S      OP  EN MO
    OPENMOLC                AS         O  PEN   M      OL  CA  SOPE
    OPENMO        LCASOPE  NMOL        C  ASO   P      ENMOLC     AS
    OPE     NMO      LCA  SO     P     E   NM   OL  CA SO  PE N   MO
          OPENMOLCA            SOPE   NMO        LCAS  O    P  ENMO
     OPENMOLCASOPENMOLCASOPENMOLCASOPENMOLCA
        OPENMOLCASOPENMOLCASOPENMOLCASOPE
            OPENMOLCASOPENMOLCASOPENM
               OPENMOLCASOPENMOLCA        version: 24.02
                   OPENMOLCASO
                       OPE                tag: 126-g611b04c8f

 OpenMolcas is free software; you can redistribute it and/or modify it
 under the terms of the GNU Lesser General Public License version 2.1.
 OpenMolcas is distributed in the hope that it will be useful, but it
 is provided "as is" and without any express or implied warranties.
 For more details see the full text of the license in the file
 LICENSE or in <http://www.gnu.org/licenses/>.

                 Copyright (C) The OpenMolcas Authors
           For the author list and the recommended citation,
                   consult the file CONTRIBUTORS.md

           *************************************************
           * pymolcas version py2.28                       *
           *   build c4a6d18ded8cb6cad61d2372a9abd97c      *
           *   (after the EMIL interpreter by V. Veryazov) *
           *************************************************

configuration info
------------------
Host name: debian (Linux)
C Compiler ID: GNU
C flags: -std=gnu99
Fortran Compiler ID: Intel
Fortran flags: -fpp -i8 -heap-arrays
Definitions: _MOLCAS_;_I8_;_LINUX_
Parallel: OFF (GA=OFF)


   ------------------------------------------------------------------
  |
  |              Project: 2.70
  |       Submitted from: /home/grierjones/DDCASPT2/delta_ML/BeN/2.70
  |         Scratch area: /tmp/2.70
  |      Save outputs to: /home/grierjones/DDCASPT2/delta_ML/BeN/2.70
  |               Molcas: /usr/local
  |
  | Scratch area is empty
  |
  |       MOLCAS_DRIVER = /usr/local/pymolcas
  | MOLCAS_KEEP_WORKDIR = NO
  |  MOLCAS_NEW_WORKDIR = YES
  |       MOLCAS_NPROCS = 1
  |       MOLCAS_SOURCE = /usr/local
  |    MOLCAS_STRUCTURE = 0
  |
   ------------------------------------------------------------------

++ ---------   Input file   ---------

&GATEWAY
coord=2.70.xyz
Basis = ANO-RCC-MB
Group = nosymm
End of Input

&SEWARD
End of Input

&SCF
UHF

&MBPT2
Frozen
0

&RASSCF
Title= RASSCF
FileOrb
/home/grierjones/DDCASPT2/delta_ML/BeN/2.60/2.60.RasOrb

NACTEL
1 0 0
Inactive
5
RAS2
2
Symmetry
1
Spin
2
orblisting
all
ITERation
200 100
CIMX
200
SDAV
500

&CASPT2
Imaginary Shift
0.0
Frozen
0

-- ----------------------------------

--- Start Module: gateway at Thu Apr 25 13:45:22 2024 ---
 
()()()()()()()()()()()()()()()()()()()()()()()()()()()()()()()()()()()()()()()()()()()()()()()()()()

                                              &GATEWAY

                                   only a single process is used
                       available to each process: 2.0 GB of memory, 1 thread?
                                            pid: 102382
()()()()()()()()()()()()()()()()()()()()()()()()()()()()()()()()()()()()()()()()()()()()()()()()()()
 
 
++    Symmetry information:
      ---------------------
 
                    Character Table for C1 
 
                             E  
                    a        1  x, y, xy, Rz, z, xz, Ry, yz, Rx, I
--
 
 
++    Basis set information:
      ----------------------
 
 
      Basis set label: BE.ANO-RCC...2S1P.
 
      Electronic valence basis set:
      ------------------
      Associated Effective Charge   4.000000 au
      Associated Actual Charge      4.000000 au
      Nuclear Model: Point charge
 
      Shell  nPrim  nBasis  Cartesian Spherical Contaminant
         s      14       2        X                  
         p       9       1        X                  
 
 
      Basis set label: N.ANO-RCC...2S1P.
 
      Electronic valence basis set:
      ------------------
      Associated Effective Charge   7.000000 au
      Associated Actual Charge      7.000000 au
      Nuclear Model: Point charge
 
      Shell  nPrim  nBasis  Cartesian Spherical Contaminant
         s      14       2        X                  
         p       9       1        X                  
--
 
 
++    Molecular structure info:
      -------------------------
 
                    ************************************************ 
                    **** Cartesian Coordinates / Bohr, Angstrom **** 
                    ************************************************ 
 
     Center  Label                x              y              z                     x              y              z
        1      BE1              0.000000       0.000000       0.000000              0.000000       0.000000       0.000000
        2      N2               0.000000       0.000000       5.102261              0.000000       0.000000       2.700000
--
 
 
            Nuclear Potential Energy              5.48776367 au
 
--- Stop Module: gateway at Thu Apr 25 13:45:22 2024 /rc=_RC_ALL_IS_WELL_ ---
*** files: xmldump
    saved to directory /home/grierjones/DDCASPT2/delta_ML/BeN/2.70

--- Start Module: seward at Thu Apr 25 13:45:22 2024 ---
 
()()()()()()()()()()()()()()()()()()()()()()()()()()()()()()()()()()()()()()()()()()()()()()()()()()

                                              &SEWARD

                                   only a single process is used
                       available to each process: 2.0 GB of memory, 1 thread?
                                            pid: 102385
()()()()()()()()()()()()()()()()()()()()()()()()()()()()()()()()()()()()()()()()()()()()()()()()()()
 
               SEWARD will generate:
                  Multipole Moment integrals up to order  2
                  Kinetic Energy integrals
                  Nuclear Attraction integrals (point charge)
                  One-Electron Hamiltonian integrals
                  Velocity integrals
                  Relativistic Douglas-Kroll-Hess integrals:
                    - Parametrization         : EXP
                    - DKH order of Hamiltonian: 2
                    - DKH order of Properties : 0
                         - multipole moment operators
                         - electric potential operators
                         - contact operators
                  Orbital angular momentum around ( 0.0000  0.0000  3.1043 )
                  Velocity quadrupole around ( 0.0000  0.0000  3.1043 )
                  Atomic mean-field integrals
                  Two-Electron Repulsion integrals
 
                   Integrals are discarded if absolute value <: 1.00E-14
                   Integral cutoff threshold is set to       <: 1.00E-16
 
            Nuclear Potential Energy              5.48776367 au
 
 
      Basis set specifications :
      Symmetry species         a  
      Basis functions           10
 
 
      Input file to MOLDEN was generated!
 
--- Stop Module: seward at Thu Apr 25 13:45:23 2024 /rc=_RC_ALL_IS_WELL_ ---
*** files: 2.70.GssOrb 2.70.guessorb.h5 2.70.guessorb.molden xmldump
    saved to directory /home/grierjones/DDCASPT2/delta_ML/BeN/2.70

*** symbolic link created: INPORB -> 2.70.GssOrb
--- Start Module: scf at Thu Apr 25 13:45:23 2024 ---
 
()()()()()()()()()()()()()()()()()()()()()()()()()()()()()()()()()()()()()()()()()()()()()()()()()()

                                                &SCF

                                   only a single process is used
                       available to each process: 2.0 GB of memory, 1 thread?
                                            pid: 102390
()()()()()()()()()()()()()()()()()()()()()()()()()()()()()()()()()()()()()()()()()()()()()()()()()()
 
++    Input section:
      --------------
 
      Header of the integral files:
      
       Integrals generated by Gateway/Seward, Thu Apr 25 13:45:23 2024
 
 
      Cartesian coordinates in Angstrom:
      -----------------------------------------------------
      No.  Label        X            Y            Z        
      -----------------------------------------------------
       1   BE1        0.00000000   0.00000000   0.00000000
       2   N2         0.00000000   0.00000000   2.70000000
      -----------------------------------------------------
      Nuclear repulsion energy =    5.48776367
--
 
++    Orbital specifications:
      -----------------------
 
      Symmetry species               1
                                     a
      Frozen orbitals                0
      Occupied orbitals alpha        6
      Occupied orbitals beta         5
      Secondary orbitals alpha       4
      Secondary orbitals beta        5
      Deleted orbitals               0
      Total number of orbitals      10
      Number of basis functions     10
--
 
      Molecular charge                           0.000
 
++    Optimization specifications:
      ----------------------------
 
      SCF Algorithm: Conventional USCF
      D(i)-D(i-1) density differences are used
      Number of density matrices in core                 5
      Maximum number of NDDO SCF iterations            400
      Maximum number of HF SCF iterations              400
      Threshold for SCF energy change             1.00E-09
      Threshold for density matrix                1.00E-04
      Threshold for Fock matrix                   1.50E-04
      Threshold for linear dependence             1.00E-09
      Threshold at which DIIS is turned on        1.50E-01
      Maximum depth in the DIIS procedure                5
      Maximum depth in the BFGS Hessian update          30
      Threshold at which QNR/C2DIIS is turned on  7.50E-02
      Threshold for Norm(delta) (QNR/C2DIIS)      1.00E-03
      All orbitals punched on: UHFORB
--
 
      Input vectors read from INPORB
      Orbital file label: *Guess orbitals
 
 
++ Convergence information
                               UHF SCF        iterations: Energy and convergence statistics
 
Iter     Tot. SCF        One-elec.       Two-elec.     Energy      Max Dij or  Max Fij      DNorm      TNorm      AccCon     Time
         Energy          Energy          Energy        Change      Delta Norm                                                in Sec.
   1   -67.803825823  -109.561564626    36.269975134   0.00E+00    8.18E-01*   2.24E-01*    4.70E+00   1.80E+01   None         0.
   2   -63.627834127   -92.481861708    23.366263913   4.18E+00*   4.92E-01*   2.51E-01*    4.94E+00   1.35E+01   EDIIS        0.
   3   -68.331364579  -100.993199191    27.174070943  -4.70E+00*   3.54E-01*   1.82E-01*    3.22E+00   1.54E+01   EDIIS        0.
   4   -68.790375374  -103.300393181    29.022254139  -4.59E-01*   2.80E-01*   8.31E-02*    1.44E+00   1.61E+01   EDIIS        0.
   5   -68.840685428  -104.019887991    29.691438895  -5.03E-02*   6.21E-02*   1.92E-02*    8.52E-01   1.63E+01   EDIIS        0.
   6   -68.842723232  -104.131600783    29.801113882  -2.04E-03*   6.30E-03*   8.06E-03*    1.79E-01   1.63E+01   c2DIIS       0.
   7   -68.842910878  -104.169951422    29.839276875  -1.88E-04*   6.17E-03*   8.73E-04*    1.42E-02   1.63E+01   QNRc2DIIS    0.
   8   -68.842919384  -104.170379823    29.839696771  -8.51E-06*   3.11E-02*   7.97E-04*    9.22E-03   1.63E+01   QNRc2DIIS    0.
   9   -68.842943700  -104.171829096    29.841121728  -2.43E-05*   2.33E-02*   9.06E-04*    4.78E-02   1.63E+01   QNRc2DIIS    0.
  10   -68.842956961  -104.172235137    29.841514507  -1.33E-05*   8.01E-02*   1.26E-03*    3.69E-02   1.63E+01   QNRc2DIIS    0.
  11   -68.842994327  -104.170372861    29.839614866  -3.74E-05*   3.81E-03*   3.27E-05     1.30E-01   1.63E+01   QNRc2DIIS    0.
  12   -68.842994377  -104.170348571    29.839590525  -5.01E-08*   1.09E-03*   1.09E-05     6.10E-03   1.63E+01   QNRc2DIIS    0.
  13   -68.842994379  -104.170342459    29.839584411  -1.97E-09*   4.39E-04    3.33E-06     1.75E-03   1.63E+01   QNRc2DIIS    0.
  14   -68.842994380  -104.170342445    29.839584396  -7.59E-10    4.68E-05    4.09E-07     7.03E-04   1.63E+01   QNRc2DIIS    0.
 
       Convergence after  14 Macro Iterations
--
 
 *****************************************************************************************************************************
 *                                                                                                                           *
 *                                             SCF/KS-DFT Program, Final results                                             *
 *                                                                                                                           *
 *                                                                                                                           *
 *                                                                                                                           *
 *                                                       Final Results                                                       *
 *                                                                                                                           *
 *****************************************************************************************************************************
 
::    Total SCF energy                                -68.8429943798
      One-electron energy                            -104.1703424445
      Two-electron energy                              29.8395843960
      Nuclear repulsion energy                          5.4877636686
      Kinetic energy (interpolated)                    69.6644081225
      Virial theorem                                    0.9882089899
      Total spin, S(S+1)                                0.7738676488
      Total spin, S                                     0.5118634536
      Max non-diagonal density matrix element           0.0000330179
      Max non-diagonal Fock matrix element              0.0000067988
 
 
      All orbitals with orbital energies smaller than  E(LUMO)+0.5 are printed
 
++    Molecular orbitals:
      -------------------
 
      Title: UHF orbitals (alpha)

      Molecular orbitals for symmetry species 1: a  
 
          Orbital            1         2         3         4         5         6         7         8         9        10    
          Energy          -15.6219   -4.6765   -1.0281   -0.5472   -0.4856   -0.2694    0.0597    0.1221    0.1321    0.1585
          Occ. No.          1.0000    1.0000    1.0000    1.0000    1.0000    1.0000    0.0000    0.0000    0.0000    0.0000
 
        1 BE1    1s        -0.0000    1.0000   -0.0031    0.0000    0.0083    0.0007   -0.0000   -0.0000   -0.0000    0.0019
        2 BE1    2s        -0.0006    0.0022    0.0058    0.0000   -0.1675    1.0025   -0.0000    0.0000    0.0000    0.0396
        3 BE1    2px       -0.0000    0.0000   -0.0000    0.0139    0.0000    0.0000    0.1111    0.9571   -0.2759    0.0000
        4 BE1    2py       -0.0000    0.0000   -0.0000   -0.0043    0.0000    0.0000    0.3575   -0.2974   -0.8879    0.0000
        5 BE1    2pz       -0.0007    0.0008    0.0040   -0.0000   -0.0738   -0.0010    0.0000    0.0000    0.0000    1.0368
        6 N2     1s         1.0000   -0.0000    0.0045    0.0000    0.0032   -0.0096   -0.0000   -0.0000   -0.0000   -0.0208
        7 N2     2s        -0.0044   -0.0001    0.9983   -0.0000    0.0544   -0.1236   -0.0000   -0.0000   -0.0000   -0.2216
        8 N2     2px       -0.0000   -0.0000   -0.0000    0.9539    0.0000    0.0000    0.2677   -0.0787    0.1295   -0.0000
        9 N2     2py        0.0000   -0.0000   -0.0000   -0.2964    0.0000    0.0000    0.8616    0.0244    0.4168   -0.0000
       10 N2     2pz       -0.0003   -0.0000   -0.0166   -0.0000    0.9502    0.2898   -0.0000    0.0000   -0.0000    0.2522
--
 
 
      Input file to MOLDEN was generated!
 
 
++    Static properties:
      ------------------
 
 
      LoProp Charges per center
 

                   BE1      N2    
      Nuclear      4.0000   7.0000
      Electronic  -4.0186  -6.9814
 
      Total       -0.0186   0.0186
--
 
 
      All orbitals with orbital energies smaller than  E(LUMO)+0.5 are printed
 
++    Molecular orbitals:
      -------------------
 
      Title: UHF orbitals (beta)

      Molecular orbitals for symmetry species 1: a  
 
          Orbital            1         2         3         4         5         6         7         8         9        10    
          Energy          -15.5895   -4.6760   -0.8844   -0.4421   -0.2704    0.0880    0.1120    0.1434    0.1630    0.1943
          Occ. No.          1.0000    1.0000    1.0000    1.0000    1.0000    0.0000    0.0000    0.0000    0.0000    0.0000
 
        1 BE1    1s        -0.0000    1.0000   -0.0031    0.0083    0.0006    0.0000   -0.0000   -0.0000    0.0024    0.0000
        2 BE1    2s        -0.0004    0.0023    0.0214   -0.2134    0.9758    0.0000   -0.0000   -0.0000    0.1910    0.0000
        3 BE1    2px       -0.0000   -0.0000    0.0000   -0.0000   -0.0000    0.1785    0.8797   -0.2378   -0.0000   -0.3773
        4 BE1    2py       -0.0000   -0.0000    0.0000   -0.0000   -0.0000    0.5745   -0.2733   -0.7656   -0.0000    0.1172
        5 BE1    2pz       -0.0005    0.0005    0.0197   -0.0765   -0.1637   -0.0000    0.0000   -0.0000    1.0235    0.0000
        6 N2     1s         1.0000   -0.0000    0.0063    0.0038   -0.0063    0.0000   -0.0000    0.0000   -0.0224   -0.0000
        7 N2     2s        -0.0068   -0.0000    0.9928    0.0596   -0.0983    0.0000   -0.0000    0.0000   -0.2548   -0.0000
        8 N2     2px        0.0000    0.0000    0.0000   -0.0000   -0.0000    0.2252    0.3168    0.1942    0.0000    0.9032
        9 N2     2py        0.0000    0.0000    0.0000   -0.0000   -0.0000    0.7249   -0.0984    0.6251    0.0000   -0.2806
       10 N2     2pz       -0.0002   -0.0001   -0.0066    0.9352    0.2902    0.0000    0.0000   -0.0000    0.3031    0.0000
--
 
 
++    Molecular charges:
      ------------------
 
      Mulliken charges per centre and basis function type
      ---------------------------------------------------
 
                            BE1                     N2    
                     alpha        beta       alpha        beta
      1s           1.0000      1.0000      1.0000      1.0000
      2s           1.0008      0.9769      0.9994      0.9949
      2px          0.0011      0.0000      0.9109      0.0000
      2pz          0.0175      0.0598      0.9823      0.9684
      2py          0.0001      0.0000      0.0879      0.0000
      Total        2.0195      2.0367      3.9805      2.9633
      Total              4.0561                  6.9439
 
      Charge           -0.0561                  0.0561
 
      Total electronic charge=   11.000000
 
      Total            charge=   -0.000000
--
 
 
      Input file to MOLDEN was generated!
 
 
++    Static properties:
      ------------------
 
 
      LoProp Charges per center
 

                   BE1      N2    
      Nuclear      4.0000   7.0000
      Electronic  -4.0186  -6.9814
 
      Total       -0.0186   0.0186
--
 
 
++    Natural Bond Order analysis
      ---------------------------
      Based on LoProp computed density
      -------------------------------------------------------------------------------------
      Atom A       Atom B       Bond Order
      -------------------------------------------------------------------------------------
      NBO located      1.000 non-bonded electrons on atom BE1       
      NBO located      0.986 non-bonded electrons on atom BE1       
      The remaining    3.500 electrons are to be considered as diffuse
--
 
 
++    Molecular orbitals:
      -------------------
 
      Title: Natural orbitals

      Molecular orbitals for symmetry species 1: a  
 
          Orbital            1         2         3         4         5         6         7         8         9        10    
          Energy          -15.6056   -4.6762   -0.9486   -0.4634   -0.2755   -0.1833    0.1581    0.0757    0.1239    0.1359
          Occ. No.          2.0000    2.0000    2.0000    2.0000    1.9877    1.0000    0.0123    0.0000    0.0000    0.0000
 
        1 BE1    1s        -0.0000    1.0000    0.0031   -0.0083    0.0033    0.0000   -0.0022    0.0000   -0.0000    0.0000
        2 BE1    2s         0.0014    0.0003   -0.1164    0.2289    0.9774    0.0000   -0.1157    0.0000    0.0000    0.0000
        3 BE1    2px        0.0000    0.0000   -0.0000    0.0000    0.0000    0.0139   -0.0000   -0.1111    0.9571    0.2759
        4 BE1    2py        0.0000    0.0000   -0.0000    0.0000    0.0000   -0.0043   -0.0000   -0.3575   -0.2974    0.8879
        5 BE1    2pz       -0.0008    0.0008   -0.0034    0.0737   -0.0863   -0.0000   -1.0333    0.0000    0.0000    0.0000
        6 N2     1s         1.0000   -0.0000   -0.0035   -0.0038   -0.0102    0.0000    0.0217   -0.0000   -0.0000   -0.0000
        7 N2     2s        -0.0050    0.0005   -0.9786   -0.0607   -0.2132   -0.0000    0.2389   -0.0000   -0.0000   -0.0000
        8 N2     2px        0.0000   -0.0000   -0.0000   -0.0000    0.0000    0.9539   -0.0000   -0.2677   -0.0787   -0.1295
        9 N2     2py        0.0000   -0.0000   -0.0000   -0.0000    0.0000   -0.2964   -0.0000   -0.8616    0.0245   -0.4168
       10 N2     2pz        0.0004   -0.0007   -0.0236   -0.9305    0.3267    0.0000   -0.2785    0.0000    0.0000    0.0000
--
 
 
++    Molecular properties:
      ---------------------
 
      Charge (e):
                      =   -0.0000
      Dipole Moment (Debye):
      Origin of the operator (Ang)=    0.0000    0.0000    0.0000
                   X= -6.6443E-12               Y= -2.0842E-11               Z=  1.7122E+00           Total=  1.7122E+00
      Quadrupole Moment (Debye*Ang):
      Origin of the operator (Ang)=    0.0000    0.0000    1.6427
                  XX= -1.2248E+01              XY=  3.6385E-01              XZ= -1.7968E-12              YY= -1.1190E+01
                  YZ= -6.7592E-12              ZZ= -1.7682E+01
      In traceless form (Debye*Ang)
                  XX=  2.1880E+00              XY=  5.4578E-01              XZ= -2.6952E-12              YY=  3.7751E+00
                  YZ= -1.0139E-11              ZZ= -5.9631E+00
--
 
 
      Input file to MOLDEN was generated!
 
 ###############################################################################
 ###############################################################################
 ###                                                                         ###
 ###                                                                         ###
 ###    WARNING: RunFile label nBas                                          ###
 ###    was used       87 times                                              ###
 ###                                                                         ###
 ###                                                                         ###
 ###############################################################################
 ###############################################################################
--- Stop Module: scf at Thu Apr 25 13:45:24 2024 /rc=_RC_ALL_IS_WELL_ ---
*** files: 2.70.LprOrb 2.70.LoProp.molden 2.70.scf.molden 2.70.scf.h5 2.70.UhfOrb 2.70.UnaOrb xmldump
    saved to directory /home/grierjones/DDCASPT2/delta_ML/BeN/2.70

*** symbolic link created: INPORB -> 2.70.UnaOrb
--- Start Module: mbpt2 at Thu Apr 25 13:45:24 2024 ---
 
()()()()()()()()()()()()()()()()()()()()()()()()()()()()()()()()()()()()()()()()()()()()()()()()()()

                                               &MBPT2

                                   only a single process is used
                       available to each process: 2.0 GB of memory, 1 thread?
                                            pid: 102393
()()()()()()()()()()()()()()()()()()()()()()()()()()()()()()()()()()()()()()()()()()()()()()()()()()
 
 
 ###############################################################################
 ###############################################################################
 ###                                                                         ###
 ###                                                                         ###
 ###    WARNING: MP2 implementation intended for RHF references only         ###
 ###                                                                         ###
 ###                                                                         ###
 ###############################################################################
 ###############################################################################
MBPT2 WARNING: Reference function according to RunFile:UHF-SCF 
I'll assume you know what you're doing and continue
 
 
WARNING!
Default frozen orbitals as non valence orbitals is overwritten by user input.
Default values:   2
 
 
      Cartesian coordinates in Angstrom:
      -----------------------------------------------------
      No.  Label        X            Y            Z        
      -----------------------------------------------------
       1   BE1        0.00000000   0.00000000   0.00000000
       2   N2         0.00000000   0.00000000   2.70000000
      -----------------------------------------------------
      Nuclear repulsion energy =    5.48776367
 
      Contents of RUNFILE file:
      -------------------------
 
      Symmetry species                           1
                                                 a
      Number of basis functions                 10
      Frozen occupied orbitals                   0
      Active occupied orbitals                   6
      Active external orbitals                   4
      Deleted external orbitals                  0
 
 
      Energies of the active occupied orbitals
 
      symmetry species 1                   -15.621927     -4.676548     -1.028065     -0.547245     -0.485633
                                            -0.269436
 
 
      Energies of the active external orbitals
 
      symmetry species 1                     0.059667      0.122114      0.132142      0.158458
 
 
      ********************************************************************************************************
      *                                               Results                                                *
      ********************************************************************************************************
 
 Conventional algorithm used...

       SCF energy                           =      -68.8429943798 a.u.
       Second-order correlation energy      =       -0.0332285632 a.u.

       Total energy                         =      -68.8762229430 a.u.
       Reference weight ( Cref**2 )         =        0.96870
 
::    Total MBPT2 energy                              -68.8762229430
 
 
       Zeroth-order energy (E0)             =      -39.7699458695 a.u.
 
       Shanks-type energy S1(E)             =      -68.8762609645 a.u.
 
 


       Data processing and timing information:

       Section                                              time(sec)
                                                          CPU  Elapsed

      Input data processing                              0.02      0.05
      Transformation of integrals                        0.00      0.00
      MBPT2 calculations (BJAI)                          0.00      0.00
      Total MBPT2 calculations                           0.02      0.05
 
 
--- Stop Module: mbpt2 at Thu Apr 25 13:45:24 2024 /rc=_RC_ALL_IS_WELL_ ---
*** files: xmldump
    saved to directory /home/grierjones/DDCASPT2/delta_ML/BeN/2.70

*** symbolic link created: INPORB -> 2.70.UnaOrb
--- Start Module: rasscf at Thu Apr 25 13:45:24 2024 ---
 
()()()()()()()()()()()()()()()()()()()()()()()()()()()()()()()()()()()()()()()()()()()()()()()()()()

                                              &RASSCF

                                   only a single process is used
                       available to each process: 2.0 GB of memory, 1 thread?
                                            pid: 102396
()()()()()()()()()()()()()()()()()()()()()()()()()()()()()()()()()()()()()()()()()()()()()()()()()()
 
 
      Header of the ONEINT file:
      --------------------------
      
      Integrals generated by Gateway/Seward, Thu Apr 25 13:45:23 2024
 
 
      OrdInt status: non-squared
 
 
      Cartesian coordinates in Angstrom:
      -----------------------------------------------------
      No.  Label        X            Y            Z        
      -----------------------------------------------------
       1   BE1        0.00000000   0.00000000   0.00000000
       2   N2         0.00000000   0.00000000   2.70000000
      -----------------------------------------------------
      Nuclear repulsion energy =    5.48776367
 
++    Wave function specifications:
      -----------------------------
 
      Number of closed shell electrons          10
      Number of electrons in active shells       1
      Max number of holes in RAS1 space          0
      Max nr of electrons in RAS3 space          0
      Number of inactive orbitals                5
      Number of active orbitals                  2
      Number of secondary orbitals               3
      Spin quantum number                      0.5
      State symmetry                             1
--
 
++    Orbital specifications:
      -----------------------
 
      Symmetry species                           1
                                                 a
      Frozen orbitals                            0
      Inactive orbitals                          5
      Active orbitals                            2
      RAS1 orbitals                              0
      RAS2 orbitals                              2
      RAS3 orbitals                              0
      Secondary orbitals                         3
      Deleted orbitals                           0
      Number of basis functions                 10
--
 
++    CI expansion specifications:
      ----------------------------
 
      Number of CSFs                             2
      Number of determinants                     2
      Number of root(s) required                 1
      Root chosen for geometry opt.              1
      CI root used                               1
         
      highest root included in the CI            1
      max. size of the explicit Hamiltonian      2
--
 
++    Optimization specifications:
      ----------------------------
 
      RASSCF algorithm: Conventional
      Maximum number of macro iterations       200
      Maximum number of SX iterations          100
      Threshold for RASSCF energy            1.000E-08
      Threshold for max MO rotation          1.000E-01
      Threshold for max BLB element          1.000E-04
      Level shift parameter                  5.000E-01
      Make Quasi-Newton update
--
 
      The MO-coefficients are taken from the file:
      /home/grierjones/DDCASPT2/delta_ML/BeN/2.60/2.60.RasOrb                                                                                                                                                                                                         
      Title: RASSCF average (pseudo-natural) orbitals                                      
 
      Total molecular charge    0.00
 
      ************************************************************************************************************************
      *                                                                                                                      *
      *                                            Wave function control section                                             *
      *                                                                                                                      *
      ************************************************************************************************************************
 
 
                                         RASSCF iterations: Energy and convergence statistics
                                         ----------------------------------------------------
 
      Iter CI   SX   CI       RASSCF       Energy    max ROT     max BLB   max BLB  Level Ln srch  Step   QN   Walltime
          iter iter root      energy       change     param      element    value   shift minimum  type update hh:mm:ss
 Nr of preliminary CI iterations:   1
 ###############################################################################
 ###############################################################################
 ###                                                                         ###
 ###                                                                         ###
 ###    WARNING: Problems in orbital optimization.                           ###
 ###                                                                         ###
 ###                                                                         ###
 ###############################################################################
 ###############################################################################
  Warning: In symmetry  1, orbital p=   7 has diagonal density matrix element D(p,p) close to zero. D(p,p)=  2.291511E-07
        1   1    6    1   -68.63866557    0.00E+00   4.73E-03    3   9 1 -5.66E-03*  0.52   0.00    SX    NO    0:00:00
 ###############################################################################
 ###############################################################################
 ###                                                                         ###
 ###                                                                         ###
 ###    WARNING: Problems in orbital optimization.                           ###
 ###                                                                         ###
 ###                                                                         ###
 ###############################################################################
 ###############################################################################
  Warning: In symmetry  1, orbital p=   7 has diagonal density matrix element D(p,p) close to zero. D(p,p)=  1.887738E-07
        2   1    6    1   -68.63871798   -5.24E-05*  2.20E-03    3   9 1 -3.53E-03*  0.52   0.00    SX    NO    0:00:00
 ###############################################################################
 ###############################################################################
 ###                                                                         ###
 ###                                                                         ###
 ###    WARNING: Problems in orbital optimization.                           ###
 ###                                                                         ###
 ###                                                                         ###
 ###############################################################################
 ###############################################################################
  Warning: In symmetry  1, orbital p=   7 has diagonal density matrix element D(p,p) close to zero. D(p,p)=  1.524296E-07
        3   1    6    1   -68.63873681   -1.88E-05*  1.08E-03    3   9 1 -2.20E-03*  0.52   0.00    SX    NO    0:00:00
 ###############################################################################
 ###############################################################################
 ###                                                                         ###
 ###                                                                         ###
 ###    WARNING: Problems in orbital optimization.                           ###
 ###                                                                         ###
 ###                                                                         ###
 ###############################################################################
 ###############################################################################
  Warning: In symmetry  1, orbital p=   7 has diagonal density matrix element D(p,p) close to zero. D(p,p)=  1.379896E-07
        4   1    6    1   -68.63874470   -7.90E-06* -9.81E-04    3   9 1 -1.39E-03*  0.52   0.00    SX    NO    0:00:00
 ###############################################################################
 ###############################################################################
 ###                                                                         ###
 ###                                                                         ###
 ###    WARNING: Problems in orbital optimization.                           ###
 ###                                                                         ###
 ###                                                                         ###
 ###############################################################################
 ###############################################################################
  Warning: In symmetry  1, orbital p=   7 has diagonal density matrix element D(p,p) close to zero. D(p,p)=  1.371448E-07
        5   1    6    1   -68.63874856   -3.85E-06* -1.46E-03    3   9 1 -8.90E-04*  0.52   2.50    LS   YES    0:00:00
 ###############################################################################
 ###############################################################################
 ###                                                                         ###
 ###                                                                         ###
 ###    WARNING: Problems in orbital optimization.                           ###
 ###                                                                         ###
 ###                                                                         ###
 ###############################################################################
 ###############################################################################
  Warning: In symmetry  1, orbital p=   7 has diagonal density matrix element D(p,p) close to zero. D(p,p)=  1.337961E-07
        6   1    6    1   -68.63875202   -3.46E-06* -1.11E-03    6   9 1 -5.60E-04*  0.52   1.76    LS   YES    0:00:00
 ###############################################################################
 ###############################################################################
 ###                                                                         ###
 ###                                                                         ###
 ###    WARNING: Problems in orbital optimization.                           ###
 ###                                                                         ###
 ###                                                                         ###
 ###############################################################################
 ###############################################################################
  Warning: In symmetry  1, orbital p=   7 has diagonal density matrix element D(p,p) close to zero. D(p,p)=  1.296404E-07
        7   1    5    1   -68.63875282   -7.97E-07* -7.62E-04    6   9 1 -4.60E-04*  0.52   1.00    QN   YES    0:00:00
 ###############################################################################
 ###############################################################################
 ###                                                                         ###
 ###                                                                         ###
 ###    WARNING: Problems in orbital optimization.                           ###
 ###                                                                         ###
 ###                                                                         ###
 ###############################################################################
 ###############################################################################
  Warning: In symmetry  1, orbital p=   7 has diagonal density matrix element D(p,p) close to zero. D(p,p)=  1.582227E-07
        8   1    5    1   -68.63875356   -7.44E-07* -1.14E-03    3   9 1  3.30E-04*  0.52   2.50    LS   YES    0:00:00
 ###############################################################################
 ###############################################################################
 ###                                                                         ###
 ###                                                                         ###
 ###    WARNING: Problems in orbital optimization.                           ###
 ###                                                                         ###
 ###                                                                         ###
 ###############################################################################
 ###############################################################################
  Warning: In symmetry  1, orbital p=   7 has diagonal density matrix element D(p,p) close to zero. D(p,p)=  2.048117E-07
        9   1    5    1   -68.63875418   -6.19E-07* -6.21E-04    3   9 1  1.95E-04*  0.52   1.55    LS   YES    0:00:00
 ###############################################################################
 ###############################################################################
 ###                                                                         ###
 ###                                                                         ###
 ###    WARNING: Problems in orbital optimization.                           ###
 ###                                                                         ###
 ###                                                                         ###
 ###############################################################################
 ###############################################################################
  Warning: In symmetry  1, orbital p=   7 has diagonal density matrix element D(p,p) close to zero. D(p,p)=  2.319507E-07
       10   1    5    1   -68.63875427   -8.83E-08*  1.25E-04    3   9 1  1.21E-04*  0.52   1.00    QN   YES    0:00:00
 ###############################################################################
 ###############################################################################
 ###                                                                         ###
 ###                                                                         ###
 ###    WARNING: Problems in orbital optimization.                           ###
 ###                                                                         ###
 ###                                                                         ###
 ###############################################################################
 ###############################################################################
  Warning: In symmetry  1, orbital p=   7 has diagonal density matrix element D(p,p) close to zero. D(p,p)=  2.543568E-07
       11   1    5    1   -68.63875431   -4.24E-08*  1.88E-04    6  10 1  6.99E-05   0.52   2.50    LS   YES    0:00:00
 ###############################################################################
 ###############################################################################
 ###                                                                         ###
 ###                                                                         ###
 ###    WARNING: Problems in orbital optimization.                           ###
 ###                                                                         ###
 ###                                                                         ###
 ###############################################################################
 ###############################################################################
  Warning: In symmetry  1, orbital p=   7 has diagonal density matrix element D(p,p) close to zero. D(p,p)=  2.897378E-07
       12   1    5    1   -68.63875434   -2.67E-08*  1.20E-04    5   6 1  4.45E-05   0.52   1.10    QN   YES    0:00:00
 ###############################################################################
 ###############################################################################
 ###                                                                         ###
 ###                                                                         ###
 ###    WARNING: Problems in orbital optimization.                           ###
 ###                                                                         ###
 ###                                                                         ###
 ###############################################################################
 ###############################################################################
  Warning: In symmetry  1, orbital p=   7 has diagonal density matrix element D(p,p) close to zero. D(p,p)=  3.442879E-07
       13   1    5    1   -68.63875435   -1.49E-08*  1.80E-04    5   6 1  5.38E-05   0.52   2.50    LS   YES    0:00:00
 ###############################################################################
 ###############################################################################
 ###                                                                         ###
 ###                                                                         ###
 ###    WARNING: Problems in orbital optimization.                           ###
 ###                                                                         ###
 ###                                                                         ###
 ###############################################################################
 ###############################################################################
  Warning: In symmetry  1, orbital p=   7 has diagonal density matrix element D(p,p) close to zero. D(p,p)=  4.348766E-07
       14   1    5    1   -68.63875438   -2.46E-08*  2.69E-04    5   6 1  6.77E-05   0.52   2.50    LS   YES    0:00:00
 ###############################################################################
 ###############################################################################
 ###                                                                         ###
 ###                                                                         ###
 ###    WARNING: Problems in orbital optimization.                           ###
 ###                                                                         ###
 ###                                                                         ###
 ###############################################################################
 ###############################################################################
  Warning: In symmetry  1, orbital p=   7 has diagonal density matrix element D(p,p) close to zero. D(p,p)=  5.904362E-07
       15   1    5    1   -68.63875442   -4.21E-08* -5.24E-04    5   6 1  8.86E-05   0.52   2.50    QN   YES    0:00:00
 ###############################################################################
 ###############################################################################
 ###                                                                         ###
 ###                                                                         ###
 ###    WARNING: Problems in orbital optimization.                           ###
 ###                                                                         ###
 ###                                                                         ###
 ###############################################################################
 ###############################################################################
  Warning: In symmetry  1, orbital p=   7 has diagonal density matrix element D(p,p) close to zero. D(p,p)=  4.101445E-07
       16   1    5    1   -68.63875425    1.67E-07* -4.18E-03    6  10 1 -2.07E-04*  0.52  -0.50    QN   YES    0:00:00
       17   1    6    1   -68.63875676   -2.51E-06* -6.16E-03    5   6 1  4.00E-04*  0.52   2.50    LS   YES    0:00:00
       18   1    6    1   -68.63876445   -7.68E-06* -9.01E-03    6  10 1  1.00E-03*  0.52   2.50    LS   YES    0:00:00
       19   1    6    1   -68.63878375   -1.93E-05* -1.71E-02    6  10 1  2.08E-03*  0.52   2.50    QN   YES    0:00:00
       20   1    6    1   -68.63875405    2.97E-05* -1.72E-02    6  10 1  5.82E-04*  0.52  -0.50    LS   YES    0:00:00
       21   1    5    1   -68.63878386   -2.98E-05* -2.41E-02    6  10 1  2.09E-03*  0.52   2.50    LS   YES    0:00:00
       22   1    5    1   -68.63890772   -1.24E-04* -3.92E-02    6  10 1  4.02E-03*  0.52   2.50    QN   YES    0:00:00
       23   1    6    1   -68.63875654    1.51E-04* -3.72E-02    5   9 1  9.04E-04*  0.52  -0.50    LS   YES    0:00:00
       24   1    5    1   -68.63889461   -1.38E-04* -4.88E-02    6  10 1  3.84E-03*  0.52   2.50    LS   YES    0:00:00
       25   1    5    1   -68.63937790   -4.83E-04* -6.74E-02    6  10 1  8.01E-03*  0.51   2.50    QN   YES    0:00:00
       26   1    5    1   -68.63877580    6.02E-04* -6.01E-02    4   8 1 -3.13E-03*  0.52  -0.50    LS   YES    0:00:00
       27   1    5    1   -68.63927803   -5.02E-04* -7.36E-02    6  10 1  7.48E-03*  0.51   2.50    LS   YES    0:00:00
       28   1    5    1   -68.64063014   -1.35E-03* -1.03E-01*   4   8 1 -1.54E-02*  0.50   2.50    QN   YES    0:00:00
       29   1    5    1   -68.63880469    1.83E-03* -8.65E-02    4   8 1 -9.15E-03*  0.51  -0.50    LS   YES    0:00:00
       30   1    6    1   -68.64021116   -1.41E-03* -9.94E-02    4   8 1 -1.34E-02*  0.50   2.50    LS   YES    0:00:00
       31   1    6    1   -68.64323455   -3.02E-03* -1.25E-01*   4   8 1 -2.70E-02*  0.48   2.50    QN   YES    0:00:00
       32   1    6    1   -68.63867262    4.56E-03* -9.74E-02    4   8 1 -2.35E-02*  0.49  -0.50    LS   YES    0:00:00
       33   1    7    1   -68.64197296   -3.30E-03* -1.06E-01*   4   8 1 -2.44E-02*  0.48   2.50    LS   YES    0:00:00
       34   1    7    1   -68.64759854   -5.63E-03* -2.08E-01*   4   8 1 -3.66E-02*  0.46   2.50    QN   YES    0:00:00
       35   1    7    1   -68.63989775    7.70E-03* -1.43E-01*   5   9 1  9.66E-03*  0.51  -0.50    LS   YES    0:00:00
       36   1    7    1   -68.64477056   -4.87E-03* -1.40E-01*   4   8 1 -2.26E-02*  0.48   2.50    LS   YES    0:00:00
       37   1    6    1   -68.65074738   -5.98E-03* -3.94E-01*   4   8 1 -5.35E-02*  0.44   2.31    QN   YES    0:00:00
       38   1    9    1   -68.67669515   -2.59E-02* -2.41E-01*   4   8 1 -1.56E-01*  0.33   2.50    LS   YES    0:00:00
       39   1   12    1   -68.71114704   -3.45E-02* -3.89E-01*   4   8 1 -1.38E-01*  0.31   2.50    QN   YES    0:00:00
       40   1   14    1   -68.74268667   -3.15E-02*  2.93E-01*   4   8 1 -1.19E-01*  0.33   0.90    QN   YES    0:00:00
       41   1   16    1   -68.75463768   -1.20E-02* -1.13E-01*   4   8 1 -1.09E-01*  0.33   2.50    SX   YES    0:00:00
       42   1   14    1   -68.80008425   -4.54E-02*  3.14E-01*   5   7 1  9.03E-02*  0.34   2.50    QN   YES    0:00:00
       43   1   13    1   -68.83171433   -3.16E-02*  1.37E-01*   5  10 1 -7.32E-02*  0.33   1.50    QN   YES    0:00:00
       44   1   13    1   -68.84789785   -1.62E-02* -7.15E-02    5  10 1 -3.65E-02*  0.32   1.06    QN   YES    0:00:00
       45   1   10    1   -68.85025612   -2.36E-03* -3.75E-02    5  10 1 -2.17E-02*  0.31   0.83    QN   YES    0:00:00
       46   1    8    1   -68.85090126   -6.45E-04* -7.33E-02    5  10 1 -1.60E-02*  0.31   1.27    QN   YES    0:00:00
       47   1    9    1   -68.85099262   -9.14E-05*  2.48E-02    5  10 1 -1.44E-02*  0.31   0.96    QN   YES    0:00:00
       48   1    9    1   -68.85093516    5.75E-05*  7.51E-02    5  10 1 -1.32E-02*  0.30  -0.50    QN   YES    0:00:00
       49   1    8    1   -68.85112175   -1.87E-04* -9.64E-03    5  10 1 -1.54E-02*  0.31   2.39    SX   YES    0:00:00
       50   1    9    1   -68.85153037   -4.09E-04* -1.79E-01*   5  10 1 -8.81E-03*  0.30   2.50    QN   YES    0:00:00
       51   1    9    1   -68.85212537   -5.95E-04* -1.32E-01*   5  10 1 -4.24E-03*  0.30   2.05    LS   YES    0:00:00
       52   1    9    1   -68.85231981   -1.94E-04*  1.00E-01*   3   9 1 -4.30E-03*  0.30   1.42    QN   YES    0:00:00
       53   1    8    1   -68.85243215   -1.12E-04*  6.76E-02    4   8 1 -3.79E-03*  0.30   1.79    LS   YES    0:00:00
       54   1    8    1   -68.85245970   -2.76E-05* -1.25E-02    4   8 1 -3.52E-03*  0.30   1.13    QN   YES    0:00:00
       55   1    8    1   -68.85249258   -3.29E-05* -1.08E-02    5   9 1 -1.48E-03*  0.30   1.88    LS   YES    0:00:00
       56   1    7    1   -68.85250148   -8.90E-06* -5.69E-03    5   7 1 -1.49E-03*  0.30   1.00    QN   YES    0:00:00
       57   1    7    1   -68.85250823   -6.75E-06* -2.27E-03    5   7 1 -4.43E-04*  0.30   1.40    LS   YES    0:00:00
       58   1    7    1   -68.85250884   -6.09E-07* -8.36E-04    3   9 1 -2.62E-04*  0.30   1.01    QN   YES    0:00:00
       59   1    6    1   -68.85250902   -1.81E-07*  5.26E-04    3  10 1 -6.88E-05   0.30   1.05    QN   YES    0:00:00
       60   1    5    1   -68.85250904   -1.81E-08*  1.74E-04    4  10 1 -2.95E-05   0.30   1.60    QN   YES    0:00:00
       61   1    5    1   -68.85250905   -5.13E-09  -1.46E-05    4  10 1 -1.80E-05   0.30   1.11    QN   YES    0:00:00
      Convergence after 61 iterations
       62   1    5    1   -68.85250905   -6.84E-10  -1.46E-05    4  10 1 -1.54E-05   0.30   1.11    QN   YES    0:00:00
 
      ************************************************************************************************************************
                                                      Wave function printout:
                       occupation of active orbitals, and spin coupling of open shells (u,d: Spin up or down)
      ************************************************************************************************************************
 
      Note: transformation to natural orbitals
      has been made, which may change the order of the CSFs.
 
      printout of CI-coefficients larger than  0.05 for root  1
      energy=     -68.852509
      conf/sym  11     Coeff  Weight
             1  u0   1.00000 1.00000
 
      Natural orbitals and occupation numbers for root  1
      sym 1:   1.000000   0.000000
 
      ************************************************************************************************************************
      *                                                                                                                      *
      *                                                    Final results                                                     *
      *                                                                                                                      *
      ************************************************************************************************************************
 
 
++    Wave function specifications:
      -----------------------------
 
      Number of closed shell electrons          10
      Number of electrons in active shells       1
      Max number of holes in RAS1 space          0
      Max nr of electrons in RAS3 space          0
      Number of inactive orbitals                5
      Number of active orbitals                  2
      Number of secondary orbitals               3
      Spin quantum number                      0.5
      State symmetry                             1
--
 
++    Orbital specifications:
      -----------------------
 
      Symmetry species                           1
                                                 a
      Frozen orbitals                            0
      Inactive orbitals                          5
      Active orbitals                            2
      RAS1 orbitals                              0
      RAS2 orbitals                              2
      RAS3 orbitals                              0
      Secondary orbitals                         3
      Deleted orbitals                           0
      Number of basis functions                 10
--
 
++    CI expansion specifications:
      ----------------------------
 
      Number of CSFs                             2
      Number of determinants                     2
      Number of root(s) required                 1
      CI root used                               1
      highest root included in the CI            1
      Root passed to geometry opt.               1
--
 
++    Final optimization conditions:
      ------------------------------
 
      Average CI energy                             -68.85250905
      RASSCF energy for state  1                    -68.85250905
      Super-CI energy                                -0.00000000
      RASSCF energy change                           -0.00000000
      Max change in MO coefficients               1.485E-05
      Max non-diagonal density matrix element    -1.458E-05
      Maximum BLB matrix element                 -1.537E-05
      (orbital pair   4,  10 in symmetry   1)
      Norm of electronic gradient            2.012E-05
--
 
 
      Final state energy(ies):
      ------------------------
 
::    RASSCF root number  1 Total energy:    -68.85250905
 
++    Molecular orbitals:
      -------------------
 
      Pseudonatural active orbitals and approximate occupation numbers
 
 
 
 
      Molecular orbitals for symmetry species 1: a  
 
 
      Orbital                 1         2         3         4         5         6         7         8         9        10
      Energy           -15.5256   -4.7242   -0.9042   -0.3991   -0.3134   -0.0840    0.0000    0.0629    0.0986    0.2160
      Occ. No.           2.0000    2.0000    2.0000    2.0000    2.0000    1.0000    0.0000    0.0000    0.0000    0.0000
 
     1 BE1    1s        -0.0000    1.0000   -0.0030   -0.0000   -0.0026    0.0000    0.0001    0.0036    0.0000    0.0074
     2 BE1    2s        -0.0005    0.0020    0.0248    0.0011    0.9828    0.0000    0.0186    0.1399   -0.0000    0.2194
     3 BE1    2px        0.0000   -0.0000   -0.0000   -0.0107    0.0000    0.0235   -0.8631    0.4453    0.1273   -0.2108
     4 BE1    2py        0.0000    0.0000    0.0000    0.0427   -0.0002    0.0059   -0.1101    0.0582   -0.9932   -0.0272
     5 BE1    2pz       -0.0007   -0.0001    0.0135    0.0003    0.0138   -0.0000   -0.4942   -0.6565   -0.0011    0.6363
     6 N2     1s         1.0000    0.0000    0.0051   -0.0000   -0.0099    0.0000    0.0096    0.0117    0.0000   -0.0147
     7 N2     2s        -0.0054    0.0001    0.9938   -0.0003   -0.1473    0.0000    0.1063    0.1285    0.0002   -0.1636
     8 N2     2px       -0.0000    0.0000   -0.0000   -0.2427    0.0004    0.9680    0.0797   -0.0416   -0.0165    0.0191
     9 N2     2py        0.0000    0.0000    0.0000    0.9660   -0.0016    0.2432    0.0086   -0.0028    0.1103    0.0035
    10 N2     2pz       -0.0003   -0.0000   -0.0038   -0.0024   -0.1259    0.0001    0.0522    0.5155    0.0004    0.8755
--
 
      Von Neumann Entropy (Root   1) =  0.50000
 

      Mulliken population analysis for root number:  1
      -----------------------------------------------
 
 
++    Molecular charges:
      ------------------
 
      Mulliken charges per centre and basis function type
      ---------------------------------------------------
 
                BE1     N2    
      1s       2.0000  2.0000
      2s       1.9356  1.9943
      2px      0.0027  1.0567
      2pz      0.0060  0.0640
      2py      0.0094  1.9313
      Total    3.9537  7.0463
 
      N-E      0.0463 -0.0463
 
      Total electronic charge=   11.000000
 
      Total            charge=   -0.000000
--
 
 

      Expectation values of various properties for root number:  1
      -----------------------------------------------------------
 
 
++    Molecular properties:
      ---------------------
 
      Charge (e):
                      =   -0.0000
      Dipole Moment (Debye):
      Origin of the operator (Ang)=    0.0000    0.0000    0.0000
                   X= -5.0387E-04               Y=  2.0102E-03               Z= -7.9280E-01           Total=  7.9280E-01
      Quadrupole Moment (Debye*Ang):
      Origin of the operator (Ang)=    0.0000    0.0000    1.6427
                  XX= -1.2231E+01              XY=  3.1067E-01              XZ= -5.0485E-04              YY= -1.3390E+01
                  YZ=  1.9686E-03              ZZ= -9.7335E+00
      In traceless form (Debye*Ang)
                  XX= -6.6967E-01              XY=  4.6600E-01              XZ= -7.5727E-04              YY= -2.4075E+00
                  YZ=  2.9529E-03              ZZ=  3.0771E+00
--
 

      Mulliken spin population analysis for root number:  1
      ---------------------------------------------------
 
 
++    Molecular charges:
      ------------------
 
      Mulliken spin population per centre and basis function type
      ---------------------------------------------------
 
                BE1     N2    
      1s      -0.0000  0.0000
      2s      -0.0000  0.0000
      2px      0.0021  0.9385
      2pz      0.0000  0.0000
      2py      0.0001  0.0592
      Total    0.0022  0.9978
 
      Total electronic spin=    1.000000
--
 
 

      LoProp population analysis for root number:  1
      -----------------------------------------------
 
 
++    LoProp analysis:
      ----------------
 
 
 
      Input file to MOLDEN was generated!
 
 
++    Static properties:
      ------------------
 
 
      LoProp Charges per center
 

                   BE1      N2    
      Nuclear      4.0000   7.0000
      Electronic  -3.9316  -7.0684
 
      Total        0.0684  -0.0684
--
 
 
      Natural Bond Order analysis for root number:  1
 
++    Natural Bond Order analysis
      ---------------------------
      Based on LoProp computed density
      -------------------------------------------------------------------------------------
      Atom A       Atom B       Bond Order
      -------------------------------------------------------------------------------------
      NBO located      1.000 non-bonded electrons on atom BE1       
      NBO located      0.970 non-bonded electrons on atom BE1       
      The remaining    3.546 electrons are to be considered as diffuse
--
 
--
 
 
      Input file to MOLDEN was generated!
 
 
      Input file to MOLDEN was generated!
 
      Average orbitals are written to the RASORB file
      Natural orbitals for root   1 are written to the RASORB.1 file
      Spin density orbitals for root   1 are written to the SPDORB.1 file
 
 ###############################################################################
 ###############################################################################
 ###                                                                         ###
 ###                                                                         ###
 ###    WARNING: RunFile label BirthCertificate                              ###
 ###    was used       68 times                                              ###
 ###                                                                         ###
 ###                                                                         ###
 ###############################################################################
 ###############################################################################
--- Stop Module: rasscf at Thu Apr 25 13:45:25 2024 /rc=_RC_ALL_IS_WELL_ ---
*** files: 2.70.LprOrb 2.70.rasscf.molden.1 2.70.rasscf.molden 2.70.LoProp.molden 2.70.RasOrb.1 2.70.RasOrb 2.70.rasscf.h5 2.70.SpdOrb.1 xmldump
    saved to directory /home/grierjones/DDCASPT2/delta_ML/BeN/2.70
--- Module rasscf spent 1 second ---

*** symbolic link created: INPORB -> 2.70.RasOrb
--- Start Module: caspt2 at Thu Apr 25 13:45:25 2024 ---
 
()()()()()()()()()()()()()()()()()()()()()()()()()()()()()()()()()()()()()()()()()()()()()()()()()()

                                              &CASPT2

                                   only a single process is used
                       available to each process: 2.0 GB of memory, 1 thread?
                                            pid: 102400
()()()()()()()()()()()()()()()()()()()()()()()()()()()()()()()()()()()()()()()()()()()()()()()()()()
 
 ###############################################################################
 ###############################################################################
 ###                                                                         ###
 ###                                                                         ###
 ###    WARNING: User changed nr of frozen orbitals.                         ###
 ###                                                                         ###
 ###                                                                         ###
 ###############################################################################
 ###############################################################################
 
++    Wave function specifications:
      -----------------------------
 
      Number of closed shell electrons          10
      Number of electrons in active shells       1
      Max number of holes in RAS1 space          0
      Max number of electrons in RAS3 space      0
      Number of inactive orbitals                5
      Number of active orbitals                  2
      Number of secondary orbitals               3
      Spin quantum number                      0.5
      State symmetry                             1
      Number of CSFs                             2
      Number of CASSCF root(s) available         1
      CASPT2 state passed to geometry opt.       1
      A file JOBMIX will be created
      This is a CASSCF or RASSCF reference function
--
 
++    Orbital specifications:
      -----------------------
 
      Symmetry species                           1
                                                 a
      Frozen orbitals                            0
      Inactive orbitals                          5
      Active orbitals                            2
      Secondary orbitals                         3
      Deleted orbitals                           0
      Number of basis functions                 10
--
 
++    CASPT2 specifications:
      ----------------------
 
      Type of calculation                        SS-CASPT2
      Fock operator                              state-specific
      IPEA shift                                 0.25
      Real shift                                 0.00
      Imaginary shift                            0.00
      The input orbitals will be transformed to quasi-canonical
--
 
--------------------------------------------------------------------------------
 Estimated memory requirements:
  POLY3 :                   250056
  RHS:                      250476
  SIGMA :                   250480
  PRPCTL:                        0
 Available workspace:    230392719
 
++ CASPT2 computation for group   1
 
********************************************************************************
 Multi-State initialization phase begins for group   1
--------------------------------------------------------------------------------
********************************************************************************
 Compute H0 matrices for state    1
--------------------------------------------------------------------------------
--------------------------------------------------------------------------------
 H0 matrices have been computed.
 
********************************************************************************
  CASPT2 EQUATION SOLUTION
--------------------------------------------------------------------------------
 
  Total nr of CASPT2 parameters:
   Before reduction:         620
   After  reduction:         438
 
 Variance of |WF0>:       0.0434320709
 
 The contributions to the second order correlation energy in atomic units.
-----------------------------------------------------------------------------------------------------------------------------
  IT.      VJTU        VJTI        ATVX        AIVX        VJAI        BVAT        BJAT        BJAI        TOTAL       RNORM  
-----------------------------------------------------------------------------------------------------------------------------
   1    -0.000048   -0.006756   -0.000000   -0.000398   -0.000463    0.000000   -0.000038   -0.024798   -0.032501    0.000452
   2    -0.000048   -0.006783   -0.000000   -0.000398   -0.000463    0.000000   -0.000039   -0.024815   -0.032545    0.000015
-----------------------------------------------------------------------------------------------------------------------------
 
  FINAL CASPT2 RESULT:
 
      Reference energy:         -68.8525090479
      E2 (Non-variational):      -0.0325453068
      E2 (Variational):          -0.0325452791
      Total energy:             -68.8850543270
      Residual norm:              0.0000005416
      Reference weight:           0.96903
 
      Contributions to the CASPT2 correlation energy
      Active & Virtual Only:         -0.0000000000
      One Inactive Excited:          -0.0004848317
      Two Inactive Excited:          -0.0320604751
 
 
++ Denominators, etc.
--------------------------------------------------------------------------------------------------------------
 Report on small energy denominators, large coefficients, and large energy contributions.
CASE  SYMM ACTIVE-MIX  NON-ACTIVE INDICES          DENOMINATOR     RHS VALUE       COEFFICIENT     CONTRIBUTION
VJTIP    1  Mu1.0002  In1.005 In1.005               0.82162488      0.07265527     -0.08872338     -0.00644622
BJAIP    1  Se1.008 In1.003 Se1.010 In1.003         2.08717268      0.08633132     -0.04153416     -0.00358570
BJAIP    1  Se1.010 In1.003 Se1.010 In1.003         2.24030309      0.09273090     -0.04152167     -0.00385034
BJAIP    1  Se1.008 In1.005 Se1.008 In1.005         0.75261728      0.06302481     -0.08395315     -0.00529113
BJAIP    1  Se1.009 In1.005 Se1.009 In1.005         0.82409038      0.07250759     -0.08798721     -0.00637974
BJAIP    1  Se1.008 In1.005 Se1.010 In1.005         0.90574770     -0.03108253      0.03412041     -0.00106055
BJAIP    1  Se1.010 In1.005 Se1.010 In1.005         1.05887812      0.03137474     -0.02973574     -0.00093295
--
 
   (Skipping property calculation,
    use PROP keyword to activate)
--
 
  Total CASPT2 energies:
::    CASPT2 Root  1     Total energy:    -68.88505433
 
  A NEW JOBIPH FILE NAMED 'JOBMIX' IS PREPARED.
********************************************************************************
--- Stop Module: caspt2 at Thu Apr 25 13:45:25 2024 /rc=_RC_ALL_IS_WELL_ ---
*** files: xmldump
    saved to directory /home/grierjones/DDCASPT2/delta_ML/BeN/2.70

.##################.
.# Happy landing! #.
.##################.

    Timing: Wall=3.26 User=2.31 System=0.39
************************************
*** WorkDir at /tmp/2.70 removed ***
************************************
