[Molden Format]
[N_Atoms]
                     2
[Atoms] (AU)
BE1         1      4           0.00000000      0.00000000      0.00000000
N2          2      7           0.00000000      0.00000000      5.10226054
[Charge] (Mulliken)
  4.629758499115466E-002
 -4.629758499116310E-002
[GTO] (AU)
   1
   s  14
  2.262859900E+04  8.443999941E-05
  3.372318100E+03  4.601499968E-04
  7.603504000E+02  2.285389984E-03
  2.117404800E+02  9.648129932E-03
  6.722346800E+01  3.494469975E-02
  2.337217700E+01  1.061099893E-01
  8.721373000E+00  2.458240383E-01
  3.468091000E+00  3.862428773E-01
  1.452144000E+00  3.105526078E-01
  6.086150000E-01  6.415933955E-02
  2.576860000E-01 -2.265049984E-03
  1.041760000E-01 -5.217499963E-04
  4.242700000E-02 -8.757499938E-04
  1.484900000E-02  1.242199991E-04
   s  14
  2.262859900E+04 -1.586999994E-05
  3.372318100E+03 -8.656999968E-05
  7.603504000E+02 -4.302199984E-04
  2.117404800E+02 -1.825079993E-03
  6.722346800E+01 -6.682749976E-03
  2.337217700E+01 -2.095119992E-02
  8.721373000E+00 -5.200308981E-02
  3.468091000E+00 -9.849176964E-02
  1.452144000E+00 -1.355800695E-01
  6.086150000E-01 -6.429875976E-02
  2.576860000E-01  3.125414989E-01
  1.041760000E-01  6.270468577E-01
  4.242700000E-02  2.110231492E-01
  1.484900000E-02 -4.104669985E-03
   p   9
  3.371018400E+01  1.069960000E-03
  8.057649500E+00  6.828550001E-03
  2.836471400E+00  2.119065000E-02
  1.099965700E+00  5.843696001E-02
  4.433964000E-01  2.020920800E-01
  1.822264000E-01  4.582953101E-01
  7.572410000E-02  3.691239601E-01
  3.168540000E-02  6.611471001E-02
  1.108990000E-02  1.405160000E-03
 
   2
   s  14
  7.476171500E+04  1.182599996E-04
  1.112365400E+04  5.172899983E-04
  2.512685700E+03  2.266659992E-03
  7.037772900E+02  9.145289970E-03
  2.254787900E+02  3.239342989E-02
  7.961581000E+01  9.770792967E-02
  3.023728300E+01  2.317036792E-01
  1.226362200E+01  3.768898887E-01
  5.265086000E+00  3.177420689E-01
  2.333471000E+00  8.211308973E-02
  9.018560000E-01  3.312089989E-03
  3.583360000E-01  3.720819988E-03
  1.410930000E-01  3.165419989E-03
  4.938300000E-02  4.595799985E-04
   s  14
  7.476171500E+04 -2.707000010E-05
  1.112365400E+04 -1.183700004E-04
  2.512685700E+03 -5.203800020E-04
  7.037772900E+02 -2.102930008E-03
  2.254787900E+02 -7.568200028E-03
  7.961581000E+01 -2.346767009E-02
  3.023728300E+01 -6.042901023E-02
  1.226362200E+01 -1.170549104E-01
  5.265086000E+00 -1.555321506E-01
  2.333471000E+00 -2.468935009E-02
  9.018560000E-01  3.625054514E-01
  3.583360000E-01  5.550845021E-01
  1.410930000E-01  2.148376908E-01
  4.938300000E-02  8.983850034E-03
   p   9
  1.266665700E+02  1.233630000E-03
  2.983738900E+01  9.493409996E-03
  9.394038000E+00  4.293961998E-02
  3.405104000E+00  1.362925399E-01
  1.350000000E+00  2.921362499E-01
  5.576960000E-01  3.887887598E-01
  2.324490000E-01  2.946801399E-01
  9.426400000E-02  8.012875997E-02
  3.299200000E-02  5.405199998E-04
 
[MO]
Sym=     1a  
Ene=   -15.5260
Spin= Alpha
Occup=    2.00000
   1        -0.00004024
   2        -0.00053402
   3         0.00000002
   4         0.00000007
   5        -0.00068845
   6         1.00000315
   7        -0.00544115
   8        -0.00000002
   9         0.00000002
  10        -0.00027885
Sym=     2a  
Ene=    -4.7242
Spin= Alpha
Occup=    2.00000
   1         0.99999736
   2         0.00203626
   3        -0.00000025
   4         0.00000082
   5        -0.00008208
   6         0.00000291
   7         0.00008289
   8         0.00000001
   9         0.00000027
  10        -0.00003903
Sym=     3a  
Ene=    -0.9042
Spin= Alpha
Occup=    2.00000
   1        -0.00297031
   2         0.02478847
   3        -0.00000064
   4         0.00000261
   5         0.01348822
   6         0.00513887
   7         0.99379205
   8        -0.00000880
   9         0.00001381
  10        -0.00376259
Sym=     4a  
Ene=    -0.3991
Spin= Alpha
Occup=    2.00000
   1        -0.00002177
   2         0.00113100
   3        -0.01073020
   4         0.04271437
   5         0.00029829
   6        -0.00001748
   7        -0.00026785
   8        -0.24269460
   9         0.96602836
  10        -0.00237491
Sym=     5a  
Ene=    -0.3135
Spin= Alpha
Occup=    2.00000
   1        -0.00264126
   2         0.98284386
   3         0.00004620
   4        -0.00017971
   5         0.01380507
   6        -0.00994015
   7        -0.14725275
   8         0.00042184
   9        -0.00164880
  10        -0.12589825
Sym=     6a  
Ene=    -0.0840
Spin= Alpha
Occup=    1.00000
   1         0.00000033
   2         0.00000571
   3         0.02353353
   4         0.00591188
   5        -0.00000545
   6         0.00000010
   7         0.00000600
   8         0.96798348
   9         0.24318588
  10         0.00005078
Sym=     7a  
Ene=     0.0000
Spin= Alpha
Occup=    0.00000
   1         0.00006096
   2         0.01864116
   3        -0.86314455
   4        -0.11014606
   5        -0.49422907
   6         0.00963160
   7         0.10628969
   8         0.07968362
   9         0.00856170
  10         0.05224292
Sym=     8a  
Ene=     0.0629
Spin= Alpha
Occup=    0.00000
   1         0.00361812
   2         0.13989840
   3         0.44530086
   4         0.05823188
   5        -0.65646723
   6         0.01172770
   7         0.12853333
   8        -0.04157785
   9        -0.00284671
  10         0.51548922
Sym=     9a  
Ene=     0.0986
Spin= Alpha
Occup=    0.00000
   1         0.00000305
   2        -0.00000634
   3         0.12728370
   4        -0.99321850
   5        -0.00110774
   6         0.00002218
   7         0.00024945
   8        -0.01647306
   9         0.11027244
  10         0.00035835
Sym=    10a  
Ene=     0.2160
Spin= Alpha
Occup=    0.00000
   1         0.00739564
   2         0.21938093
   3        -0.21077240
   4        -0.02721921
   5         0.63633573
   6        -0.01465341
   7        -0.16358893
   8         0.01907983
   9         0.00348962
  10         0.87545181
