[Molden Format]
[N_Atoms]
                     2
[Atoms] (AU)
B1          1      5           0.00000000      0.00000000      0.00000000
B2          2      5           0.00000000      0.00000000      3.96842486
[Charge] (Mulliken)
  0.000000000000000E+000
  0.000000000000000E+000
[GTO] (AU)
   1
   s  14
  3.336021700E+04  1.039699991E-04
  4.972095200E+03  5.254399956E-04
  1.125641700E+03  2.509059979E-03
  3.164913600E+02  1.031887991E-02
  1.020072600E+02  3.636632969E-02
  3.629587300E+01  1.064607991E-01
  1.397141000E+01  2.403999880E-01
  5.741156000E+00  3.748581168E-01
  2.494268000E+00  3.100066974E-01
  1.114202000E+00  7.922455933E-02
  4.215490000E-01 -4.947589958E-03
  1.696330000E-01 -7.737119935E-03
  6.853500000E-02 -1.501079987E-03
  2.398700000E-02 -1.333299989E-04
   s  14
  3.336021700E+04 -2.030000008E-05
  4.972095200E+03 -1.025700004E-04
  1.125641700E+03 -4.911300020E-04
  3.164913600E+02 -2.026570008E-03
  1.020072600E+02 -7.261010030E-03
  3.629587300E+01 -2.197722009E-02
  1.397141000E+01 -5.408428022E-02
  5.741156000E+00 -1.022402604E-01
  2.494268000E+00 -1.423595206E-01
  1.114202000E+00 -4.658690019E-02
  4.215490000E-01  3.799402916E-01
  1.696330000E-01  5.890463624E-01
  6.853500000E-02  1.749075107E-01
  2.398700000E-02 -1.142030005E-03
   p   9
  5.500000000E+01  1.229800005E-03
  1.336610100E+01  8.827380035E-03
  4.135394000E+00  3.843340015E-02
  1.481256000E+00  1.150031805E-01
  6.021360000E-01  2.733674011E-01
  2.556360000E-01  4.061972116E-01
  1.111510000E-01  3.014967912E-01
  4.764800000E-02  7.684809030E-02
  1.667700000E-02 -8.170000032E-06
 
   2
   s  14
  3.336021700E+04  1.039699991E-04
  4.972095200E+03  5.254399956E-04
  1.125641700E+03  2.509059979E-03
  3.164913600E+02  1.031887991E-02
  1.020072600E+02  3.636632969E-02
  3.629587300E+01  1.064607991E-01
  1.397141000E+01  2.403999880E-01
  5.741156000E+00  3.748581168E-01
  2.494268000E+00  3.100066974E-01
  1.114202000E+00  7.922455933E-02
  4.215490000E-01 -4.947589958E-03
  1.696330000E-01 -7.737119935E-03
  6.853500000E-02 -1.501079987E-03
  2.398700000E-02 -1.333299989E-04
   s  14
  3.336021700E+04 -2.030000008E-05
  4.972095200E+03 -1.025700004E-04
  1.125641700E+03 -4.911300020E-04
  3.164913600E+02 -2.026570008E-03
  1.020072600E+02 -7.261010030E-03
  3.629587300E+01 -2.197722009E-02
  1.397141000E+01 -5.408428022E-02
  5.741156000E+00 -1.022402604E-01
  2.494268000E+00 -1.423595206E-01
  1.114202000E+00 -4.658690019E-02
  4.215490000E-01  3.799402916E-01
  1.696330000E-01  5.890463624E-01
  6.853500000E-02  1.749075107E-01
  2.398700000E-02 -1.142030005E-03
   p   9
  5.500000000E+01  1.229800005E-03
  1.336610100E+01  8.827380035E-03
  4.135394000E+00  3.843340015E-02
  1.481256000E+00  1.150031805E-01
  6.021360000E-01  2.733674011E-01
  2.556360000E-01  4.061972116E-01
  1.111510000E-01  3.014967912E-01
  4.764800000E-02  7.684809030E-02
  1.667700000E-02 -8.170000032E-06
 
[MO]
Sym=     1a  
Ene=    -7.7004
Spin= Alpha
Occup=    2.00000
   1        -0.70688369
   2         0.00081013
   3         0.00000000
   4         0.00000000
   5         0.00121904
   6         0.70688369
   7        -0.00081013
   8        -0.00000000
   9        -0.00000000
  10         0.00121904
Sym=     2a  
Ene=    -7.6936
Spin= Alpha
Occup=    2.00000
   1         0.70719192
   2         0.00090265
   3         0.00000000
   4        -0.00000000
   5         0.00127628
   6         0.70719192
   7         0.00090265
   8         0.00000000
   9        -0.00000000
  10        -0.00127628
Sym=     3a  
Ene=    -0.6906
Spin= Alpha
Occup=    2.00000
   1        -0.01979245
   2         0.54114758
   3        -0.00000000
   4        -0.00000000
   5         0.20240013
   6        -0.01979245
   7         0.54114758
   8        -0.00000000
   9        -0.00000000
  10        -0.20240013
Sym=     4a  
Ene=    -0.4467
Spin= Alpha
Occup=    2.00000
   1         0.00177550
   2        -0.63527142
   3        -0.00000000
   4        -0.00000000
   5         0.30701822
   6        -0.00177550
   7         0.63527142
   8        -0.00000000
   9        -0.00000000
  10         0.30701822
Sym=     5a  
Ene=    -0.3720
Spin= Alpha
Occup=    1.00000
   1        -0.00000000
   2        -0.00000000
   3         0.63997375
   4        -0.09096150
   5        -0.00000000
   6         0.00000000
   7         0.00000000
   8         0.63997375
   9        -0.09096150
  10        -0.00000000
Sym=     6a  
Ene=    -0.3720
Spin= Alpha
Occup=    1.00000
   1        -0.00000000
   2        -0.00000000
   3         0.09096150
   4         0.63997375
   5         0.00000000
   6         0.00000000
   7         0.00000000
   8         0.09096150
   9         0.63997375
  10        -0.00000000
Sym=     7a  
Ene=    -0.3352
Spin= Alpha
Occup=    0.00000
   1         0.02023440
   2         0.36641287
   3         0.00000000
   4        -0.00000000
   5        -0.61584825
   6         0.02023440
   7         0.36641287
   8         0.00000000
   9         0.00000000
  10         0.61584825
Sym=     8a  
Ene=    -0.2498
Spin= Alpha
Occup=    0.00000
   1         0.00000000
   2         0.00000000
   3        -0.19174587
   4        -0.76525231
   5         0.00000000
   6        -0.00000000
   7        -0.00000000
   8         0.19174587
   9         0.76525231
  10         0.00000000
Sym=     9a  
Ene=    -0.2498
Spin= Alpha
Occup=    0.00000
   1         0.00000000
   2         0.00000000
   3        -0.76525231
   4         0.19174587
   5        -0.00000000
   6         0.00000000
   7         0.00000000
   8         0.76525231
   9        -0.19174587
  10         0.00000000
Sym=    10a  
Ene=    -0.1368
Spin= Alpha
Occup=    0.00000
   1         0.05133854
   2         0.69969089
   3         0.00000000
   4         0.00000000
   5         0.91022779
   6        -0.05133854
   7        -0.69969089
   8         0.00000000
   9        -0.00000000
  10         0.91022779
