[Molden Format]
[N_Atoms]
                     2
[Atoms] (AU)
B1          1      5           0.00000000      0.00000000      0.00000000
B2          2      5           0.00000000      0.00000000      3.96842486
[Charge] (Mulliken)
 -4.609645998243650E-013
  4.511946372076636E-013
[GTO] (AU)
   1
   s  14
  3.336021700E+04  1.039699991E-04
  4.972095200E+03  5.254399956E-04
  1.125641700E+03  2.509059979E-03
  3.164913600E+02  1.031887991E-02
  1.020072600E+02  3.636632969E-02
  3.629587300E+01  1.064607991E-01
  1.397141000E+01  2.403999880E-01
  5.741156000E+00  3.748581168E-01
  2.494268000E+00  3.100066974E-01
  1.114202000E+00  7.922455933E-02
  4.215490000E-01 -4.947589958E-03
  1.696330000E-01 -7.737119935E-03
  6.853500000E-02 -1.501079987E-03
  2.398700000E-02 -1.333299989E-04
   s  14
  3.336021700E+04 -2.030000008E-05
  4.972095200E+03 -1.025700004E-04
  1.125641700E+03 -4.911300020E-04
  3.164913600E+02 -2.026570008E-03
  1.020072600E+02 -7.261010030E-03
  3.629587300E+01 -2.197722009E-02
  1.397141000E+01 -5.408428022E-02
  5.741156000E+00 -1.022402604E-01
  2.494268000E+00 -1.423595206E-01
  1.114202000E+00 -4.658690019E-02
  4.215490000E-01  3.799402916E-01
  1.696330000E-01  5.890463624E-01
  6.853500000E-02  1.749075107E-01
  2.398700000E-02 -1.142030005E-03
   p   9
  5.500000000E+01  1.229800005E-03
  1.336610100E+01  8.827380035E-03
  4.135394000E+00  3.843340015E-02
  1.481256000E+00  1.150031805E-01
  6.021360000E-01  2.733674011E-01
  2.556360000E-01  4.061972116E-01
  1.111510000E-01  3.014967912E-01
  4.764800000E-02  7.684809030E-02
  1.667700000E-02 -8.170000032E-06
 
   2
   s  14
  3.336021700E+04  1.039699991E-04
  4.972095200E+03  5.254399956E-04
  1.125641700E+03  2.509059979E-03
  3.164913600E+02  1.031887991E-02
  1.020072600E+02  3.636632969E-02
  3.629587300E+01  1.064607991E-01
  1.397141000E+01  2.403999880E-01
  5.741156000E+00  3.748581168E-01
  2.494268000E+00  3.100066974E-01
  1.114202000E+00  7.922455933E-02
  4.215490000E-01 -4.947589958E-03
  1.696330000E-01 -7.737119935E-03
  6.853500000E-02 -1.501079987E-03
  2.398700000E-02 -1.333299989E-04
   s  14
  3.336021700E+04 -2.030000008E-05
  4.972095200E+03 -1.025700004E-04
  1.125641700E+03 -4.911300020E-04
  3.164913600E+02 -2.026570008E-03
  1.020072600E+02 -7.261010030E-03
  3.629587300E+01 -2.197722009E-02
  1.397141000E+01 -5.408428022E-02
  5.741156000E+00 -1.022402604E-01
  2.494268000E+00 -1.423595206E-01
  1.114202000E+00 -4.658690019E-02
  4.215490000E-01  3.799402916E-01
  1.696330000E-01  5.890463624E-01
  6.853500000E-02  1.749075107E-01
  2.398700000E-02 -1.142030005E-03
   p   9
  5.500000000E+01  1.229800005E-03
  1.336610100E+01  8.827380035E-03
  4.135394000E+00  3.843340015E-02
  1.481256000E+00  1.150031805E-01
  6.021360000E-01  2.733674011E-01
  2.556360000E-01  4.061972116E-01
  1.111510000E-01  3.014967912E-01
  4.764800000E-02  7.684809030E-02
  1.667700000E-02 -8.170000032E-06
 
[MO]
Sym=     1a  
Ene=    -7.6783
Spin= Alpha
Occup=    1.00000
   1         0.70699138
   2         0.00990863
   3        -0.00000000
   4        -0.00000000
   5         0.00021818
   6         0.70699133
   7         0.00990863
   8         0.00000000
   9        -0.00000000
  10        -0.00021818
Sym=     1a  
Ene=    -7.6783
Spin= Beta
Occup=    1.00000
   1         0.70699138
   2         0.00990863
   3        -0.00000000
   4        -0.00000000
   5         0.00021818
   6         0.70699133
   7         0.00990863
   8         0.00000000
   9        -0.00000000
  10        -0.00021818
Sym=     2a  
Ene=    -7.6782
Spin= Alpha
Occup=    1.00000
   1        -0.70710496
   2        -0.01032662
   3        -0.00000000
   4        -0.00000000
   5        -0.00061988
   6         0.70710501
   7         0.01032662
   8         0.00000000
   9         0.00000000
  10        -0.00061988
Sym=     2a  
Ene=    -7.6782
Spin= Beta
Occup=    1.00000
   1        -0.70710496
   2        -0.01032662
   3        -0.00000000
   4        -0.00000000
   5        -0.00061988
   6         0.70710501
   7         0.01032662
   8         0.00000000
   9         0.00000000
  10        -0.00061988
Sym=     3a  
Ene=    -0.6010
Spin= Alpha
Occup=    1.00000
   1        -0.02554968
   2         0.59606559
   3         0.00000000
   4        -0.00000000
   5         0.09336958
   6        -0.02554968
   7         0.59606559
   8         0.00000000
   9        -0.00000000
  10        -0.09336958
Sym=     3a  
Ene=    -0.6010
Spin= Beta
Occup=    1.00000
   1        -0.02554968
   2         0.59606559
   3         0.00000000
   4        -0.00000000
   5         0.09336958
   6        -0.02554968
   7         0.59606559
   8         0.00000000
   9        -0.00000000
  10        -0.09336958
Sym=     4a  
Ene=    -0.4027
Spin= Alpha
Occup=    1.00000
   1         0.00065679
   2        -0.75488331
   3        -0.00000000
   4        -0.00000000
   5         0.13133055
   6        -0.00065679
   7         0.75488331
   8        -0.00000000
   9         0.00000000
  10         0.13133055
Sym=     4a  
Ene=    -0.4027
Spin= Beta
Occup=    1.00000
   1         0.00065679
   2        -0.75488331
   3        -0.00000000
   4        -0.00000000
   5         0.13133055
   6        -0.00065679
   7         0.75488331
   8        -0.00000000
   9         0.00000000
  10         0.13133055
Sym=     5a  
Ene=    -0.2355
Spin= Alpha
Occup=    1.00000
   1         0.00000000
   2        -0.00000000
   3         0.63997375
   4        -0.09096150
   5         0.00000000
   6        -0.00000000
   7         0.00000000
   8         0.63997375
   9        -0.09096150
  10         0.00000000
Sym=     5a  
Ene=    -0.2355
Spin= Beta
Occup=    1.00000
   1         0.00000000
   2        -0.00000000
   3         0.63997375
   4        -0.09096150
   5         0.00000000
   6        -0.00000000
   7         0.00000000
   8         0.63997375
   9        -0.09096150
  10         0.00000000
Sym=     6a  
Ene=     0.0204
Spin= Alpha
Occup=    0.00000
   1         0.02078486
   2         0.26778262
   3        -0.00000000
   4         0.00000000
   5        -0.64149714
   6         0.02078486
   7         0.26778262
   8         0.00000000
   9         0.00000000
  10         0.64149714
Sym=     6a  
Ene=     0.0204
Spin= Beta
Occup=    0.00000
   1         0.02078486
   2         0.26778262
   3        -0.00000000
   4         0.00000000
   5        -0.64149714
   6         0.02078486
   7         0.26778262
   8         0.00000000
   9         0.00000000
  10         0.64149714
Sym=     7a  
Ene=     0.0447
Spin= Alpha
Occup=    0.00000
   1        -0.00000000
   2        -0.00000000
   3         0.09096150
   4         0.63997375
   5         0.00000000
   6        -0.00000000
   7        -0.00000000
   8         0.09096150
   9         0.63997375
  10        -0.00000000
Sym=     7a  
Ene=     0.0447
Spin= Beta
Occup=    0.00000
   1        -0.00000000
   2        -0.00000000
   3         0.09096150
   4         0.63997375
   5         0.00000000
   6        -0.00000000
   7        -0.00000000
   8         0.09096150
   9         0.63997375
  10        -0.00000000
Sym=     8a  
Ene=     0.1008
Spin= Alpha
Occup=    0.00000
   1        -0.00000000
   2        -0.00000000
   3        -0.78105914
   4         0.11101441
   5         0.00000000
   6        -0.00000000
   7        -0.00000000
   8         0.78105914
   9        -0.11101441
  10        -0.00000000
Sym=     8a  
Ene=     0.1008
Spin= Beta
Occup=    0.00000
   1        -0.00000000
   2        -0.00000000
   3        -0.78105914
   4         0.11101441
   5         0.00000000
   6        -0.00000000
   7        -0.00000000
   8         0.78105914
   9        -0.11101441
  10        -0.00000000
Sym=     9a  
Ene=     0.1681
Spin= Alpha
Occup=    0.00000
   1         0.00000000
   2         0.00000000
   3        -0.11101441
   4        -0.78105914
   5        -0.00000000
   6        -0.00000000
   7        -0.00000000
   8         0.11101441
   9         0.78105914
  10         0.00000000
Sym=     9a  
Ene=     0.1681
Spin= Beta
Occup=    0.00000
   1         0.00000000
   2         0.00000000
   3        -0.11101441
   4        -0.78105914
   5        -0.00000000
   6        -0.00000000
   7        -0.00000000
   8         0.11101441
   9         0.78105914
  10         0.00000000
Sym=    10a  
Ene=     0.3575
Spin= Alpha
Occup=    0.00000
   1         0.04822293
   2         0.56849128
   3        -0.00000000
   4         0.00000000
   5         0.95159245
   6        -0.04822293
   7        -0.56849128
   8         0.00000000
   9        -0.00000000
  10         0.95159245
Sym=    10a  
Ene=     0.3575
Spin= Beta
Occup=    0.00000
   1         0.04822293
   2         0.56849128
   3        -0.00000000
   4         0.00000000
   5         0.95159245
   6        -0.04822293
   7        -0.56849128
   8         0.00000000
   9        -0.00000000
  10         0.95159245
