[Molden Format]
[N_Atoms]
                     2
[Atoms] (AU)
B1          1      5           0.00000000      0.00000000      0.00000000
B2          2      5           0.00000000      0.00000000      3.96842486
[Charge] (Mulliken)
 -6.101931341540023E-006
  6.101931339763667E-006
[GTO] (AU)
   1
   s  14
  3.336021700E+04  1.039699991E-04
  4.972095200E+03  5.254399956E-04
  1.125641700E+03  2.509059979E-03
  3.164913600E+02  1.031887991E-02
  1.020072600E+02  3.636632969E-02
  3.629587300E+01  1.064607991E-01
  1.397141000E+01  2.403999880E-01
  5.741156000E+00  3.748581168E-01
  2.494268000E+00  3.100066974E-01
  1.114202000E+00  7.922455933E-02
  4.215490000E-01 -4.947589958E-03
  1.696330000E-01 -7.737119935E-03
  6.853500000E-02 -1.501079987E-03
  2.398700000E-02 -1.333299989E-04
   s  14
  3.336021700E+04 -2.030000008E-05
  4.972095200E+03 -1.025700004E-04
  1.125641700E+03 -4.911300020E-04
  3.164913600E+02 -2.026570008E-03
  1.020072600E+02 -7.261010030E-03
  3.629587300E+01 -2.197722009E-02
  1.397141000E+01 -5.408428022E-02
  5.741156000E+00 -1.022402604E-01
  2.494268000E+00 -1.423595206E-01
  1.114202000E+00 -4.658690019E-02
  4.215490000E-01  3.799402916E-01
  1.696330000E-01  5.890463624E-01
  6.853500000E-02  1.749075107E-01
  2.398700000E-02 -1.142030005E-03
   p   9
  5.500000000E+01  1.229800005E-03
  1.336610100E+01  8.827380035E-03
  4.135394000E+00  3.843340015E-02
  1.481256000E+00  1.150031805E-01
  6.021360000E-01  2.733674011E-01
  2.556360000E-01  4.061972116E-01
  1.111510000E-01  3.014967912E-01
  4.764800000E-02  7.684809030E-02
  1.667700000E-02 -8.170000032E-06
 
   2
   s  14
  3.336021700E+04  1.039699991E-04
  4.972095200E+03  5.254399956E-04
  1.125641700E+03  2.509059979E-03
  3.164913600E+02  1.031887991E-02
  1.020072600E+02  3.636632969E-02
  3.629587300E+01  1.064607991E-01
  1.397141000E+01  2.403999880E-01
  5.741156000E+00  3.748581168E-01
  2.494268000E+00  3.100066974E-01
  1.114202000E+00  7.922455933E-02
  4.215490000E-01 -4.947589958E-03
  1.696330000E-01 -7.737119935E-03
  6.853500000E-02 -1.501079987E-03
  2.398700000E-02 -1.333299989E-04
   s  14
  3.336021700E+04 -2.030000008E-05
  4.972095200E+03 -1.025700004E-04
  1.125641700E+03 -4.911300020E-04
  3.164913600E+02 -2.026570008E-03
  1.020072600E+02 -7.261010030E-03
  3.629587300E+01 -2.197722009E-02
  1.397141000E+01 -5.408428022E-02
  5.741156000E+00 -1.022402604E-01
  2.494268000E+00 -1.423595206E-01
  1.114202000E+00 -4.658690019E-02
  4.215490000E-01  3.799402916E-01
  1.696330000E-01  5.890463624E-01
  6.853500000E-02  1.749075107E-01
  2.398700000E-02 -1.142030005E-03
   p   9
  5.500000000E+01  1.229800005E-03
  1.336610100E+01  8.827380035E-03
  4.135394000E+00  3.843340015E-02
  1.481256000E+00  1.150031805E-01
  6.021360000E-01  2.733674011E-01
  2.556360000E-01  4.061972116E-01
  1.111510000E-01  3.014967912E-01
  4.764800000E-02  7.684809030E-02
  1.667700000E-02 -8.170000032E-06
 
[MO]
Sym=     1a  
Ene=    -7.6784
Spin= Alpha
Occup=    2.00000
   1         0.70354493
   2         0.00988043
   3         0.00000000
   4        -0.00000000
   5         0.00019973
   6         0.71042170
   7         0.00995405
   8        -0.00000000
   9        -0.00000000
  10        -0.00021013
Sym=     2a  
Ene=    -7.6777
Spin= Alpha
Occup=    2.00000
   1        -0.71051273
   2        -0.00390072
   3         0.00000000
   4        -0.00000000
   5        -0.00170440
   6         0.70363649
   7         0.00381864
   8        -0.00000000
   9         0.00000000
  10        -0.00170458
Sym=     3a  
Ene=    -0.5999
Spin= Alpha
Occup=    2.00000
   1        -0.02554757
   2         0.59508633
   3         0.00000000
   4        -0.00000000
   5         0.09340354
   6        -0.02554952
   7         0.59716352
   8        -0.00000000
   9        -0.00000000
  10        -0.09304817
Sym=     4a  
Ene=    -0.2351
Spin= Alpha
Occup=    2.00000
   1         0.00000000
   2        -0.00000000
   3        -0.08133380
   4         0.64126561
   5         0.00000000
   6        -0.00000000
   7         0.00000000
   8        -0.08133450
   9         0.64127117
  10         0.00000000
Sym=     5a  
Ene=     0.0417
Spin= Alpha
Occup=    0.02400
   1         0.00000000
   2         0.00000000
   3         0.64235733
   4         0.08147226
   5         0.00000000
   6        -0.00000000
   7        -0.00000000
   8         0.64017821
   9         0.08119588
  10         0.00000000
Sym=     6a  
Ene=    -0.0622
Spin= Alpha
Occup=    1.97600
   1        -0.00547119
   2        -0.75705053
   3        -0.00000000
   4        -0.00000000
   5         0.12903993
   6         0.00550735
   7         0.75540865
   8         0.00000000
   9        -0.00000000
  10         0.12928721
Sym=     7a  
Ene=     0.0211
Spin= Alpha
Occup=    0.00000
   1         0.02077563
   2         0.26764559
   3        -0.00000000
   4        -0.00000000
   5        -0.64151400
   6         0.02077531
   7         0.26765228
   8        -0.00000000
   9        -0.00000000
  10         0.64152206
Sym=     8a  
Ene=     0.1011
Spin= Alpha
Occup=    0.00000
   1         0.00000000
   2        -0.00000000
   3         0.09926496
   4        -0.78264147
   5         0.00000000
   6        -0.00000000
   7        -0.00000000
   8        -0.09926438
   9         0.78263691
  10         0.00000000
Sym=     9a  
Ene=     0.1676
Spin= Alpha
Occup=    0.00000
   1        -0.00000000
   2         0.00000000
   3        -0.78174568
   4        -0.09915134
   5        -0.00000000
   6         0.00000000
   7        -0.00000000
   8         0.78353119
   9         0.09937780
  10        -0.00000000
Sym=    10a  
Ene=     0.3580
Spin= Alpha
Occup=    0.00000
   1        -0.04823771
   2        -0.56677812
   3         0.00000000
   4         0.00000000
   5        -0.95188976
   6         0.04823785
   7         0.56678019
   8         0.00000000
   9         0.00000000
  10        -0.95188558
