[Molden Format]
[N_Atoms]
                     2
[Atoms] (AU)
BE1         1      4           0.00000000      0.00000000      0.00000000
F2          2      9           0.00000000      0.00000000      3.96842486
[Charge] (Mulliken)
  0.443044196255866     
 -0.443044196255894     
[GTO] (AU)
   1
   s  14
  2.262859900E+04  8.443999941E-05
  3.372318100E+03  4.601499968E-04
  7.603504000E+02  2.285389984E-03
  2.117404800E+02  9.648129932E-03
  6.722346800E+01  3.494469975E-02
  2.337217700E+01  1.061099893E-01
  8.721373000E+00  2.458240383E-01
  3.468091000E+00  3.862428773E-01
  1.452144000E+00  3.105526078E-01
  6.086150000E-01  6.415933955E-02
  2.576860000E-01 -2.265049984E-03
  1.041760000E-01 -5.217499963E-04
  4.242700000E-02 -8.757499938E-04
  1.484900000E-02  1.242199991E-04
   s  14
  2.262859900E+04 -1.586999994E-05
  3.372318100E+03 -8.656999968E-05
  7.603504000E+02 -4.302199984E-04
  2.117404800E+02 -1.825079993E-03
  6.722346800E+01 -6.682749976E-03
  2.337217700E+01 -2.095119992E-02
  8.721373000E+00 -5.200308981E-02
  3.468091000E+00 -9.849176964E-02
  1.452144000E+00 -1.355800695E-01
  6.086150000E-01 -6.429875976E-02
  2.576860000E-01  3.125414989E-01
  1.041760000E-01  6.270468577E-01
  4.242700000E-02  2.110231492E-01
  1.484900000E-02 -4.104669985E-03
   p   9
  3.371018400E+01  1.069960000E-03
  8.057649500E+00  6.828550001E-03
  2.836471400E+00  2.119065000E-02
  1.099965700E+00  5.843696001E-02
  4.433964000E-01  2.020920800E-01
  1.822264000E-01  4.582953101E-01
  7.572410000E-02  3.691239601E-01
  3.168540000E-02  6.611471001E-02
  1.108990000E-02  1.405160000E-03
 
   2
   s  14
  1.031094600E+05  1.713099991E-04
  1.528100700E+04  7.123999962E-04
  3.441539200E+03  2.990479984E-03
  9.670948300E+02  1.164036994E-02
  3.140353400E+02  3.968642979E-02
  1.134423000E+02  1.128546094E-01
  4.464472700E+01  2.473650687E-01
  1.894287400E+01  3.672702681E-01
  8.532743000E+00  2.896286985E-01
  3.919401000E+00  7.786681959E-02
  1.568157000E+00  4.562139976E-03
  6.232900000E-01  2.468879987E-03
  2.408610000E-01  1.106309994E-03
  8.430100000E-02  1.739699991E-04
   s  14
  1.031094600E+05 -4.044999995E-05
  1.528100700E+04 -1.682299998E-04
  3.441539200E+03 -7.084299991E-04
  9.670948300E+02 -2.767999996E-03
  3.140353400E+02 -9.611379987E-03
  1.134423000E+02 -2.833957996E-02
  4.464472700E+01 -6.839343991E-02
  1.894287400E+01 -1.237379298E-01
  8.532743000E+00 -1.512859698E-01
  3.919401000E+00 -9.099909988E-03
  1.568157000E+00  3.716257695E-01
  6.232900000E-01  5.500214393E-01
  2.408610000E-01  2.092318697E-01
  8.430100000E-02  8.074639989E-03
   p   9
  2.453302900E+02  1.024860004E-03
  5.691900500E+01  8.344290032E-03
  1.760456800E+01  4.078927016E-02
  6.274995000E+00  1.351370605E-01
  2.447030000E+00  2.798830811E-01
  9.950600000E-01  3.597966414E-01
  4.039730000E-01  3.055347412E-01
  1.548100000E-01  1.354703905E-01
  5.418400000E-02  2.804449011E-02
 
[MO]
Sym=     1a  
Ene=   -26.1120
Spin= Alpha
Occup=    1.00000
   1        -0.00002850
   2        -0.00028195
   3         0.00000000
   4         0.00000000
   5        -0.00034181
   6         1.00001085
   7        -0.00225799
   8        -0.00000000
   9         0.00000000
  10        -0.00051950
Sym=     1a  
Ene=   -26.0920
Spin= Beta
Occup=    1.00000
   1        -0.00002320
   2        -0.00016400
   3         0.00000000
   4         0.00000000
   5        -0.00020965
   6         1.00000308
   7        -0.00314331
   8        -0.00000000
   9         0.00000000
  10        -0.00043855
Sym=     2a  
Ene=    -4.8201
Spin= Alpha
Occup=    1.00000
   1         0.99998547
   2         0.00199028
   3        -0.00000000
   4        -0.00000000
   5        -0.00057982
   6         0.00001288
   7         0.00046491
   8         0.00000000
   9        -0.00000000
  10        -0.00047767
Sym=     2a  
Ene=    -4.8062
Spin= Beta
Occup=    1.00000
   1         0.99998695
   2         0.00247852
   3        -0.00000000
   4        -0.00000000
   5         0.00066444
   6        -0.00002876
   7         0.00014020
   8        -0.00000000
   9        -0.00000000
  10        -0.00041434
Sym=     3a  
Ene=    -1.4553
Spin= Alpha
Occup=    1.00000
   1        -0.00542129
   2         0.01703254
   3        -0.00000000
   4         0.00000000
   5         0.02168145
   6         0.00151487
   7         0.99001674
   8        -0.00000000
   9        -0.00000000
  10        -0.04007524
Sym=     3a  
Ene=    -1.3792
Spin= Beta
Occup=    1.00000
   1        -0.00469444
   2         0.03733337
   3        -0.00000000
   4         0.00000000
   5         0.03750416
   6         0.00160813
   7         0.98261920
   8         0.00000000
   9        -0.00000000
  10        -0.00018841
Sym=     4a  
Ene=    -0.5888
Spin= Alpha
Occup=    1.00000
   1         0.02073449
   2        -0.14608385
   3         0.00000000
   4         0.00000000
   5        -0.06964324
   6         0.00463918
   7         0.09201796
   8         0.00000000
   9         0.00000000
  10         0.95027593
Sym=     4a  
Ene=    -0.5199
Spin= Beta
Occup=    1.00000
   1         0.00000000
   2        -0.00000000
   3         0.00008108
   4         0.05479872
   5        -0.00000000
   6         0.00000000
   7         0.00000000
   8         0.00146796
   9         0.99218994
  10         0.00000000
Sym=     5a  
Ene=    -0.5397
Spin= Alpha
Occup=    1.00000
   1        -0.00000000
   2         0.00000000
   3        -0.00130743
   4         0.04724095
   5        -0.00000000
   6        -0.00000000
   7        -0.00000000
   8        -0.02748369
   9         0.99306134
  10        -0.00000000
Sym=     5a  
Ene=    -0.5199
Spin= Beta
Occup=    1.00000
   1        -0.00000000
   2         0.00000000
   3         0.05479872
   4        -0.00008108
   5         0.00000000
   6        -0.00000000
   7        -0.00000000
   8         0.99218994
   9        -0.00146796
  10        -0.00000000
Sym=     6a  
Ene=    -0.5397
Spin= Alpha
Occup=    1.00000
   1        -0.00000000
   2        -0.00000000
   3         0.04724095
   4         0.00130743
   5         0.00000000
   6        -0.00000000
   7        -0.00000000
   8         0.99306134
   9         0.02748369
  10        -0.00000000
Sym=     6a  
Ene=    -0.3914
Spin= Beta
Occup=    1.00000
   1         0.01540732
   2        -0.55125085
   3         0.00000000
   4         0.00000000
   5        -0.29945739
   6         0.01706347
   7         0.20767499
   8         0.00000000
   9        -0.00000000
  10         0.66317730
Sym=     7a  
Ene=    -0.3745
Spin= Alpha
Occup=    1.00000
   1         0.00196769
   2         0.90712191
   3        -0.00000000
   4         0.00000000
   5        -0.41750564
   6        -0.00181846
   7        -0.03678590
   8         0.00000000
   9        -0.00000000
  10         0.17766087
Sym=     7a  
Ene=     0.0171
Spin= Beta
Occup=    0.00000
   1         0.00870371
   2         0.82865741
   3        -0.00000000
   4         0.00000000
   5        -0.39940884
   6        -0.00111653
   7        -0.03738092
   8         0.00000000
   9        -0.00000000
  10         0.46620381
Sym=     8a  
Ene=     0.0573
Spin= Alpha
Occup=    0.00000
   1        -0.00000000
   2        -0.00000000
   3         1.00359312
   4         0.06384223
   5        -0.00000000
   6         0.00000000
   7         0.00000000
   8        -0.16271163
   9        -0.01035068
  10        -0.00000000
Sym=     8a  
Ene=     0.0957
Spin= Beta
Occup=    0.00000
   1        -0.00000000
   2         0.00000000
   3         1.00314040
   4         0.06492175
   5        -0.00000000
   6         0.00000000
   7         0.00000000
   8        -0.17012975
   9        -0.01101054
  10        -0.00000000
Sym=     9a  
Ene=     0.0573
Spin= Alpha
Occup=    0.00000
   1         0.00000000
   2        -0.00000000
   3        -0.06384223
   4         1.00359312
   5         0.00000000
   6        -0.00000000
   7        -0.00000000
   8         0.01035068
   9        -0.16271163
  10        -0.00000000
Sym=     9a  
Ene=     0.0957
Spin= Beta
Occup=    0.00000
   1         0.00000000
   2         0.00000000
   3        -0.06492175
   4         1.00314040
   5         0.00000000
   6        -0.00000000
   7        -0.00000000
   8         0.01101054
   9        -0.17012975
  10        -0.00000000
Sym=    10a  
Ene=     0.1681
Spin= Alpha
Occup=    0.00000
   1         0.00908028
   2         0.46971295
   3         0.00000000
   4        -0.00000000
   5         0.97206365
   6        -0.03408674
   7        -0.35565530
   8        -0.00000000
   9         0.00000000
  10         0.36923760
Sym=    10a  
Ene=     0.2377
Spin= Beta
Occup=    0.00000
   1         0.01440406
   2         0.27052633
   3         0.00000000
   4        -0.00000000
   5         0.93484236
   6        -0.03015925
   7        -0.32614879
   8         0.00000000
   9        -0.00000000
  10         0.64449991
