[Molden Format]
[N_Atoms]
                     2
[Atoms] (AU)
C1          1      6           0.00000000      0.00000000      0.00000000
LI2         2      3           0.00000000      0.00000000      1.70075351
[Charge] (Mulliken)
 -0.508822604429631     
  0.508822604429621     
[GTO] (AU)
   1
   s  14
  5.055750100E+04  1.128874000E-04
  7.524785600E+03  5.295373000E-04
  1.694327600E+03  2.450038300E-03
  4.728227900E+02  1.005398470E-02
  1.517107500E+02  3.545398060E-02
  5.391874600E+01  1.044071086E-01
  2.065931100E+01  2.412894918E-01
  8.383976000E+00  3.834225483E-01
  3.577015000E+00  3.078514393E-01
  1.547118000E+00  6.872442990E-02
  6.130130000E-01  2.224445000E-04
  2.460680000E-01  1.976748900E-03
  9.908700000E-02  2.057859400E-03
  3.468000000E-02  4.182020000E-04
   s  14
  5.055750100E+04 -2.507420000E-05
  7.524785600E+03 -1.175945000E-04
  1.694327600E+03 -5.456275000E-04
  4.728227900E+02 -2.245077100E-03
  1.517107500E+02 -8.043471800E-03
  5.391874600E+01 -2.442588710E-02
  2.065931100E+01 -6.136791180E-02
  8.383976000E+00 -1.177767835E-01
  3.577015000E+00 -1.550487783E-01
  1.547118000E+00 -1.933316860E-02
  6.130130000E-01  3.996930678E-01
  2.460680000E-01  5.589420949E-01
  9.908700000E-02  1.711195023E-01
  3.468000000E-02  7.456244600E-03
   p   9
  8.333315500E+01  1.344656000E-03
  1.955761100E+01  1.023555500E-02
  6.080365000E+00  4.520067100E-02
  2.179317000E+00  1.410756198E-01
  8.651500000E-01  3.047388085E-01
  3.619440000E-01  3.995281011E-01
  1.547400000E-01  2.719163432E-01
  6.542900000E-02  5.857669330E-02
  2.290000000E-02 -1.263813000E-04
 
   2
   s  14
  9.497934400E+03  9.668999974E-05
  1.416811200E+03  6.087099984E-04
  3.214599400E+02  3.101519992E-03
  9.112416300E+01  1.266904997E-02
  2.999989100E+01  4.248012989E-02
  1.101763100E+01  1.150183297E-01
  4.372801000E+00  2.398650094E-01
  1.831256000E+00  3.584300090E-01
  8.022610000E-01  3.048527792E-01
  3.626480000E-01  8.824261976E-02
  1.139950000E-01 -8.445899977E-04
  5.123700000E-02 -7.943959979E-03
  2.246800000E-02 -3.764419990E-03
  7.860000000E-03 -8.868999976E-05
   s  14
  9.497934400E+03 -1.244999993E-05
  1.416811200E+03 -7.838999954E-05
  3.214599400E+02 -4.007099976E-04
  9.112416300E+01 -1.645249990E-03
  2.999989100E+01 -5.634599967E-03
  1.101763100E+01 -1.590780991E-02
  4.372801000E+00 -3.612581979E-02
  1.831256000E+00 -6.459927962E-02
  8.022610000E-01 -1.008321794E-01
  3.626480000E-01 -9.757613942E-02
  1.139950000E-01  2.301215886E-01
  5.123700000E-02  6.102389764E-01
  2.246800000E-02  2.849406083E-01
  7.860000000E-03  4.026899976E-03
   p   9
  1.311950400E+01  1.524940000E-03
  3.077424200E+00  8.314830000E-03
  1.098800500E+00  1.933203000E-02
  4.357784000E-01  4.934293000E-02
  1.802432000E-01  1.623554000E-01
  7.613330000E-02  3.847505400E-01
  3.254650000E-02  4.336100400E-01
  1.401820000E-02  1.287005900E-01
  4.906400000E-03 -1.018520000E-03
 
[MO]
Sym=     1a  
Ene=   -11.3280
Spin= Alpha
Occup=    1.00000
   1         1.00022036
   2         0.00214836
   3         0.00000000
   4         0.00000000
   5         0.00476298
   6        -0.00110561
   7        -0.00299735
   8        -0.00000000
   9         0.00000000
  10        -0.00000863
Sym=     1a  
Ene=   -11.3030
Spin= Beta
Occup=    1.00000
   1         1.00010622
   2        -0.00100404
   3         0.00000000
   4        -0.00000000
   5         0.00437782
   6        -0.00032269
   7        -0.00221151
   8        -0.00000000
   9         0.00000000
  10        -0.00036584
Sym=     2a  
Ene=    -2.8826
Spin= Alpha
Occup=    1.00000
   1        -0.04193833
   2         0.04796491
   3        -0.00000000
   4        -0.00000000
   5         0.04863136
   6         0.96220894
   7        -0.00917086
   8        -0.00000000
   9         0.00000000
  10        -0.01334313
Sym=     2a  
Ene=    -2.8707
Spin= Beta
Occup=    1.00000
   1        -0.04173425
   2         0.03665969
   3        -0.00000000
   4        -0.00000000
   5         0.04474997
   6         0.96805895
   7        -0.00781646
   8        -0.00000000
   9         0.00000000
  10        -0.01313177
Sym=     3a  
Ene=    -0.6806
Spin= Alpha
Occup=    1.00000
   1        -0.00436341
   2        -0.98222959
   3        -0.00000000
   4        -0.00000000
   5         0.03757656
   6         0.34023672
   7        -0.05095280
   8         0.00000000
   9         0.00000000
  10         0.07679369
Sym=     3a  
Ene=    -0.5592
Spin= Beta
Occup=    1.00000
   1         0.00064908
   2        -0.92861170
   3        -0.00000000
   4         0.00000000
   5         0.08448958
   6         0.29084940
   7        -0.10220693
   8         0.00000000
   9         0.00000000
  10         0.10136880
Sym=     4a  
Ene=    -0.4631
Spin= Alpha
Occup=    1.00000
   1         0.00000000
   2         0.00000000
   3         0.09060757
   4         0.92457339
   5        -0.00000000
   6         0.00000000
   7        -0.00000000
   8         0.01350885
   9         0.13784635
  10         0.00000000
Sym=     4a  
Ene=    -0.3570
Spin= Beta
Occup=    1.00000
   1        -0.00000000
   2        -0.00000000
   3         0.84701951
   4        -0.08300734
   5         0.00000000
   6         0.00000000
   7         0.00000000
   8         0.26298922
   9        -0.02577277
  10        -0.00000000
Sym=     5a  
Ene=    -0.4024
Spin= Alpha
Occup=    1.00000
   1        -0.00000000
   2        -0.00000000
   3         0.89149491
   4        -0.08736590
   5         0.00000000
   6         0.00000000
   7         0.00000000
   8         0.19382796
   9        -0.01899501
  10        -0.00000000
Sym=     5a  
Ene=     0.0012
Spin= Beta
Occup=    0.00000
   1         0.00812232
   2        -0.12354933
   3         0.00000000
   4        -0.00000000
   5        -0.00693820
   6         0.04756099
   7         0.78126771
   8        -0.00000000
   9        -0.00000000
  10         0.64020421
Sym=     6a  
Ene=    -0.0014
Spin= Alpha
Occup=    0.00000
   1         0.00487621
   2        -0.13716414
   3         0.00000000
   4         0.00000000
   5        -0.00467622
   6         0.05089851
   7         0.80199501
   8        -0.00000000
   9         0.00000000
  10         0.61781645
Sym=     6a  
Ene=     0.0099
Spin= Beta
Occup=    0.00000
   1         0.00000000
   2        -0.00000000
   3         0.03883936
   4         0.39632272
   5        -0.00000000
   6         0.00000000
   7         0.00000000
   8         0.07343950
   9         0.74938778
  10         0.00000000
Sym=     7a  
Ene=     0.1354
Spin= Alpha
Occup=    0.00000
   1        -0.00000000
   2        -0.00000000
   3        -0.06182811
   4        -0.63090343
   5         0.00000000
   6        -0.00000000
   7         0.00000000
   8         0.10885752
   9         1.11079858
  10        -0.00000000
Sym=     7a  
Ene=     0.1678
Spin= Beta
Occup=    0.00000
   1         0.00000000
   2         0.00000000
   3        -0.73173291
   4         0.07170934
   5        -0.00000000
   6        -0.00000000
   7        -0.00000000
   8         1.08798519
   9        -0.10662182
  10         0.00000000
Sym=     8a  
Ene=     0.1556
Spin= Alpha
Occup=    0.00000
   1         0.00000000
   2         0.00000000
   3        -0.67683967
   4         0.06632983
   5        -0.00000000
   6        -0.00000000
   7        -0.00000000
   8         1.10240910
   9        -0.10803535
  10         0.00000000
Sym=     8a  
Ene=     0.2309
Spin= Beta
Occup=    0.00000
   1         0.16348142
   2         1.09270293
   3         0.00000000
   4         0.00000000
   5        -0.19183033
   6        -0.27421715
   7        -0.95041555
   8        -0.00000000
   9        -0.00000000
  10         1.02534908
Sym=     9a  
Ene=     0.2159
Spin= Alpha
Occup=    0.00000
   1         0.16384122
   2         1.06833037
   3         0.00000000
   4        -0.00000000
   5        -0.14642712
   6        -0.28778122
   7        -0.94496753
   8        -0.00000000
   9         0.00000000
  10         1.03697681
Sym=     9a  
Ene=     0.2742
Spin= Beta
Occup=    0.00000
   1         0.00000000
   2         0.00000000
   3        -0.10258631
   4        -1.04680628
   5        -0.00000000
   6        -0.00000000
   7        -0.00000000
   8         0.08148060
   9         0.83144035
  10         0.00000000
Sym=    10a  
Ene=     0.3717
Spin= Alpha
Occup=    0.00000
   1        -0.02245541
   2        -0.27785018
   3         0.00000000
   4        -0.00000000
   5        -1.16158579
   6         0.64474719
   7         0.20894186
   8        -0.00000000
   9         0.00000000
  10         0.14228285
Sym=    10a  
Ene=     0.4104
Spin= Beta
Occup=    0.00000
   1        -0.02904887
   2        -0.36262372
   3         0.00000000
   4        -0.00000000
   5        -1.15262170
   6         0.66597839
   7         0.24150446
   8        -0.00000000
   9         0.00000000
  10         0.10810836
