[Molden Format]
[N_Atoms]
                     2
[Atoms] (AU)
B1          1      5           0.00000000      0.00000000      0.00000000
F2          2      9           0.00000000      0.00000000      4.15739747
[Charge] (Mulliken)
   1.90102095009708     
  9.897904990288531E-002
[GTO] (AU)
   1
   s  14
  3.336021700E+04  1.039699991E-04
  4.972095200E+03  5.254399956E-04
  1.125641700E+03  2.509059979E-03
  3.164913600E+02  1.031887991E-02
  1.020072600E+02  3.636632969E-02
  3.629587300E+01  1.064607991E-01
  1.397141000E+01  2.403999880E-01
  5.741156000E+00  3.748581168E-01
  2.494268000E+00  3.100066974E-01
  1.114202000E+00  7.922455933E-02
  4.215490000E-01 -4.947589958E-03
  1.696330000E-01 -7.737119935E-03
  6.853500000E-02 -1.501079987E-03
  2.398700000E-02 -1.333299989E-04
   s  14
  3.336021700E+04 -2.030000008E-05
  4.972095200E+03 -1.025700004E-04
  1.125641700E+03 -4.911300020E-04
  3.164913600E+02 -2.026570008E-03
  1.020072600E+02 -7.261010030E-03
  3.629587300E+01 -2.197722009E-02
  1.397141000E+01 -5.408428022E-02
  5.741156000E+00 -1.022402604E-01
  2.494268000E+00 -1.423595206E-01
  1.114202000E+00 -4.658690019E-02
  4.215490000E-01  3.799402916E-01
  1.696330000E-01  5.890463624E-01
  6.853500000E-02  1.749075107E-01
  2.398700000E-02 -1.142030005E-03
   p   9
  5.500000000E+01  1.229800005E-03
  1.336610100E+01  8.827380035E-03
  4.135394000E+00  3.843340015E-02
  1.481256000E+00  1.150031805E-01
  6.021360000E-01  2.733674011E-01
  2.556360000E-01  4.061972116E-01
  1.111510000E-01  3.014967912E-01
  4.764800000E-02  7.684809030E-02
  1.667700000E-02 -8.170000032E-06
 
   2
   s  14
  1.031094600E+05  1.713099991E-04
  1.528100700E+04  7.123999962E-04
  3.441539200E+03  2.990479984E-03
  9.670948300E+02  1.164036994E-02
  3.140353400E+02  3.968642979E-02
  1.134423000E+02  1.128546094E-01
  4.464472700E+01  2.473650687E-01
  1.894287400E+01  3.672702681E-01
  8.532743000E+00  2.896286985E-01
  3.919401000E+00  7.786681959E-02
  1.568157000E+00  4.562139976E-03
  6.232900000E-01  2.468879987E-03
  2.408610000E-01  1.106309994E-03
  8.430100000E-02  1.739699991E-04
   s  14
  1.031094600E+05 -4.044999995E-05
  1.528100700E+04 -1.682299998E-04
  3.441539200E+03 -7.084299991E-04
  9.670948300E+02 -2.767999996E-03
  3.140353400E+02 -9.611379987E-03
  1.134423000E+02 -2.833957996E-02
  4.464472700E+01 -6.839343991E-02
  1.894287400E+01 -1.237379298E-01
  8.532743000E+00 -1.512859698E-01
  3.919401000E+00 -9.099909988E-03
  1.568157000E+00  3.716257695E-01
  6.232900000E-01  5.500214393E-01
  2.408610000E-01  2.092318697E-01
  8.430100000E-02  8.074639989E-03
   p   9
  2.453302900E+02  1.024860004E-03
  5.691900500E+01  8.344290032E-03
  1.760456800E+01  4.078927016E-02
  6.274995000E+00  1.351370605E-01
  2.447030000E+00  2.798830811E-01
  9.950600000E-01  3.597966414E-01
  4.039730000E-01  3.055347412E-01
  1.548100000E-01  1.354703905E-01
  5.418400000E-02  2.804449011E-02
 
[MO]
Sym=     1a  
Ene=   -27.0560
Spin= Alpha
Occup=    2.00000
   1        -0.00000905
   2        -0.00009849
   3         0.00000000
   4        -0.00000000
   5        -0.00008438
   6         0.99999555
   7        -0.00358298
   8        -0.00000010
   9         0.00000000
  10        -0.00024364
Sym=     2a  
Ene=    -8.8649
Spin= Alpha
Occup=    2.00000
   1         0.99992072
   2         0.01218981
   3        -0.00000011
   4         0.00000000
   5        -0.00027724
   6        -0.00000131
   7        -0.00000039
   8         0.00000047
   9        -0.00000002
  10        -0.00041348
Sym=     3a  
Ene=    -2.1478
Spin= Alpha
Occup=    2.00000
   1        -0.00308011
   2         0.02664925
   3        -0.00000012
   4         0.00000000
   5         0.01492275
   6         0.00314409
   7         0.99095425
   8         0.00001686
   9        -0.00000060
  10        -0.07791427
Sym=     4a  
Ene=    -1.2626
Spin= Alpha
Occup=    2.00000
   1         0.00001407
   2        -0.00023995
   3         0.01825699
   4        -0.00065347
   5        -0.00016830
   6         0.00000504
   7         0.00013044
   8         0.99782300
   9        -0.03571496
  10         0.00097610
Sym=     5a  
Ene=    -1.2626
Spin= Alpha
Occup=    2.00000
   1        -0.00000000
   2         0.00000000
   3         0.00065347
   4         0.01825699
   5         0.00000000
   6        -0.00000000
   7        -0.00000000
   8         0.03571498
   9         0.99782358
  10        -0.00000000
Sym=     6a  
Ene=    -1.1514
Spin= Alpha
Occup=    1.55515
   1        -0.01564312
   2         0.70914912
   3         0.00003116
   4        -0.00000112
   5         0.07653812
   6        -0.00663534
   7        -0.15768599
   8         0.00091132
   9        -0.00003262
  10        -0.59739782
Sym=     7a  
Ene=    -0.0025
Spin= Alpha
Occup=    0.44485
   1        -0.00068191
   2        -0.72548220
   3        -0.00007055
   4         0.00000253
   5         0.05810247
   6         0.00380988
   7         0.01590389
   8         0.00057285
   9        -0.00002050
  10        -0.78584452
Sym=     8a  
Ene=    -0.6875
Spin= Alpha
Occup=    0.00000
   1         0.00000058
   2        -0.00006624
   3         1.00202194
   4        -0.03586630
   5         0.00009191
   6        -0.00000106
   7        -0.00001220
   8        -0.09343168
   9         0.00334429
  10        -0.00003201
Sym=     9a  
Ene=    -0.6875
Spin= Alpha
Occup=    0.00000
   1        -0.00000000
   2         0.00000000
   3        -0.03586630
   4        -1.00202195
   5        -0.00000000
   6         0.00000000
   7         0.00000000
   8         0.00334429
   9         0.09343172
  10         0.00000000
Sym=    10a  
Ene=    -0.6511
Spin= Alpha
Occup=    0.00000
   1        -0.00342262
   2        -0.02962348
   3         0.00008507
   4        -0.00000305
   5        -1.02630262
   6         0.01700216
   7         0.18805480
   8        -0.00007136
   9         0.00000255
  10        -0.26546791
