[Molden Format]
[N_Atoms]
                     2
[Atoms] (AU)
C1          1      6           0.00000000      0.00000000      0.00000000
C2          2      6           0.00000000      0.00000000      5.10226054
[Charge] (Mulliken)
 -2.029605992301953E-004
  2.029605991991090E-004
[GTO] (AU)
   1
   s  14
  5.055750100E+04  1.128874000E-04
  7.524785600E+03  5.295373000E-04
  1.694327600E+03  2.450038300E-03
  4.728227900E+02  1.005398470E-02
  1.517107500E+02  3.545398060E-02
  5.391874600E+01  1.044071086E-01
  2.065931100E+01  2.412894918E-01
  8.383976000E+00  3.834225483E-01
  3.577015000E+00  3.078514393E-01
  1.547118000E+00  6.872442990E-02
  6.130130000E-01  2.224445000E-04
  2.460680000E-01  1.976748900E-03
  9.908700000E-02  2.057859400E-03
  3.468000000E-02  4.182020000E-04
   s  14
  5.055750100E+04 -2.507420000E-05
  7.524785600E+03 -1.175945000E-04
  1.694327600E+03 -5.456275000E-04
  4.728227900E+02 -2.245077100E-03
  1.517107500E+02 -8.043471800E-03
  5.391874600E+01 -2.442588710E-02
  2.065931100E+01 -6.136791180E-02
  8.383976000E+00 -1.177767835E-01
  3.577015000E+00 -1.550487783E-01
  1.547118000E+00 -1.933316860E-02
  6.130130000E-01  3.996930678E-01
  2.460680000E-01  5.589420949E-01
  9.908700000E-02  1.711195023E-01
  3.468000000E-02  7.456244600E-03
   p   9
  8.333315500E+01  1.344656000E-03
  1.955761100E+01  1.023555500E-02
  6.080365000E+00  4.520067100E-02
  2.179317000E+00  1.410756198E-01
  8.651500000E-01  3.047388085E-01
  3.619440000E-01  3.995281011E-01
  1.547400000E-01  2.719163432E-01
  6.542900000E-02  5.857669330E-02
  2.290000000E-02 -1.263813000E-04
 
   2
   s  14
  5.055750100E+04  1.128874000E-04
  7.524785600E+03  5.295373000E-04
  1.694327600E+03  2.450038300E-03
  4.728227900E+02  1.005398470E-02
  1.517107500E+02  3.545398060E-02
  5.391874600E+01  1.044071086E-01
  2.065931100E+01  2.412894918E-01
  8.383976000E+00  3.834225483E-01
  3.577015000E+00  3.078514393E-01
  1.547118000E+00  6.872442990E-02
  6.130130000E-01  2.224445000E-04
  2.460680000E-01  1.976748900E-03
  9.908700000E-02  2.057859400E-03
  3.468000000E-02  4.182020000E-04
   s  14
  5.055750100E+04 -2.507420000E-05
  7.524785600E+03 -1.175945000E-04
  1.694327600E+03 -5.456275000E-04
  4.728227900E+02 -2.245077100E-03
  1.517107500E+02 -8.043471800E-03
  5.391874600E+01 -2.442588710E-02
  2.065931100E+01 -6.136791180E-02
  8.383976000E+00 -1.177767835E-01
  3.577015000E+00 -1.550487783E-01
  1.547118000E+00 -1.933316860E-02
  6.130130000E-01  3.996930678E-01
  2.460680000E-01  5.589420949E-01
  9.908700000E-02  1.711195023E-01
  3.468000000E-02  7.456244600E-03
   p   9
  8.333315500E+01  1.344656000E-03
  1.955761100E+01  1.023555500E-02
  6.080365000E+00  4.520067100E-02
  2.179317000E+00  1.410756198E-01
  8.651500000E-01  3.047388085E-01
  3.619440000E-01  3.995281011E-01
  1.547400000E-01  2.719163432E-01
  6.542900000E-02  5.857669330E-02
  2.290000000E-02 -1.263813000E-04
 
[MO]
Sym=     1a  
Ene=   -11.2440
Spin= Alpha
Occup=    2.00000
   1        -0.99997715
   2         0.00239998
   3         0.00000000
   4         0.00000000
   5        -0.00008168
   6         0.00681918
   7         0.00023304
   8        -0.00000000
   9         0.00000000
  10        -0.00031071
Sym=     2a  
Ene=   -11.2430
Spin= Alpha
Occup=    2.00000
   1         0.00679226
   2         0.00035169
   3        -0.00000000
   4        -0.00000000
   5        -0.00062477
   6         0.99986231
   7        -0.01531038
   8         0.00000000
   9        -0.00000000
  10        -0.00002703
Sym=     3a  
Ene=    -0.6835
Spin= Alpha
Occup=    2.00000
   1         0.00229717
   2         0.99764489
   3        -0.00000000
   4         0.00000000
   5         0.00555269
   6        -0.00245332
   7        -0.00697892
   8         0.00000000
   9        -0.00000001
  10        -0.02355331
Sym=     4a  
Ene=    -0.3221
Spin= Alpha
Occup=    2.00000
   1         0.00000000
   2         0.00000000
   3         0.98175676
   4         0.17640570
   5        -0.00000002
   6         0.00000000
   7        -0.00000000
   8         0.04075071
   9         0.00719795
  10         0.00000000
Sym=     5a  
Ene=    -0.3217
Spin= Alpha
Occup=    2.00000
   1         0.00000000
   2         0.00000003
   3        -0.00723132
   4         0.04093805
   5        -0.00000002
   6         0.00000000
   7        -0.00000000
   8        -0.17640643
   9         0.98174084
  10         0.00000015
Sym=     6a  
Ene=    -0.6730
Spin= Alpha
Occup=    1.95400
   1        -0.00258020
   2        -0.05572169
   3         0.00000000
   4         0.00000000
   5         0.02394188
   6         0.01533918
   7         0.99898233
   8        -0.00000000
   9         0.00000001
  10        -0.00397161
Sym=     7a  
Ene=    -0.0001
Spin= Alpha
Occup=    0.04600
   1         0.00736027
   2         0.12921957
   3         0.00000000
   4         0.00000000
   5         0.00909723
   6        -0.00037474
   7        -0.00062503
   8        -0.00000006
   9        -0.00000017
  10         1.00641952
Sym=     8a  
Ene=     0.1328
Spin= Alpha
Occup=    0.00000
   1        -0.00000000
   2        -0.00000000
   3        -0.17685949
   4         0.98418223
   5         0.00000003
   6        -0.00000000
   7        -0.00000000
   8         0.01461488
   9        -0.08046290
  10        -0.00000000
Sym=     9a  
Ene=     0.1332
Spin= Alpha
Occup=    0.00000
   1        -0.00000000
   2        -0.00000001
   3         0.08027609
   4         0.01458116
   5         0.00000034
   6        -0.00000000
   7        -0.00000004
   8        -0.98418937
   9        -0.17686437
  10        -0.00000004
Sym=    10a  
Ene=     0.1492
Spin= Alpha
Occup=    0.00000
   1        -0.00126047
   2        -0.01575106
   3         0.00000000
   4         0.00000003
   5        -1.01465465
   6         0.00745312
   7         0.13077709
   8        -0.00000032
   9        -0.00000009
  10        -0.12946185
