[Molden Format]
[N_Atoms]
                     2
[Atoms] (AU)
C1          1      6           0.00000000      0.00000000      0.00000000
C2          2      6           0.00000000      0.00000000      5.10226054
[Charge] (Mulliken)
   1.00335397827746     
  0.996646021722517     
[GTO] (AU)
   1
   s  14
  5.055750100E+04  1.128874000E-04
  7.524785600E+03  5.295373000E-04
  1.694327600E+03  2.450038300E-03
  4.728227900E+02  1.005398470E-02
  1.517107500E+02  3.545398060E-02
  5.391874600E+01  1.044071086E-01
  2.065931100E+01  2.412894918E-01
  8.383976000E+00  3.834225483E-01
  3.577015000E+00  3.078514393E-01
  1.547118000E+00  6.872442990E-02
  6.130130000E-01  2.224445000E-04
  2.460680000E-01  1.976748900E-03
  9.908700000E-02  2.057859400E-03
  3.468000000E-02  4.182020000E-04
   s  14
  5.055750100E+04 -2.507420000E-05
  7.524785600E+03 -1.175945000E-04
  1.694327600E+03 -5.456275000E-04
  4.728227900E+02 -2.245077100E-03
  1.517107500E+02 -8.043471800E-03
  5.391874600E+01 -2.442588710E-02
  2.065931100E+01 -6.136791180E-02
  8.383976000E+00 -1.177767835E-01
  3.577015000E+00 -1.550487783E-01
  1.547118000E+00 -1.933316860E-02
  6.130130000E-01  3.996930678E-01
  2.460680000E-01  5.589420949E-01
  9.908700000E-02  1.711195023E-01
  3.468000000E-02  7.456244600E-03
   p   9
  8.333315500E+01  1.344656000E-03
  1.955761100E+01  1.023555500E-02
  6.080365000E+00  4.520067100E-02
  2.179317000E+00  1.410756198E-01
  8.651500000E-01  3.047388085E-01
  3.619440000E-01  3.995281011E-01
  1.547400000E-01  2.719163432E-01
  6.542900000E-02  5.857669330E-02
  2.290000000E-02 -1.263813000E-04
 
   2
   s  14
  5.055750100E+04  1.128874000E-04
  7.524785600E+03  5.295373000E-04
  1.694327600E+03  2.450038300E-03
  4.728227900E+02  1.005398470E-02
  1.517107500E+02  3.545398060E-02
  5.391874600E+01  1.044071086E-01
  2.065931100E+01  2.412894918E-01
  8.383976000E+00  3.834225483E-01
  3.577015000E+00  3.078514393E-01
  1.547118000E+00  6.872442990E-02
  6.130130000E-01  2.224445000E-04
  2.460680000E-01  1.976748900E-03
  9.908700000E-02  2.057859400E-03
  3.468000000E-02  4.182020000E-04
   s  14
  5.055750100E+04 -2.507420000E-05
  7.524785600E+03 -1.175945000E-04
  1.694327600E+03 -5.456275000E-04
  4.728227900E+02 -2.245077100E-03
  1.517107500E+02 -8.043471800E-03
  5.391874600E+01 -2.442588710E-02
  2.065931100E+01 -6.136791180E-02
  8.383976000E+00 -1.177767835E-01
  3.577015000E+00 -1.550487783E-01
  1.547118000E+00 -1.933316860E-02
  6.130130000E-01  3.996930678E-01
  2.460680000E-01  5.589420949E-01
  9.908700000E-02  1.711195023E-01
  3.468000000E-02  7.456244600E-03
   p   9
  8.333315500E+01  1.344656000E-03
  1.955761100E+01  1.023555500E-02
  6.080365000E+00  4.520067100E-02
  2.179317000E+00  1.410756198E-01
  8.651500000E-01  3.047388085E-01
  3.619440000E-01  3.995281011E-01
  1.547400000E-01  2.719163432E-01
  6.542900000E-02  5.857669330E-02
  2.290000000E-02 -1.263813000E-04
 
[MO]
Sym=     1a  
Ene=   -12.2360
Spin= Alpha
Occup=    2.00000
   1         0.99980359
   2        -0.01660237
   3        -0.00000000
   4         0.00000000
   5        -0.00078407
   6         0.01078673
   7         0.00059694
   8        -0.00000000
   9         0.00000000
  10         0.00024129
Sym=     2a  
Ene=   -12.2340
Spin= Alpha
Occup=    2.00000
   1        -0.01079433
   2        -0.00000348
   3        -0.00000000
   4         0.00000000
   5        -0.00012655
   6         0.99993274
   7        -0.00458244
   8        -0.00000000
   9         0.00000000
  10         0.00014349
Sym=     3a  
Ene=    -1.3882
Spin= Alpha
Occup=    2.00000
   1        -0.00279492
   2        -0.00367423
   3        -0.00000000
   4         0.00000001
   5         0.01434085
   6         0.00450710
   7         0.99685828
   8        -0.00000000
   9         0.00000000
  10        -0.05774348
Sym=     4a  
Ene=    -0.9121
Spin= Alpha
Occup=    2.00000
   1        -0.00000000
   2         0.00000001
   3        -0.26297459
   4         0.63987538
   5         0.00000010
   6        -0.00000000
   7        -0.00000003
   8        -0.26410449
   9         0.64262467
  10        -0.00000010
Sym=     5a  
Ene=    -0.5951
Spin= Alpha
Occup=    0.04855
   1        -0.00000000
   2         0.00000000
   3         0.92535565
   4         0.38030065
   5        -0.00000000
   6        -0.00000000
   7         0.00000000
   8        -0.01260528
   9        -0.00518049
  10         0.00000000
Sym=     6a  
Ene=    -0.0014
Spin= Alpha
Occup=    1.95145
   1        -0.01675529
   2        -0.99970809
   3        -0.00000001
   4         0.00000002
   5        -0.05477411
   6         0.00311997
   7         0.07125309
   8        -0.00000001
   9         0.00000001
  10         0.00791992
Sym=     7a  
Ene=    -0.7034
Spin= Alpha
Occup=    0.00000
   1        -0.00000000
   2        -0.00000001
   3         0.27491019
   4        -0.66891734
   5        -0.00000009
   6         0.00000000
   7         0.00000001
   8        -0.27382489
   9         0.66627655
  10        -0.00000009
Sym=     8a  
Ene=    -0.6367
Spin= Alpha
Occup=    0.00000
   1         0.00470214
   2         0.11239922
   3        -0.00000004
   4         0.00000009
   5        -0.66865064
   6         0.00476747
   7         0.11659202
   8        -0.00000004
   9         0.00000009
  10         0.66202027
Sym=     9a  
Ene=    -0.5827
Spin= Alpha
Occup=    0.00000
   1        -0.00000000
   2         0.00000000
   3        -0.02465419
   4        -0.01013232
   5         0.00000000
   6         0.00000000
   7         0.00000000
   8         0.92559820
   9         0.38040033
  10         0.00000000
Sym=    10a  
Ene=    -0.5366
Spin= Alpha
Occup=    0.00000
   1        -0.00580849
   2        -0.05489017
   3        -0.00000003
   4         0.00000008
   5        -0.76151893
   6         0.00578886
   7         0.05416112
   8         0.00000003
   9        -0.00000008
  10        -0.76716576
