   This run of MOLCAS is using the pymolcas driver

                             OPE
                             OPE          NMOL  CASOP  ENMOLC A   SO
                 OPE        NMOLC        AS  OP EN  MO LC     AS  OP
                OPENM       OL CA        SO  PE NM  OL CA     SOP EN
                OP EN      MO   LC       AS  OP ENMOL  CASO   PENMOL
                OP  EN     MO   LC       AS  OP EN     MO     LC ASO
               OP   E  NMOL  C  AS       OP  EN MO     LC     AS  OP
               OP  E   NMO   LC AS        OPEN  MO     LCASOP EN   M
               O  PEN   MO  LCA  SO
            OPE   NMO   L   CAS    OP
        OPENMOL  CASOP     ENMOL   CASOPE
     OPENMOLCA   SOPENMOLCASOPEN   MOLCASOPE
    OPENMOLCAS   OP           EN   MOL    CAS
    OPENMOLCAS       OP  ENM        O     LCA
    OPENMOLCAS    OPEN  MOLCASO     P  E  NMO
    OPENMOLCAS     OP               E  N  MOL
    OPENMOLCA   SO           PENM   O  L  CAS    OPEN    MO    LCAS
    OPENMOLCA   SOP           ENM   O  L  CAS   OP  EN  MOLC  AS   O
    OPENMOLCA   SOPE           NM      O  LCA   S      OP  EN MO
    OPENMOLC                AS         O  PEN   M      OL  CA  SOPE
    OPENMO        LCASOPE  NMOL        C  ASO   P      ENMOLC     AS
    OPE     NMO      LCA  SO     P     E   NM   OL  CA SO  PE N   MO
          OPENMOLCA            SOPE   NMO        LCAS  O    P  ENMO
     OPENMOLCASOPENMOLCASOPENMOLCASOPENMOLCA
        OPENMOLCASOPENMOLCASOPENMOLCASOPE
            OPENMOLCASOPENMOLCASOPENM
               OPENMOLCASOPENMOLCA        version: 1507f2d28
                   OPENMOLCASO
                       OPE                tag:

 OpenMolcas is free software; you can redistribute it and/or modify it
 under the terms of the GNU Lesser General Public License version 2.1.
 OpenMolcas is distributed in the hope that it will be useful, but it
 is provided "as is" and without any express or implied warranties.
 For more details see the full text of the license in the file
 LICENSE or in <http://www.gnu.org/licenses/>.

                 Copyright (C) The OpenMolcas Authors
           For the author list and the recommended citation,
                   consult the file CONTRIBUTORS.md

           *************************************************
           * pymolcas version py2.28                       *
           *   build c4a6d18ded8cb6cad61d2372a9abd97c      *
           *   (after the EMIL interpreter by V. Veryazov) *
           *************************************************

configuration info
------------------
C Compiler ID: IntelLLVM
C flags: -std=gnu99 -qopenmp
Fortran Compiler ID: IntelLLVM
Fortran flags: -standard-semantics -fltconsistency -fpp -i8 -heap-arrays -qopenmp
Definitions: _MOLCAS_;_I8_;_LINUX_
Parallel: OFF (GA=OFF)


   ----------------------------------------------------------------------------------
  |
  |              Project: H16_0.87
  |       Submitted from: /home/grierjones/DDCASPT2/hydrogen_comps/H16_chain/H16_0.87
  |         Scratch area: /tmp/H16_0.87
  |      Save outputs to: /home/grierjones/DDCASPT2/hydrogen_comps/H16_chain/H16_0.87
  |               Molcas: /home/grierjones/Test/build
  |
  | Scratch area is empty
  |
  |       MOLCAS_DRIVER = /usr/local/pymolcas
  | MOLCAS_KEEP_WORKDIR = NO
  |  MOLCAS_NEW_WORKDIR = YES
  |       MOLCAS_NPROCS = 1
  |        MOLCAS_PRINT = NORMAL
  |       MOLCAS_SOURCE = /home/grierjones/Test
  |    MOLCAS_STRUCTURE = 0
  |
   ----------------------------------------------------------------------------------

++ ---------   Input file   ---------

&GATEWAY
coord=H16_0.87.xyz
Basis = ANO-RCC-VDZP
Group = nosymm
Expert
End of Input

&SEWARD
End of Input

&SCF

>>> COPY $WorkDir/H16_0.87.scf.h5 $CurrDir/

&RASSCF
Title= RASSCF
NACTEL
16 0 0
Inactive
0
RAS2
16
Symmetry
1
Spin
1
orblisting
all
ITERation
300 200

>>> COPY $WorkDir/H16_0.87.rasscf.h5 $CurrDir/

>>> COPY $WorkDir/GMJ_Fock_MO.csv $CurrDir/H16_0.87.GMJ_Fock_MO.csv

>>> COPY $WorkDir/GMJ_PT2_Fock_MO.csv $CurrDir/H16_0.87.GMJ_PT2_Fock_MO.csv

&MOTRA
Frozen=0
LUMORB

>>> COPY $WorkDir/GMJ_one_int_indx.csv $CurrDir/H16_0.87.GMJ_one_int_indx.csv

>>> COPY $WorkDir/GMJ_one_int.csv $CurrDir/H16_0.87.GMJ_one_int.csv

>>> COPY $WorkDir/GMJ_two_int_indx.csv $CurrDir/H16_0.87.GMJ_two_int_indx.csv

>>> COPY $WorkDir/GMJ_two_int.csv $CurrDir/H16_0.87.GMJ_two_int.csv

&CASPT2
Frozen
0
MAXITER
50

>>> FOREACH i IN (B,E,F,G,H)

  >>> FOREACH j IN (P,M)

    >>> IF (-FILE GMJ_e2_${i}_${j}.csv)

      >>> COPY $WorkDir/GMJ_RHS_${i}_${j}.csv $CurrDir/GMJ_RHS_${i}_${j}.csv

      >>> COPY $WorkDir/GMJ_IVECW_${i}_${j}.csv $CurrDir/GMJ_IVECW_${i}_${j}.csv

      >>> COPY $WorkDir/GMJ_IVECX_${i}_${j}.csv $CurrDir/GMJ_IVECX_${i}_${j}.csv

      >>> COPY $WorkDir/GMJ_IVECC2_${i}_${j}.csv $CurrDir/GMJ_IVECC2_${i}_${j}.csv

      >>> COPY $WorkDir/GMJ_e2_${i}_${j}.csv $CurrDir/GMJ_e2_${i}_${j}.csv

    >>> END IF

  >>> END FOREACH

>>> END FOREACH

>>> FOREACH i IN (A,C,D)

  >>> IF (-FILE GMJ_e2_$i.csv)

    >>> COPY $WorkDir/GMJ_RHS_$i.csv $CurrDir/GMJ_RHS_$i.csv

    >>> COPY $WorkDir/GMJ_IVECW_$i.csv $CurrDir/GMJ_IVECW_$i.csv

    >>> COPY $WorkDir/GMJ_IVECX_$i.csv $CurrDir/GMJ_IVECX_$i.csv

    >>> COPY $WorkDir/GMJ_IVECC2_$i.csv $CurrDir/GMJ_IVECC2_$i.csv

    >>> COPY $WorkDir/GMJ_e2_$i.csv $CurrDir/GMJ_e2_$i.csv

  >>> END IF

>>> END FOREACH

-- ----------------------------------

--- Start Module: gateway at Tue Feb 25 12:57:09 2025 ---
 
()()()()()()()()()()()()()()()()()()()()()()()()()()()()()()()()()()()()()()()()()()()()()()()()()()

                                              &GATEWAY

                                   only a single process is used
                       available to each process: 2.0 GB of memory, 1 thread
()()()()()()()()()()()()()()()()()()()()()()()()()()()()()()()()()()()()()()()()()()()()()()()()()()
 
 ###############################################################################
 ###############################################################################
 ###                                                                         ###
 ###                                                                         ###
 ###                                                                         ###
 ###    WARNING: EXPERT option is ON!                                        ###
 ###                                                                         ###
 ###                                                                         ###
 ###############################################################################
 ###############################################################################
 
++    Symmetry information:
      ---------------------
 
                    Character Table for C1 
 
                             E  
                    a        1  x, y, xy, Rz, z, xz, Ry, yz, Rx, I
--
 
 
++    Basis set information:
      ----------------------
 
 
      Basis set label: H.ANO-RCC...2S1P.
 
      Electronic valence basis set:
      ------------------
      Associated Effective Charge   1.000000 au
      Associated Actual Charge      1.000000 au
      Nuclear Model: Point charge
 
      Shell  nPrim  nBasis  Cartesian Spherical Contaminant
         s       8       2        X                  
         p       4       1        X                  
--
 
 
++    Molecular structure info:
      -------------------------
 
                    ************************************************ 
                    **** Cartesian Coordinates / Bohr, Angstrom **** 
                    ************************************************ 
 
     Center  Label                x              y              z                     x              y              z
        1      H1               0.000000       0.000000       0.000000              0.000000       0.000000       0.000000
        2      H2               0.000000       0.000000       1.637763              0.000000       0.000000       0.866667
        3      H3               0.000000       0.000000       3.275525              0.000000       0.000000       1.733333
        4      H4               0.000000       0.000000       4.913288              0.000000       0.000000       2.600000
        5      H5               0.000000       0.000000       6.551051              0.000000       0.000000       3.466667
        6      H6               0.000000       0.000000       8.188813              0.000000       0.000000       4.333333
        7      H7               0.000000       0.000000       9.826576              0.000000       0.000000       5.200000
        8      H8               0.000000       0.000000      11.464339              0.000000       0.000000       6.066667
        9      H9               0.000000       0.000000      13.102101              0.000000       0.000000       6.933333
       10      H10              0.000000       0.000000      14.739864              0.000000       0.000000       7.800000
       11      H11              0.000000       0.000000      16.377627              0.000000       0.000000       8.666667
       12      H12              0.000000       0.000000      18.015388              0.000000       0.000000       9.533333
       13      H13              0.000000       0.000000      19.653152              0.000000       0.000000      10.400000
       14      H14              0.000000       0.000000      21.290915              0.000000       0.000000      11.266667
       15      H15              0.000000       0.000000      22.928676              0.000000       0.000000      12.133333
       16      H16              0.000000       0.000000      24.566440              0.000000       0.000000      13.000000
 
                    ************************************************* 
                    **** InterNuclear Distances / Bohr, Angstrom **** 
                    ************************************************* 
 
     Atom centers         Bohr        Angstrom
    2 H2        1 H1      1.637761        0.866666
    3 H3        2 H2    
    4 H4        3 H3    
    5 H5        4 H4    
    6 H6        5 H5    
    7 H7        6 H6    
    8 H8        7 H7    
    9 H9        8 H8    
   10 H10       9 H9    
   11 H11      10 H10   
   12 H12      11 H11   
   13 H13      12 H12   
   14 H14      13 H13   
   15 H15      14 H14   
   16 H16      15 H15   
    3 H3        1 H1      3.275525        1.733333
    4 H4        2 H2    
    5 H5        3 H3    
    6 H6        4 H4    
    7 H7        5 H5    
    8 H8        6 H6    
    9 H9        7 H7    
   10 H10       8 H8    
   11 H11       9 H9    
   12 H12      10 H10   
   13 H13      11 H11   
   14 H14      12 H12   
   15 H15      13 H13   
   16 H16      14 H14   
    4 H4        1 H1      4.913288        2.600000
    5 H5        2 H2    
    6 H6        3 H3    
    7 H7        4 H4    
    8 H8        5 H5    
    9 H9        6 H6    
   10 H10       7 H7    
   11 H11       8 H8    
   12 H12       9 H9    
   13 H13      10 H10   
   14 H14      11 H11   
   15 H15      12 H12   
   16 H16      13 H13   
--
 
 
            Nuclear Potential Energy             23.25835451 au
 
 ###############################################################################
 ###############################################################################
 ###                                                                         ###
 ###                                                                         ###
 ###    There were warnings during the execution                             ###
 ###    Please, check the output with care!                                  ###
 ###                                                                         ###
 ###                                                                         ###
 ###############################################################################
 ###############################################################################
--- Stop Module: gateway at Tue Feb 25 12:57:09 2025 /rc=_RC_ALL_IS_WELL_ ---
*** files: xmldump
    saved to directory /home/grierjones/DDCASPT2/hydrogen_comps/H16_chain/H16_0.87

--- Start Module: seward at Tue Feb 25 12:57:09 2025 ---
 
()()()()()()()()()()()()()()()()()()()()()()()()()()()()()()()()()()()()()()()()()()()()()()()()()()

                                              &SEWARD

                                   only a single process is used
                       available to each process: 2.0 GB of memory, 1 thread
()()()()()()()()()()()()()()()()()()()()()()()()()()()()()()()()()()()()()()()()()()()()()()()()()()
 
 ###############################################################################
 ###############################################################################
 ###                                                                         ###
 ###                                                                         ###
 ###                                                                         ###
 ###    WARNING: EXPERT option is ON!                                        ###
 ###                                                                         ###
 ###                                                                         ###
 ###############################################################################
 ###############################################################################
               SEWARD will generate:
                  Multipole Moment integrals up to order  2
                  Kinetic Energy integrals
                  Nuclear Attraction integrals (point charge)
                  One-Electron Hamiltonian integrals
                  Velocity integrals
                  Relativistic Douglas-Kroll-Hess integrals:
                    - Parametrization         : EXP
                    - DKH order of Hamiltonian: 2
                    - DKH order of Properties : 0
                         - multipole moment operators
                         - electric potential operators
                         - contact operators
                  Atomic mean-field integrals
                  Two-Electron Repulsion integrals
 
                   Integrals are discarded if absolute value <: 0.10E-13
                   Integral cutoff threshold is set to       <: 0.10E-15
 
            Nuclear Potential Energy             23.25835451 au
 
 
      Basis set specifications :
      Symmetry species         a  
      Basis functions           80
 
 
  Input file to MOLDEN was generated!
 
 ###############################################################################
 ###############################################################################
 ###                                                                         ###
 ###                                                                         ###
 ###    There were warnings during the execution                             ###
 ###    Please, check the output with care!                                  ###
 ###                                                                         ###
 ###                                                                         ###
 ###############################################################################
 ###############################################################################
forrtl: warning (525): IEEE_DIVIDE_BY_ZERO is signaling
forrtl: warning (526): IEEE_INVALID is signaling
forrtl: warning (528): IEEE_UNDERFLOW is signaling
--- Stop Module: seward at Tue Feb 25 12:57:13 2025 /rc=_RC_ALL_IS_WELL_ ---
*** files: H16_0.87.GssOrb H16_0.87.guessorb.h5 H16_0.87.guessorb.molden xmldump
    saved to directory /home/grierjones/DDCASPT2/hydrogen_comps/H16_chain/H16_0.87
--- Module seward spent 3 seconds ---

*** symbolic link created: INPORB -> H16_0.87.GssOrb
--- Start Module: scf at Tue Feb 25 12:57:13 2025 ---
 
()()()()()()()()()()()()()()()()()()()()()()()()()()()()()()()()()()()()()()()()()()()()()()()()()()

                                                &SCF

                                   only a single process is used
                       available to each process: 2.0 GB of memory, 1 thread
()()()()()()()()()()()()()()()()()()()()()()()()()()()()()()()()()()()()()()()()()()()()()()()()()()
 
++    Input section:
      --------------
 
      Header of the integral files:
      
       Integrals generated by seward 4.2.0  , Tue Feb 25 12:57:09 2025
 
 
      Cartesian coordinates in Angstrom:
      -----------------------------------------------------
      No.  Label        X            Y            Z        
      -----------------------------------------------------
       1   H1         0.00000000   0.00000000   0.00000000
       2   H2         0.00000000   0.00000000   0.86666700
       3   H3         0.00000000   0.00000000   1.73333300
       4   H4         0.00000000   0.00000000   2.60000000
       5   H5         0.00000000   0.00000000   3.46666700
       6   H6         0.00000000   0.00000000   4.33333300
       7   H7         0.00000000   0.00000000   5.20000000
       8   H8         0.00000000   0.00000000   6.06666700
       9   H9         0.00000000   0.00000000   6.93333300
      10   H10        0.00000000   0.00000000   7.80000000
      11   H11        0.00000000   0.00000000   8.66666700
      12   H12        0.00000000   0.00000000   9.53333300
      13   H13        0.00000000   0.00000000  10.40000000
      14   H14        0.00000000   0.00000000  11.26666700
      15   H15        0.00000000   0.00000000  12.13333300
      16   H16        0.00000000   0.00000000  13.00000000
      -----------------------------------------------------
      Nuclear repulsion energy =   23.25835451
--
 
++    Orbital specifications:
      -----------------------
 
      Symmetry species               1
                                     a
      Frozen orbitals                0
      Occupied orbitals              8
      Secondary orbitals            72
      Deleted orbitals               0
      Total number of orbitals      80
      Number of basis functions     80
--
 
      Molecular charge                           0.000
 
++    Optimization specifications:
      ----------------------------
 
      SCF Algorithm: Conventional
      Minimized density differences are used
      Number of density matrices in core                5
      Maximum number of NDDO SCF iterations           400
      Maximum number of HF SCF iterations             400
      Threshold for SCF energy change            0.10E-08
      Threshold for density matrix               0.10E-03
      Threshold for Fock matrix                  0.15E-03
      Threshold for linear dependence            0.10E-08
      Threshold at which DIIS is turned on       0.15E+00
      Threshold at which QNR/C2DIIS is turned on 0.75E-01
      Threshold for Norm(delta) (QNR/C2DIIS)     0.20E-04
      DIIS extrapolation of the SCF procedure
      All orbitals punched on: SCFORB
--
 
      Input vectors read from INPORB
      Orbital file label: *Guess orbitals
 
 
++ Convergence information
                                   SCF        iterations: Energy and convergence statistics
 
Iter     Tot. SCF        One-elec.       Two-elec.     Energy      Max Dij or  Max Fij      DNorm      TNorm      AccCon     Time
         Energy          Energy          Energy        Change      Delta Norm                                                in Sec.
   1    -8.304509446   -53.102986514    21.540122555   0.00E+00    0.26E+00*   0.22E+00*    0.58E+01   0.33E+02   None         0.
   2    -8.540771059   -53.952626156    22.153500585  -0.24E+00*   0.90E-01*   0.23E-01*    0.29E+01   0.33E+02   EDIIS        0.
   3    -8.551391571   -53.930499744    22.120753661  -0.11E-01*   0.26E-01*   0.60E-02*    0.74E+00   0.33E+02   EDIIS        0.
   4    -8.552541789   -53.947167979    22.136271677  -0.12E-02*   0.13E-01*   0.42E-02*    0.23E+00   0.33E+02   c2DIIS       0.
   5    -8.552827947   -53.947951353    22.136768893  -0.29E-03*   0.36E-02*   0.98E-03*    0.63E-01   0.33E+02   QNRc2DIIS    0.
   6    -8.552849872   -53.948726988    22.137522603  -0.22E-04*   0.36E-02*   0.45E-03*    0.93E-02   0.33E+02   QNRc2DIIS    0.
   7    -8.552857377   -53.948433388    22.137221498  -0.75E-05*   0.10E-03*   0.39E-04     0.23E-02   0.33E+02   QNRc2DIIS    0.
   8    -8.552857396   -53.948445057    22.137233149  -0.19E-07*   0.22E-04*   0.88E-05     0.43E-03   0.33E+02   QNRc2DIIS    0.
   9    -8.552857396   -53.948453216    22.137241307  -0.77E-09    0.29E-05    0.90E-06     0.80E-04   0.33E+02   QNRc2DIIS    0.
 
       Convergence after  9 Macro Iterations
--
 
 *****************************************************************************************************************************
 *                                                                                                                           *
 *                                             SCF/KS-DFT Program, Final results                                             *
 *                                                                                                                           *
 *                                                                                                                           *
 *                                                                                                                           *
 *                                                       Final Results                                                       *
 *                                                                                                                           *
 *****************************************************************************************************************************
 
::    Total SCF energy                                 -8.5528573965
      One-electron energy                             -53.9484532159
      Two-electron energy                              22.1372413066
      Nuclear repulsion energy                         23.2583545129
      Kinetic energy (interpolated)                     9.2364482974
      Virial theorem                                    0.9259898525
      Total spin, S(S+1)                                0.0000000000
      Total spin, S                                     0.0000000000
      Max non-diagonal density matrix element           0.0000046112
      Max non-diagonal Fock matrix element              0.0000001998
 
 
      All orbitals with orbital energies smaller than  E(LUMO)+0.5 are printed
 
++    Molecular orbitals:
      -------------------
 
      Title: SCF orbitals

      Molecular orbitals for symmetry species 1: a  
 
          Orbital            1         2         3         4         5         6         7         8         9        10    
          Energy           -0.8198   -0.7930   -0.7494   -0.6880   -0.6085   -0.5110   -0.3962   -0.2711    0.0487    0.1495
          Occ. No.          2.0000    2.0000    2.0000    2.0000    2.0000    2.0000    2.0000    2.0000    0.0000    0.0000
 
        1 H1     1s         0.0438   -0.0959    0.1530   -0.2024    0.2385   -0.2726    0.3164   -0.3239    0.6521   -0.9238
        2 H1     2s         0.0082   -0.0162    0.0211   -0.0173    0.0058   -0.0019    0.0246   -0.0683    0.3809   -0.7501
        3 H1     2px        0.0000   -0.0000    0.0000   -0.0000    0.0000   -0.0000    0.0000   -0.0000    0.0000   -0.0000
        4 H1     2py        0.0000   -0.0000    0.0000   -0.0000    0.0000   -0.0000    0.0000   -0.0000    0.0000   -0.0000
        5 H1     2pz        0.0040   -0.0098    0.0158   -0.0189    0.0176   -0.0133    0.0083   -0.0041    0.0105   -0.0281
        6 H2     1s         0.0461   -0.0983    0.1479   -0.1901    0.2314   -0.2639    0.2487   -0.1382   -0.4255    1.0888
        7 H2     2s        -0.0195    0.0391   -0.0577    0.0638   -0.0398   -0.0135    0.0633   -0.0583   -0.2134    0.5632
        8 H2     2px       -0.0000    0.0000   -0.0000    0.0000   -0.0000   -0.0000    0.0000   -0.0000    0.0000   -0.0000
        9 H2     2py       -0.0000    0.0000   -0.0000    0.0000   -0.0000   -0.0000    0.0000   -0.0000    0.0000   -0.0000
       10 H2     2pz        0.0014   -0.0060    0.0094   -0.0053   -0.0063    0.0199   -0.0294    0.0273   -0.0072   -0.0316
       11 H3     1s         0.1182   -0.2066    0.2347   -0.1850    0.0615    0.1226   -0.3315    0.4219   -0.3995   -0.0981
       12 H3     2s        -0.0029    0.0149   -0.0305    0.0374   -0.0323    0.0353   -0.0717    0.1113   -0.1081   -0.2218
       13 H3     2px       -0.0000    0.0000   -0.0000   -0.0000    0.0000   -0.0000    0.0000   -0.0000    0.0000   -0.0000
       14 H3     2py       -0.0000   -0.0000    0.0000   -0.0000    0.0000    0.0000   -0.0000    0.0000   -0.0000    0.0000
       15 H3     2pz        0.0015   -0.0055    0.0043    0.0072   -0.0213    0.0278   -0.0228    0.0094    0.0201   -0.0402
       16 H4     1s         0.1229   -0.2108    0.2065   -0.0984   -0.0704    0.2405   -0.3246    0.2281    0.2010   -0.2969
       17 H4     2s        -0.0283    0.0376   -0.0244   -0.0096    0.0394   -0.0197   -0.0465    0.0767    0.0446   -0.1234
       18 H4     2px        0.0000   -0.0000    0.0000    0.0000   -0.0000    0.0000   -0.0000   -0.0000    0.0000   -0.0000
       19 H4     2py        0.0000    0.0000    0.0000   -0.0000    0.0000   -0.0000   -0.0000    0.0000   -0.0000    0.0000
       20 H4     2pz       -0.0008   -0.0011   -0.0049    0.0179   -0.0209    0.0061    0.0171   -0.0285    0.0319   -0.0281
       21 H5     1s         0.1826   -0.2131    0.0658    0.1437   -0.2510    0.1485    0.1643   -0.4337    0.5670   -0.1221
       22 H5     2s        -0.0141    0.0360   -0.0363    0.0022    0.0257   -0.0220    0.0463   -0.1166    0.2481   -0.1314
       23 H5     2px        0.0000   -0.0000    0.0000    0.0000   -0.0000    0.0000    0.0000   -0.0000    0.0000   -0.0000
       24 H5     2py        0.0000   -0.0000    0.0000   -0.0000    0.0000    0.0000   -0.0000    0.0000   -0.0000    0.0000
       25 H5     2pz        0.0008   -0.0017   -0.0084    0.0170   -0.0046   -0.0188    0.0282   -0.0152   -0.0167    0.0092
       26 H6     1s         0.1854   -0.2022    0.0088    0.2032   -0.2072   -0.0398    0.3288   -0.3105   -0.4080    0.6182
       27 H6     2s        -0.0324    0.0167    0.0272   -0.0456    0.0020    0.0303    0.0382   -0.0951   -0.1650    0.2825
       28 H6     2px       -0.0000   -0.0000    0.0000    0.0000   -0.0000    0.0000    0.0000   -0.0000    0.0000   -0.0000
       29 H6     2py       -0.0000    0.0000    0.0000   -0.0000    0.0000   -0.0000   -0.0000    0.0000   -0.0000    0.0000
       30 H6     2pz       -0.0014    0.0019   -0.0104    0.0049    0.0191   -0.0253   -0.0020    0.0282   -0.0236   -0.0177
       31 H7     1s         0.2192   -0.0984   -0.1733    0.1902    0.0887   -0.2870    0.0333    0.4179   -0.4812   -0.2641
       32 H7     2s        -0.0242    0.0351    0.0070   -0.0466    0.0213   -0.0007   -0.0214    0.1163   -0.1851   -0.1622
       33 H7     2px       -0.0000   -0.0000    0.0000    0.0000    0.0000    0.0000    0.0000   -0.0000   -0.0000   -0.0000
       34 H7     2py        0.0000   -0.0000   -0.0000    0.0000   -0.0000   -0.0000   -0.0000    0.0000   -0.0000    0.0000
       35 H7     2pz        0.0010    0.0013   -0.0088   -0.0073    0.0249   -0.0046   -0.0256    0.0211    0.0216   -0.0303
       36 H8     1s         0.2202   -0.0742   -0.2037    0.1242    0.1963   -0.2001   -0.2173    0.3750    0.4402   -0.3525
       37 H8     2s        -0.0309   -0.0134    0.0432    0.0080   -0.0391   -0.0235   -0.0105    0.1085    0.1721   -0.1609
       38 H8     2px        0.0000    0.0000   -0.0000   -0.0000   -0.0000   -0.0000    0.0000    0.0000    0.0000   -0.0000
       39 H8     2py       -0.0000    0.0000    0.0000   -0.0000    0.0000    0.0000   -0.0000    0.0000   -0.0000    0.0000
       40 H8     2pz       -0.0013    0.0027   -0.0021   -0.0186    0.0102    0.0246   -0.0144   -0.0254    0.0244   -0.0019
       41 H9     1s         0.2202    0.0742   -0.2037   -0.1242    0.1963    0.2001   -0.2173   -0.3750    0.4402    0.3525
       42 H9     2s        -0.0309    0.0134    0.0432   -0.0080   -0.0391    0.0235   -0.0105   -0.1085    0.1721    0.1609
       43 H9     2px        0.0000    0.0000    0.0000    0.0000    0.0000   -0.0000    0.0000    0.0000   -0.0000   -0.0000
       44 H9     2py        0.0000   -0.0000   -0.0000    0.0000   -0.0000   -0.0000   -0.0000   -0.0000   -0.0000   -0.0000
       45 H9     2pz        0.0013    0.0027    0.0021   -0.0186   -0.0102    0.0246    0.0144   -0.0254   -0.0244   -0.0019
       46 H10    1s         0.2192    0.0984   -0.1733   -0.1902    0.0887    0.2870    0.0333   -0.4179   -0.4812    0.2641
       47 H10    2s        -0.0242   -0.0351    0.0070    0.0466    0.0213    0.0007   -0.0214   -0.1163   -0.1851    0.1622
       48 H10    2px        0.0000    0.0000   -0.0000    0.0000   -0.0000   -0.0000    0.0000   -0.0000   -0.0000    0.0000
       49 H10    2py        0.0000   -0.0000    0.0000   -0.0000    0.0000    0.0000    0.0000    0.0000    0.0000    0.0000
       50 H10    2pz       -0.0010    0.0013    0.0088   -0.0073   -0.0249   -0.0046    0.0256    0.0211   -0.0216   -0.0303
       51 H11    1s         0.1854    0.2022    0.0088   -0.2032   -0.2072    0.0398    0.3288    0.3105   -0.4080   -0.6182
       52 H11    2s        -0.0324   -0.0167    0.0272    0.0456    0.0020   -0.0303    0.0382    0.0951   -0.1650   -0.2825
       53 H11    2px       -0.0000    0.0000    0.0000    0.0000    0.0000   -0.0000   -0.0000    0.0000    0.0000    0.0000
       54 H11    2py       -0.0000   -0.0000   -0.0000    0.0000    0.0000   -0.0000   -0.0000   -0.0000    0.0000   -0.0000
       55 H11    2pz        0.0014    0.0019    0.0104    0.0049   -0.0191   -0.0253    0.0020    0.0282    0.0236   -0.0177
       56 H12    1s         0.1826    0.2131    0.0658   -0.1437   -0.2510   -0.1485    0.1643    0.4337    0.5670    0.1221
       57 H12    2s        -0.0141   -0.0360   -0.0363   -0.0022    0.0257    0.0220    0.0463    0.1166    0.2481    0.1314
       58 H12    2px        0.0000   -0.0000    0.0000    0.0000    0.0000    0.0000    0.0000   -0.0000    0.0000    0.0000
       59 H12    2py       -0.0000   -0.0000    0.0000   -0.0000    0.0000   -0.0000    0.0000   -0.0000    0.0000    0.0000
       60 H12    2pz       -0.0008   -0.0017    0.0084    0.0170    0.0046   -0.0188   -0.0282   -0.0152    0.0167    0.0092
       61 H13    1s         0.1229    0.2108    0.2065    0.0984   -0.0704   -0.2405   -0.3246   -0.2281    0.2010    0.2969
       62 H13    2s        -0.0283   -0.0376   -0.0244    0.0096    0.0394    0.0197   -0.0465   -0.0767    0.0446    0.1234
       63 H13    2px        0.0000   -0.0000   -0.0000    0.0000    0.0000    0.0000    0.0000    0.0000    0.0000    0.0000
       64 H13    2py        0.0000    0.0000   -0.0000    0.0000    0.0000    0.0000    0.0000   -0.0000    0.0000    0.0000
       65 H13    2pz        0.0008   -0.0011    0.0049    0.0179    0.0209    0.0061   -0.0171   -0.0285   -0.0319   -0.0281
       66 H14    1s         0.1182    0.2066    0.2347    0.1850    0.0615   -0.1226   -0.3315   -0.4219   -0.3995    0.0981
       67 H14    2s        -0.0029   -0.0149   -0.0305   -0.0374   -0.0323   -0.0353   -0.0717   -0.1113   -0.1081    0.2218
       68 H14    2px       -0.0000   -0.0000    0.0000   -0.0000    0.0000   -0.0000    0.0000    0.0000   -0.0000   -0.0000
       69 H14    2py        0.0000   -0.0000    0.0000   -0.0000   -0.0000   -0.0000   -0.0000    0.0000    0.0000    0.0000
       70 H14    2pz       -0.0015   -0.0055   -0.0043    0.0072    0.0213    0.0278    0.0228    0.0094   -0.0201   -0.0402
       71 H15    1s         0.0461    0.0983    0.1479    0.1901    0.2314    0.2639    0.2487    0.1382   -0.4255   -1.0888
       72 H15    2s        -0.0195   -0.0391   -0.0577   -0.0638   -0.0398    0.0135    0.0633    0.0583   -0.2134   -0.5632
       73 H15    2px        0.0000    0.0000    0.0000    0.0000   -0.0000    0.0000   -0.0000   -0.0000    0.0000    0.0000
       74 H15    2py       -0.0000    0.0000    0.0000    0.0000    0.0000    0.0000    0.0000   -0.0000    0.0000   -0.0000
       75 H15    2pz       -0.0014   -0.0060   -0.0094   -0.0053    0.0063    0.0199    0.0294    0.0273    0.0072   -0.0316
       76 H16    1s         0.0438    0.0959    0.1530    0.2024    0.2385    0.2726    0.3164    0.3239    0.6521    0.9238
       77 H16    2s         0.0082    0.0162    0.0211    0.0173    0.0058    0.0019    0.0246    0.0683    0.3809    0.7501
       78 H16    2px        0.0000    0.0000    0.0000   -0.0000    0.0000    0.0000   -0.0000    0.0000    0.0000   -0.0000
       79 H16    2py        0.0000   -0.0000   -0.0000   -0.0000   -0.0000   -0.0000   -0.0000   -0.0000    0.0000   -0.0000
       80 H16    2pz       -0.0040   -0.0098   -0.0158   -0.0189   -0.0176   -0.0133   -0.0083   -0.0041   -0.0105   -0.0281
 
          Orbital           11        12        13        14        15        16        17        18        19        20    
          Energy            0.1655    0.2150    0.2225    0.3231    0.3239    0.4689    0.4736    0.4941    0.4941    0.5296
          Occ. No.          0.0000    0.0000    0.0000    0.0000    0.0000    0.0000    0.0000    0.0000    0.0000    0.0000
 
        1 H1     1s         0.0087   -0.5833    0.6858   -0.4168    1.1826   -0.2282   -1.4269    0.0000    0.0000   -0.0000
        2 H1     2s         0.1162   -0.2672    0.7658   -0.6897    0.7866   -0.6068   -0.9846   -0.0000    0.0000   -0.0000
        3 H1     2px        0.0000    0.0000    0.0000    0.0000   -0.0000    0.0000    0.0000    0.0030    0.0451   -0.0021
        4 H1     2py        0.0000    0.0000    0.0000   -0.0000   -0.0000   -0.0000   -0.0000    0.0451   -0.0030   -0.0953
        5 H1     2pz       -0.0031   -0.0208    0.0462   -0.0736    0.0474   -0.1075   -0.0488   -0.0000    0.0000    0.0000
        6 H2     1s        -0.2080    0.4019   -1.1367    0.8838   -1.4360    0.4343    2.1931   -0.0000   -0.0000    0.0000
        7 H2     2s        -0.0316    0.3860   -0.5928    0.5059   -1.1101    0.3233    1.7411   -0.0000   -0.0000    0.0000
        8 H2     2px        0.0000    0.0000    0.0000   -0.0000   -0.0000    0.0000    0.0000    0.0050    0.0759   -0.0033
        9 H2     2py       -0.0000    0.0000    0.0000   -0.0000   -0.0000   -0.0000    0.0000    0.0759   -0.0050   -0.1499
       10 H2     2pz       -0.0054   -0.0232    0.0816   -0.1352    0.0605   -0.1762   -0.0549   -0.0000    0.0000    0.0000
       11 H3     1s         0.1218    0.1113    0.7665   -1.2427    0.5399   -1.1940   -1.3122    0.0000    0.0000   -0.0000
       12 H3     2s         0.1865    0.2011    0.5915   -0.8086    0.1608   -0.7090   -0.6274    0.0000    0.0000   -0.0000
       13 H3     2px        0.0000    0.0000    0.0000   -0.0000   -0.0000    0.0000    0.0000    0.0073    0.1106   -0.0044
       14 H3     2py       -0.0000   -0.0000    0.0000   -0.0000   -0.0000   -0.0000    0.0000    0.1106   -0.0073   -0.1973
       15 H3     2pz       -0.0162   -0.0316    0.0630   -0.0818    0.0163   -0.0749    0.0560   -0.0000    0.0000    0.0000
       16 H4     1s        -0.0647   -0.3040   -0.0791    0.8191    0.1800    1.6996    0.4150   -0.0000   -0.0000    0.0000
       17 H4     2s         0.0946    0.0760   -0.0720    0.5903   -0.1736    1.2581    0.4166   -0.0000   -0.0000    0.0000
       18 H4     2px        0.0000    0.0000    0.0000   -0.0000   -0.0000    0.0000    0.0000    0.0094    0.1420   -0.0049
       19 H4     2py       -0.0000   -0.0000    0.0000   -0.0000    0.0000   -0.0000    0.0000    0.1420   -0.0094   -0.2185
       20 H4     2pz       -0.0218   -0.0120    0.0496   -0.0649   -0.0502   -0.0457    0.1288   -0.0000   -0.0000    0.0000
       21 H5     1s        -0.1658   -0.1520   -0.3153    0.2783   -0.4180   -0.5716    0.5606    0.0000   -0.0000   -0.0000
       22 H5     2s         0.0788    0.1120   -0.1411    0.2717   -0.3041   -0.1630    0.1737    0.0000   -0.0000   -0.0000
       23 H5     2px        0.0000    0.0000    0.0000    0.0000   -0.0000    0.0000    0.0000    0.0112    0.1695   -0.0047
       24 H5     2py       -0.0000   -0.0000    0.0000   -0.0000   -0.0000   -0.0000   -0.0000    0.1695   -0.0112   -0.2112
       25 H5     2pz       -0.0158    0.0342    0.0503   -0.0570   -0.0966    0.0168    0.1040   -0.0000   -0.0000    0.0000
       26 H6     1s        -0.0300    0.3985   -0.0340   -0.5720   -0.1808   -0.4604   -0.8671   -0.0000    0.0000    0.0000
       27 H6     2s         0.1487    0.3671   -0.1276   -0.0937   -0.0983   -0.1702   -0.7389    0.0000    0.0000    0.0000
       28 H6     2px        0.0000    0.0000    0.0000    0.0000   -0.0000    0.0000    0.0000    0.0127    0.1914   -0.0039
       29 H6     2py       -0.0000   -0.0000    0.0000   -0.0000   -0.0000   -0.0000   -0.0000    0.1914   -0.0127   -0.1757
       30 H6     2pz       -0.0072    0.0403    0.0653   -0.0019   -0.0735    0.1079    0.0289    0.0000   -0.0000   -0.0000
       31 H7     1s         0.0643   -0.1461    0.5331    0.1165    0.7312    1.0719   -0.3392   -0.0000   -0.0000    0.0000
       32 H7     2s         0.2084    0.0305    0.1498    0.1970    0.5449    0.5255   -0.4727   -0.0000   -0.0000    0.0000
       33 H7     2px        0.0000    0.0000    0.0000    0.0000   -0.0000    0.0000    0.0000    0.0137    0.2065   -0.0026
       34 H7     2py       -0.0000   -0.0000    0.0000   -0.0000    0.0000   -0.0000   -0.0000    0.2065   -0.0137   -0.1160
       35 H7     2pz       -0.0109    0.0453    0.0214    0.0705   -0.0795    0.0884   -0.0220    0.0000   -0.0000   -0.0000
       36 H8     1s        -0.1520   -0.3030   -0.3261    0.6799   -0.3206   -0.7280    0.8852    0.0000   -0.0000   -0.0000
       37 H8     2s         0.1115   -0.1123   -0.3148    0.4319    0.0452   -0.6329    0.4254    0.0000    0.0000   -0.0000
       38 H8     2px       -0.0000    0.0000    0.0000    0.0000   -0.0000    0.0000    0.0000    0.0142    0.2143   -0.0009
       39 H8     2py        0.0000   -0.0000    0.0000   -0.0000   -0.0000    0.0000   -0.0000    0.2143   -0.0142   -0.0406
       40 H8     2pz       -0.0068    0.0736   -0.0032    0.0622   -0.0432    0.0110   -0.1194    0.0000    0.0000   -0.0000
       41 H9     1s        -0.1520    0.3030   -0.3261   -0.6799   -0.3206   -0.7280   -0.8852   -0.0000    0.0000    0.0000
       42 H9     2s         0.1115    0.1123   -0.3148   -0.4319    0.0452   -0.6329   -0.4254   -0.0000    0.0000    0.0000
       43 H9     2px       -0.0000    0.0000   -0.0000    0.0000    0.0000    0.0000    0.0000    0.0142    0.2143    0.0009
       44 H9     2py        0.0000   -0.0000    0.0000   -0.0000    0.0000   -0.0000   -0.0000    0.2143   -0.0142    0.0406
       45 H9     2pz        0.0068    0.0736    0.0032    0.0622    0.0432   -0.0110   -0.1194    0.0000    0.0000   -0.0000
       46 H10    1s         0.0643    0.1461    0.5331   -0.1165    0.7312    1.0719    0.3392    0.0000   -0.0000   -0.0000
       47 H10    2s         0.2084   -0.0305    0.1498   -0.1970    0.5449    0.5255    0.4727    0.0000   -0.0000   -0.0000
       48 H10    2px        0.0000   -0.0000    0.0000    0.0000   -0.0000    0.0000    0.0000    0.0137    0.2065    0.0026
       49 H10    2py       -0.0000   -0.0000   -0.0000    0.0000   -0.0000   -0.0000   -0.0000    0.2065   -0.0137    0.1160
       50 H10    2pz        0.0109    0.0453   -0.0214    0.0705    0.0795   -0.0884   -0.0220    0.0000    0.0000    0.0000
       51 H11    1s        -0.0300   -0.3985   -0.0340    0.5720   -0.1808   -0.4604    0.8671   -0.0000   -0.0000    0.0000
       52 H11    2s         0.1487   -0.3671   -0.1276    0.0937   -0.0983   -0.1702    0.7389   -0.0000   -0.0000    0.0000
       53 H11    2px        0.0000    0.0000    0.0000    0.0000    0.0000    0.0000    0.0000    0.0127    0.1914    0.0039
       54 H11    2py        0.0000   -0.0000   -0.0000    0.0000   -0.0000   -0.0000   -0.0000    0.1914   -0.0127    0.1757
       55 H11    2pz        0.0072    0.0403   -0.0653   -0.0019    0.0735   -0.1079    0.0289    0.0000    0.0000   -0.0000
       56 H12    1s        -0.1658    0.1520   -0.3153   -0.2783   -0.4180   -0.5716   -0.5606    0.0000    0.0000   -0.0000
       57 H12    2s         0.0788   -0.1120   -0.1411   -0.2717   -0.3041   -0.1630   -0.1737    0.0000    0.0000   -0.0000
       58 H12    2px        0.0000   -0.0000   -0.0000    0.0000   -0.0000    0.0000    0.0000    0.0112    0.1695    0.0047
       59 H12    2py        0.0000    0.0000   -0.0000   -0.0000   -0.0000   -0.0000   -0.0000    0.1695   -0.0112    0.2112
       60 H12    2pz        0.0158    0.0342   -0.0503   -0.0570    0.0966   -0.0168    0.1040    0.0000   -0.0000   -0.0000
       61 H13    1s        -0.0647    0.3040   -0.0791   -0.8191    0.1800    1.6996   -0.4150   -0.0000   -0.0000    0.0000
       62 H13    2s         0.0946   -0.0760   -0.0720   -0.5903   -0.1736    1.2581   -0.4166   -0.0000   -0.0000    0.0000
       63 H13    2px        0.0000   -0.0000    0.0000    0.0000    0.0000    0.0000    0.0000    0.0094    0.1420    0.0049
       64 H13    2py       -0.0000    0.0000    0.0000    0.0000   -0.0000   -0.0000   -0.0000    0.1420   -0.0094    0.2185
       65 H13    2pz        0.0218   -0.0120   -0.0496   -0.0649    0.0502    0.0457    0.1288    0.0000   -0.0000   -0.0000
       66 H14    1s         0.1218   -0.1113    0.7665    1.2427    0.5399   -1.1940    1.3122    0.0000    0.0000   -0.0000
       67 H14    2s         0.1865   -0.2011    0.5915    0.8086    0.1608   -0.7090    0.6274    0.0000    0.0000   -0.0000
       68 H14    2px       -0.0000    0.0000    0.0000    0.0000    0.0000    0.0000    0.0000    0.0073    0.1106    0.0044
       69 H14    2py       -0.0000    0.0000    0.0000    0.0000   -0.0000   -0.0000   -0.0000    0.1106   -0.0073    0.1973
       70 H14    2pz        0.0162   -0.0316   -0.0630   -0.0818   -0.0163    0.0749    0.0560    0.0000   -0.0000   -0.0000
       71 H15    1s        -0.2080   -0.4019   -1.1367   -0.8838   -1.4360    0.4343   -2.1931   -0.0000    0.0000    0.0000
       72 H15    2s        -0.0316   -0.3860   -0.5928   -0.5059   -1.1101    0.3233   -1.7411   -0.0000    0.0000    0.0000
       73 H15    2px        0.0000   -0.0000   -0.0000   -0.0000   -0.0000    0.0000    0.0000    0.0050    0.0759    0.0033
       74 H15    2py        0.0000   -0.0000   -0.0000    0.0000   -0.0000   -0.0000    0.0000    0.0759   -0.0050    0.1499
       75 H15    2pz        0.0054   -0.0232   -0.0816   -0.1352   -0.0605    0.1762   -0.0549   -0.0000   -0.0000    0.0000
       76 H16    1s         0.0087    0.5833    0.6858    0.4168    1.1826   -0.2282    1.4269    0.0000   -0.0000   -0.0000
       77 H16    2s         0.1162    0.2672    0.7658    0.6897    0.7866   -0.6068    0.9846    0.0000   -0.0000   -0.0000
       78 H16    2px        0.0000   -0.0000   -0.0000    0.0000   -0.0000    0.0000    0.0000    0.0030    0.0451    0.0021
       79 H16    2py        0.0000   -0.0000    0.0000    0.0000   -0.0000   -0.0000    0.0000    0.0451   -0.0030    0.0953
       80 H16    2pz        0.0031   -0.0208   -0.0462   -0.0736   -0.0474    0.1075   -0.0488   -0.0000   -0.0000    0.0000
 
          Orbital           21    
          Energy            0.5296
          Occ. No.          0.0000
 
        1 H1     1s         0.0000
        2 H1     2s         0.0000
        3 H1     2px       -0.0953
        4 H1     2py        0.0021
        5 H1     2pz        0.0000
        6 H2     1s        -0.0000
        7 H2     2s        -0.0000
        8 H2     2px       -0.1499
        9 H2     2py        0.0033
       10 H2     2pz        0.0000
       11 H3     1s        -0.0000
       12 H3     2s        -0.0000
       13 H3     2px       -0.1973
       14 H3     2py        0.0044
       15 H3     2pz       -0.0000
       16 H4     1s         0.0000
       17 H4     2s         0.0000
       18 H4     2px       -0.2185
       19 H4     2py        0.0049
       20 H4     2pz       -0.0000
       21 H5     1s         0.0000
       22 H5     2s         0.0000
       23 H5     2px       -0.2112
       24 H5     2py        0.0047
       25 H5     2pz        0.0000
       26 H6     1s        -0.0000
       27 H6     2s        -0.0000
       28 H6     2px       -0.1757
       29 H6     2py        0.0039
       30 H6     2pz        0.0000
       31 H7     1s         0.0000
       32 H7     2s         0.0000
       33 H7     2px       -0.1160
       34 H7     2py        0.0026
       35 H7     2pz        0.0000
       36 H8     1s         0.0000
       37 H8     2s        -0.0000
       38 H8     2px       -0.0406
       39 H8     2py        0.0009
       40 H8     2pz       -0.0000
       41 H9     1s        -0.0000
       42 H9     2s        -0.0000
       43 H9     2px        0.0406
       44 H9     2py       -0.0009
       45 H9     2pz       -0.0000
       46 H10    1s         0.0000
       47 H10    2s         0.0000
       48 H10    2px        0.1160
       49 H10    2py       -0.0026
       50 H10    2pz       -0.0000
       51 H11    1s         0.0000
       52 H11    2s         0.0000
       53 H11    2px        0.1757
       54 H11    2py       -0.0039
       55 H11    2pz       -0.0000
       56 H12    1s        -0.0000
       57 H12    2s        -0.0000
       58 H12    2px        0.2112
       59 H12    2py       -0.0047
       60 H12    2pz       -0.0000
       61 H13    1s         0.0000
       62 H13    2s         0.0000
       63 H13    2px        0.2185
       64 H13    2py       -0.0049
       65 H13    2pz        0.0000
       66 H14    1s        -0.0000
       67 H14    2s        -0.0000
       68 H14    2px        0.1973
       69 H14    2py       -0.0044
       70 H14    2pz        0.0000
       71 H15    1s        -0.0000
       72 H15    2s         0.0000
       73 H15    2px        0.1499
       74 H15    2py       -0.0033
       75 H15    2pz        0.0000
       76 H16    1s        -0.0000
       77 H16    2s        -0.0000
       78 H16    2px        0.0953
       79 H16    2py       -0.0021
       80 H16    2pz        0.0000
--
 
 
++    Molecular charges:
      ------------------
 
      Mulliken charges per centre and basis function type
      ---------------------------------------------------
 
                H1      H2      H3      H4      H5      H6      H7      H8      H9      H10     H11     H12   
      1s       1.1165  0.8589  1.0441  0.9295  0.9980  0.9659  0.9857  0.9754  0.9754  0.9857  0.9659  0.9980
      2s       0.0038 -0.0161 -0.0915 -0.0407 -0.0450 -0.0394 -0.0470 -0.0436 -0.0436 -0.0470 -0.0394 -0.0450
      2px      0.0000  0.0000  0.0000  0.0000  0.0000  0.0000  0.0000  0.0000  0.0000  0.0000  0.0000  0.0000
      2pz      0.0254  0.0650  0.0609  0.0604  0.0567  0.0598  0.0583  0.0592  0.0592  0.0583  0.0598  0.0567
      2py      0.0000  0.0000  0.0000  0.0000  0.0000  0.0000  0.0000  0.0000  0.0000 -0.0000  0.0000  0.0000
      Total    1.1457  0.9077  1.0134  0.9491  1.0098  0.9863  0.9970  0.9909  0.9909  0.9970  0.9863  1.0098
 
      N-E     -0.1457  0.0923 -0.0134  0.0509 -0.0098  0.0137  0.0030  0.0091  0.0091  0.0030  0.0137 -0.0098
 
                H13     H14     H15     H16   
      1s       0.9295  1.0441  0.8589  1.1165
      2s      -0.0407 -0.0915 -0.0161  0.0038
      2px      0.0000  0.0000  0.0000  0.0000
      2pz      0.0604  0.0609  0.0650  0.0254
      2py      0.0000  0.0000  0.0000  0.0000
      Total    0.9491  1.0134  0.9077  1.1457
 
      N-E      0.0509 -0.0134  0.0923 -0.1457
 
      Total electronic charge=   16.000000
 
      Total            charge=   -0.000000
--
 
 
  Input file to MOLDEN was generated!
 
 
++    Static properties:
      ------------------
 
 
      LoProp Charges per center
 

                   H1       H2       H3       H4       H5       H6       H7       H8       H9       H10   
      Nuclear      1.0000   1.0000   1.0000   1.0000   1.0000   1.0000   1.0000   1.0000   1.0000   1.0000
      Electronic  -1.0740  -0.9716  -1.0027  -0.9759  -1.0024  -0.9850  -0.9969  -0.9915  -0.9915  -0.9969
 
      Total       -0.0740   0.0284  -0.0027   0.0241  -0.0024   0.0150   0.0031   0.0085   0.0085   0.0031
 

                   H11      H12      H13      H14      H15      H16   
      Nuclear      1.0000   1.0000   1.0000   1.0000   1.0000   1.0000
      Electronic  -0.9850  -1.0024  -0.9759  -1.0027  -0.9716  -1.0740
 
      Total        0.0150  -0.0024   0.0241  -0.0027   0.0284  -0.0740
--
 
 
++    Natural Bond Order analysis
      ---------------------------
      Based on LoProp computed density
      -------------------------------------------------------------------------------------
      Atom A       Atom B       Bond Order | Atom A       Atom B       Bond Order
        H1           H2             0.981  |   H11          H12            0.927
        H15          H16            0.981  |   H13          H14            0.938
        H3           H4             0.938  |   H7           H8             0.924
        H5           H6             0.927  |   H9           H10            0.924
      -------------------------------------------------------------------------------------
      NBO located     15.076 electrons involved in    8 bonds.
      The remaining    0.924 electrons are to be considered as diffuse
--
 
 
++    Molecular properties:
      ---------------------
 
      Charge (e):
                      =   -0.0000
      Dipole Moment (Debye):
      Origin of the operator (Ang)=    0.0000    0.0000    0.0000
                   X= -1.7779E-13               Y= -1.5924E-13               Z=  2.9892E-08           Total=  2.9892E-08
      Quadrupole Moment (Debye*Ang):
      Origin of the operator (Ang)=    0.0000    0.0000    6.5000
                  XX= -1.6148E+01              XY= -1.1934E-27              XZ=  9.6723E-13              YY= -1.6148E+01
                  YZ=  1.0205E-12              ZZ= -3.6107E+01
      In traceless form (Debye*Ang)
                  XX=  9.9796E+00              XY= -1.7901E-27              XZ=  1.4509E-12              YY=  9.9796E+00
                  YZ=  1.5307E-12              ZZ= -1.9959E+01
--
 
 
  Input file to MOLDEN was generated!
 
 ###############################################################################
 ###############################################################################
 ###                                                                         ###
 ###                                                                         ###
 ###    RunFile label nBas                                                   ###
 ###    was used       78 times                                              ###
 ###                                                                         ###
 ###                                                                         ###
 ###############################################################################
 ###############################################################################
forrtl: warning (528): IEEE_UNDERFLOW is signaling
--- Stop Module: scf at Tue Feb 25 12:57:13 2025 /rc=_RC_ALL_IS_WELL_ ---
*** files: H16_0.87.LprOrb H16_0.87.LoProp.molden H16_0.87.scf.molden H16_0.87.ScfOrb H16_0.87.scf.h5 xmldump
    saved to directory /home/grierjones/DDCASPT2/hydrogen_comps/H16_chain/H16_0.87

>>> COPY /tmp/H16_0.87/H16_0.87.scf.h5 /home/grierjones/DDCASPT2/hydrogen_comps/H16_chain/H16_0.87/

*** symbolic link created: INPORB -> H16_0.87.ScfOrb
--- Start Module: rasscf at Tue Feb 25 12:57:13 2025 ---
 
()()()()()()()()()()()()()()()()()()()()()()()()()()()()()()()()()()()()()()()()()()()()()()()()()()

                                              &RASSCF

                                   only a single process is used
                       available to each process: 2.0 GB of memory, 1 thread
()()()()()()()()()()()()()()()()()()()()()()()()()()()()()()()()()()()()()()()()()()()()()()()()()()
 
 
 *************** WARNING ****************
 ###############################################################################
 ###############################################################################
 ###                                                                         ###
 ###                                                                         ###
 ###    Too many macro-iterations.                                           ###
 ###                                                                         ###
 ###                                                                         ###
 ###############################################################################
 ###############################################################################
 Too many macro-iterations requested.
 Reset to maximum, new MAXIT=     200
 ****************************************
 
 *************** WARNING ****************
 ###############################################################################
 ###############################################################################
 ###                                                                         ###
 ###                                                                         ###
 ###    Too many SX-iterations.                                              ###
 ###                                                                         ###
 ###                                                                         ###
 ###############################################################################
 ###############################################################################
 Too many SX-iterations requested.
 Reset to maximum, new ITMAX=     100
 ****************************************
---------------------------------------------------------------------------------------------
  Nr.	 Label		Type		Offset		Length	   Atime	  Address
---------------------------------------------------------------------------------------------
  1	IP_DUM      	REAL	      81916856	           8           2	[0x27f3b220]
  2	IP_SDUM     	SNGL	     163833656	           4           3	[0x27f3b140]
  3	IP_IDUM     	INTE	      81916800	           8           4	[0x27f3b060]
  4	DRT0        	INTE	      81935168	       11400           7	[0x27f5ee60]
  5	DOWN        	INTE	      81936594	        9120           8	[0x27f61af0]
  6	DAW1        	INTE	      81937736	       11400          10	[0x27f63ea0]
  7	LUP1        	INTE	      81939162	        9120          11	[0x27f66b30]
  8	RAW1        	INTE	      81940304	       11400          12	[0x27f68ee0]
  9	NOW1        	INTE	      81931850	         720          14	[0x27f586b0]
 10	IOW1        	INTE	      81941730	         720          15	[0x27f6bb70]
 11	NCSF        	INTE	      81930612	         360          16	[0x27f56000]
 12	ICSF        	INTE	      81941822	         360          17	[0x27f6be50]
 13	CASE        	INTE	17562569322870	      388960          19	[0x7fc8d689a010]
 14	IUSG        	INTE	17562569216886	      846720          20	[0x7fc8d67cb010]
 15	ILSG        	INTE	17562569110902	      846720          21	[0x7fc8d66fc010]
 16	INT1        	REAL	      81943324	        2048          22	[0x27f6ed40]
 17	INT1O       	REAL	      81943582	        2048          23	[0x27f6f550]
 18	FI          	REAL	      81943840	        2048          24	[0x27f6fd60]
 19	FIO         	REAL	      81944098	        2048          25	[0x27f70570]
 20	FIZ         	REAL	      81944356	        2048          26	[0x27f70d80]
 21	PINT1       	INTE	      81917060	           8          27	[0x27f3b880]
 22	PINT2       	INTE	      81917000	           8          28	[0x27f3b6a0]
 23	PGINT1      	INTE	      81916972	           8          29	[0x27f3b5c0]
 24	PGIN1A      	INTE	      81917172	           8          30	[0x27f3bc00]
 25	LSM1        	INTE	      81917372	           8          31	[0x27f3c240]
 26	LSM2        	INTE	      81917344	           8          32	[0x27f3c160]
 27	RHO1        	REAL	      81944614	        2048          33	[0x27f71590]
 28	SRHO1       	REAL	      81944872	        2048          34	[0x27f71da0]
 29	KINH1       	INTE	      81945130	        2048          35	[0x27f725b0]
 30	KINH1       	INTE	      81945388	        2048          36	[0x27f72dc0]
 31	OCSTR       	INTE	-577777000306848033	           0          37	[(nil)]
 32	STREO       	INTE	      81917316	           8          38	[0x27f3c080]
 33	OCSTR       	INTE	-577777000306848031	           0          39	[(nil)]
 34	STREO       	INTE	      81917288	           8          40	[0x27f3bfa0]
 35	OCSTR       	INTE	      81931640	         128          41	[0x27f58020]
 36	STREO       	INTE	      81931658	         128          42	[0x27f580b0]
 37	OCSTR       	INTE	      81945646	        1920          43	[0x27f735d0]
 38	STREO       	INTE	      81945888	         960          44	[0x27f73d60]
 39	OCSTR       	INTE	      81946010	       13440          45	[0x27f74130]
 40	STREO       	INTE	      81947692	        4480          46	[0x27f775c0]
 41	OCSTR       	INTE	      81948254	       58240          47	[0x27f78750]
 42	STREO       	INTE	      81955536	       14560          48	[0x27f86ae0]
 43	OCSTR       	INTE	17562570295158	      174720          49	[0x7fc8d7005010]
 44	STREO       	INTE	      81957358	       34944          50	[0x27f8a3d0]
 45	OCSTR       	INTE	17562569062774	      384384          51	[0x7fc8d669e010]
 46	STREO       	INTE	      81961728	       64064          52	[0x27f92c60]
 47	OCSTR       	INTE	17562568982390	      640640          53	[0x7fc8d6601010]
 48	STREO       	INTE	      81969738	       91520          54	[0x27fa26b0]
 49	OCSTR       	INTE	17562568878966	      823680          55	[0x7fc8d6537010]
 50	STREO       	INTE	      81981180	      102960          56	[0x27fb8c40]
 51	OCSTR       	INTE	-577777000306848013	           0          57	[(nil)]
 52	STREO       	INTE	      81917260	           8          58	[0x27f3bec0]
 53	NSTSGP      	INTE	      81929980	          88          59	[0x27f54c40]
 54	ISTSGP      	INTE	      81930456	          88          60	[0x27f55b20]
 55	NSTSO       	INTE	      81917232	           8          61	[0x27f3bde0]
 56	ISTSO       	INTE	      81917204	           8          62	[0x27f3bd00]
 57	NSTSO       	INTE	      81917400	           8          63	[0x27f3c320]
 58	ISTSO       	INTE	      81917596	           8          64	[0x27f3c940]
 59	NSTSO       	INTE	      81917568	           8          65	[0x27f3c860]
 60	ISTSO       	INTE	      81917540	           8          66	[0x27f3c780]
 61	NSTSO       	INTE	      81917512	           8          67	[0x27f3c6a0]
 62	ISTSO       	INTE	      81917484	           8          68	[0x27f3c5c0]
 63	NSTSO       	INTE	      81917456	           8          69	[0x27f3c4e0]
 64	ISTSO       	INTE	      81917428	           8          70	[0x27f3c400]
 65	NSTSO       	INTE	      81917624	           8          71	[0x27f3ca20]
 66	ISTSO       	INTE	      81917824	           8          72	[0x27f3d060]
 67	ZMAT        	INTE	-577777000306847997	           0          73	[(nil)]
 68	ZMAT        	INTE	-577777000306847996	           0          74	[(nil)]
 69	ZMAT        	INTE	      81931942	         128          75	[0x27f58990]
 70	ZMAT        	INTE	      81930350	         256          76	[0x27f557d0]
 71	ZMAT        	INTE	      81994052	         384          77	[0x27fd1e80]
 72	ZMAT        	INTE	      81931784	         512          78	[0x27f584a0]
 73	ZMAT        	INTE	      81994102	         640          79	[0x27fd2010]
 74	ZMAT        	INTE	      81994184	         768          80	[0x27fd22a0]
 75	ZMAT        	INTE	      81994282	         896          81	[0x27fd25b0]
 76	ZMAT        	INTE	      81930030	        1024          82	[0x27f54dd0]
 77	ZMAT        	INTE	-577777000306847987	           0          83	[(nil)]
 78	ORBMAP      	INTE	      81994396	         128          84	[0x27fd2940]
 79	STRMAP      	INTE	      81994414	         128          85	[0x27fd29d0]
 80	ORBMAP      	INTE	      81994432	        2048          86	[0x27fd2a60]
 81	STRMAP      	INTE	      81994690	        2048          87	[0x27fd3270]
 82	ORBMAP      	INTE	      81994948	       15360          88	[0x27fd3a80]
 83	STRMAP      	INTE	      81996870	       15360          89	[0x27fd7690]
 84	ORBMAP      	INTE	      81998792	       71680          90	[0x27fdb2a0]
 85	STRMAP      	INTE	      82007754	       71680          91	[0x27fecab0]
 86	ORBMAP      	INTE	17562568849782	      232960          92	[0x7fc8d64fe010]
 87	STRMAP      	INTE	17562568820598	      232960          93	[0x7fc8d64c5010]
 88	ORBMAP      	INTE	17562568750454	      559104          94	[0x7fc8d643c010]
 89	STRMAP      	INTE	17562568680310	      559104          95	[0x7fc8d63b3010]
 90	ORBMAP      	INTE	17562568551798	     1025024          96	[0x7fc8d62b8010]
 91	STRMAP      	INTE	17562568423286	     1025024          97	[0x7fc8d61bd010]
 92	ORBMAP      	INTE	17562568239990	     1464320          98	[0x7fc8d6057010]
 93	STRMAP      	INTE	17562568056694	     1464320          99	[0x7fc8d5ef1010]
 94	ORBMAP      	INTE	17562567953270	      823680         100	[0x7fc8d5e27010]
 95	STRMAP      	INTE	17562567849846	      823680         101	[0x7fc8d5d5d010]
 96	COBSM       	INTE	      82016716	         128         102	[0x27ffe2c0]
 97	NIFSJ       	INTE	      82016734	         128         103	[0x27ffe350]
 98	IFSJ        	INTE	      82016752	        2048         104	[0x27ffe3e0]
 99	IFSJO       	INTE	      82017010	         128         105	[0x27ffebf0]
100	STSTX       	INTE	      81917792	           8         106	[0x27f3cf60]
101	IOCLS       	INTE	      81917764	          24         107	[0x27f3ce80]
102	SPGPAN      	INTE	      81930446	          72         108	[0x27f55ad0]
103	SPGPCR      	INTE	      81930658	          72         109	[0x27f56170]
104	ISMDFGP     	INTE	      81931960	          88         111	[0x27f58a20]
105	NACTSYM     	INTE	      82017028	          88         112	[0x27ffec80]
106	ISMMMA failed to allocate a memory block.
SCR      	INTE	      82017040	          88         113	[0x27ffece0]
107	VEC1        	REAL	17562402199926	  1325198160         116	[0x7fc886d8e010]
---------------------------------------------------------------------------------------------
Maximal available memory for Molcas = 709839188
MEMORY ERROR: Memory is exhausted!
MEMORY ERROR: Available memory = 709839188 ( 709 Mb ) !
MEMORY ERROR: Requested memory = 1325198160 ( 1325 Mb ) !
MEMORY ERROR: The suggested MOLCAS_MEM=2664 !
C_GetMem Calling parameters: ('VEC2   ','ALLO   ','REAL   ',0,165649770)
--- Stop Module: rasscf at Tue Feb 25 12:57:13 2025 /rc=_RC_FLOATING_EXCEPTION_ ---
*** files: xmldump
    saved to directory /home/grierjones/DDCASPT2/hydrogen_comps/H16_chain/H16_0.87

.########################.
.# Non-zero return code #.
.########################.

    Timing: Wall=4.16 User=3.74 System=0.41
****************************************
*** WorkDir at /tmp/H16_0.87 cleaned ***
****************************************
              G       X,U  \              G       x,U  [ 