[Molden Format]
[N_Atoms]
                     2
[Atoms] (AU)
BE1         1      4           0.00000000      0.00000000      0.00000000
BE2         2      4           0.00000000      0.00000000      4.91328792
[Charge] (Mulliken)
  1.012523398458143E-013
 -1.119104808822158E-013
[GTO] (AU)
   1
   s  14
  2.262859900E+04  8.443999941E-05
  3.372318100E+03  4.601499968E-04
  7.603504000E+02  2.285389984E-03
  2.117404800E+02  9.648129932E-03
  6.722346800E+01  3.494469975E-02
  2.337217700E+01  1.061099893E-01
  8.721373000E+00  2.458240383E-01
  3.468091000E+00  3.862428773E-01
  1.452144000E+00  3.105526078E-01
  6.086150000E-01  6.415933955E-02
  2.576860000E-01 -2.265049984E-03
  1.041760000E-01 -5.217499963E-04
  4.242700000E-02 -8.757499938E-04
  1.484900000E-02  1.242199991E-04
   s  14
  2.262859900E+04 -1.586999994E-05
  3.372318100E+03 -8.656999968E-05
  7.603504000E+02 -4.302199984E-04
  2.117404800E+02 -1.825079993E-03
  6.722346800E+01 -6.682749976E-03
  2.337217700E+01 -2.095119992E-02
  8.721373000E+00 -5.200308981E-02
  3.468091000E+00 -9.849176964E-02
  1.452144000E+00 -1.355800695E-01
  6.086150000E-01 -6.429875976E-02
  2.576860000E-01  3.125414989E-01
  1.041760000E-01  6.270468577E-01
  4.242700000E-02  2.110231492E-01
  1.484900000E-02 -4.104669985E-03
   p   9
  3.371018400E+01  1.069960000E-03
  8.057649500E+00  6.828550001E-03
  2.836471400E+00  2.119065000E-02
  1.099965700E+00  5.843696001E-02
  4.433964000E-01  2.020920800E-01
  1.822264000E-01  4.582953101E-01
  7.572410000E-02  3.691239601E-01
  3.168540000E-02  6.611471001E-02
  1.108990000E-02  1.405160000E-03
 
   2
   s  14
  2.262859900E+04  8.443999941E-05
  3.372318100E+03  4.601499968E-04
  7.603504000E+02  2.285389984E-03
  2.117404800E+02  9.648129932E-03
  6.722346800E+01  3.494469975E-02
  2.337217700E+01  1.061099893E-01
  8.721373000E+00  2.458240383E-01
  3.468091000E+00  3.862428773E-01
  1.452144000E+00  3.105526078E-01
  6.086150000E-01  6.415933955E-02
  2.576860000E-01 -2.265049984E-03
  1.041760000E-01 -5.217499963E-04
  4.242700000E-02 -8.757499938E-04
  1.484900000E-02  1.242199991E-04
   s  14
  2.262859900E+04 -1.586999994E-05
  3.372318100E+03 -8.656999968E-05
  7.603504000E+02 -4.302199984E-04
  2.117404800E+02 -1.825079993E-03
  6.722346800E+01 -6.682749976E-03
  2.337217700E+01 -2.095119992E-02
  8.721373000E+00 -5.200308981E-02
  3.468091000E+00 -9.849176964E-02
  1.452144000E+00 -1.355800695E-01
  6.086150000E-01 -6.429875976E-02
  2.576860000E-01  3.125414989E-01
  1.041760000E-01  6.270468577E-01
  4.242700000E-02  2.110231492E-01
  1.484900000E-02 -4.104669985E-03
   p   9
  3.371018400E+01  1.069960000E-03
  8.057649500E+00  6.828550001E-03
  2.836471400E+00  2.119065000E-02
  1.099965700E+00  5.843696001E-02
  4.433964000E-01  2.020920800E-01
  1.822264000E-01  4.582953101E-01
  7.572410000E-02  3.691239601E-01
  3.168540000E-02  6.611471001E-02
  1.108990000E-02  1.405160000E-03
 
[MO]
Sym=     1a  
Ene=    -4.7105
Spin= Alpha
Occup=    1.00000
   1         0.70708505
   2         0.00163831
   3         0.00000000
   4         0.00000000
   5         0.00029395
   6         0.70708472
   7         0.00163831
   8         0.00000000
   9         0.00000000
  10        -0.00029395
Sym=     1a  
Ene=    -4.7105
Spin= Beta
Occup=    1.00000
   1         0.70708505
   2         0.00163831
   3         0.00000000
   4         0.00000000
   5         0.00029395
   6         0.70708472
   7         0.00163831
   8         0.00000000
   9         0.00000000
  10        -0.00029395
Sym=     2a  
Ene=    -4.7105
Spin= Alpha
Occup=    1.00000
   1        -0.70712704
   2        -0.00159234
   3         0.00000000
   4         0.00000000
   5        -0.00036243
   6         0.70712737
   7         0.00159234
   8         0.00000000
   9        -0.00000000
  10        -0.00036243
Sym=     2a  
Ene=    -4.7105
Spin= Beta
Occup=    1.00000
   1        -0.70712704
   2        -0.00159234
   3         0.00000000
   4         0.00000000
   5        -0.00036243
   6         0.70712737
   7         0.00159234
   8         0.00000000
   9        -0.00000000
  10        -0.00036243
Sym=     3a  
Ene=    -0.3752
Spin= Alpha
Occup=    1.00000
   1        -0.02164861
   2         0.58372314
   3        -0.00000000
   4         0.00000000
   5         0.09359719
   6        -0.02164861
   7         0.58372314
   8        -0.00000000
   9        -0.00000000
  10        -0.09359719
Sym=     3a  
Ene=    -0.3752
Spin= Beta
Occup=    1.00000
   1        -0.02164861
   2         0.58372314
   3        -0.00000000
   4         0.00000000
   5         0.09359719
   6        -0.02164861
   7         0.58372314
   8        -0.00000000
   9        -0.00000000
  10        -0.09359719
Sym=     4a  
Ene=    -0.2426
Spin= Alpha
Occup=    1.00000
   1        -0.01193989
   2        -0.77510668
   3         0.00000000
   4         0.00000000
   5         0.12983257
   6         0.01193989
   7         0.77510668
   8         0.00000000
   9        -0.00000000
  10         0.12983257
Sym=     4a  
Ene=    -0.2426
Spin= Beta
Occup=    1.00000
   1        -0.01193989
   2        -0.77510668
   3         0.00000000
   4         0.00000000
   5         0.12983257
   6         0.01193989
   7         0.77510668
   8         0.00000000
   9        -0.00000000
  10         0.12983257
Sym=     5a  
Ene=     0.0511
Spin= Alpha
Occup=    0.00000
   1         0.02576606
   2         0.27262761
   3         0.00000000
   4         0.00000000
   5        -0.63681671
   6         0.02576606
   7         0.27262761
   8         0.00000000
   9         0.00000000
  10         0.63681671
Sym=     5a  
Ene=     0.0511
Spin= Beta
Occup=    0.00000
   1         0.02576606
   2         0.27262761
   3         0.00000000
   4         0.00000000
   5        -0.63681671
   6         0.02576606
   7         0.27262761
   8         0.00000000
   9         0.00000000
  10         0.63681671
Sym=     6a  
Ene=     0.0625
Spin= Alpha
Occup=    0.00000
   1        -0.00000000
   2        -0.00000000
   3         0.61771930
   4        -0.17253982
   5         0.00000000
   6        -0.00000000
   7        -0.00000000
   8         0.61771930
   9        -0.17253982
  10        -0.00000000
Sym=     6a  
Ene=     0.0625
Spin= Beta
Occup=    0.00000
   1        -0.00000000
   2        -0.00000000
   3         0.61771930
   4        -0.17253982
   5         0.00000000
   6        -0.00000000
   7        -0.00000000
   8         0.61771930
   9        -0.17253982
  10        -0.00000000
Sym=     7a  
Ene=     0.0625
Spin= Alpha
Occup=    0.00000
   1        -0.00000000
   2        -0.00000000
   3         0.17253982
   4         0.61771930
   5         0.00000000
   6        -0.00000000
   7        -0.00000000
   8         0.17253982
   9         0.61771930
  10        -0.00000000
Sym=     7a  
Ene=     0.0625
Spin= Beta
Occup=    0.00000
   1        -0.00000000
   2        -0.00000000
   3         0.17253982
   4         0.61771930
   5         0.00000000
   6        -0.00000000
   7        -0.00000000
   8         0.17253982
   9         0.61771930
  10        -0.00000000
Sym=     8a  
Ene=     0.1528
Spin= Alpha
Occup=    0.00000
   1        -0.00000000
   2        -0.00000000
   3        -0.78743077
   4         0.13159167
   5        -0.00000000
   6         0.00000000
   7         0.00000000
   8         0.78743077
   9        -0.13159167
  10         0.00000000
Sym=     8a  
Ene=     0.1528
Spin= Beta
Occup=    0.00000
   1        -0.00000000
   2        -0.00000000
   3        -0.78743077
   4         0.13159167
   5        -0.00000000
   6         0.00000000
   7         0.00000000
   8         0.78743077
   9        -0.13159167
  10         0.00000000
Sym=     9a  
Ene=     0.1528
Spin= Alpha
Occup=    0.00000
   1         0.00000000
   2         0.00000000
   3        -0.13159167
   4        -0.78743077
   5         0.00000000
   6        -0.00000000
   7        -0.00000000
   8         0.13159167
   9         0.78743077
  10         0.00000000
Sym=     9a  
Ene=     0.1528
Spin= Beta
Occup=    0.00000
   1         0.00000000
   2         0.00000000
   3        -0.13159167
   4        -0.78743077
   5         0.00000000
   6        -0.00000000
   7        -0.00000000
   8         0.13159167
   9         0.78743077
  10         0.00000000
Sym=    10a  
Ene=     0.2979
Spin= Alpha
Occup=    0.00000
   1         0.06924899
   2         0.67387578
   3         0.00000000
   4         0.00000000
   5         1.02370301
   6        -0.06924899
   7        -0.67387578
   8         0.00000000
   9        -0.00000000
  10         1.02370301
Sym=    10a  
Ene=     0.2979
Spin= Beta
Occup=    0.00000
   1         0.06924899
   2         0.67387578
   3         0.00000000
   4         0.00000000
   5         1.02370301
   6        -0.06924899
   7        -0.67387578
   8         0.00000000
   9        -0.00000000
  10         1.02370301
