[Molden Format]
[N_Atoms]
                     2
[Atoms] (AU)
BE1         1      4           0.00000000      0.00000000      0.00000000
BE2         2      4           0.00000000      0.00000000      4.91328792
[Charge] (Mulliken)
  0.999999999998919     
   1.00000000000107     
[GTO] (AU)
   1
   s  14
  2.262859900E+04  8.443999941E-05
  3.372318100E+03  4.601499968E-04
  7.603504000E+02  2.285389984E-03
  2.117404800E+02  9.648129932E-03
  6.722346800E+01  3.494469975E-02
  2.337217700E+01  1.061099893E-01
  8.721373000E+00  2.458240383E-01
  3.468091000E+00  3.862428773E-01
  1.452144000E+00  3.105526078E-01
  6.086150000E-01  6.415933955E-02
  2.576860000E-01 -2.265049984E-03
  1.041760000E-01 -5.217499963E-04
  4.242700000E-02 -8.757499938E-04
  1.484900000E-02  1.242199991E-04
   s  14
  2.262859900E+04 -1.586999994E-05
  3.372318100E+03 -8.656999968E-05
  7.603504000E+02 -4.302199984E-04
  2.117404800E+02 -1.825079993E-03
  6.722346800E+01 -6.682749976E-03
  2.337217700E+01 -2.095119992E-02
  8.721373000E+00 -5.200308981E-02
  3.468091000E+00 -9.849176964E-02
  1.452144000E+00 -1.355800695E-01
  6.086150000E-01 -6.429875976E-02
  2.576860000E-01  3.125414989E-01
  1.041760000E-01  6.270468577E-01
  4.242700000E-02  2.110231492E-01
  1.484900000E-02 -4.104669985E-03
   p   9
  3.371018400E+01  1.069960000E-03
  8.057649500E+00  6.828550001E-03
  2.836471400E+00  2.119065000E-02
  1.099965700E+00  5.843696001E-02
  4.433964000E-01  2.020920800E-01
  1.822264000E-01  4.582953101E-01
  7.572410000E-02  3.691239601E-01
  3.168540000E-02  6.611471001E-02
  1.108990000E-02  1.405160000E-03
 
   2
   s  14
  2.262859900E+04  8.443999941E-05
  3.372318100E+03  4.601499968E-04
  7.603504000E+02  2.285389984E-03
  2.117404800E+02  9.648129932E-03
  6.722346800E+01  3.494469975E-02
  2.337217700E+01  1.061099893E-01
  8.721373000E+00  2.458240383E-01
  3.468091000E+00  3.862428773E-01
  1.452144000E+00  3.105526078E-01
  6.086150000E-01  6.415933955E-02
  2.576860000E-01 -2.265049984E-03
  1.041760000E-01 -5.217499963E-04
  4.242700000E-02 -8.757499938E-04
  1.484900000E-02  1.242199991E-04
   s  14
  2.262859900E+04 -1.586999994E-05
  3.372318100E+03 -8.656999968E-05
  7.603504000E+02 -4.302199984E-04
  2.117404800E+02 -1.825079993E-03
  6.722346800E+01 -6.682749976E-03
  2.337217700E+01 -2.095119992E-02
  8.721373000E+00 -5.200308981E-02
  3.468091000E+00 -9.849176964E-02
  1.452144000E+00 -1.355800695E-01
  6.086150000E-01 -6.429875976E-02
  2.576860000E-01  3.125414989E-01
  1.041760000E-01  6.270468577E-01
  4.242700000E-02  2.110231492E-01
  1.484900000E-02 -4.104669985E-03
   p   9
  3.371018400E+01  1.069960000E-03
  8.057649500E+00  6.828550001E-03
  2.836471400E+00  2.119065000E-02
  1.099965700E+00  5.843696001E-02
  4.433964000E-01  2.020920800E-01
  1.822264000E-01  4.582953101E-01
  7.572410000E-02  3.691239601E-01
  3.168540000E-02  6.611471001E-02
  1.108990000E-02  1.405160000E-03
 
[MO]
Sym=     1a  
Ene=    -5.3596
Spin= Alpha
Occup=    2.00000
   1        -0.70695956
   2         0.00024772
   3         0.00000000
   4         0.00000000
   5         0.00198087
   6         0.70695956
   7        -0.00024772
   8        -0.00000000
   9         0.00000000
  10         0.00198087
Sym=     2a  
Ene=    -5.3592
Spin= Alpha
Occup=    2.00000
   1         0.70735511
   2        -0.00374042
   3         0.00000000
   4        -0.00000000
   5        -0.00274879
   6         0.70735512
   7        -0.00374042
   8        -0.00000000
   9         0.00000000
  10         0.00274879
Sym=     3a  
Ene=    -0.8197
Spin= Alpha
Occup=    1.97774
   1        -0.01841637
   2         0.51877127
   3        -0.00000000
   4         0.00000000
   5         0.21687494
   6        -0.01841637
   7         0.51877127
   8         0.00000000
   9        -0.00000000
  10        -0.21687494
Sym=     4a  
Ene=     0.0000
Spin= Alpha
Occup=    0.02226
   1         0.00000000
   2         0.00000001
   3        -0.07581024
   4         0.63686728
   5         0.00000000
   6        -0.00000000
   7        -0.00000001
   8        -0.07581024
   9         0.63686728
  10         0.00000000
Sym=     5a  
Ene=    -0.4902
Spin= Alpha
Occup=    0.00000
   1         0.01020131
   2         0.75600181
   3         0.00000000
   4        -0.00000000
   5        -0.15834679
   6        -0.01020131
   7        -0.75600181
   8         0.00000000
   9        -0.00000000
  10        -0.15834679
Sym=     6a  
Ene=    -0.4015
Spin= Alpha
Occup=    0.00000
   1         0.02027713
   2         0.38199945
   3         0.00000000
   4        -0.00000000
   5        -0.60601464
   6         0.02027713
   7         0.38199945
   8        -0.00000000
   9         0.00000000
  10         0.60601464
Sym=     7a  
Ene=    -0.3947
Spin= Alpha
Occup=    0.00000
   1         0.00000000
   2        -0.00000000
   3         0.63686728
   4         0.07581024
   5         0.00000000
   6        -0.00000000
   7        -0.00000000
   8         0.63686728
   9         0.07581024
  10        -0.00000000
Sym=     8a  
Ene=    -0.3160
Spin= Alpha
Occup=    0.00000
   1        -0.00000000
   2         0.00000000
   3         0.09436637
   4        -0.79275379
   5         0.00000000
   6        -0.00000000
   7         0.00000000
   8        -0.09436637
   9         0.79275379
  10        -0.00000000
Sym=     9a  
Ene=    -0.3155
Spin= Alpha
Occup=    0.00000
   1        -0.00000000
   2        -0.00000000
   3        -0.79275379
   4        -0.09436637
   5        -0.00000000
   6         0.00000000
   7        -0.00000000
   8         0.79275379
   9         0.09436637
  10         0.00000000
Sym=    10a  
Ene=    -0.1999
Spin= Alpha
Occup=    0.00000
   1        -0.07121082
   2        -0.69524289
   3        -0.00000000
   4         0.00000000
   5        -1.01967978
   6         0.07121082
   7         0.69524289
   8        -0.00000000
   9         0.00000000
  10        -1.01967978
