[Molden Format]
[N_Atoms]
                     2
[Atoms] (AU)
N1          1      7           0.00000000      0.00000000      0.00000000
N2          2      7           0.00000000      0.00000000      2.64561657
[Charge] (Mulliken)
 -2.861710868273803E-012
  2.826183731485798E-012
[GTO] (AU)
   1
   s  14
  7.476171500E+04  1.182599996E-04
  1.112365400E+04  5.172899983E-04
  2.512685700E+03  2.266659992E-03
  7.037772900E+02  9.145289970E-03
  2.254787900E+02  3.239342989E-02
  7.961581000E+01  9.770792967E-02
  3.023728300E+01  2.317036792E-01
  1.226362200E+01  3.768898887E-01
  5.265086000E+00  3.177420689E-01
  2.333471000E+00  8.211308973E-02
  9.018560000E-01  3.312089989E-03
  3.583360000E-01  3.720819988E-03
  1.410930000E-01  3.165419989E-03
  4.938300000E-02  4.595799985E-04
   s  14
  7.476171500E+04 -2.707000010E-05
  1.112365400E+04 -1.183700004E-04
  2.512685700E+03 -5.203800020E-04
  7.037772900E+02 -2.102930008E-03
  2.254787900E+02 -7.568200028E-03
  7.961581000E+01 -2.346767009E-02
  3.023728300E+01 -6.042901023E-02
  1.226362200E+01 -1.170549104E-01
  5.265086000E+00 -1.555321506E-01
  2.333471000E+00 -2.468935009E-02
  9.018560000E-01  3.625054514E-01
  3.583360000E-01  5.550845021E-01
  1.410930000E-01  2.148376908E-01
  4.938300000E-02  8.983850034E-03
   p   9
  1.266665700E+02  1.233630000E-03
  2.983738900E+01  9.493409996E-03
  9.394038000E+00  4.293961998E-02
  3.405104000E+00  1.362925399E-01
  1.350000000E+00  2.921362499E-01
  5.576960000E-01  3.887887598E-01
  2.324490000E-01  2.946801399E-01
  9.426400000E-02  8.012875997E-02
  3.299200000E-02  5.405199998E-04
 
   2
   s  14
  7.476171500E+04  1.182599996E-04
  1.112365400E+04  5.172899983E-04
  2.512685700E+03  2.266659992E-03
  7.037772900E+02  9.145289970E-03
  2.254787900E+02  3.239342989E-02
  7.961581000E+01  9.770792967E-02
  3.023728300E+01  2.317036792E-01
  1.226362200E+01  3.768898887E-01
  5.265086000E+00  3.177420689E-01
  2.333471000E+00  8.211308973E-02
  9.018560000E-01  3.312089989E-03
  3.583360000E-01  3.720819988E-03
  1.410930000E-01  3.165419989E-03
  4.938300000E-02  4.595799985E-04
   s  14
  7.476171500E+04 -2.707000010E-05
  1.112365400E+04 -1.183700004E-04
  2.512685700E+03 -5.203800020E-04
  7.037772900E+02 -2.102930008E-03
  2.254787900E+02 -7.568200028E-03
  7.961581000E+01 -2.346767009E-02
  3.023728300E+01 -6.042901023E-02
  1.226362200E+01 -1.170549104E-01
  5.265086000E+00 -1.555321506E-01
  2.333471000E+00 -2.468935009E-02
  9.018560000E-01  3.625054514E-01
  3.583360000E-01  5.550845021E-01
  1.410930000E-01  2.148376908E-01
  4.938300000E-02  8.983850034E-03
   p   9
  1.266665700E+02  1.233630000E-03
  2.983738900E+01  9.493409996E-03
  9.394038000E+00  4.293961998E-02
  3.405104000E+00  1.362925399E-01
  1.350000000E+00  2.921362499E-01
  5.576960000E-01  3.887887598E-01
  2.324490000E-01  2.946801399E-01
  9.426400000E-02  8.012875997E-02
  3.299200000E-02  5.405199998E-04
 
[MO]
Sym=     1a  
Ene=   -15.7290
Spin= Alpha
Occup=    2.00000
   1         0.70695144
   2        -0.00470215
   3         0.00000000
   4         0.00000000
   5         0.00115581
   6         0.70695144
   7        -0.00470215
   8         0.00000000
   9        -0.00000000
  10        -0.00115581
Sym=     2a  
Ene=   -15.7250
Spin= Alpha
Occup=    2.00000
   1        -0.70703783
   2         0.01350925
   3         0.00000000
   4        -0.00000000
   5        -0.00454095
   6         0.70703783
   7        -0.01350925
   8         0.00000000
   9        -0.00000000
  10        -0.00454095
Sym=     3a  
Ene=    -1.2785
Spin= Alpha
Occup=    2.00000
   1         0.02090615
   2        -0.54542593
   3         0.00000000
   4         0.00000000
   5        -0.18190467
   6         0.02090615
   7        -0.54542593
   8         0.00000000
   9        -0.00000000
  10         0.18190467
Sym=     4a  
Ene=    -0.5534
Spin= Alpha
Occup=    2.00000
   1         0.02604662
   2         0.34233977
   3         0.00000000
   4         0.00000000
   5        -0.62807846
   6         0.02604662
   7         0.34233977
   8         0.00000000
   9         0.00000000
  10         0.62807846
Sym=     5a  
Ene=    -0.5055
Spin= Alpha
Occup=    2.00000
   1        -0.00000000
   2        -0.00000000
   3         0.64402386
   4         0.04199342
   5         0.00000000
   6        -0.00000000
   7        -0.00000000
   8         0.64402386
   9         0.04199342
  10        -0.00000000
Sym=     6a  
Ene=    -0.5048
Spin= Alpha
Occup=    2.00000
   1        -0.00000000
   2        -0.00000000
   3        -0.04199342
   4         0.64402386
   5         0.00000000
   6        -0.00000000
   7        -0.00000000
   8        -0.04199342
   9         0.64402386
  10        -0.00000000
Sym=     7a  
Ene=    -0.8421
Spin= Alpha
Occup=    1.98805
   1        -0.02514497
   2        -0.73841703
   3        -0.00000000
   4        -0.00000000
   5         0.18384269
   6         0.02514497
   7         0.73841703
   8         0.00000000
   9         0.00000000
  10         0.18384269
Sym=     8a  
Ene=     0.0000
Spin= Alpha
Occup=    0.01195
   1         0.00000000
   2         0.00000000
   3        -0.78908809
   4        -0.05145230
   5        -0.00000000
   6        -0.00000000
   7        -0.00000000
   8         0.78908809
   9         0.05145230
  10        -0.00000000
Sym=     9a  
Ene=     0.0675
Spin= Alpha
Occup=    0.00000
   1        -0.00000000
   2        -0.00000000
   3         0.05145230
   4        -0.78908809
   5        -0.00000000
   6         0.00000000
   7        -0.00000000
   8        -0.05145230
   9         0.78908809
  10        -0.00000000
Sym=    10a  
Ene=     0.4706
Spin= Alpha
Occup=    0.00000
   1         0.06772566
   2         0.64517229
   3        -0.00000000
   4        -0.00000000
   5         0.93880627
   6        -0.06772566
   7        -0.64517229
   8         0.00000000
   9         0.00000000
  10         0.93880627
