[Molden Format]
[N_Atoms]
                     2
[Atoms] (AU)
N1          1      7           0.00000000      0.00000000      0.00000000
N2          2      7           0.00000000      0.00000000      2.64561657
[Charge] (Mulliken)
  0.999999999998141     
   1.00000000000185     
[GTO] (AU)
   1
   s  14
  7.476171500E+04  1.182599996E-04
  1.112365400E+04  5.172899983E-04
  2.512685700E+03  2.266659992E-03
  7.037772900E+02  9.145289970E-03
  2.254787900E+02  3.239342989E-02
  7.961581000E+01  9.770792967E-02
  3.023728300E+01  2.317036792E-01
  1.226362200E+01  3.768898887E-01
  5.265086000E+00  3.177420689E-01
  2.333471000E+00  8.211308973E-02
  9.018560000E-01  3.312089989E-03
  3.583360000E-01  3.720819988E-03
  1.410930000E-01  3.165419989E-03
  4.938300000E-02  4.595799985E-04
   s  14
  7.476171500E+04 -2.707000010E-05
  1.112365400E+04 -1.183700004E-04
  2.512685700E+03 -5.203800020E-04
  7.037772900E+02 -2.102930008E-03
  2.254787900E+02 -7.568200028E-03
  7.961581000E+01 -2.346767009E-02
  3.023728300E+01 -6.042901023E-02
  1.226362200E+01 -1.170549104E-01
  5.265086000E+00 -1.555321506E-01
  2.333471000E+00 -2.468935009E-02
  9.018560000E-01  3.625054514E-01
  3.583360000E-01  5.550845021E-01
  1.410930000E-01  2.148376908E-01
  4.938300000E-02  8.983850034E-03
   p   9
  1.266665700E+02  1.233630000E-03
  2.983738900E+01  9.493409996E-03
  9.394038000E+00  4.293961998E-02
  3.405104000E+00  1.362925399E-01
  1.350000000E+00  2.921362499E-01
  5.576960000E-01  3.887887598E-01
  2.324490000E-01  2.946801399E-01
  9.426400000E-02  8.012875997E-02
  3.299200000E-02  5.405199998E-04
 
   2
   s  14
  7.476171500E+04  1.182599996E-04
  1.112365400E+04  5.172899983E-04
  2.512685700E+03  2.266659992E-03
  7.037772900E+02  9.145289970E-03
  2.254787900E+02  3.239342989E-02
  7.961581000E+01  9.770792967E-02
  3.023728300E+01  2.317036792E-01
  1.226362200E+01  3.768898887E-01
  5.265086000E+00  3.177420689E-01
  2.333471000E+00  8.211308973E-02
  9.018560000E-01  3.312089989E-03
  3.583360000E-01  3.720819988E-03
  1.410930000E-01  3.165419989E-03
  4.938300000E-02  4.595799985E-04
   s  14
  7.476171500E+04 -2.707000010E-05
  1.112365400E+04 -1.183700004E-04
  2.512685700E+03 -5.203800020E-04
  7.037772900E+02 -2.102930008E-03
  2.254787900E+02 -7.568200028E-03
  7.961581000E+01 -2.346767009E-02
  3.023728300E+01 -6.042901023E-02
  1.226362200E+01 -1.170549104E-01
  5.265086000E+00 -1.555321506E-01
  2.333471000E+00 -2.468935009E-02
  9.018560000E-01  3.625054514E-01
  3.583360000E-01  5.550845021E-01
  1.410930000E-01  2.148376908E-01
  4.938300000E-02  8.983850034E-03
   p   9
  1.266665700E+02  1.233630000E-03
  2.983738900E+01  9.493409996E-03
  9.394038000E+00  4.293961998E-02
  3.405104000E+00  1.362925399E-01
  1.350000000E+00  2.921362499E-01
  5.576960000E-01  3.887887598E-01
  2.324490000E-01  2.946801399E-01
  9.426400000E-02  8.012875997E-02
  3.299200000E-02  5.405199998E-04
 
[MO]
Sym=     1a  
Ene=   -17.0050
Spin= Alpha
Occup=    2.00000
   1         0.70700843
   2        -0.00562358
   3         0.00000000
   4         0.00000000
   5         0.00040673
   6         0.70700845
   7        -0.00562358
   8         0.00000000
   9        -0.00000000
  10        -0.00040673
Sym=     2a  
Ene=   -17.0040
Spin= Alpha
Occup=    2.00000
   1        -0.70712565
   2         0.00705884
   3         0.00000000
   4         0.00000000
   5        -0.00073494
   6         0.70712563
   7        -0.00705884
   8         0.00000000
   9         0.00000000
  10        -0.00073494
Sym=     3a  
Ene=    -2.2022
Spin= Alpha
Occup=    2.00000
   1         0.02018764
   2        -0.53518665
   3         0.00000000
   4         0.00000000
   5        -0.20016800
   6         0.02018764
   7        -0.53518665
   8         0.00000000
   9        -0.00000000
  10         0.20016800
Sym=     4a  
Ene=    -1.4216
Spin= Alpha
Occup=    2.00000
   1         0.00000000
   2         0.00000000
   3         0.28971379
   4         0.57671145
   5        -0.00000000
   6        -0.00000000
   7         0.00000000
   8         0.28971379
   9         0.57671145
  10         0.00000000
Sym=     5a  
Ene=    -1.4216
Spin= Alpha
Occup=    2.00000
   1        -0.00000000
   2        -0.00000000
   3        -0.57671145
   4         0.28971379
   5         0.00000000
   6         0.00000000
   7        -0.00000000
   8        -0.57671145
   9         0.28971379
  10        -0.00000000
Sym=     6a  
Ene=    -1.1039
Spin= Alpha
Occup=    0.13067
   1         0.02504706
   2         0.35812246
   3        -0.00000000
   4        -0.00000000
   5        -0.62249964
   6         0.02504706
   7         0.35812246
   8        -0.00000000
   9        -0.00000000
  10         0.62249964
Sym=     7a  
Ene=    -0.0381
Spin= Alpha
Occup=    1.86933
   1        -0.02339247
   2        -0.78937225
   3         0.00000000
   4        -0.00000000
   5         0.10556288
   6         0.02339247
   7         0.78937225
   8        -0.00000000
   9         0.00000000
  10         0.10556288
Sym=     8a  
Ene=    -0.8977
Spin= Alpha
Occup=    0.00000
   1         0.00000000
   2         0.00000000
   3         0.51441693
   4         0.60056854
   5         0.00000000
   6        -0.00000000
   7        -0.00000000
   8        -0.51441693
   9        -0.60056854
  10         0.00000000
Sym=     9a  
Ene=    -0.8977
Spin= Alpha
Occup=    0.00000
   1         0.00000000
   2         0.00000000
   3         0.60056854
   4        -0.51441693
   5        -0.00000000
   6        -0.00000000
   7        -0.00000000
   8        -0.60056854
   9         0.51441693
  10        -0.00000000
Sym=    10a  
Ene=    -0.4919
Spin= Alpha
Occup=    0.00000
   1         0.06743633
   2         0.58183427
   3        -0.00000000
   4        -0.00000000
   5         0.95080592
   6        -0.06743633
   7        -0.58183427
   8         0.00000000
   9         0.00000000
  10         0.95080592
