[Molden Format]
[N_Atoms]
                     2
[Atoms] (AU)
N1          1      7           0.00000000      0.00000000      0.00000000
N2          2      7           0.00000000      0.00000000      2.64561657
[Charge] (Mulliken)
  0.000000000000000E+000
  0.000000000000000E+000
[GTO] (AU)
   1
   s  14
  7.476171500E+04  1.182599996E-04
  1.112365400E+04  5.172899983E-04
  2.512685700E+03  2.266659992E-03
  7.037772900E+02  9.145289970E-03
  2.254787900E+02  3.239342989E-02
  7.961581000E+01  9.770792967E-02
  3.023728300E+01  2.317036792E-01
  1.226362200E+01  3.768898887E-01
  5.265086000E+00  3.177420689E-01
  2.333471000E+00  8.211308973E-02
  9.018560000E-01  3.312089989E-03
  3.583360000E-01  3.720819988E-03
  1.410930000E-01  3.165419989E-03
  4.938300000E-02  4.595799985E-04
   s  14
  7.476171500E+04 -2.707000010E-05
  1.112365400E+04 -1.183700004E-04
  2.512685700E+03 -5.203800020E-04
  7.037772900E+02 -2.102930008E-03
  2.254787900E+02 -7.568200028E-03
  7.961581000E+01 -2.346767009E-02
  3.023728300E+01 -6.042901023E-02
  1.226362200E+01 -1.170549104E-01
  5.265086000E+00 -1.555321506E-01
  2.333471000E+00 -2.468935009E-02
  9.018560000E-01  3.625054514E-01
  3.583360000E-01  5.550845021E-01
  1.410930000E-01  2.148376908E-01
  4.938300000E-02  8.983850034E-03
   p   9
  1.266665700E+02  1.233630000E-03
  2.983738900E+01  9.493409996E-03
  9.394038000E+00  4.293961998E-02
  3.405104000E+00  1.362925399E-01
  1.350000000E+00  2.921362499E-01
  5.576960000E-01  3.887887598E-01
  2.324490000E-01  2.946801399E-01
  9.426400000E-02  8.012875997E-02
  3.299200000E-02  5.405199998E-04
 
   2
   s  14
  7.476171500E+04  1.182599996E-04
  1.112365400E+04  5.172899983E-04
  2.512685700E+03  2.266659992E-03
  7.037772900E+02  9.145289970E-03
  2.254787900E+02  3.239342989E-02
  7.961581000E+01  9.770792967E-02
  3.023728300E+01  2.317036792E-01
  1.226362200E+01  3.768898887E-01
  5.265086000E+00  3.177420689E-01
  2.333471000E+00  8.211308973E-02
  9.018560000E-01  3.312089989E-03
  3.583360000E-01  3.720819988E-03
  1.410930000E-01  3.165419989E-03
  4.938300000E-02  4.595799985E-04
   s  14
  7.476171500E+04 -2.707000010E-05
  1.112365400E+04 -1.183700004E-04
  2.512685700E+03 -5.203800020E-04
  7.037772900E+02 -2.102930008E-03
  2.254787900E+02 -7.568200028E-03
  7.961581000E+01 -2.346767009E-02
  3.023728300E+01 -6.042901023E-02
  1.226362200E+01 -1.170549104E-01
  5.265086000E+00 -1.555321506E-01
  2.333471000E+00 -2.468935009E-02
  9.018560000E-01  3.625054514E-01
  3.583360000E-01  5.550845021E-01
  1.410930000E-01  2.148376908E-01
  4.938300000E-02  8.983850034E-03
   p   9
  1.266665700E+02  1.233630000E-03
  2.983738900E+01  9.493409996E-03
  9.394038000E+00  4.293961998E-02
  3.405104000E+00  1.362925399E-01
  1.350000000E+00  2.921362499E-01
  5.576960000E-01  3.887887598E-01
  2.324490000E-01  2.946801399E-01
  9.426400000E-02  8.012875997E-02
  3.299200000E-02  5.405199998E-04
 
[MO]
Sym=     1a  
Ene=   -15.6460
Spin= Alpha
Occup=    2.00000
   1         0.70677484
   2         0.00137102
   3        -0.00000000
   4        -0.00000000
   5         0.00145345
   6         0.70677484
   7         0.00137102
   8        -0.00000000
   9         0.00000000
  10        -0.00145345
Sym=     2a  
Ene=   -15.6270
Spin= Alpha
Occup=    2.00000
   1        -0.70720657
   2         0.00125693
   3        -0.00000000
   4         0.00000000
   5         0.00139190
   6         0.70720657
   7        -0.00125693
   8         0.00000000
   9        -0.00000000
  10         0.00139190
Sym=     3a  
Ene=    -1.3416
Spin= Alpha
Occup=    2.00000
   1        -0.02759407
   2         0.54752895
   3        -0.00000000
   4        -0.00000000
   5         0.17804110
   6        -0.02759407
   7         0.54752895
   8         0.00000000
   9        -0.00000000
  10        -0.17804110
Sym=     4a  
Ene=    -0.8241
Spin= Alpha
Occup=    2.00000
   1        -0.00159941
   2        -0.63741191
   3        -0.00000000
   4         0.00000000
   5         0.31780494
   6         0.00159941
   7         0.63741191
   8        -0.00000000
   9         0.00000000
  10         0.31780494
Sym=     5a  
Ene=    -0.6851
Spin= Alpha
Occup=    2.00000
   1        -0.00000000
   2        -0.00000000
   3         0.64533778
   4         0.00832671
   5        -0.00000000
   6         0.00000000
   7         0.00000000
   8         0.64533778
   9         0.00832671
  10         0.00000000
Sym=     6a  
Ene=    -0.6851
Spin= Alpha
Occup=    2.00000
   1        -0.00000000
   2         0.00000000
   3        -0.00832671
   4         0.64533778
   5        -0.00000000
   6         0.00000000
   7        -0.00000000
   8        -0.00832671
   9         0.64533778
  10        -0.00000000
Sym=     7a  
Ene=    -0.6133
Spin= Alpha
Occup=    2.00000
   1         0.02457076
   2         0.33899593
   3        -0.00000000
   4        -0.00000000
   5        -0.62918395
   6         0.02457076
   7         0.33899593
   8        -0.00000000
   9         0.00000000
  10         0.62918395
Sym=     8a  
Ene=    -0.4563
Spin= Alpha
Occup=    0.00000
   1        -0.00000000
   2        -0.00000000
   3         0.40504410
   4        -0.67915140
   5        -0.00000000
   6         0.00000000
   7        -0.00000000
   8        -0.40504410
   9         0.67915140
  10        -0.00000000
Sym=     9a  
Ene=    -0.4563
Spin= Alpha
Occup=    0.00000
   1        -0.00000000
   2        -0.00000000
   3        -0.67915140
   4        -0.40504410
   5         0.00000000
   6        -0.00000000
   7        -0.00000000
   8         0.67915140
   9         0.40504410
  10        -0.00000000
Sym=    10a  
Ene=    -0.2482
Spin= Alpha
Occup=    0.00000
   1         0.07055383
   2         0.74524759
   3         0.00000000
   4         0.00000000
   5         0.90231594
   6        -0.07055383
   7        -0.74524759
   8         0.00000000
   9         0.00000000
  10         0.90231594
