[Molden Format]
[N_Atoms]
                     2
[Atoms] (AU)
C1          1      6           0.00000000      0.00000000      0.00000000
LI2         2      3           0.00000000      0.00000000      4.15739747
[Charge] (Mulliken)
 -0.231253096978327     
  0.231253096978286     
[GTO] (AU)
   1
   s  14
  5.055750100E+04  1.128874000E-04
  7.524785600E+03  5.295373000E-04
  1.694327600E+03  2.450038300E-03
  4.728227900E+02  1.005398470E-02
  1.517107500E+02  3.545398060E-02
  5.391874600E+01  1.044071086E-01
  2.065931100E+01  2.412894918E-01
  8.383976000E+00  3.834225483E-01
  3.577015000E+00  3.078514393E-01
  1.547118000E+00  6.872442990E-02
  6.130130000E-01  2.224445000E-04
  2.460680000E-01  1.976748900E-03
  9.908700000E-02  2.057859400E-03
  3.468000000E-02  4.182020000E-04
   s  14
  5.055750100E+04 -2.507420000E-05
  7.524785600E+03 -1.175945000E-04
  1.694327600E+03 -5.456275000E-04
  4.728227900E+02 -2.245077100E-03
  1.517107500E+02 -8.043471800E-03
  5.391874600E+01 -2.442588710E-02
  2.065931100E+01 -6.136791180E-02
  8.383976000E+00 -1.177767835E-01
  3.577015000E+00 -1.550487783E-01
  1.547118000E+00 -1.933316860E-02
  6.130130000E-01  3.996930678E-01
  2.460680000E-01  5.589420949E-01
  9.908700000E-02  1.711195023E-01
  3.468000000E-02  7.456244600E-03
   p   9
  8.333315500E+01  1.344656000E-03
  1.955761100E+01  1.023555500E-02
  6.080365000E+00  4.520067100E-02
  2.179317000E+00  1.410756198E-01
  8.651500000E-01  3.047388085E-01
  3.619440000E-01  3.995281011E-01
  1.547400000E-01  2.719163432E-01
  6.542900000E-02  5.857669330E-02
  2.290000000E-02 -1.263813000E-04
 
   2
   s  14
  9.497934400E+03  9.668999974E-05
  1.416811200E+03  6.087099984E-04
  3.214599400E+02  3.101519992E-03
  9.112416300E+01  1.266904997E-02
  2.999989100E+01  4.248012989E-02
  1.101763100E+01  1.150183297E-01
  4.372801000E+00  2.398650094E-01
  1.831256000E+00  3.584300090E-01
  8.022610000E-01  3.048527792E-01
  3.626480000E-01  8.824261976E-02
  1.139950000E-01 -8.445899977E-04
  5.123700000E-02 -7.943959979E-03
  2.246800000E-02 -3.764419990E-03
  7.860000000E-03 -8.868999976E-05
   s  14
  9.497934400E+03 -1.244999993E-05
  1.416811200E+03 -7.838999954E-05
  3.214599400E+02 -4.007099976E-04
  9.112416300E+01 -1.645249990E-03
  2.999989100E+01 -5.634599967E-03
  1.101763100E+01 -1.590780991E-02
  4.372801000E+00 -3.612581979E-02
  1.831256000E+00 -6.459927962E-02
  8.022610000E-01 -1.008321794E-01
  3.626480000E-01 -9.757613942E-02
  1.139950000E-01  2.301215886E-01
  5.123700000E-02  6.102389764E-01
  2.246800000E-02  2.849406083E-01
  7.860000000E-03  4.026899976E-03
   p   9
  1.311950400E+01  1.524940000E-03
  3.077424200E+00  8.314830000E-03
  1.098800500E+00  1.933203000E-02
  4.357784000E-01  4.934293000E-02
  1.802432000E-01  1.623554000E-01
  7.613330000E-02  3.847505400E-01
  3.254650000E-02  4.336100400E-01
  1.401820000E-02  1.287005900E-01
  4.906400000E-03 -1.018520000E-03
 
[MO]
Sym=     1a  
Ene=   -11.1400
Spin= Alpha
Occup=    1.00000
   1         1.00015350
   2         0.00025429
   3         0.00000000
   4         0.00000000
   5         0.00162770
   6        -0.00032173
   7        -0.00158138
   8        -0.00000000
   9        -0.00000000
  10         0.00165423
Sym=     1a  
Ene=   -11.1190
Spin= Beta
Occup=    1.00000
   1         1.00010792
   2        -0.00208459
   3         0.00000000
   4        -0.00000000
   5         0.00142804
   6        -0.00025360
   7        -0.00119945
   8        -0.00000000
   9         0.00000000
  10         0.00117664
Sym=     2a  
Ene=    -2.4733
Spin= Alpha
Occup=    1.00000
   1        -0.00003377
   2         0.00243164
   3         0.00000000
   4        -0.00000000
   5         0.00126985
   6         0.99977353
   7         0.01249156
   8         0.00000000
   9         0.00000000
  10         0.00182685
Sym=     2a  
Ene=    -2.4716
Spin= Beta
Occup=    1.00000
   1        -0.00002343
   2         0.00223040
   3         0.00000000
   4        -0.00000000
   5         0.00142901
   6         0.99976917
   7         0.01251528
   8         0.00000000
   9         0.00000000
  10         0.00189049
Sym=     3a  
Ene=    -0.6721
Spin= Alpha
Occup=    1.00000
   1        -0.00522764
   2         0.94332812
   3        -0.00000000
   4         0.00000000
   5         0.05016099
   6        -0.03183974
   7         0.07181760
   8         0.00000000
   9        -0.00000000
  10        -0.06155200
Sym=     3a  
Ene=    -0.5665
Spin= Beta
Occup=    1.00000
   1        -0.00670791
   2         0.91095208
   3        -0.00000000
   4        -0.00000000
   5         0.04223480
   6        -0.03063234
   7         0.10662424
   8        -0.00000000
   9         0.00000000
  10        -0.09847376
Sym=     4a  
Ene=    -0.3078
Spin= Alpha
Occup=    1.00000
   1        -0.00000000
   2        -0.00000000
   3        -0.60754931
   4         0.73353806
   5         0.00000000
   6        -0.00000000
   7         0.00000000
   8        -0.10580864
   9         0.12775040
  10        -0.00000000
Sym=     4a  
Ene=    -0.2165
Spin= Beta
Occup=    1.00000
   1        -0.02398534
   2        -0.30454530
   3        -0.00000000
   4         0.00000000
   5         0.81688427
   6        -0.04778450
   7         0.43552027
   8        -0.00000000
   9         0.00000000
  10        -0.12010115
Sym=     5a  
Ene=    -0.2096
Spin= Alpha
Occup=    1.00000
   1        -0.02671498
   2        -0.31994607
   3         0.00000000
   4        -0.00000000
   5         0.74348799
   6        -0.04422988
   7         0.55548599
   8         0.00000000
   9        -0.00000000
  10        -0.09992627
Sym=     5a  
Ene=     0.0221
Spin= Beta
Occup=    0.00000
   1         0.01083992
   2         0.04750992
   3         0.00000000
   4        -0.00000000
   5        -0.33094509
   6         0.00887872
   7         0.73318210
   8        -0.00000000
   9        -0.00000000
  10         0.62828276
Sym=     6a  
Ene=     0.0173
Spin= Alpha
Occup=    0.00000
   1         0.01435742
   2         0.09005353
   3        -0.00000000
   4         0.00000000
   5        -0.41674414
   6         0.01380326
   7         0.67079636
   8        -0.00000000
   9        -0.00000000
  10         0.64820757
Sym=     6a  
Ene=     0.0513
Spin= Beta
Occup=    0.00000
   1         0.00000000
   2         0.00000000
   3         0.15534332
   4         0.12866235
   5        -0.00000000
   6         0.00000000
   7         0.00000000
   8         0.72290061
   9         0.59873890
  10         0.00000000
Sym=     7a  
Ene=     0.0435
Spin= Alpha
Occup=    0.00000
   1         0.00000000
   2         0.00000000
   3         0.18090918
   4         0.14983714
   5        -0.00000000
   6         0.00000000
   7         0.00000000
   8         0.71214826
   9         0.58983331
  10         0.00000000
Sym=     7a  
Ene=     0.0596
Spin= Beta
Occup=    0.00000
   1         0.00000000
   2         0.00000000
   3        -0.08934881
   4         0.10787726
   5        -0.00000000
   6         0.00000000
   7         0.00000000
   8        -0.61338841
   9         0.74058802
  10         0.00000000
Sym=     8a  
Ene=     0.0792
Spin= Alpha
Occup=    0.00000
   1        -0.00000000
   2        -0.00000000
   3         0.23644429
   4        -0.28547623
   5         0.00000000
   6        -0.00000000
   7         0.00000000
   8        -0.64329355
   9         0.77669466
  10         0.00000000
Sym=     8a  
Ene=     0.2289
Spin= Beta
Occup=    0.00000
   1         0.08179634
   2         0.75570394
   3        -0.00000000
   4         0.00000000
   5         0.55057288
   6        -0.04766582
   7        -0.69726939
   8         0.00000000
   9        -0.00000000
  10         0.96767858
Sym=     9a  
Ene=     0.2163
Spin= Alpha
Occup=    0.00000
   1         0.07993815
   2         0.70397972
   3         0.00000000
   4         0.00000000
   5         0.59394652
   6        -0.04902265
   7        -0.67904090
   8        -0.00000000
   9        -0.00000000
  10         0.95985122
Sym=     9a  
Ene=     0.2515
Spin= Beta
Occup=    0.00000
   1        -0.00000000
   2        -0.00000000
   3        -0.77164967
   4        -0.63911507
   5        -0.00000000
   6         0.00000000
   7         0.00000000
   8         0.31143130
   9         0.25794146
  10        -0.00000000
Sym=    10a  
Ene=     0.2248
Spin= Alpha
Occup=    0.00000
   1         0.00000000
   2         0.00000000
   3        -0.76605915
   4        -0.63448475
   5         0.00000000
   6        -0.00000000
   7        -0.00000000
   8         0.33529034
   9         0.27770259
  10         0.00000000
Sym=    10a  
Ene=     0.3070
Spin= Beta
Occup=    0.00000
   1        -0.00000000
   2        -0.00000000
   3        -0.64578546
   4         0.77970331
   5        -0.00000000
   6         0.00000000
   7         0.00000000
   8         0.22085453
   9        -0.26665358
  10        -0.00000000
