[Molden Format]
[N_Atoms]
                     2
[Atoms] (AU)
N1          1      7           0.00000000      0.00000000      0.00000000
N2          2      7           0.00000000      0.00000000      2.45664396
[Charge] (Mulliken)
 -3.730349362740526E-014
  4.440892098500626E-015
[GTO] (AU)
   1
   s  14
  7.476171500E+04  1.182599996E-04
  1.112365400E+04  5.172899983E-04
  2.512685700E+03  2.266659992E-03
  7.037772900E+02  9.145289970E-03
  2.254787900E+02  3.239342989E-02
  7.961581000E+01  9.770792967E-02
  3.023728300E+01  2.317036792E-01
  1.226362200E+01  3.768898887E-01
  5.265086000E+00  3.177420689E-01
  2.333471000E+00  8.211308973E-02
  9.018560000E-01  3.312089989E-03
  3.583360000E-01  3.720819988E-03
  1.410930000E-01  3.165419989E-03
  4.938300000E-02  4.595799985E-04
   s  14
  7.476171500E+04 -2.707000010E-05
  1.112365400E+04 -1.183700004E-04
  2.512685700E+03 -5.203800020E-04
  7.037772900E+02 -2.102930008E-03
  2.254787900E+02 -7.568200028E-03
  7.961581000E+01 -2.346767009E-02
  3.023728300E+01 -6.042901023E-02
  1.226362200E+01 -1.170549104E-01
  5.265086000E+00 -1.555321506E-01
  2.333471000E+00 -2.468935009E-02
  9.018560000E-01  3.625054514E-01
  3.583360000E-01  5.550845021E-01
  1.410930000E-01  2.148376908E-01
  4.938300000E-02  8.983850034E-03
   p   9
  1.266665700E+02  1.233630000E-03
  2.983738900E+01  9.493409996E-03
  9.394038000E+00  4.293961998E-02
  3.405104000E+00  1.362925399E-01
  1.350000000E+00  2.921362499E-01
  5.576960000E-01  3.887887598E-01
  2.324490000E-01  2.946801399E-01
  9.426400000E-02  8.012875997E-02
  3.299200000E-02  5.405199998E-04
 
   2
   s  14
  7.476171500E+04  1.182599996E-04
  1.112365400E+04  5.172899983E-04
  2.512685700E+03  2.266659992E-03
  7.037772900E+02  9.145289970E-03
  2.254787900E+02  3.239342989E-02
  7.961581000E+01  9.770792967E-02
  3.023728300E+01  2.317036792E-01
  1.226362200E+01  3.768898887E-01
  5.265086000E+00  3.177420689E-01
  2.333471000E+00  8.211308973E-02
  9.018560000E-01  3.312089989E-03
  3.583360000E-01  3.720819988E-03
  1.410930000E-01  3.165419989E-03
  4.938300000E-02  4.595799985E-04
   s  14
  7.476171500E+04 -2.707000010E-05
  1.112365400E+04 -1.183700004E-04
  2.512685700E+03 -5.203800020E-04
  7.037772900E+02 -2.102930008E-03
  2.254787900E+02 -7.568200028E-03
  7.961581000E+01 -2.346767009E-02
  3.023728300E+01 -6.042901023E-02
  1.226362200E+01 -1.170549104E-01
  5.265086000E+00 -1.555321506E-01
  2.333471000E+00 -2.468935009E-02
  9.018560000E-01  3.625054514E-01
  3.583360000E-01  5.550845021E-01
  1.410930000E-01  2.148376908E-01
  4.938300000E-02  8.983850034E-03
   p   9
  1.266665700E+02  1.233630000E-03
  2.983738900E+01  9.493409996E-03
  9.394038000E+00  4.293961998E-02
  3.405104000E+00  1.362925399E-01
  1.350000000E+00  2.921362499E-01
  5.576960000E-01  3.887887598E-01
  2.324490000E-01  2.946801399E-01
  9.426400000E-02  8.012875997E-02
  3.299200000E-02  5.405199998E-04
 
[MO]
Sym=     1a  
Ene=   -15.7510
Spin= Alpha
Occup=    2.00000
   1         0.70690498
   2        -0.00469810
   3        -0.00000000
   4         0.00000000
   5         0.00144310
   6         0.70690498
   7        -0.00469810
   8        -0.00000000
   9        -0.00000000
  10        -0.00144310
Sym=     2a  
Ene=   -15.7460
Spin= Alpha
Occup=    2.00000
   1        -0.70709706
   2         0.01329407
   3        -0.00000000
   4        -0.00000000
   5        -0.00541128
   6         0.70709706
   7        -0.01329407
   8        -0.00000000
   9        -0.00000000
  10        -0.00541128
Sym=     3a  
Ene=    -1.3528
Spin= Alpha
Occup=    2.00000
   1         0.02845975
   2        -0.51708838
   3         0.00000000
   4         0.00000000
   5        -0.20871925
   6         0.02845975
   7        -0.51708838
   8         0.00000000
   9         0.00000000
  10         0.20871925
Sym=     4a  
Ene=    -0.5797
Spin= Alpha
Occup=    2.00000
   1         0.03026463
   2         0.37209819
   3         0.00000000
   4         0.00000000
   5        -0.62496262
   6         0.03026463
   7         0.37209819
   8         0.00000000
   9         0.00000000
  10         0.62496262
Sym=     5a  
Ene=    -0.5508
Spin= Alpha
Occup=    2.00000
   1        -0.00000000
   2        -0.00000000
   3         0.63456490
   4         0.04137665
   5         0.00000000
   6        -0.00000000
   7        -0.00000000
   8         0.63456490
   9         0.04137665
  10        -0.00000000
Sym=     6a  
Ene=    -0.5503
Spin= Alpha
Occup=    2.00000
   1        -0.00000000
   2        -0.00000000
   3        -0.04137665
   4         0.63456490
   5         0.00000000
   6        -0.00000000
   7        -0.00000000
   8        -0.04137665
   9         0.63456490
  10        -0.00000000
Sym=     7a  
Ene=    -0.8298
Spin= Alpha
Occup=    1.98850
   1        -0.02701784
   2        -0.73225202
   3        -0.00000000
   4        -0.00000000
   5         0.21047098
   6         0.02701784
   7         0.73225202
   8         0.00000000
   9         0.00000000
  10         0.21047099
Sym=     8a  
Ene=     0.0000
Spin= Alpha
Occup=    0.01150
   1         0.00000000
   2         0.00000000
   3        -0.80750275
   4        -0.05265302
   5        -0.00000000
   6        -0.00000000
   7        -0.00000000
   8         0.80750275
   9         0.05265302
  10        -0.00000000
Sym=     9a  
Ene=     0.0933
Spin= Alpha
Occup=    0.00000
   1         0.00000000
   2         0.00000000
   3         0.05265302
   4        -0.80750275
   5         0.00000000
   6        -0.00000000
   7        -0.00000000
   8        -0.05265302
   9         0.80750275
  10         0.00000000
Sym=    10a  
Ene=     0.5977
Spin= Alpha
Occup=    0.00000
   1         0.09273843
   2         0.78372097
   3        -0.00000000
   4         0.00000000
   5         0.98817744
   6        -0.09273843
   7        -0.78372097
   8         0.00000000
   9        -0.00000000
  10         0.98817744
