[Molden Format]
[N_Atoms]
                     2
[Atoms] (AU)
N1          1      7           0.00000000      0.00000000      0.00000000
N2          2      7           0.00000000      0.00000000      2.45664396
[Charge] (Mulliken)
  0.000000000000000E+000
  0.000000000000000E+000
[GTO] (AU)
   1
   s  14
  7.476171500E+04  1.182599996E-04
  1.112365400E+04  5.172899983E-04
  2.512685700E+03  2.266659992E-03
  7.037772900E+02  9.145289970E-03
  2.254787900E+02  3.239342989E-02
  7.961581000E+01  9.770792967E-02
  3.023728300E+01  2.317036792E-01
  1.226362200E+01  3.768898887E-01
  5.265086000E+00  3.177420689E-01
  2.333471000E+00  8.211308973E-02
  9.018560000E-01  3.312089989E-03
  3.583360000E-01  3.720819988E-03
  1.410930000E-01  3.165419989E-03
  4.938300000E-02  4.595799985E-04
   s  14
  7.476171500E+04 -2.707000010E-05
  1.112365400E+04 -1.183700004E-04
  2.512685700E+03 -5.203800020E-04
  7.037772900E+02 -2.102930008E-03
  2.254787900E+02 -7.568200028E-03
  7.961581000E+01 -2.346767009E-02
  3.023728300E+01 -6.042901023E-02
  1.226362200E+01 -1.170549104E-01
  5.265086000E+00 -1.555321506E-01
  2.333471000E+00 -2.468935009E-02
  9.018560000E-01  3.625054514E-01
  3.583360000E-01  5.550845021E-01
  1.410930000E-01  2.148376908E-01
  4.938300000E-02  8.983850034E-03
   p   9
  1.266665700E+02  1.233630000E-03
  2.983738900E+01  9.493409996E-03
  9.394038000E+00  4.293961998E-02
  3.405104000E+00  1.362925399E-01
  1.350000000E+00  2.921362499E-01
  5.576960000E-01  3.887887598E-01
  2.324490000E-01  2.946801399E-01
  9.426400000E-02  8.012875997E-02
  3.299200000E-02  5.405199998E-04
 
   2
   s  14
  7.476171500E+04  1.182599996E-04
  1.112365400E+04  5.172899983E-04
  2.512685700E+03  2.266659992E-03
  7.037772900E+02  9.145289970E-03
  2.254787900E+02  3.239342989E-02
  7.961581000E+01  9.770792967E-02
  3.023728300E+01  2.317036792E-01
  1.226362200E+01  3.768898887E-01
  5.265086000E+00  3.177420689E-01
  2.333471000E+00  8.211308973E-02
  9.018560000E-01  3.312089989E-03
  3.583360000E-01  3.720819988E-03
  1.410930000E-01  3.165419989E-03
  4.938300000E-02  4.595799985E-04
   s  14
  7.476171500E+04 -2.707000010E-05
  1.112365400E+04 -1.183700004E-04
  2.512685700E+03 -5.203800020E-04
  7.037772900E+02 -2.102930008E-03
  2.254787900E+02 -7.568200028E-03
  7.961581000E+01 -2.346767009E-02
  3.023728300E+01 -6.042901023E-02
  1.226362200E+01 -1.170549104E-01
  5.265086000E+00 -1.555321506E-01
  2.333471000E+00 -2.468935009E-02
  9.018560000E-01  3.625054514E-01
  3.583360000E-01  5.550845021E-01
  1.410930000E-01  2.148376908E-01
  4.938300000E-02  8.983850034E-03
   p   9
  1.266665700E+02  1.233630000E-03
  2.983738900E+01  9.493409996E-03
  9.394038000E+00  4.293961998E-02
  3.405104000E+00  1.362925399E-01
  1.350000000E+00  2.921362499E-01
  5.576960000E-01  3.887887598E-01
  2.324490000E-01  2.946801399E-01
  9.426400000E-02  8.012875997E-02
  3.299200000E-02  5.405199998E-04
 
[MO]
Sym=     1a  
Ene=   -15.6500
Spin= Alpha
Occup=    2.00000
   1         0.70665596
   2         0.00175797
   3         0.00000000
   4        -0.00000000
   5         0.00179624
   6         0.70665596
   7         0.00175797
   8        -0.00000000
   9         0.00000000
  10        -0.00179624
Sym=     2a  
Ene=   -15.6260
Spin= Alpha
Occup=    2.00000
   1        -0.70719558
   2         0.00159765
   3        -0.00000000
   4         0.00000000
   5         0.00171515
   6         0.70719558
   7        -0.00159765
   8         0.00000000
   9        -0.00000000
  10         0.00171515
Sym=     3a  
Ene=    -1.3970
Spin= Alpha
Occup=    2.00000
   1        -0.03426179
   2         0.53608409
   3         0.00000000
   4         0.00000000
   5         0.17531206
   6        -0.03426179
   7         0.53608409
   8        -0.00000000
   9         0.00000000
  10        -0.17531206
Sym=     4a  
Ene=    -0.8178
Spin= Alpha
Occup=    2.00000
   1        -0.00020693
   2        -0.61778507
   3        -0.00000000
   4        -0.00000000
   5         0.34426938
   6         0.00020693
   7         0.61778507
   8        -0.00000000
   9         0.00000000
  10         0.34426938
Sym=     5a  
Ene=    -0.7056
Spin= Alpha
Occup=    2.00000
   1         0.00000000
   2         0.00000000
   3        -0.07285957
   4         0.63172472
   5         0.00000000
   6        -0.00000000
   7        -0.00000000
   8        -0.07285957
   9         0.63172472
  10         0.00000000
Sym=     6a  
Ene=    -0.7056
Spin= Alpha
Occup=    2.00000
   1         0.00000000
   2        -0.00000000
   3         0.63172472
   4         0.07285957
   5         0.00000000
   6         0.00000000
   7         0.00000000
   8         0.63172472
   9         0.07285957
  10         0.00000000
Sym=     7a  
Ene=    -0.6008
Spin= Alpha
Occup=    2.00000
   1         0.03006732
   2         0.34419513
   3         0.00000000
   4         0.00000000
   5        -0.63514293
   6         0.03006732
   7         0.34419513
   8        -0.00000000
   9        -0.00000000
  10         0.63514293
Sym=     8a  
Ene=    -0.4358
Spin= Alpha
Occup=    0.00000
   1         0.00000000
   2         0.00000000
   3        -0.80821115
   4        -0.04034561
   5        -0.00000000
   6        -0.00000000
   7         0.00000000
   8         0.80821115
   9         0.04034561
  10         0.00000000
Sym=     9a  
Ene=    -0.4358
Spin= Alpha
Occup=    0.00000
   1        -0.00000000
   2        -0.00000000
   3         0.04034561
   4        -0.80821115
   5        -0.00000000
   6         0.00000000
   7         0.00000000
   8        -0.04034561
   9         0.80821115
  10        -0.00000000
Sym=    10a  
Ene=    -0.2088
Spin= Alpha
Occup=    0.00000
   1         0.09586974
   2         0.87688504
   3         0.00000000
   4        -0.00000000
   5         0.94989348
   6        -0.09586974
   7        -0.87688504
   8        -0.00000000
   9         0.00000000
  10         0.94989348
