[Molden Format]
[N_Atoms]
                     2
[Atoms] (AU)
N1          1      7           0.00000000      0.00000000      0.00000000
N2          2      7           0.00000000      0.00000000      2.45664396
[Charge] (Mulliken)
 -1.211475364470971E-012
  1.204369937113370E-012
[GTO] (AU)
   1
   s  14
  7.476171500E+04  1.182599996E-04
  1.112365400E+04  5.172899983E-04
  2.512685700E+03  2.266659992E-03
  7.037772900E+02  9.145289970E-03
  2.254787900E+02  3.239342989E-02
  7.961581000E+01  9.770792967E-02
  3.023728300E+01  2.317036792E-01
  1.226362200E+01  3.768898887E-01
  5.265086000E+00  3.177420689E-01
  2.333471000E+00  8.211308973E-02
  9.018560000E-01  3.312089989E-03
  3.583360000E-01  3.720819988E-03
  1.410930000E-01  3.165419989E-03
  4.938300000E-02  4.595799985E-04
   s  14
  7.476171500E+04 -2.707000010E-05
  1.112365400E+04 -1.183700004E-04
  2.512685700E+03 -5.203800020E-04
  7.037772900E+02 -2.102930008E-03
  2.254787900E+02 -7.568200028E-03
  7.961581000E+01 -2.346767009E-02
  3.023728300E+01 -6.042901023E-02
  1.226362200E+01 -1.170549104E-01
  5.265086000E+00 -1.555321506E-01
  2.333471000E+00 -2.468935009E-02
  9.018560000E-01  3.625054514E-01
  3.583360000E-01  5.550845021E-01
  1.410930000E-01  2.148376908E-01
  4.938300000E-02  8.983850034E-03
   p   9
  1.266665700E+02  1.233630000E-03
  2.983738900E+01  9.493409996E-03
  9.394038000E+00  4.293961998E-02
  3.405104000E+00  1.362925399E-01
  1.350000000E+00  2.921362499E-01
  5.576960000E-01  3.887887598E-01
  2.324490000E-01  2.946801399E-01
  9.426400000E-02  8.012875997E-02
  3.299200000E-02  5.405199998E-04
 
   2
   s  14
  7.476171500E+04  1.182599996E-04
  1.112365400E+04  5.172899983E-04
  2.512685700E+03  2.266659992E-03
  7.037772900E+02  9.145289970E-03
  2.254787900E+02  3.239342989E-02
  7.961581000E+01  9.770792967E-02
  3.023728300E+01  2.317036792E-01
  1.226362200E+01  3.768898887E-01
  5.265086000E+00  3.177420689E-01
  2.333471000E+00  8.211308973E-02
  9.018560000E-01  3.312089989E-03
  3.583360000E-01  3.720819988E-03
  1.410930000E-01  3.165419989E-03
  4.938300000E-02  4.595799985E-04
   s  14
  7.476171500E+04 -2.707000010E-05
  1.112365400E+04 -1.183700004E-04
  2.512685700E+03 -5.203800020E-04
  7.037772900E+02 -2.102930008E-03
  2.254787900E+02 -7.568200028E-03
  7.961581000E+01 -2.346767009E-02
  3.023728300E+01 -6.042901023E-02
  1.226362200E+01 -1.170549104E-01
  5.265086000E+00 -1.555321506E-01
  2.333471000E+00 -2.468935009E-02
  9.018560000E-01  3.625054514E-01
  3.583360000E-01  5.550845021E-01
  1.410930000E-01  2.148376908E-01
  4.938300000E-02  8.983850034E-03
   p   9
  1.266665700E+02  1.233630000E-03
  2.983738900E+01  9.493409996E-03
  9.394038000E+00  4.293961998E-02
  3.405104000E+00  1.362925399E-01
  1.350000000E+00  2.921362499E-01
  5.576960000E-01  3.887887598E-01
  2.324490000E-01  2.946801399E-01
  9.426400000E-02  8.012875997E-02
  3.299200000E-02  5.405199998E-04
 
[MO]
Sym=     1a  
Ene=   -15.7520
Spin= Alpha
Occup=    1.00000
   1         0.70690455
   2        -0.00470285
   3        -0.00000000
   4        -0.00000000
   5         0.00145169
   6         0.70690455
   7        -0.00470285
   8        -0.00000000
   9         0.00000000
  10        -0.00145169
Sym=     1a  
Ene=   -15.7520
Spin= Beta
Occup=    1.00000
   1         0.70690455
   2        -0.00470285
   3        -0.00000000
   4        -0.00000000
   5         0.00145169
   6         0.70690455
   7        -0.00470285
   8        -0.00000000
   9         0.00000000
  10        -0.00145169
Sym=     2a  
Ene=   -15.7510
Spin= Alpha
Occup=    1.00000
   1        -0.70742070
   2         0.00243415
   3        -0.00000000
   4        -0.00000000
   5        -0.00230162
   6         0.70742070
   7        -0.00243415
   8        -0.00000000
   9         0.00000000
  10        -0.00230162
Sym=     2a  
Ene=   -15.7510
Spin= Beta
Occup=    1.00000
   1        -0.70742070
   2         0.00243415
   3        -0.00000000
   4        -0.00000000
   5        -0.00230162
   6         0.70742070
   7        -0.00243415
   8        -0.00000000
   9         0.00000000
  10        -0.00230162
Sym=     3a  
Ene=    -1.3542
Spin= Alpha
Occup=    1.00000
   1        -0.02846488
   2         0.51703010
   3        -0.00000000
   4        -0.00000000
   5         0.20881713
   6        -0.02846488
   7         0.51703010
   8         0.00000000
   9         0.00000000
  10        -0.20881713
Sym=     3a  
Ene=    -1.3542
Spin= Beta
Occup=    1.00000
   1        -0.02846488
   2         0.51703010
   3        -0.00000000
   4        -0.00000000
   5         0.20881713
   6        -0.02846488
   7         0.51703010
   8         0.00000000
   9         0.00000000
  10        -0.20881713
Sym=     4a  
Ene=    -0.8290
Spin= Alpha
Occup=    1.00000
   1        -0.01633736
   2        -0.73068077
   3         0.00000000
   4        -0.00000000
   5         0.21265362
   6         0.01633736
   7         0.73068077
   8         0.00000000
   9         0.00000000
  10         0.21265362
Sym=     4a  
Ene=    -0.8290
Spin= Beta
Occup=    1.00000
   1        -0.01633736
   2        -0.73068077
   3         0.00000000
   4        -0.00000000
   5         0.21265362
   6         0.01633736
   7         0.73068077
   8         0.00000000
   9         0.00000000
  10         0.21265362
Sym=     5a  
Ene=    -0.5809
Spin= Alpha
Occup=    1.00000
   1         0.03026976
   2         0.37217911
   3         0.00000000
   4         0.00000000
   5        -0.62492991
   6         0.03026976
   7         0.37217911
   8         0.00000000
   9         0.00000000
  10         0.62492991
Sym=     5a  
Ene=    -0.5809
Spin= Beta
Occup=    1.00000
   1         0.03026976
   2         0.37217911
   3         0.00000000
   4         0.00000000
   5        -0.62492991
   6         0.03026976
   7         0.37217911
   8         0.00000000
   9         0.00000000
  10         0.62492991
Sym=     6a  
Ene=    -0.5510
Spin= Alpha
Occup=    1.00000
   1        -0.00000000
   2        -0.00000000
   3         0.59449868
   4         0.22573425
   5         0.00000000
   6        -0.00000000
   7        -0.00000000
   8         0.59449868
   9         0.22573425
  10        -0.00000000
Sym=     6a  
Ene=    -0.5510
Spin= Beta
Occup=    1.00000
   1        -0.00000000
   2        -0.00000000
   3         0.59449868
   4         0.22573425
   5         0.00000000
   6        -0.00000000
   7        -0.00000000
   8         0.59449868
   9         0.22573425
  10        -0.00000000
Sym=     7a  
Ene=    -0.5510
Spin= Alpha
Occup=    1.00000
   1        -0.00000000
   2        -0.00000000
   3        -0.22573425
   4         0.59449868
   5        -0.00000000
   6         0.00000000
   7         0.00000000
   8        -0.22573425
   9         0.59449868
  10        -0.00000000
Sym=     7a  
Ene=    -0.5510
Spin= Beta
Occup=    1.00000
   1        -0.00000000
   2        -0.00000000
   3        -0.22573425
   4         0.59449868
   5        -0.00000000
   6         0.00000000
   7         0.00000000
   8        -0.22573425
   9         0.59449868
  10        -0.00000000
Sym=     8a  
Ene=     0.0926
Spin= Alpha
Occup=    0.00000
   1         0.00000000
   2         0.00000000
   3        -0.80476250
   4        -0.08479595
   5        -0.00000000
   6         0.00000000
   7         0.00000000
   8         0.80476250
   9         0.08479595
  10         0.00000000
Sym=     8a  
Ene=     0.0926
Spin= Beta
Occup=    0.00000
   1         0.00000000
   2         0.00000000
   3        -0.80476250
   4        -0.08479595
   5        -0.00000000
   6         0.00000000
   7         0.00000000
   8         0.80476250
   9         0.08479595
  10         0.00000000
Sym=     9a  
Ene=     0.0926
Spin= Alpha
Occup=    0.00000
   1         0.00000000
   2         0.00000000
   3         0.08479595
   4        -0.80476250
   5         0.00000000
   6        -0.00000000
   7        -0.00000000
   8        -0.08479595
   9         0.80476250
  10         0.00000000
Sym=     9a  
Ene=     0.0926
Spin= Beta
Occup=    0.00000
   1         0.00000000
   2         0.00000000
   3         0.08479595
   4        -0.80476250
   5         0.00000000
   6        -0.00000000
   7        -0.00000000
   8        -0.08479595
   9         0.80476250
  10         0.00000000
Sym=    10a  
Ene=     0.5967
Spin= Alpha
Occup=    0.00000
   1         0.09276681
   2         0.78529485
   3        -0.00000000
   4         0.00000000
   5         0.98772219
   6        -0.09276681
   7        -0.78529485
   8        -0.00000000
   9        -0.00000000
  10         0.98772219
Sym=    10a  
Ene=     0.5967
Spin= Beta
Occup=    0.00000
   1         0.09276681
   2         0.78529485
   3        -0.00000000
   4         0.00000000
   5         0.98772219
   6        -0.09276681
   7        -0.78529485
   8        -0.00000000
   9        -0.00000000
  10         0.98772219
