[Molden Format]
[N_Atoms]
                     2
[Atoms] (AU)
C1          1      6           0.00000000      0.00000000      0.00000000
O2          2      8           0.00000000      0.00000000      1.32280829
[Charge] (Mulliken)
  0.703816098877155     
 -0.703816098877171     
[GTO] (AU)
   1
   s  14
  5.055750100E+04  1.128874000E-04
  7.524785600E+03  5.295373000E-04
  1.694327600E+03  2.450038300E-03
  4.728227900E+02  1.005398470E-02
  1.517107500E+02  3.545398060E-02
  5.391874600E+01  1.044071086E-01
  2.065931100E+01  2.412894918E-01
  8.383976000E+00  3.834225483E-01
  3.577015000E+00  3.078514393E-01
  1.547118000E+00  6.872442990E-02
  6.130130000E-01  2.224445000E-04
  2.460680000E-01  1.976748900E-03
  9.908700000E-02  2.057859400E-03
  3.468000000E-02  4.182020000E-04
   s  14
  5.055750100E+04 -2.507420000E-05
  7.524785600E+03 -1.175945000E-04
  1.694327600E+03 -5.456275000E-04
  4.728227900E+02 -2.245077100E-03
  1.517107500E+02 -8.043471800E-03
  5.391874600E+01 -2.442588710E-02
  2.065931100E+01 -6.136791180E-02
  8.383976000E+00 -1.177767835E-01
  3.577015000E+00 -1.550487783E-01
  1.547118000E+00 -1.933316860E-02
  6.130130000E-01  3.996930678E-01
  2.460680000E-01  5.589420949E-01
  9.908700000E-02  1.711195023E-01
  3.468000000E-02  7.456244600E-03
   p   9
  8.333315500E+01  1.344656000E-03
  1.955761100E+01  1.023555500E-02
  6.080365000E+00  4.520067100E-02
  2.179317000E+00  1.410756198E-01
  8.651500000E-01  3.047388085E-01
  3.619440000E-01  3.995281011E-01
  1.547400000E-01  2.719163432E-01
  6.542900000E-02  5.857669330E-02
  2.290000000E-02 -1.263813000E-04
 
   2
   s  14
  1.053749500E+05  1.238600013E-04
  1.567924000E+04  5.120100053E-04
  3.534544700E+03  2.152910022E-03
  9.873651600E+02  8.528440089E-03
  3.159787500E+02  3.018049031E-02
  1.116542800E+02  9.099702095E-02
  4.269945100E+01  2.177936423E-01
  1.739559600E+01  3.686245738E-01
  7.438309000E+00  3.366707335E-01
  3.222862000E+00  9.657630101E-02
  1.253877000E+00  2.144520022E-03
  4.951550000E-01  1.194350012E-03
  1.916650000E-01  5.390200056E-04
  6.708300000E-02  2.103400022E-04
   s  14
  1.053749500E+05 -2.815000008E-05
  1.567924000E+04 -1.163000003E-04
  3.534544700E+03 -4.909200013E-04
  9.873651600E+02 -1.946160005E-03
  3.159787500E+02 -7.005300019E-03
  1.116542800E+02 -2.167814006E-02
  4.269945100E+01 -5.641213015E-02
  1.739559600E+01 -1.127053003E-01
  7.438309000E+00 -1.589119704E-01
  3.222862000E+00 -3.355083009E-02
  1.253877000E+00  3.531902810E-01
  4.951550000E-01  5.534199315E-01
  1.916650000E-01  2.301839106E-01
  6.708300000E-02  1.127267003E-02
   p   9
  2.000000000E+02  9.173000030E-04
  4.653336700E+01  7.377140024E-03
  1.462180900E+01  3.483515011E-02
  5.313064000E+00  1.144397004E-01
  2.102525000E+00  2.554966408E-01
  8.502230000E-01  3.722557412E-01
  3.375970000E-01  3.323314911E-01
  1.288920000E-01  1.400847905E-01
  4.511200000E-02  2.395784008E-02
 
[MO]
Sym=     1a  
Ene=   -21.1690
Spin= Alpha
Occup=    2.00000
   1        -0.00091814
   2        -0.00304528
   3         0.00000000
   4         0.00000000
   5        -0.00490860
   6         1.00119606
   7         0.00644067
   8        -0.00000000
   9        -0.00000000
  10        -0.00954832
Sym=     2a  
Ene=   -11.8590
Spin= Alpha
Occup=    2.00000
   1         0.99309097
   2        -0.03058744
   3        -0.00000000
   4         0.00000000
   5         0.01858834
   6        -0.01118735
   7         0.01867189
   8        -0.00000000
   9        -0.00000000
  10        -0.01221960
Sym=     3a  
Ene=    -2.0022
Spin= Alpha
Occup=    2.00000
   1        -0.29283157
   2        -0.09454599
   3         0.00000000
   4        -0.00000000
   5         0.20648795
   6        -0.02708637
   7         0.86036629
   8         0.00000000
   9         0.00000000
  10        -0.50481053
Sym=     4a  
Ene=    -1.0444
Spin= Alpha
Occup=    2.00000
   1        -0.00000000
   2        -0.00000000
   3         0.33437406
   4        -0.07313317
   5         0.00000000
   6         0.00000000
   7        -0.00000000
   8         0.74182160
   9        -0.16224872
  10        -0.00000000
Sym=     5a  
Ene=    -1.0439
Spin= Alpha
Occup=    2.00000
   1        -0.00000000
   2        -0.00000000
   3         0.07385988
   4         0.33769668
   5         0.00000000
   6         0.00000000
   7        -0.00000000
   8         0.16165069
   9         0.73908737
  10        -0.00000000
Sym=     6a  
Ene=    -0.9021
Spin= Alpha
Occup=    2.00000
   1         0.18868769
   2         0.40390301
   3         0.00000000
   4         0.00000000
   5        -0.38135490
   6         0.02324341
   7         0.38003387
   8         0.00000000
   9         0.00000000
  10         0.94679395
Sym=     7a  
Ene=    -0.6729
Spin= Alpha
Occup=    1.99213
   1        -0.05760686
   2        -0.86330700
   3        -0.00000000
   4        -0.00000000
   5         0.46114154
   6         0.02556133
   7         0.39510729
   8        -0.00000000
   9        -0.00000000
  10         0.15300886
Sym=     8a  
Ene=    -0.0000
Spin= Alpha
Occup=    0.00787
   1         0.00000000
   2         0.00000000
   3        -1.16177863
   4         0.25410030
   5         0.00000000
   6        -0.00000000
   7        -0.00000000
   8         0.95458698
   9        -0.20878404
  10         0.00000000
Sym=     9a  
Ene=     0.3876
Spin= Alpha
Occup=    0.00000
   1         0.00000000
   2        -0.00000000
   3        -0.25389002
   4        -1.16081719
   5        -0.00000000
   6         0.00000000
   7         0.00000000
   8         0.20924740
   9         0.95670552
  10         0.00000000
Sym=    10a  
Ene=     1.5205
Spin= Alpha
Occup=    0.00000
   1        -0.77453808
   2        -2.52398911
   3        -0.00000000
   4         0.00000000
   5        -1.88641261
   6         0.63565002
   7         2.87788195
   8         0.00000000
   9        -0.00000000
  10        -1.02593064
