[Molden Format]
[N_Atoms]
                     2
[Atoms] (AU)
B1          1      5           0.00000000      0.00000000      0.00000000
BE2         2      4           0.00000000      0.00000000      1.88972612
[Charge] (Mulliken)
 -0.339445884407466     
  0.339445884407439     
[GTO] (AU)
   1
   s  14
  3.336021700E+04  1.039699991E-04
  4.972095200E+03  5.254399956E-04
  1.125641700E+03  2.509059979E-03
  3.164913600E+02  1.031887991E-02
  1.020072600E+02  3.636632969E-02
  3.629587300E+01  1.064607991E-01
  1.397141000E+01  2.403999880E-01
  5.741156000E+00  3.748581168E-01
  2.494268000E+00  3.100066974E-01
  1.114202000E+00  7.922455933E-02
  4.215490000E-01 -4.947589958E-03
  1.696330000E-01 -7.737119935E-03
  6.853500000E-02 -1.501079987E-03
  2.398700000E-02 -1.333299989E-04
   s  14
  3.336021700E+04 -2.030000008E-05
  4.972095200E+03 -1.025700004E-04
  1.125641700E+03 -4.911300020E-04
  3.164913600E+02 -2.026570008E-03
  1.020072600E+02 -7.261010030E-03
  3.629587300E+01 -2.197722009E-02
  1.397141000E+01 -5.408428022E-02
  5.741156000E+00 -1.022402604E-01
  2.494268000E+00 -1.423595206E-01
  1.114202000E+00 -4.658690019E-02
  4.215490000E-01  3.799402916E-01
  1.696330000E-01  5.890463624E-01
  6.853500000E-02  1.749075107E-01
  2.398700000E-02 -1.142030005E-03
   p   9
  5.500000000E+01  1.229800005E-03
  1.336610100E+01  8.827380035E-03
  4.135394000E+00  3.843340015E-02
  1.481256000E+00  1.150031805E-01
  6.021360000E-01  2.733674011E-01
  2.556360000E-01  4.061972116E-01
  1.111510000E-01  3.014967912E-01
  4.764800000E-02  7.684809030E-02
  1.667700000E-02 -8.170000032E-06
 
   2
   s  14
  2.262859900E+04  8.443999941E-05
  3.372318100E+03  4.601499968E-04
  7.603504000E+02  2.285389984E-03
  2.117404800E+02  9.648129932E-03
  6.722346800E+01  3.494469975E-02
  2.337217700E+01  1.061099893E-01
  8.721373000E+00  2.458240383E-01
  3.468091000E+00  3.862428773E-01
  1.452144000E+00  3.105526078E-01
  6.086150000E-01  6.415933955E-02
  2.576860000E-01 -2.265049984E-03
  1.041760000E-01 -5.217499963E-04
  4.242700000E-02 -8.757499938E-04
  1.484900000E-02  1.242199991E-04
   s  14
  2.262859900E+04 -1.586999994E-05
  3.372318100E+03 -8.656999968E-05
  7.603504000E+02 -4.302199984E-04
  2.117404800E+02 -1.825079993E-03
  6.722346800E+01 -6.682749976E-03
  2.337217700E+01 -2.095119992E-02
  8.721373000E+00 -5.200308981E-02
  3.468091000E+00 -9.849176964E-02
  1.452144000E+00 -1.355800695E-01
  6.086150000E-01 -6.429875976E-02
  2.576860000E-01  3.125414989E-01
  1.041760000E-01  6.270468577E-01
  4.242700000E-02  2.110231492E-01
  1.484900000E-02 -4.104669985E-03
   p   9
  3.371018400E+01  1.069960000E-03
  8.057649500E+00  6.828550001E-03
  2.836471400E+00  2.119065000E-02
  1.099965700E+00  5.843696001E-02
  4.433964000E-01  2.020920800E-01
  1.822264000E-01  4.582953101E-01
  7.572410000E-02  3.691239601E-01
  3.168540000E-02  6.611471001E-02
  1.108990000E-02  1.405160000E-03
 
[MO]
Sym=     1a  
Ene=    -7.8168
Spin= Alpha
Occup=    1.00000
   1         1.00101330
   2         0.02285944
   3         0.00000000
   4        -0.00000000
   5         0.00840490
   6         0.00303486
   7        -0.00831602
   8        -0.00000000
   9         0.00000000
  10         0.00112923
Sym=     1a  
Ene=    -7.8224
Spin= Beta
Occup=    1.00000
   1         1.00131656
   2         0.02499154
   3         0.00000000
   4        -0.00000000
   5         0.00760394
   6         0.00271559
   7        -0.00935784
   8        -0.00000000
   9         0.00000000
  10         0.00205445
Sym=     2a  
Ene=    -4.8636
Spin= Alpha
Occup=    1.00000
   1        -0.02186915
   2         0.01930237
   3        -0.00000000
   4         0.00000000
   5         0.01767099
   6         0.99080183
   7        -0.01165833
   8         0.00000000
   9        -0.00000000
  10        -0.00185575
Sym=     2a  
Ene=    -4.8708
Spin= Beta
Occup=    1.00000
   1        -0.02266965
   2         0.01174086
   3        -0.00000000
   4         0.00000000
   5         0.01565998
   6         0.99295192
   7        -0.00984065
   8        -0.00000000
   9         0.00000000
  10        -0.00570115
Sym=     3a  
Ene=    -0.6643
Spin= Alpha
Occup=    1.00000
   1        -0.06495941
   2         0.77148308
   3        -0.00000000
   4         0.00000000
   5         0.31920367
   6        -0.26121032
   7         0.14262648
   8         0.00000000
   9        -0.00000000
  10        -0.17996859
Sym=     3a  
Ene=    -0.6269
Spin= Beta
Occup=    1.00000
   1         0.05638453
   2        -0.85883417
   3        -0.00000000
   4         0.00000000
   5        -0.20242442
   6         0.23934150
   7        -0.06387612
   8         0.00000000
   9        -0.00000000
  10         0.18051932
Sym=     4a  
Ene=    -0.4339
Spin= Alpha
Occup=    1.00000
   1         0.00000000
   2        -0.00000000
   3         0.25814387
   4         0.65119431
   5         0.00000000
   6         0.00000000
   7         0.00000000
   8         0.14260638
   9         0.35973916
  10         0.00000000
Sym=     4a  
Ene=    -0.3834
Spin= Beta
Occup=    1.00000
   1        -0.04959480
   2        -0.30915202
   3        -0.00000000
   4         0.00000000
   5         1.04384054
   6        -0.25609663
   7         0.04025243
   8        -0.00000000
   9         0.00000000
  10        -0.24283587
Sym=     5a  
Ene=    -0.3117
Spin= Alpha
Occup=    1.00000
   1         0.04292328
   2        -0.25106827
   3         0.00000000
   4        -0.00000000
   5        -0.08868574
   6         0.07871621
   7         0.77642023
   8         0.00000000
   9        -0.00000000
  10         0.70375832
Sym=     5a  
Ene=    -0.0799
Spin= Beta
Occup=    0.00000
   1        -0.00000000
   2        -0.00000000
   3         0.61710728
   4        -0.24463123
   5         0.00000000
   6        -0.00000000
   7        -0.00000000
   8         0.39749678
   9        -0.15757410
  10        -0.00000000
Sym=     6a  
Ene=    -0.0952
Spin= Alpha
Occup=    0.00000
   1        -0.00000000
   2         0.00000000
   3         0.53141516
   4        -0.21066150
   5         0.00000000
   6        -0.00000000
   7        -0.00000000
   8         0.48780127
   9        -0.19337225
  10        -0.00000000
Sym=     6a  
Ene=    -0.0423
Spin= Beta
Occup=    0.00000
   1        -0.00000000
   2        -0.00000000
   3         0.23696866
   4         0.59777765
   5         0.00000000
   6        -0.00000000
   7         0.00000000
   8         0.16587157
   9         0.41842799
  10        -0.00000000
Sym=     7a  
Ene=     0.1380
Spin= Alpha
Occup=    0.00000
   1         0.04086911
   2         0.32067916
   3        -0.00000000
   4         0.00000000
   5        -1.06938810
   6         0.26124017
   7         0.20193068
   8         0.00000000
   9        -0.00000000
  10         0.35339085
Sym=     7a  
Ene=     0.1223
Spin= Beta
Occup=    0.00000
   1        -0.00923426
   2        -0.37456335
   3         0.00000000
   4        -0.00000000
   5        -0.37912213
   6         0.19362702
   7         1.02832001
   8        -0.00000000
   9         0.00000000
  10         0.60605040
Sym=     8a  
Ene=     0.2731
Spin= Alpha
Occup=    0.00000
   1        -0.00000000
   2        -0.00000000
   3        -0.41929248
   4        -1.05770813
   5         0.00000000
   6        -0.00000000
   7         0.00000000
   8         0.47128321
   9         1.18886007
  10        -0.00000000
Sym=     8a  
Ene=     0.3449
Spin= Beta
Occup=    0.00000
   1        -0.00000000
   2        -0.00000000
   3        -1.07795136
   4         0.42731722
   5        -0.00000000
   6         0.00000000
   7         0.00000000
   8         1.17677391
   9        -0.46649206
  10         0.00000000
Sym=     9a  
Ene=     0.3209
Spin= Alpha
Occup=    0.00000
   1         0.00000000
   2         0.00000000
   3        -1.12267469
   4         0.44504626
   5         0.00000000
   6        -0.00000000
   7        -0.00000000
   8         1.14230051
   9        -0.45282625
  10         0.00000000
Sym=     9a  
Ene=     0.3733
Spin= Beta
Occup=    0.00000
   1        -0.00000000
   2        -0.00000000
   3        -0.43161360
   4        -1.08878942
   5        -0.00000000
   6         0.00000000
   7         0.00000000
   8         0.46360659
   9         1.16949499
  10        -0.00000000
Sym=    10a  
Ene=     0.6552
Spin= Alpha
Occup=    0.00000
   1         0.80328618
   2         3.64011998
   3         0.00000000
   4        -0.00000000
   5         0.97859218
   6        -1.02601119
   7        -3.16793479
   8        -0.00000000
   9         0.00000000
  10         2.08559773
Sym=    10a  
Ene=     0.6926
Spin= Beta
Occup=    0.00000
   1         0.80413561
   2         3.61084394
   3        -0.00000000
   4         0.00000000
   5         0.96786220
   6        -1.01525749
   7        -3.10429311
   8         0.00000000
   9        -0.00000000
  10         2.13152102
