[Molden Format]
[N_Atoms]
                     2
[Atoms] (AU)
BE1         1      4           0.00000000      0.00000000      0.00000000
BE2         2      4           0.00000000      0.00000000      3.59047964
[Charge] (Mulliken)
  0.000000000000000E+000
  0.000000000000000E+000
[GTO] (AU)
   1
   s  14
  2.262859900E+04  8.443999941E-05
  3.372318100E+03  4.601499968E-04
  7.603504000E+02  2.285389984E-03
  2.117404800E+02  9.648129932E-03
  6.722346800E+01  3.494469975E-02
  2.337217700E+01  1.061099893E-01
  8.721373000E+00  2.458240383E-01
  3.468091000E+00  3.862428773E-01
  1.452144000E+00  3.105526078E-01
  6.086150000E-01  6.415933955E-02
  2.576860000E-01 -2.265049984E-03
  1.041760000E-01 -5.217499963E-04
  4.242700000E-02 -8.757499938E-04
  1.484900000E-02  1.242199991E-04
   s  14
  2.262859900E+04 -1.586999994E-05
  3.372318100E+03 -8.656999968E-05
  7.603504000E+02 -4.302199984E-04
  2.117404800E+02 -1.825079993E-03
  6.722346800E+01 -6.682749976E-03
  2.337217700E+01 -2.095119992E-02
  8.721373000E+00 -5.200308981E-02
  3.468091000E+00 -9.849176964E-02
  1.452144000E+00 -1.355800695E-01
  6.086150000E-01 -6.429875976E-02
  2.576860000E-01  3.125414989E-01
  1.041760000E-01  6.270468577E-01
  4.242700000E-02  2.110231492E-01
  1.484900000E-02 -4.104669985E-03
   p   9
  3.371018400E+01  1.069960000E-03
  8.057649500E+00  6.828550001E-03
  2.836471400E+00  2.119065000E-02
  1.099965700E+00  5.843696001E-02
  4.433964000E-01  2.020920800E-01
  1.822264000E-01  4.582953101E-01
  7.572410000E-02  3.691239601E-01
  3.168540000E-02  6.611471001E-02
  1.108990000E-02  1.405160000E-03
 
   2
   s  14
  2.262859900E+04  8.443999941E-05
  3.372318100E+03  4.601499968E-04
  7.603504000E+02  2.285389984E-03
  2.117404800E+02  9.648129932E-03
  6.722346800E+01  3.494469975E-02
  2.337217700E+01  1.061099893E-01
  8.721373000E+00  2.458240383E-01
  3.468091000E+00  3.862428773E-01
  1.452144000E+00  3.105526078E-01
  6.086150000E-01  6.415933955E-02
  2.576860000E-01 -2.265049984E-03
  1.041760000E-01 -5.217499963E-04
  4.242700000E-02 -8.757499938E-04
  1.484900000E-02  1.242199991E-04
   s  14
  2.262859900E+04 -1.586999994E-05
  3.372318100E+03 -8.656999968E-05
  7.603504000E+02 -4.302199984E-04
  2.117404800E+02 -1.825079993E-03
  6.722346800E+01 -6.682749976E-03
  2.337217700E+01 -2.095119992E-02
  8.721373000E+00 -5.200308981E-02
  3.468091000E+00 -9.849176964E-02
  1.452144000E+00 -1.355800695E-01
  6.086150000E-01 -6.429875976E-02
  2.576860000E-01  3.125414989E-01
  1.041760000E-01  6.270468577E-01
  4.242700000E-02  2.110231492E-01
  1.484900000E-02 -4.104669985E-03
   p   9
  3.371018400E+01  1.069960000E-03
  8.057649500E+00  6.828550001E-03
  2.836471400E+00  2.119065000E-02
  1.099965700E+00  5.843696001E-02
  4.433964000E-01  2.020920800E-01
  1.822264000E-01  4.582953101E-01
  7.572410000E-02  3.691239601E-01
  3.168540000E-02  6.611471001E-02
  1.108990000E-02  1.405160000E-03
 
[MO]
Sym=     1a  
Ene=    -4.7349
Spin= Alpha
Occup=    2.00000
   1        -0.70686803
   2         0.00324853
   3        -0.00000000
   4        -0.00000000
   5         0.00000000
   6         0.70686803
   7        -0.00324853
   8        -0.00000000
   9         0.00000000
  10         0.00000000
Sym=     2a  
Ene=    -4.7346
Spin= Alpha
Occup=    2.00000
   1         0.70686958
   2         0.00349281
   3         0.00000000
   4         0.00000000
   5        -0.00000000
   6         0.70686958
   7         0.00349281
   8        -0.00000000
   9         0.00000000
  10        -0.00000000
Sym=     3a  
Ene=    -0.4679
Spin= Alpha
Occup=    2.00000
   1        -0.04346232
   2         0.57478038
   3        -0.00000000
   4        -0.00000000
   5         0.00000000
   6        -0.04346232
   7         0.57478038
   8        -0.00000000
   9        -0.00000000
  10         0.00000000
Sym=     4a  
Ene=    -0.1476
Spin= Alpha
Occup=    2.00000
   1        -0.07197775
   2        -1.02346893
   3         0.00000000
   4         0.00000000
   5         0.00000000
   6         0.07197775
   7         1.02346893
   8        -0.00000000
   9         0.00000000
  10         0.00000000
Sym=     5a  
Ene=     3.3697
Spin= Alpha
Occup=    0.00000
   1        -0.00000000
   2         0.00000000
   3        -0.00000000
   4         0.59719434
   5         0.00000000
   6        -0.00000000
   7        -0.00000000
   8        -0.00000000
   9         0.59719434
  10        -0.00000000
Sym=     6a  
Ene=     3.3697
Spin= Alpha
Occup=    0.00000
   1         0.00000000
   2        -0.00000000
   3         0.59719434
   4         0.00000000
   5         0.00000000
   6         0.00000000
   7         0.00000000
   8         0.59719434
   9         0.00000000
  10         0.00000000
Sym=     7a  
Ene=     3.5230
Spin= Alpha
Occup=    0.00000
   1         0.06811966
   2         0.22350693
   3         0.00000000
   4        -0.00000000
   5        -0.68988272
   6         0.06811966
   7         0.22350693
   8        -0.00000000
   9         0.00000000
  10         0.68988272
Sym=     8a  
Ene=     3.6244
Spin= Alpha
Occup=    0.00000
   1        -0.00000000
   2        -0.00000000
   3         0.00000000
   4        -0.91437304
   5         0.00000000
   6        -0.00000000
   7        -0.00000000
   8        -0.00000000
   9         0.91437304
  10        -0.00000000
Sym=     9a  
Ene=     3.6244
Spin= Alpha
Occup=    0.00000
   1         0.00000000
   2         0.00000000
   3        -0.91437304
   4        -0.00000000
   5         0.00000000
   6         0.00000000
   7         0.00000000
   8         0.91437304
   9         0.00000000
  10         0.00000000
Sym=    10a  
Ene=     4.1834
Spin= Alpha
Occup=    0.00000
   1         0.28896439
   2         1.58838544
   3         0.00000000
   4         0.00000000
   5         1.49610824
   6        -0.28896439
   7        -1.58838544
   8        -0.00000000
   9         0.00000000
  10         1.49610824
