[Molden Format]
[N_Atoms]
                     2
[Atoms] (AU)
BE1         1      4           0.00000000      0.00000000      0.00000000
BE2         2      4           0.00000000      0.00000000      3.59047964
[Charge] (Mulliken)
 -8.926193117986259E-013
  8.775202786637237E-013
[GTO] (AU)
   1
   s  14
  2.262859900E+04  8.443999941E-05
  3.372318100E+03  4.601499968E-04
  7.603504000E+02  2.285389984E-03
  2.117404800E+02  9.648129932E-03
  6.722346800E+01  3.494469975E-02
  2.337217700E+01  1.061099893E-01
  8.721373000E+00  2.458240383E-01
  3.468091000E+00  3.862428773E-01
  1.452144000E+00  3.105526078E-01
  6.086150000E-01  6.415933955E-02
  2.576860000E-01 -2.265049984E-03
  1.041760000E-01 -5.217499963E-04
  4.242700000E-02 -8.757499938E-04
  1.484900000E-02  1.242199991E-04
   s  14
  2.262859900E+04 -1.586999994E-05
  3.372318100E+03 -8.656999968E-05
  7.603504000E+02 -4.302199984E-04
  2.117404800E+02 -1.825079993E-03
  6.722346800E+01 -6.682749976E-03
  2.337217700E+01 -2.095119992E-02
  8.721373000E+00 -5.200308981E-02
  3.468091000E+00 -9.849176964E-02
  1.452144000E+00 -1.355800695E-01
  6.086150000E-01 -6.429875976E-02
  2.576860000E-01  3.125414989E-01
  1.041760000E-01  6.270468577E-01
  4.242700000E-02  2.110231492E-01
  1.484900000E-02 -4.104669985E-03
   p   9
  3.371018400E+01  1.069960000E-03
  8.057649500E+00  6.828550001E-03
  2.836471400E+00  2.119065000E-02
  1.099965700E+00  5.843696001E-02
  4.433964000E-01  2.020920800E-01
  1.822264000E-01  4.582953101E-01
  7.572410000E-02  3.691239601E-01
  3.168540000E-02  6.611471001E-02
  1.108990000E-02  1.405160000E-03
 
   2
   s  14
  2.262859900E+04  8.443999941E-05
  3.372318100E+03  4.601499968E-04
  7.603504000E+02  2.285389984E-03
  2.117404800E+02  9.648129932E-03
  6.722346800E+01  3.494469975E-02
  2.337217700E+01  1.061099893E-01
  8.721373000E+00  2.458240383E-01
  3.468091000E+00  3.862428773E-01
  1.452144000E+00  3.105526078E-01
  6.086150000E-01  6.415933955E-02
  2.576860000E-01 -2.265049984E-03
  1.041760000E-01 -5.217499963E-04
  4.242700000E-02 -8.757499938E-04
  1.484900000E-02  1.242199991E-04
   s  14
  2.262859900E+04 -1.586999994E-05
  3.372318100E+03 -8.656999968E-05
  7.603504000E+02 -4.302199984E-04
  2.117404800E+02 -1.825079993E-03
  6.722346800E+01 -6.682749976E-03
  2.337217700E+01 -2.095119992E-02
  8.721373000E+00 -5.200308981E-02
  3.468091000E+00 -9.849176964E-02
  1.452144000E+00 -1.355800695E-01
  6.086150000E-01 -6.429875976E-02
  2.576860000E-01  3.125414989E-01
  1.041760000E-01  6.270468577E-01
  4.242700000E-02  2.110231492E-01
  1.484900000E-02 -4.104669985E-03
   p   9
  3.371018400E+01  1.069960000E-03
  8.057649500E+00  6.828550001E-03
  2.836471400E+00  2.119065000E-02
  1.099965700E+00  5.843696001E-02
  4.433964000E-01  2.020920800E-01
  1.822264000E-01  4.582953101E-01
  7.572410000E-02  3.691239601E-01
  3.168540000E-02  6.611471001E-02
  1.108990000E-02  1.405160000E-03
 
[MO]
Sym=     1a  
Ene=    -4.7249
Spin= Alpha
Occup=    2.00000
   1         0.70686442
   2         0.00205296
   3        -0.00000000
   4         0.00000000
   5         0.00090896
   6         0.70686441
   7         0.00205296
   8         0.00000000
   9        -0.00000000
  10        -0.00090896
Sym=     2a  
Ene=    -4.7242
Spin= Alpha
Occup=    2.00000
   1        -0.70738334
   2        -0.00172904
   3         0.00000000
   4        -0.00000000
   5        -0.00143158
   6         0.70738335
   7         0.00172904
   8         0.00000000
   9        -0.00000000
  10        -0.00143158
Sym=     3a  
Ene=    -0.4309
Spin= Alpha
Occup=    2.00000
   1        -0.05798139
   2         0.50065463
   3         0.00000000
   4        -0.00000000
   5         0.17247472
   6        -0.05798139
   7         0.50065463
   8        -0.00000000
   9         0.00000000
  10        -0.17247472
Sym=     4a  
Ene=    -0.1909
Spin= Alpha
Occup=    1.78370
   1        -0.02367079
   2        -0.76260824
   3        -0.00000000
   4         0.00000000
   5         0.23386080
   6         0.02367079
   7         0.76260824
   8        -0.00000000
   9         0.00000000
  10         0.23386080
Sym=     5a  
Ene=     0.0000
Spin= Alpha
Occup=    0.21630
   1        -0.00000000
   2        -0.00000000
   3         0.57328531
   4         0.16728730
   5         0.00000000
   6         0.00000000
   7         0.00000000
   8         0.57328531
   9         0.16728730
  10         0.00000000
Sym=     6a  
Ene=     0.0287
Spin= Alpha
Occup=    0.00000
   1         0.00000000
   2         0.00000000
   3        -0.16728730
   4         0.57328531
   5        -0.00000000
   6        -0.00000000
   7        -0.00000000
   8        -0.16728730
   9         0.57328531
  10        -0.00000000
Sym=     7a  
Ene=     0.0474
Spin= Alpha
Occup=    0.00000
   1         0.05634462
   2         0.36011215
   3         0.00000000
   4        -0.00000000
   5        -0.66797441
   6         0.05634462
   7         0.36011215
   8        -0.00000000
   9         0.00000000
  10         0.66797441
Sym=     8a  
Ene=     0.1949
Spin= Alpha
Occup=    0.00000
   1         0.00000000
   2        -0.00000000
   3        -0.87776556
   4        -0.25613605
   5        -0.00000000
   6         0.00000000
   7        -0.00000000
   8         0.87776556
   9         0.25613605
  10         0.00000000
Sym=     9a  
Ene=     0.1979
Spin= Alpha
Occup=    0.00000
   1        -0.00000000
   2        -0.00000000
   3         0.25613605
   4        -0.87776556
   5         0.00000000
   6        -0.00000000
   7        -0.00000000
   8        -0.25613605
   9         0.87776556
  10        -0.00000000
Sym=    10a  
Ene=     0.5186
Spin= Alpha
Occup=    0.00000
   1        -0.29562159
   2        -1.72884158
   3         0.00000000
   4        -0.00000000
   5        -1.47771680
   6         0.29562159
   7         1.72884158
   8         0.00000000
   9        -0.00000000
  10        -1.47771680
