[Molden Format]
[N_Atoms]
                     2
[Atoms] (AU)
BE1         1      4           0.00000000      0.00000000      0.00000000
BE2         2      4           0.00000000      0.00000000      3.59047964
[Charge] (Mulliken)
  0.999999999999192     
   1.00000000000079     
[GTO] (AU)
   1
   s  14
  2.262859900E+04  8.443999941E-05
  3.372318100E+03  4.601499968E-04
  7.603504000E+02  2.285389984E-03
  2.117404800E+02  9.648129932E-03
  6.722346800E+01  3.494469975E-02
  2.337217700E+01  1.061099893E-01
  8.721373000E+00  2.458240383E-01
  3.468091000E+00  3.862428773E-01
  1.452144000E+00  3.105526078E-01
  6.086150000E-01  6.415933955E-02
  2.576860000E-01 -2.265049984E-03
  1.041760000E-01 -5.217499963E-04
  4.242700000E-02 -8.757499938E-04
  1.484900000E-02  1.242199991E-04
   s  14
  2.262859900E+04 -1.586999994E-05
  3.372318100E+03 -8.656999968E-05
  7.603504000E+02 -4.302199984E-04
  2.117404800E+02 -1.825079993E-03
  6.722346800E+01 -6.682749976E-03
  2.337217700E+01 -2.095119992E-02
  8.721373000E+00 -5.200308981E-02
  3.468091000E+00 -9.849176964E-02
  1.452144000E+00 -1.355800695E-01
  6.086150000E-01 -6.429875976E-02
  2.576860000E-01  3.125414989E-01
  1.041760000E-01  6.270468577E-01
  4.242700000E-02  2.110231492E-01
  1.484900000E-02 -4.104669985E-03
   p   9
  3.371018400E+01  1.069960000E-03
  8.057649500E+00  6.828550001E-03
  2.836471400E+00  2.119065000E-02
  1.099965700E+00  5.843696001E-02
  4.433964000E-01  2.020920800E-01
  1.822264000E-01  4.582953101E-01
  7.572410000E-02  3.691239601E-01
  3.168540000E-02  6.611471001E-02
  1.108990000E-02  1.405160000E-03
 
   2
   s  14
  2.262859900E+04  8.443999941E-05
  3.372318100E+03  4.601499968E-04
  7.603504000E+02  2.285389984E-03
  2.117404800E+02  9.648129932E-03
  6.722346800E+01  3.494469975E-02
  2.337217700E+01  1.061099893E-01
  8.721373000E+00  2.458240383E-01
  3.468091000E+00  3.862428773E-01
  1.452144000E+00  3.105526078E-01
  6.086150000E-01  6.415933955E-02
  2.576860000E-01 -2.265049984E-03
  1.041760000E-01 -5.217499963E-04
  4.242700000E-02 -8.757499938E-04
  1.484900000E-02  1.242199991E-04
   s  14
  2.262859900E+04 -1.586999994E-05
  3.372318100E+03 -8.656999968E-05
  7.603504000E+02 -4.302199984E-04
  2.117404800E+02 -1.825079993E-03
  6.722346800E+01 -6.682749976E-03
  2.337217700E+01 -2.095119992E-02
  8.721373000E+00 -5.200308981E-02
  3.468091000E+00 -9.849176964E-02
  1.452144000E+00 -1.355800695E-01
  6.086150000E-01 -6.429875976E-02
  2.576860000E-01  3.125414989E-01
  1.041760000E-01  6.270468577E-01
  4.242700000E-02  2.110231492E-01
  1.484900000E-02 -4.104669985E-03
   p   9
  3.371018400E+01  1.069960000E-03
  8.057649500E+00  6.828550001E-03
  2.836471400E+00  2.119065000E-02
  1.099965700E+00  5.843696001E-02
  4.433964000E-01  2.020920800E-01
  1.822264000E-01  4.582953101E-01
  7.572410000E-02  3.691239601E-01
  3.168540000E-02  6.611471001E-02
  1.108990000E-02  1.405160000E-03
 
[MO]
Sym=     1a  
Ene=    -5.3856
Spin= Alpha
Occup=    2.00000
   1         0.70770198
   2        -0.00296259
   3        -0.00000000
   4        -0.00000000
   5        -0.00335533
   6         0.70770196
   7        -0.00296259
   8        -0.00000000
   9         0.00000000
  10         0.00335533
Sym=     2a  
Ene=    -5.3854
Spin= Alpha
Occup=    2.00000
   1        -0.70658312
   2         0.00217079
   3        -0.00000000
   4         0.00000000
   5         0.00298123
   6         0.70658314
   7        -0.00217079
   8         0.00000000
   9         0.00000000
  10         0.00298123
Sym=     3a  
Ene=    -0.9319
Spin= Alpha
Occup=    1.97410
   1        -0.05764151
   2         0.43313329
   3        -0.00000000
   4         0.00000000
   5         0.28208545
   6        -0.05764151
   7         0.43313329
   8         0.00000000
   9        -0.00000000
  10        -0.28208545
Sym=     4a  
Ene=     0.0000
Spin= Alpha
Occup=    0.02590
   1         0.00000000
   2         0.00000000
   3        -0.07058937
   4         0.59300778
   5         0.00000000
   6        -0.00000000
   7        -0.00000000
   8        -0.07058937
   9         0.59300778
  10         0.00000000
Sym=     5a  
Ene=    -0.4826
Spin= Alpha
Occup=    0.00000
   1         0.01334941
   2         0.70733601
   3         0.00000000
   4        -0.00000000
   5        -0.28065715
   6        -0.01334941
   7        -0.70733601
   8         0.00000000
   9        -0.00000000
  10        -0.28065715
Sym=     6a  
Ene=    -0.4555
Spin= Alpha
Occup=    0.00000
   1         0.00000000
   2        -0.00000000
   3         0.59300778
   4         0.07058937
   5         0.00000000
   6        -0.00000000
   7         0.00000000
   8         0.59300778
   9         0.07058937
  10        -0.00000000
Sym=     7a  
Ene=    -0.4244
Spin= Alpha
Occup=    0.00000
   1         0.04504711
   2         0.43900661
   3         0.00000000
   4         0.00000000
   5        -0.62956708
   6         0.04504711
   7         0.43900661
   8        -0.00000000
   9         0.00000000
  10         0.62956708
Sym=     8a  
Ene=    -0.3026
Spin= Alpha
Occup=    0.00000
   1        -0.00000000
   2         0.00000000
   3         0.10808043
   4        -0.90796293
   5         0.00000000
   6        -0.00000000
   7         0.00000000
   8        -0.10808043
   9         0.90796293
  10        -0.00000000
Sym=     9a  
Ene=    -0.3022
Spin= Alpha
Occup=    0.00000
   1         0.00000000
   2        -0.00000000
   3        -0.90796293
   4        -0.10808043
   5        -0.00000000
   6        -0.00000000
   7        -0.00000000
   8         0.90796293
   9         0.10808043
  10         0.00000000
Sym=    10a  
Ene=    -0.0201
Spin= Alpha
Occup=    0.00000
   1        -0.29817059
   2        -1.75218109
   3        -0.00000000
   4         0.00000000
   5        -1.46954501
   6         0.29817059
   7         1.75218109
   8        -0.00000000
   9         0.00000000
  10        -1.46954501
