[Molden Format]
[N_Atoms]
                     2
[Atoms] (AU)
BE1         1      4           0.00000000      0.00000000      0.00000000
LI2         2      3           0.00000000      0.00000000      2.07869874
[Charge] (Mulliken)
  0.000000000000000E+000
  0.000000000000000E+000
[GTO] (AU)
   1
   s  14
  2.262859900E+04  8.443999941E-05
  3.372318100E+03  4.601499968E-04
  7.603504000E+02  2.285389984E-03
  2.117404800E+02  9.648129932E-03
  6.722346800E+01  3.494469975E-02
  2.337217700E+01  1.061099893E-01
  8.721373000E+00  2.458240383E-01
  3.468091000E+00  3.862428773E-01
  1.452144000E+00  3.105526078E-01
  6.086150000E-01  6.415933955E-02
  2.576860000E-01 -2.265049984E-03
  1.041760000E-01 -5.217499963E-04
  4.242700000E-02 -8.757499938E-04
  1.484900000E-02  1.242199991E-04
   s  14
  2.262859900E+04 -1.586999994E-05
  3.372318100E+03 -8.656999968E-05
  7.603504000E+02 -4.302199984E-04
  2.117404800E+02 -1.825079993E-03
  6.722346800E+01 -6.682749976E-03
  2.337217700E+01 -2.095119992E-02
  8.721373000E+00 -5.200308981E-02
  3.468091000E+00 -9.849176964E-02
  1.452144000E+00 -1.355800695E-01
  6.086150000E-01 -6.429875976E-02
  2.576860000E-01  3.125414989E-01
  1.041760000E-01  6.270468577E-01
  4.242700000E-02  2.110231492E-01
  1.484900000E-02 -4.104669985E-03
   p   9
  3.371018400E+01  1.069960000E-03
  8.057649500E+00  6.828550001E-03
  2.836471400E+00  2.119065000E-02
  1.099965700E+00  5.843696001E-02
  4.433964000E-01  2.020920800E-01
  1.822264000E-01  4.582953101E-01
  7.572410000E-02  3.691239601E-01
  3.168540000E-02  6.611471001E-02
  1.108990000E-02  1.405160000E-03
 
   2
   s  14
  9.497934400E+03  9.668999974E-05
  1.416811200E+03  6.087099984E-04
  3.214599400E+02  3.101519992E-03
  9.112416300E+01  1.266904997E-02
  2.999989100E+01  4.248012989E-02
  1.101763100E+01  1.150183297E-01
  4.372801000E+00  2.398650094E-01
  1.831256000E+00  3.584300090E-01
  8.022610000E-01  3.048527792E-01
  3.626480000E-01  8.824261976E-02
  1.139950000E-01 -8.445899977E-04
  5.123700000E-02 -7.943959979E-03
  2.246800000E-02 -3.764419990E-03
  7.860000000E-03 -8.868999976E-05
   s  14
  9.497934400E+03 -1.244999993E-05
  1.416811200E+03 -7.838999954E-05
  3.214599400E+02 -4.007099976E-04
  9.112416300E+01 -1.645249990E-03
  2.999989100E+01 -5.634599967E-03
  1.101763100E+01 -1.590780991E-02
  4.372801000E+00 -3.612581979E-02
  1.831256000E+00 -6.459927962E-02
  8.022610000E-01 -1.008321794E-01
  3.626480000E-01 -9.757613942E-02
  1.139950000E-01  2.301215886E-01
  5.123700000E-02  6.102389764E-01
  2.246800000E-02  2.849406083E-01
  7.860000000E-03  4.026899976E-03
   p   9
  1.311950400E+01  1.524940000E-03
  3.077424200E+00  8.314830000E-03
  1.098800500E+00  1.933203000E-02
  4.357784000E-01  4.934293000E-02
  1.802432000E-01  1.623554000E-01
  7.613330000E-02  3.847505400E-01
  3.254650000E-02  4.336100400E-01
  1.401820000E-02  1.287005900E-01
  4.906400000E-03 -1.018520000E-03
 
[MO]
Sym=     1a  
Ene=    -4.7439
Spin= Alpha
Occup=    2.00000
   1         0.99680307
   2         0.00099631
   3         0.00000000
   4         0.00000000
   5         0.00000000
   6         0.04295856
   7         0.00495542
   8        -0.00000000
   9        -0.00000000
  10        -0.00000000
Sym=     2a  
Ene=    -2.4913
Spin= Alpha
Occup=    2.00000
   1        -0.08225262
   2         0.03483205
   3        -0.00000000
   4         0.00000000
   5         0.00000000
   6         0.99061107
   7         0.00140491
   8         0.00000000
   9        -0.00000000
  10        -0.00000000
Sym=     3a  
Ene=    -0.4289
Spin= Alpha
Occup=    2.00000
   1        -0.04357482
   2         0.66792651
   3         0.00000000
   4        -0.00000000
   5         0.00000000
   6        -0.19744770
   7         0.41410918
   8        -0.00000000
   9         0.00000000
  10         0.00000000
Sym=     4a  
Ene=    -0.0527
Spin= Alpha
Occup=    1.00000
   1        -0.19159905
   2        -1.47712666
   3         0.00000000
   4        -0.00000000
   5         0.00000000
   6         0.38044409
   7         1.52638203
   8        -0.00000000
   9         0.00000000
  10         0.00000000
Sym=     5a  
Ene=     3.1520
Spin= Alpha
Occup=    0.00000
   1         0.00000000
   2         0.00000000
   3         0.00000000
   4        -0.12165070
   5         0.00000000
   6        -0.00000000
   7        -0.00000000
   8        -0.00000000
   9         1.07985485
  10        -0.00000000
Sym=     6a  
Ene=     3.1520
Spin= Alpha
Occup=    0.00000
   1        -0.00000000
   2        -0.00000000
   3        -0.12165070
   4         0.00000000
   5        -0.00000000
   6         0.00000000
   7         0.00000000
   8         1.07985485
   9         0.00000000
  10        -0.00000000
Sym=     7a  
Ene=     3.3658
Spin= Alpha
Occup=    0.00000
   1         0.43758139
   2         1.89089845
   3         0.00000000
   4         0.00000000
   5        -0.42984530
   6        -0.32787649
   7        -1.36139353
   8         0.00000000
   9        -0.00000000
  10         1.69731587
Sym=     8a  
Ene=     3.6311
Spin= Alpha
Occup=    0.00000
   1         0.00000000
   2         0.00000000
   3        -0.00000000
   4        -1.37345404
   5         0.00000000
   6        -0.00000000
   7        -0.00000000
   8         0.00000000
   9         0.85737296
  10        -0.00000000
Sym=     9a  
Ene=     3.6311
Spin= Alpha
Occup=    0.00000
   1        -0.00000000
   2        -0.00000000
   3        -1.37345404
   4        -0.00000000
   5        -0.00000000
   6         0.00000000
   7         0.00000000
   8         0.85737296
   9         0.00000000
  10         0.00000000
Sym=    10a  
Ene=     4.3763
Spin= Alpha
Occup=    0.00000
   1        -0.19688476
   2        -1.12073336
   3         0.00000000
   4        -0.00000000
   5        -1.17951402
   6         0.71347047
   7         1.10161456
   8        -0.00000000
   9         0.00000000
  10        -0.27098044
