[Molden Format]
[N_Atoms]
                     2
[Atoms] (AU)
BE1         1      4           0.00000000      0.00000000      0.00000000
LI2         2      3           0.00000000      0.00000000      2.07869874
[Charge] (Mulliken)
  3.332393727608141E-002
 -3.332393727609384E-002
[GTO] (AU)
   1
   s  14
  2.262859900E+04  8.443999941E-05
  3.372318100E+03  4.601499968E-04
  7.603504000E+02  2.285389984E-03
  2.117404800E+02  9.648129932E-03
  6.722346800E+01  3.494469975E-02
  2.337217700E+01  1.061099893E-01
  8.721373000E+00  2.458240383E-01
  3.468091000E+00  3.862428773E-01
  1.452144000E+00  3.105526078E-01
  6.086150000E-01  6.415933955E-02
  2.576860000E-01 -2.265049984E-03
  1.041760000E-01 -5.217499963E-04
  4.242700000E-02 -8.757499938E-04
  1.484900000E-02  1.242199991E-04
   s  14
  2.262859900E+04 -1.586999994E-05
  3.372318100E+03 -8.656999968E-05
  7.603504000E+02 -4.302199984E-04
  2.117404800E+02 -1.825079993E-03
  6.722346800E+01 -6.682749976E-03
  2.337217700E+01 -2.095119992E-02
  8.721373000E+00 -5.200308981E-02
  3.468091000E+00 -9.849176964E-02
  1.452144000E+00 -1.355800695E-01
  6.086150000E-01 -6.429875976E-02
  2.576860000E-01  3.125414989E-01
  1.041760000E-01  6.270468577E-01
  4.242700000E-02  2.110231492E-01
  1.484900000E-02 -4.104669985E-03
   p   9
  3.371018400E+01  1.069960000E-03
  8.057649500E+00  6.828550001E-03
  2.836471400E+00  2.119065000E-02
  1.099965700E+00  5.843696001E-02
  4.433964000E-01  2.020920800E-01
  1.822264000E-01  4.582953101E-01
  7.572410000E-02  3.691239601E-01
  3.168540000E-02  6.611471001E-02
  1.108990000E-02  1.405160000E-03
 
   2
   s  14
  9.497934400E+03  9.668999974E-05
  1.416811200E+03  6.087099984E-04
  3.214599400E+02  3.101519992E-03
  9.112416300E+01  1.266904997E-02
  2.999989100E+01  4.248012989E-02
  1.101763100E+01  1.150183297E-01
  4.372801000E+00  2.398650094E-01
  1.831256000E+00  3.584300090E-01
  8.022610000E-01  3.048527792E-01
  3.626480000E-01  8.824261976E-02
  1.139950000E-01 -8.445899977E-04
  5.123700000E-02 -7.943959979E-03
  2.246800000E-02 -3.764419990E-03
  7.860000000E-03 -8.868999976E-05
   s  14
  9.497934400E+03 -1.244999993E-05
  1.416811200E+03 -7.838999954E-05
  3.214599400E+02 -4.007099976E-04
  9.112416300E+01 -1.645249990E-03
  2.999989100E+01 -5.634599967E-03
  1.101763100E+01 -1.590780991E-02
  4.372801000E+00 -3.612581979E-02
  1.831256000E+00 -6.459927962E-02
  8.022610000E-01 -1.008321794E-01
  3.626480000E-01 -9.757613942E-02
  1.139950000E-01  2.301215886E-01
  5.123700000E-02  6.102389764E-01
  2.246800000E-02  2.849406083E-01
  7.860000000E-03  4.026899976E-03
   p   9
  1.311950400E+01  1.524940000E-03
  3.077424200E+00  8.314830000E-03
  1.098800500E+00  1.933203000E-02
  4.357784000E-01  4.934293000E-02
  1.802432000E-01  1.623554000E-01
  7.613330000E-02  3.847505400E-01
  3.254650000E-02  4.336100400E-01
  1.401820000E-02  1.287005900E-01
  4.906400000E-03 -1.018520000E-03
 
[MO]
Sym=     1a  
Ene=    -4.9700
Spin= Alpha
Occup=    2.00000
   1         0.99872769
   2        -0.00661125
   3         0.00000021
   4         0.00000007
   5         0.00713333
   6         0.01546065
   7        -0.00057484
   8        -0.00000006
   9        -0.00000002
  10        -0.00356232
Sym=     2a  
Ene=    -2.7536
Spin= Alpha
Occup=    2.00000
   1        -0.05862436
   2         0.07027057
   3        -0.00000093
   4        -0.00000033
   5         0.01165685
   6         0.97545442
   7         0.01013476
   8        -0.00000006
   9        -0.00000002
  10        -0.02118162
Sym=     3a  
Ene=    -0.3985
Spin= Alpha
Occup=    2.00000
   1        -0.00216828
   2         0.92490404
   3        -0.00000997
   4        -0.00000358
   5        -0.05734576
   6        -0.29215068
   7         0.06451051
   8        -0.00000039
   9        -0.00000014
  10        -0.08565837
Sym=     4a  
Ene=     0.0003
Spin= Alpha
Occup=    1.00000
   1        -0.00329098
   2        -0.23869963
   3         0.00009540
   4         0.00003428
   5         0.26616758
   6        -0.04018861
   7         0.74758702
   8         0.00005505
   9         0.00001978
  10         0.51502856
Sym=     5a  
Ene=    -0.0565
Spin= Alpha
Occup=    0.00000
   1         0.00000000
   2         0.00000000
   3        -0.22576641
   4         0.62833677
   5        -0.00000000
   6         0.00000000
   7        -0.00000000
   8        -0.14041928
   9         0.39080481
  10        -0.00000000
Sym=     6a  
Ene=    -0.0565
Spin= Alpha
Occup=    0.00000
   1         0.00000047
   2         0.00004813
   3         0.62833676
   4         0.22576640
   5        -0.00003296
   6         0.00000047
   7        -0.00011423
   8         0.39080481
   9         0.14041928
  10        -0.00007951
Sym=     7a  
Ene=     0.1373
Spin= Alpha
Occup=    0.00000
   1         0.25615851
   2         0.94210722
   3        -0.00003976
   4        -0.00001429
   5        -1.02645353
   6         0.14484880
   7        -0.53114188
   8         0.00004842
   9         0.00001740
  10         1.23708202
Sym=     8a  
Ene=     0.1519
Spin= Alpha
Occup=    0.00000
   1        -0.00000729
   2        -0.00002695
   3        -1.13534197
   4        -0.40791659
   5         0.00004272
   6        -0.00000915
   7         0.00001064
   8         1.23736935
   9         0.44457396
  10        -0.00003984
Sym=     9a  
Ene=     0.1519
Spin= Alpha
Occup=    0.00000
   1        -0.00000000
   2        -0.00000000
   3         0.40791659
   4        -1.13534197
   5         0.00000000
   6        -0.00000000
   7         0.00000000
   8        -0.44457397
   9         1.23736935
  10        -0.00000000
Sym=    10a  
Ene=     0.2508
Spin= Alpha
Occup=    0.00000
   1        -0.45022811
   2        -2.37819486
   3        -0.00000365
   4        -0.00000131
   5        -0.66939748
   6         0.85071937
   7         2.17325546
   8         0.00000739
   9         0.00000266
  10        -1.07279378
