[Molden Format]
[N_Atoms]
                     2
[Atoms] (AU)
BE1         1      4           0.00000000      0.00000000      0.00000000
LI2         2      3           0.00000000      0.00000000      2.07869874
[Charge] (Mulliken)
  2.053561241040569E-002
 -2.053561241042345E-002
[GTO] (AU)
   1
   s  14
  2.262859900E+04  8.443999941E-05
  3.372318100E+03  4.601499968E-04
  7.603504000E+02  2.285389984E-03
  2.117404800E+02  9.648129932E-03
  6.722346800E+01  3.494469975E-02
  2.337217700E+01  1.061099893E-01
  8.721373000E+00  2.458240383E-01
  3.468091000E+00  3.862428773E-01
  1.452144000E+00  3.105526078E-01
  6.086150000E-01  6.415933955E-02
  2.576860000E-01 -2.265049984E-03
  1.041760000E-01 -5.217499963E-04
  4.242700000E-02 -8.757499938E-04
  1.484900000E-02  1.242199991E-04
   s  14
  2.262859900E+04 -1.586999994E-05
  3.372318100E+03 -8.656999968E-05
  7.603504000E+02 -4.302199984E-04
  2.117404800E+02 -1.825079993E-03
  6.722346800E+01 -6.682749976E-03
  2.337217700E+01 -2.095119992E-02
  8.721373000E+00 -5.200308981E-02
  3.468091000E+00 -9.849176964E-02
  1.452144000E+00 -1.355800695E-01
  6.086150000E-01 -6.429875976E-02
  2.576860000E-01  3.125414989E-01
  1.041760000E-01  6.270468577E-01
  4.242700000E-02  2.110231492E-01
  1.484900000E-02 -4.104669985E-03
   p   9
  3.371018400E+01  1.069960000E-03
  8.057649500E+00  6.828550001E-03
  2.836471400E+00  2.119065000E-02
  1.099965700E+00  5.843696001E-02
  4.433964000E-01  2.020920800E-01
  1.822264000E-01  4.582953101E-01
  7.572410000E-02  3.691239601E-01
  3.168540000E-02  6.611471001E-02
  1.108990000E-02  1.405160000E-03
 
   2
   s  14
  9.497934400E+03  9.668999974E-05
  1.416811200E+03  6.087099984E-04
  3.214599400E+02  3.101519992E-03
  9.112416300E+01  1.266904997E-02
  2.999989100E+01  4.248012989E-02
  1.101763100E+01  1.150183297E-01
  4.372801000E+00  2.398650094E-01
  1.831256000E+00  3.584300090E-01
  8.022610000E-01  3.048527792E-01
  3.626480000E-01  8.824261976E-02
  1.139950000E-01 -8.445899977E-04
  5.123700000E-02 -7.943959979E-03
  2.246800000E-02 -3.764419990E-03
  7.860000000E-03 -8.868999976E-05
   s  14
  9.497934400E+03 -1.244999993E-05
  1.416811200E+03 -7.838999954E-05
  3.214599400E+02 -4.007099976E-04
  9.112416300E+01 -1.645249990E-03
  2.999989100E+01 -5.634599967E-03
  1.101763100E+01 -1.590780991E-02
  4.372801000E+00 -3.612581979E-02
  1.831256000E+00 -6.459927962E-02
  8.022610000E-01 -1.008321794E-01
  3.626480000E-01 -9.757613942E-02
  1.139950000E-01  2.301215886E-01
  5.123700000E-02  6.102389764E-01
  2.246800000E-02  2.849406083E-01
  7.860000000E-03  4.026899976E-03
   p   9
  1.311950400E+01  1.524940000E-03
  3.077424200E+00  8.314830000E-03
  1.098800500E+00  1.933203000E-02
  4.357784000E-01  4.934293000E-02
  1.802432000E-01  1.623554000E-01
  7.613330000E-02  3.847505400E-01
  3.254650000E-02  4.336100400E-01
  1.401820000E-02  1.287005900E-01
  4.906400000E-03 -1.018520000E-03
 
[MO]
Sym=     1a  
Ene=    -4.9683
Spin= Alpha
Occup=    1.00000
   1         0.99877936
   2         0.00033057
   3         0.00000000
   4        -0.00000000
   5         0.00648382
   6         0.01275678
   7        -0.00022484
   8         0.00000000
   9         0.00000000
  10        -0.00388876
Sym=     1a  
Ene=    -4.9671
Spin= Beta
Occup=    1.00000
   1         0.99868579
   2        -0.00040631
   3        -0.00000000
   4        -0.00000000
   5         0.00693586
   6         0.01283593
   7        -0.00002592
   8         0.00000000
   9         0.00000000
  10        -0.00429976
Sym=     2a  
Ene=    -2.7636
Spin= Alpha
Occup=    1.00000
   1        -0.05720262
   2         0.00099974
   3         0.00000000
   4        -0.00000000
   5         0.01550053
   6         0.99471563
   7         0.00602637
   8        -0.00000000
   9         0.00000000
  10        -0.01452013
Sym=     2a  
Ene=    -2.7596
Spin= Beta
Occup=    1.00000
   1        -0.05716376
   2         0.00228690
   3         0.00000000
   4        -0.00000000
   5         0.01643499
   6         0.99403914
   7         0.00472760
   8        -0.00000000
   9         0.00000000
  10        -0.01497946
Sym=     3a  
Ene=    -0.3992
Spin= Alpha
Occup=    1.00000
   1        -0.00335040
   2         0.94040937
   3         0.00000000
   4        -0.00000000
   5        -0.12272196
   6        -0.19765088
   7         0.09825366
   8        -0.00000000
   9         0.00000000
  10         0.00598688
Sym=     3a  
Ene=    -0.3700
Spin= Beta
Occup=    1.00000
   1         0.02480355
   2        -0.88413188
   3         0.00000000
   4        -0.00000000
   5        -0.03064128
   6         0.24099420
   7        -0.09810138
   8        -0.00000000
   9         0.00000000
  10         0.13833824
Sym=     4a  
Ene=    -0.2015
Spin= Alpha
Occup=    1.00000
   1        -0.01129415
   2        -0.31215201
   3        -0.00000000
   4         0.00000000
   5         0.30664949
   6        -0.03680905
   7         0.75940067
   8        -0.00000000
   9         0.00000000
  10         0.47473105
Sym=     4a  
Ene=    -0.0498
Spin= Beta
Occup=    0.00000
   1        -0.00000000
   2        -0.00000000
   3         0.66158164
   4         0.21430287
   5         0.00000000
   6        -0.00000000
   7         0.00000000
   8         0.36598375
   9         0.11855130
  10         0.00000000
Sym=     5a  
Ene=    -0.0602
Spin= Alpha
Occup=    0.00000
   1        -0.00000000
   2         0.00000000
   3        -0.19317556
   4         0.59490183
   5        -0.00000000
   6        -0.00000000
   7        -0.00000000
   8        -0.14224029
   9         0.43804200
  10        -0.00000000
Sym=     5a  
Ene=    -0.0498
Spin= Beta
Occup=    0.00000
   1         0.00000000
   2         0.00000000
   3        -0.21430287
   4         0.66158164
   5        -0.00000000
   6         0.00000000
   7        -0.00000000
   8        -0.11855130
   9         0.36598375
  10         0.00000000
Sym=     6a  
Ene=    -0.0602
Spin= Alpha
Occup=    0.00000
   1         0.00000000
   2        -0.00000000
   3         0.59490183
   4         0.19317556
   5         0.00000000
   6         0.00000000
   7         0.00000000
   8         0.43804200
   9         0.14224029
  10         0.00000000
Sym=     6a  
Ene=     0.0493
Spin= Beta
Occup=    0.00000
   1        -0.02175952
   2        -0.35413644
   3        -0.00000000
   4         0.00000000
   5         0.30248890
   6        -0.02422161
   7         0.80349335
   8         0.00000000
   9        -0.00000000
  10         0.44435834
Sym=     7a  
Ene=     0.1151
Spin= Alpha
Occup=    0.00000
   1         0.26361249
   2         0.90743609
   3         0.00000000
   4        -0.00000000
   5        -0.99928403
   6         0.14352665
   7        -0.54597601
   8        -0.00000000
   9         0.00000000
  10         1.27445923
Sym=     7a  
Ene=     0.1636
Spin= Beta
Occup=    0.00000
   1         0.24651374
   2         0.94717913
   3        -0.00000000
   4         0.00000000
   5        -1.02594032
   6         0.14330479
   7        -0.45206752
   8         0.00000000
   9        -0.00000000
  10         1.23238992
Sym=     8a  
Ene=     0.1398
Spin= Alpha
Occup=    0.00000
   1         0.00000000
   2         0.00000000
   3        -1.22351312
   4        -0.11386639
   5        -0.00000000
   6         0.00000000
   7        -0.00000000
   8         1.29404724
   9         0.12043066
  10         0.00000000
Sym=     8a  
Ene=     0.1672
Spin= Beta
Occup=    0.00000
   1        -0.00000000
   2        -0.00000000
   3        -1.18914593
   4        -0.05908345
   5         0.00000000
   6        -0.00000000
   7         0.00000000
   8         1.32244434
   9         0.06570647
  10        -0.00000000
Sym=     9a  
Ene=     0.1398
Spin= Alpha
Occup=    0.00000
   1        -0.00000000
   2        -0.00000000
   3         0.11386639
   4        -1.22351312
   5         0.00000000
   6        -0.00000000
   7         0.00000000
   8        -0.12043066
   9         1.29404724
  10        -0.00000000
Sym=     9a  
Ene=     0.1672
Spin= Beta
Occup=    0.00000
   1         0.00000000
   2         0.00000000
   3         0.05908345
   4        -1.18914593
   5        -0.00000000
   6         0.00000000
   7        -0.00000000
   8        -0.06570647
   9         1.32244434
  10         0.00000000
Sym=    10a  
Ene=     0.2533
Spin= Alpha
Occup=    0.00000
   1        -0.44583539
   2        -2.37813655
   3         0.00000000
   4        -0.00000000
   5        -0.68415995
   6         0.85602543
   7         2.16421641
   8        -0.00000000
   9         0.00000000
  10        -1.05092048
Sym=    10a  
Ene=     0.2516
Spin= Beta
Occup=    0.00000
   1        -0.45467919
   2        -2.37834564
   3         0.00000000
   4         0.00000000
   5        -0.65628510
   6         0.84613379
   7         2.16995142
   8        -0.00000000
   9         0.00000000
  10        -1.10394383
