   This run of MOLCAS is using the pymolcas driver

                             OPE
                             OPE          NMOL  CASOP  ENMOLC A   SO
                 OPE        NMOLC        AS  OP EN  MO LC     AS  OP
                OPENM       OL CA        SO  PE NM  OL CA     SOP EN
                OP EN      MO   LC       AS  OP ENMOL  CASO   PENMOL
                OP  EN     MO   LC       AS  OP EN     MO     LC ASO
               OP   E  NMOL  C  AS       OP  EN MO     LC     AS  OP
               OP  E   NMO   LC AS        OPEN  MO     LCASOP EN   M
               O  PEN   MO  LCA  SO
            OPE   NMO   L   CAS    OP
        OPENMOL  CASOP     ENMOL   CASOPE
     OPENMOLCA   SOPENMOLCASOPEN   MOLCASOPE
    OPENMOLCAS   OP           EN   MOL    CAS
    OPENMOLCAS       OP  ENM        O     LCA
    OPENMOLCAS    OPEN  MOLCASO     P  E  NMO
    OPENMOLCAS     OP               E  N  MOL
    OPENMOLCA   SO           PENM   O  L  CAS    OPEN    MO    LCAS
    OPENMOLCA   SOP           ENM   O  L  CAS   OP  EN  MOLC  AS   O
    OPENMOLCA   SOPE           NM      O  LCA   S      OP  EN MO
    OPENMOLC                AS         O  PEN   M      OL  CA  SOPE
    OPENMO        LCASOPE  NMOL        C  ASO   P      ENMOLC     AS
    OPE     NMO      LCA  SO     P     E   NM   OL  CA SO  PE N   MO
          OPENMOLCA            SOPE   NMO        LCAS  O    P  ENMO
     OPENMOLCASOPENMOLCASOPENMOLCASOPENMOLCA
        OPENMOLCASOPENMOLCASOPENMOLCASOPE
            OPENMOLCASOPENMOLCASOPENM
               OPENMOLCASOPENMOLCA        version: 1d1d16313-dirty
                   OPENMOLCASO
                       OPE                tag:

 OpenMolcas is free software; you can redistribute it and/or modify it
 under the terms of the GNU Lesser General Public License version 2.1.
 OpenMolcas is distributed in the hope that it will be useful, but it
 is provided "as is" and without any express or implied warranties.
 For more details see the full text of the license in the file
 LICENSE or in <http://www.gnu.org/licenses/>.

                 Copyright (C) The OpenMolcas Authors
           For the author list and the recommended citation,
                   consult the file CONTRIBUTORS.md

           *************************************************
           * pymolcas version py2.28                       *
           *   build c4a6d18ded8cb6cad61d2372a9abd97c      *
           *   (after the EMIL interpreter by V. Veryazov) *
           *************************************************

configuration info
------------------
C Compiler ID: IntelLLVM
C flags: -std=gnu99
Fortran Compiler ID: IntelLLVM
Fortran flags: -standard-semantics -fltconsistency -fpp -i8 -heap-arrays
Definitions: _MOLCAS_;_I8_;_LINUX_
Parallel: OFF (GA=OFF)


   --------------------------------------------------------------------------------
  |
  |              Project: ozone_163.75
  |       Submitted from: /home/grierjones/DDCASPT2/ozone/ANO-RCC-VDZP/ozone_163.75
  |         Scratch area: /tmp/ozone_163.75
  |      Save outputs to: /home/grierjones/DDCASPT2/ozone/ANO-RCC-VDZP/ozone_163.75
  |               Molcas: /home/grierjones/Test/build
  |
  | Scratch area is empty
  |
  |       MOLCAS_DRIVER = /usr/local/pymolcas
  | MOLCAS_KEEP_WORKDIR = NO
  |  MOLCAS_NEW_WORKDIR = YES
  |       MOLCAS_NPROCS = 1
  |        MOLCAS_PRINT = NORMAL
  |       MOLCAS_SOURCE = /home/grierjones/Test
  |    MOLCAS_STRUCTURE = 0
  |
   --------------------------------------------------------------------------------

++ ---------   Input file   ---------

&GATEWAY
coord=ozone_163.75.xyz
Basis = ANO-RCC-VDZP
Group = nosymm
Expert
End of Input

&SEWARD
End of Input

&SCF

>>> COPY $WorkDir/ozone_163.75.scf.h5 $CurrDir/

&RASSCF
Title= RASSCF
FileOrb
/home/grierjones/DDCASPT2/ozone/ANO-RCC-VDZP/ozone_163.50/ozone_163.50.RasOrb
NACTEL
4 0 0
Inactive
10
RAS2
3
Symmetry
1
Spin
1
orblisting
all
ITERation
300 200

>>> COPY $WorkDir/ozone_163.75.rasscf.h5 $CurrDir/

>>> COPY $WorkDir/GMJ_Fock_MO.csv $CurrDir/ozone_163.75.GMJ_Fock_MO.csv

>>> COPY $WorkDir/GMJ_PT2_Fock_MO.csv $CurrDir/ozone_163.75.GMJ_PT2_Fock_MO.csv

&MOTRA
Frozen=0
LUMORB

>>> COPY $WorkDir/GMJ_one_int_indx.csv $CurrDir/ozone_163.75.GMJ_one_int_indx.csv

>>> COPY $WorkDir/GMJ_one_int.csv $CurrDir/ozone_163.75.GMJ_one_int.csv

>>> COPY $WorkDir/GMJ_two_int_indx.csv $CurrDir/ozone_163.75.GMJ_two_int_indx.csv

>>> COPY $WorkDir/GMJ_two_int.csv $CurrDir/ozone_163.75.GMJ_two_int.csv

&CASPT2
Frozen
0
MAXITER
50

>>> FOREACH i IN (B,E,F,G,H)

  >>> FOREACH j IN (P,M)

    >>> IF (-FILE GMJ_e2_${i}_${j}.csv)

      >>> COPY $WorkDir/GMJ_RHS_${i}_${j}.csv $CurrDir/GMJ_RHS_${i}_${j}.csv

      >>> COPY $WorkDir/GMJ_IVECW_${i}_${j}.csv $CurrDir/GMJ_IVECW_${i}_${j}.csv

      >>> COPY $WorkDir/GMJ_IVECX_${i}_${j}.csv $CurrDir/GMJ_IVECX_${i}_${j}.csv

      >>> COPY $WorkDir/GMJ_IVECC2_${i}_${j}.csv $CurrDir/GMJ_IVECC2_${i}_${j}.csv

      >>> COPY $WorkDir/GMJ_e2_${i}_${j}.csv $CurrDir/GMJ_e2_${i}_${j}.csv

    >>> END IF

  >>> END FOREACH

>>> END FOREACH

>>> FOREACH i IN (A,C,D)

  >>> IF (-FILE GMJ_e2_$i.csv)

    >>> COPY $WorkDir/GMJ_RHS_$i.csv $CurrDir/GMJ_RHS_$i.csv

    >>> COPY $WorkDir/GMJ_IVECW_$i.csv $CurrDir/GMJ_IVECW_$i.csv

    >>> COPY $WorkDir/GMJ_IVECX_$i.csv $CurrDir/GMJ_IVECX_$i.csv

    >>> COPY $WorkDir/GMJ_IVECC2_$i.csv $CurrDir/GMJ_IVECC2_$i.csv

    >>> COPY $WorkDir/GMJ_e2_$i.csv $CurrDir/GMJ_e2_$i.csv

  >>> END IF

>>> END FOREACH

-- ----------------------------------

--- Start Module: gateway at Fri Jan 24 17:46:25 2025 ---
 
()()()()()()()()()()()()()()()()()()()()()()()()()()()()()()()()()()()()()()()()()()()()()()()()()()

                                              &GATEWAY

                                   only a single process is used
                       available to each process: 2.0 GB of memory, 1 thread?
()()()()()()()()()()()()()()()()()()()()()()()()()()()()()()()()()()()()()()()()()()()()()()()()()()
 
 ###############################################################################
 ###############################################################################
 ###                                                                         ###
 ###                                                                         ###
 ###                                                                         ###
 ###    WARNING: EXPERT option is ON!                                        ###
 ###                                                                         ###
 ###                                                                         ###
 ###############################################################################
 ###############################################################################
 
++    Symmetry information:
      ---------------------
 
                    Character Table for C1 
 
                             E  
                    a        1  x, y, xy, Rz, z, xz, Ry, yz, Rx, I
--
 
 
++    Basis set information:
      ----------------------
 
 
      Basis set label: O.ANO-RCC...3S2P1D.
 
      Electronic valence basis set:
      ------------------
      Associated Effective Charge   8.000000 au
      Associated Actual Charge      8.000000 au
      Nuclear Model: Point charge
 
      Shell  nPrim  nBasis  Cartesian Spherical Contaminant
         s      14       3        X                  
         p       9       2        X                  
         d       4       1                 X         
--
 
 
++    Molecular structure info:
      -------------------------
 
                    ************************************************ 
                    **** Cartesian Coordinates / Bohr, Angstrom **** 
                    ************************************************ 
 
     Center  Label                x              y              z                     x              y              z
        1      O1               0.341330       2.390829       0.000000              0.180624       1.265172       0.000000
        2      O2               0.000000       0.000000       0.000000              0.000000       0.000000       0.000000
        3      O3               0.341330      -2.390829       0.000000              0.180624      -1.265172       0.000000
 
                    *************************************** 
                    *    InterNuclear Distances / Bohr    * 
                    *************************************** 
 
               1 O1            2 O2            3 O3    
    1 O1       0.000000
    2 O2       2.415071        0.000000
    3 O3       4.781657        2.415071        0.000000
 
                    ******************************************* 
                    *    InterNuclear Distances / Angstrom    * 
                    ******************************************* 
 
               1 O1            2 O2            3 O3    
    1 O1       0.000000
    2 O2       1.278000        0.000000
    3 O3       2.530344        1.278000        0.000000
 
                    ************************************** 
                    *    Valence Bond Angles / Degree    * 
                    ************************************** 
                          Atom centers                 Phi
                      1 O1       2 O2       3 O3       163.75
--
 
 
            Nuclear Potential Energy             66.38499574 au
 
 ###############################################################################
 ###############################################################################
 ###                                                                         ###
 ###                                                                         ###
 ###    There were warnings during the execution                             ###
 ###    Please, check the output with care!                                  ###
 ###                                                                         ###
 ###                                                                         ###
 ###############################################################################
 ###############################################################################
--- Stop Module: gateway at Fri Jan 24 17:46:25 2025 /rc=_RC_ALL_IS_WELL_ ---
*** files: xmldump
    saved to directory /home/grierjones/DDCASPT2/ozone/ANO-RCC-VDZP/ozone_163.75

--- Start Module: seward at Fri Jan 24 17:46:25 2025 ---
 
()()()()()()()()()()()()()()()()()()()()()()()()()()()()()()()()()()()()()()()()()()()()()()()()()()

                                              &SEWARD

                                   only a single process is used
                       available to each process: 2.0 GB of memory, 1 thread?
()()()()()()()()()()()()()()()()()()()()()()()()()()()()()()()()()()()()()()()()()()()()()()()()()()
 
 ###############################################################################
 ###############################################################################
 ###                                                                         ###
 ###                                                                         ###
 ###                                                                         ###
 ###    WARNING: EXPERT option is ON!                                        ###
 ###                                                                         ###
 ###                                                                         ###
 ###############################################################################
 ###############################################################################
               SEWARD will generate:
                  Multipole Moment integrals up to order  2
                  Kinetic Energy integrals
                  Nuclear Attraction integrals (point charge)
                  One-Electron Hamiltonian integrals
                  Velocity integrals
                  Relativistic Douglas-Kroll-Hess integrals:
                    - Parametrization         : EXP
                    - DKH order of Hamiltonian: 2
                    - DKH order of Properties : 0
                         - multipole moment operators
                         - electric potential operators
                         - contact operators
                  Atomic mean-field integrals
                  Two-Electron Repulsion integrals
 
                   Integrals are discarded if absolute value <: 0.10E-13
                   Integral cutoff threshold is set to       <: 0.10E-15
 
            Nuclear Potential Energy             66.38499574 au
 
 
      Basis set specifications :
      Symmetry species         a  
      Basis functions           42
 
 
  Input file to MOLDEN was generated!
 
 ###############################################################################
 ###############################################################################
 ###                                                                         ###
 ###                                                                         ###
 ###    There were warnings during the execution                             ###
 ###    Please, check the output with care!                                  ###
 ###                                                                         ###
 ###                                                                         ###
 ###############################################################################
 ###############################################################################
forrtl: warning (525): IEEE_DIVIDE_BY_ZERO is signaling
forrtl: warning (526): IEEE_INVALID is signaling
forrtl: warning (528): IEEE_UNDERFLOW is signaling
--- Stop Module: seward at Fri Jan 24 17:46:26 2025 /rc=_RC_ALL_IS_WELL_ ---
*** files: ozone_163.75.GssOrb ozone_163.75.guessorb.h5 ozone_163.75.guessorb.molden xmldump
    saved to directory /home/grierjones/DDCASPT2/ozone/ANO-RCC-VDZP/ozone_163.75
--- Module seward spent 1 second ---

*** symbolic link created: INPORB -> ozone_163.75.GssOrb
--- Start Module: scf at Fri Jan 24 17:46:26 2025 ---
 
()()()()()()()()()()()()()()()()()()()()()()()()()()()()()()()()()()()()()()()()()()()()()()()()()()

                                                &SCF

                                   only a single process is used
                       available to each process: 2.0 GB of memory, 1 thread?
()()()()()()()()()()()()()()()()()()()()()()()()()()()()()()()()()()()()()()()()()()()()()()()()()()
 
++    Input section:
      --------------
 
      Header of the integral files:
      
       Integrals generated by seward 4.2.0  , Fri Jan 24 17:46:25 2025
 
 
      Cartesian coordinates in Angstrom:
      -----------------------------------------------------
      No.  Label        X            Y            Z        
      -----------------------------------------------------
       1   O1         0.18062400   1.26517200   0.00000000
       2   O2         0.00000000   0.00000000   0.00000000
       3   O3         0.18062400  -1.26517200   0.00000000
      -----------------------------------------------------
      Nuclear repulsion energy =   66.38499574
--
 
++    Orbital specifications:
      -----------------------
 
      Symmetry species               1
                                     a
      Frozen orbitals                0
      Aufbau                        12
      Start temperature = 0.500
      End temperature   = 0.010
      Temperature Factor= 0.460
      Deleted orbitals               0
      Total number of orbitals      42
      Number of basis functions     42
--
 
      Molecular charge                           0.000
 
++    Optimization specifications:
      ----------------------------
 
      SCF Algorithm: Conventional
      Minimized density differences are used
      Number of density matrices in core                5
      Maximum number of NDDO SCF iterations           400
      Maximum number of HF SCF iterations             400
      Threshold for SCF energy change            0.10E-08
      Threshold for density matrix               0.10E-03
      Threshold for Fock matrix                  0.15E-03
      Threshold for linear dependence            0.10E-08
      Threshold at which DIIS is turned on       0.15E+00
      Threshold at which QNR/C2DIIS is turned on 0.75E-01
      Threshold for Norm(delta) (QNR/C2DIIS)     0.20E-04
      DIIS extrapolation of the SCF procedure
      All orbitals punched on: SCFORB
--
 
      Input vectors read from INPORB
      Orbital file label: *Guess orbitals
 
 
++ Convergence information
                                   SCF        iterations: Energy and convergence statistics
 
Iter     Tot. SCF        One-elec.       Two-elec.     Energy      Max Dij or  Max Fij      DNorm      TNorm      AccCon     Time
         Energy          Energy          Energy        Change      Delta Norm                                                in Sec.
   1  -221.453327723  -440.399198724   152.560875262   0.00E+00    0.97E-01*   0.74E+00*    0.77E+01   0.76E+02   None         0.
   2  -222.515573764  -435.490604716   146.590035213  -0.11E+01*   0.11E+00*   0.80E-01*    0.34E+01   0.75E+02   EDIIS        0.
   3  -223.847348661  -441.847709431   151.615365030  -0.13E+01*   0.86E-01*   0.12E+00*    0.31E+01   0.76E+02   EDIIS        0.
   4  -224.145957827  -439.146277895   148.615324328  -0.30E+00*   0.13E+00*   0.89E-01*    0.12E+01   0.75E+02   EDIIS        0.
   5  -224.273559865  -441.023354670   150.364799066  -0.13E+00*   0.24E+00*   0.10E+00*    0.16E+01   0.76E+02   EDIIS        0.
   6  -224.364784758  -439.889101724   149.139321226  -0.91E-01*   0.19E+00*   0.12E+00*    0.68E+00   0.76E+02   EDIIS        0.
   7  -224.368899905  -440.879643027   150.125747383  -0.41E-02*   0.37E-01*   0.62E-01*    0.33E+00   0.76E+02   EDIIS        0.
 
       Fermi aufbau procedure completed!
      nOcc=   12
 
   8  -224.398727612  -440.408724179   149.625000828  -0.30E-01*   0.16E-01*   0.90E-02*    0.55E-01   0.76E+02   EDIIS        0.
   9  -224.399196451  -440.452454282   149.668262092  -0.47E-03*   0.22E-01*   0.79E-02*    0.24E-01   0.76E+02   EDIIS        0.
  10  -224.399376623  -440.408163172   149.623790810  -0.18E-03*   0.90E-02*   0.73E-02*    0.46E-02   0.76E+02   EDIIS        0.
  11  -224.399458699  -440.453261328   149.668806889  -0.82E-04*   0.11E-01*   0.44E-02*    0.44E-02   0.76E+02   EDIIS        0.
  12  -224.399547457  -440.418829013   149.634285817  -0.89E-04*   0.48E-02*   0.18E-02*    0.12E-02   0.76E+02   c2DIIS       0.
  13  -224.399589823  -440.430870398   149.646284837  -0.42E-04*   0.22E-02*   0.11E-02*    0.30E-03   0.76E+02   QNRc2DIIS    0.
  14  -224.399602852  -440.431906679   149.647308088  -0.13E-04*   0.59E-02*   0.81E-03*    0.52E-04   0.76E+02   QNRc2DIIS    0.
  15  -224.399615432  -440.429691035   149.645079863  -0.13E-04*   0.55E-03*   0.54E-03*    0.12E-03   0.76E+02   QNRc2DIIS    0.
  16  -224.399616355  -440.431579295   149.646967201  -0.92E-06*   0.47E-03*   0.12E-03     0.64E-03   0.76E+02   QNRc2DIIS    0.
  17  -224.399616507  -440.431916345   149.647304099  -0.15E-06*   0.42E-04*   0.99E-05     0.93E-03   0.76E+02   QNRc2DIIS    0.
  18  -224.399616509  -440.431973789   149.647361541  -0.17E-08*   0.48E-05    0.17E-05     0.25E-02   0.76E+02   QNRc2DIIS    0.
  19  -224.399616509  -440.431945800   149.647333552  -0.28E-10    0.84E-06    0.45E-06     0.73E-04   0.76E+02   QNRc2DIIS    0.
 
       Convergence after 19 Macro Iterations
--
 
 *****************************************************************************************************************************
 *                                                                                                                           *
 *                                             SCF/KS-DFT Program, Final results                                             *
 *                                                                                                                           *
 *                                                                                                                           *
 *                                                                                                                           *
 *                                                       Final Results                                                       *
 *                                                                                                                           *
 *****************************************************************************************************************************
 
::    Total SCF energy                               -224.3996165090
      One-electron energy                            -440.4319458000
      Two-electron energy                             149.6473335517
      Nuclear repulsion energy                         66.3849957394
      Kinetic energy (interpolated)                   225.5929032301
      Virial theorem                                    0.9947104421
      Total spin, S(S+1)                                0.0000000000
      Total spin, S                                     0.0000000000
      Max non-diagonal density matrix element           0.0000010002
      Max non-diagonal Fock matrix element              0.0000000396
 
 
      All orbitals with orbital energies smaller than  E(LUMO)+0.5 are printed
 
++    Molecular orbitals:
      -------------------
 
      Title: SCF orbitals

      Molecular orbitals for symmetry species 1: a  
 
          Orbital            1         2         3         4         5         6         7         8         9        10    
          Energy          -20.8542  -20.7351  -20.7351   -1.7118   -1.4697   -1.0648   -0.8379   -0.7917   -0.7555   -0.6158
          Occ. No.          2.0000    2.0000    2.0000    2.0000    2.0000    2.0000    2.0000    2.0000    2.0000    2.0000
 
        1 O1     1s         0.0025   -0.7072    0.7072   -0.0154    0.0098    0.0138   -0.0038   -0.0191   -0.0000    0.0047
        2 O1     2s         0.0001   -0.0008    0.0005    0.3257   -0.5725    0.6500   -0.0843   -0.4084   -0.0000    0.0608
        3 O1     3s         0.0000   -0.0001   -0.0001   -0.0237    0.0128    0.0182   -0.0065   -0.0258   -0.0000    0.0056
        4 O1     2px        0.0001    0.0001   -0.0001   -0.0124    0.0216    0.0419    0.3304   -0.1579    0.0000   -0.6845
        5 O1     3px        0.0002    0.0001    0.0000    0.0049   -0.0029   -0.0067   -0.0308    0.0088   -0.0000    0.0017
        6 O1     2py       -0.0001    0.0009   -0.0010   -0.1033    0.0930    0.1730   -0.1113   -0.4048   -0.0000    0.1615
        7 O1     3py        0.0000   -0.0005    0.0003    0.0249   -0.0188   -0.0260    0.0097    0.0293   -0.0000    0.0003
        8 O1     2pz        0.0000    0.0000    0.0000   -0.0000    0.0000   -0.0000   -0.0000    0.0000    0.4151    0.0000
        9 O1     3pz       -0.0000   -0.0000    0.0000    0.0000    0.0000   -0.0000    0.0000   -0.0000   -0.0241   -0.0000
       10 O1     3d2-       0.0000   -0.0000    0.0000    0.0026   -0.0052   -0.0043   -0.0206    0.0108   -0.0000    0.0132
       11 O1     3d1-      -0.0000    0.0000   -0.0000    0.0000   -0.0000   -0.0000    0.0000    0.0000   -0.0307   -0.0000
       12 O1     3d0        0.0000    0.0001   -0.0001   -0.0085    0.0085    0.0066   -0.0038   -0.0167   -0.0000    0.0039
       13 O1     3d1+      -0.0000    0.0000   -0.0000    0.0000   -0.0000   -0.0000   -0.0000    0.0000   -0.0038   -0.0000
       14 O1     3d2+      -0.0000   -0.0002    0.0001   -0.0171    0.0147    0.0139   -0.0119   -0.0298   -0.0000    0.0094
       15 O2     1s         1.0000    0.0000   -0.0038   -0.0209   -0.0000   -0.0151   -0.0023   -0.0000   -0.0000   -0.0000
       16 O2     2s         0.0001    0.0000   -0.0008    0.6707    0.0000   -0.6261   -0.0268   -0.0000   -0.0000   -0.0000
       17 O2     3s        -0.0008    0.0000   -0.0007   -0.0373   -0.0000   -0.0134   -0.0024   -0.0000   -0.0000   -0.0000
       18 O2     2px        0.0003    0.0000   -0.0000    0.0434    0.0000    0.0796    0.7418   -0.0000    0.0000    0.0000
       19 O2     3px       -0.0007    0.0000   -0.0001   -0.0100   -0.0000   -0.0098   -0.0626    0.0000   -0.0000    0.0000
       20 O2     2py       -0.0000    0.0010    0.0000    0.0000   -0.3284   -0.0000    0.0000    0.5276    0.0000   -0.0999
       21 O2     3py       -0.0000    0.0012    0.0000   -0.0000    0.0817    0.0000   -0.0000   -0.0838   -0.0000    0.0029
       22 O2     2pz       -0.0000   -0.0000   -0.0000   -0.0000   -0.0000   -0.0000   -0.0000   -0.0000    0.6489   -0.0000
       23 O2     3pz        0.0000    0.0000    0.0000    0.0000   -0.0000    0.0000    0.0000    0.0000   -0.0168   -0.0000
       24 O2     3d2-       0.0000    0.0001    0.0000    0.0000   -0.0164   -0.0000    0.0000    0.0109   -0.0000   -0.0401
       25 O2     3d1-       0.0000   -0.0000   -0.0000   -0.0000    0.0000    0.0000    0.0000   -0.0000    0.0000    0.0000
       26 O2     3d0       -0.0003   -0.0000    0.0003   -0.0182   -0.0000   -0.0000   -0.0083   -0.0000   -0.0000   -0.0000
       27 O2     3d1+      -0.0000   -0.0000    0.0000    0.0000    0.0000    0.0000   -0.0000   -0.0000    0.0138   -0.0000
       28 O2     3d2+       0.0001   -0.0000    0.0004   -0.0305   -0.0000   -0.0026    0.0088   -0.0000    0.0000   -0.0000
       29 O3     1s         0.0025    0.7072    0.7072   -0.0154   -0.0098    0.0138   -0.0038    0.0191   -0.0000   -0.0047
       30 O3     2s         0.0001    0.0008    0.0005    0.3257    0.5725    0.6500   -0.0843    0.4084    0.0000   -0.0608
       31 O3     3s         0.0000    0.0001   -0.0001   -0.0237   -0.0128    0.0182   -0.0065    0.0258   -0.0000   -0.0056
       32 O3     2px        0.0001   -0.0001   -0.0001   -0.0124   -0.0216    0.0419    0.3304    0.1579    0.0000    0.6845
       33 O3     3px        0.0002   -0.0001    0.0000    0.0049    0.0029   -0.0067   -0.0308   -0.0088   -0.0000   -0.0017
       34 O3     2py        0.0001    0.0009    0.0010    0.1033    0.0930   -0.1730    0.1113   -0.4048    0.0000    0.1615
       35 O3     3py       -0.0000   -0.0005   -0.0003   -0.0249   -0.0188    0.0260   -0.0097    0.0293   -0.0000    0.0003
       36 O3     2pz        0.0000   -0.0000   -0.0000    0.0000    0.0000   -0.0000   -0.0000   -0.0000    0.4151   -0.0000
       37 O3     3pz       -0.0000    0.0000    0.0000   -0.0000   -0.0000    0.0000    0.0000    0.0000   -0.0241    0.0000
       38 O3     3d2-      -0.0000   -0.0000   -0.0000   -0.0026   -0.0052    0.0043    0.0206    0.0108    0.0000    0.0132
       39 O3     3d1-       0.0000    0.0000    0.0000   -0.0000    0.0000    0.0000   -0.0000   -0.0000    0.0307   -0.0000
       40 O3     3d0        0.0000   -0.0001   -0.0001   -0.0085   -0.0085    0.0066   -0.0038    0.0167   -0.0000   -0.0039
       41 O3     3d1+       0.0000   -0.0000   -0.0000    0.0000    0.0000   -0.0000    0.0000   -0.0000   -0.0038    0.0000
       42 O3     3d2+      -0.0000    0.0002    0.0001   -0.0171   -0.0147    0.0139   -0.0119    0.0298   -0.0000   -0.0094
 
          Orbital           11        12        13        14        15        16    
          Energy           -0.5153   -0.4816   -0.0314    0.1450    0.2861    0.4639
          Occ. No.          2.0000    2.0000    0.0000    0.0000    0.0000    0.0000
 
        1 O1     1s        -0.0000    0.0016    0.0000    0.0274   -0.1626   -0.0210
        2 O1     2s        -0.0000    0.0005    0.0000    0.3380   -1.1811   -0.1443
        3 O1     3s        -0.0000    0.0109    0.0000    0.0156   -0.4217   -0.0855
        4 O1     2px       -0.0000    0.6668    0.0000    0.0276    0.1373   -0.0812
        5 O1     3px       -0.0000    0.0375    0.0000    0.0107    0.1105    0.4243
        6 O1     2py        0.0000    0.0605    0.0000   -0.8084    0.5899    0.1041
        7 O1     3py        0.0000   -0.0124   -0.0000   -0.1818    0.6450    0.2205
        8 O1     2pz       -0.7030   -0.0000    0.6530   -0.0000    0.0000    0.0000
        9 O1     3pz       -0.0363    0.0000    0.1293   -0.0000    0.0000   -0.0000
       10 O1     3d2-       0.0000    0.0014    0.0000    0.0072   -0.0095    0.0254
       11 O1     3d1-       0.0246   -0.0000    0.0132   -0.0000   -0.0000   -0.0000
       12 O1     3d0        0.0000    0.0024   -0.0000    0.0003    0.0192    0.0059
       13 O1     3d1+       0.0026   -0.0000    0.0023   -0.0000    0.0000   -0.0000
       14 O1     3d2+       0.0000    0.0059   -0.0000    0.0030    0.0311    0.0205
       15 O2     1s         0.0000    0.0137    0.0000   -0.1190   -0.0000    0.0667
       16 O2     2s         0.0000    0.1730    0.0000   -1.1146   -0.0000    0.4078
       17 O2     3s         0.0000    0.0258    0.0000   -0.2569   -0.0000    0.1596
       18 O2     2px       -0.0000   -0.6998   -0.0000   -0.3005   -0.0000   -0.0602
       19 O2     3px       -0.0000   -0.0391   -0.0000   -0.0630   -0.0000    0.4696
       20 O2     2py        0.0000    0.0000   -0.0000   -0.0000    1.3275   -0.0000
       21 O2     3py        0.0000   -0.0000   -0.0000   -0.0000    1.0995   -0.0000
       22 O2     2pz        0.0000    0.0000   -0.8916   -0.0000   -0.0000    0.0000
       23 O2     3pz        0.0000    0.0000   -0.1620   -0.0000   -0.0000   -0.0000
       24 O2     3d2-      -0.0000   -0.0000   -0.0000   -0.0000    0.0231   -0.0000
       25 O2     3d1-      -0.0554    0.0000   -0.0000   -0.0000    0.0000   -0.0000
       26 O2     3d0        0.0000    0.0132    0.0000   -0.0373   -0.0000   -0.0314
       27 O2     3d1+       0.0000    0.0000   -0.0037    0.0000    0.0000    0.0000
       28 O2     3d2+       0.0000    0.0194    0.0000   -0.0680   -0.0000   -0.0723
       29 O3     1s         0.0000    0.0016   -0.0000    0.0274    0.1626   -0.0210
       30 O3     2s         0.0000    0.0005   -0.0000    0.3380    1.1811   -0.1443
       31 O3     3s         0.0000    0.0109   -0.0000    0.0156    0.4217   -0.0855
       32 O3     2px        0.0000    0.6668    0.0000    0.0276   -0.1373   -0.0812
       33 O3     3px        0.0000    0.0375    0.0000    0.0107   -0.1105    0.4243
       34 O3     2py        0.0000   -0.0605   -0.0000    0.8084    0.5899   -0.1041
       35 O3     3py        0.0000    0.0124   -0.0000    0.1818    0.6450   -0.2205
       36 O3     2pz        0.7030   -0.0000    0.6530    0.0000    0.0000    0.0000
       37 O3     3pz        0.0363   -0.0000    0.1293   -0.0000   -0.0000   -0.0000
       38 O3     3d2-       0.0000   -0.0014   -0.0000   -0.0072   -0.0095   -0.0254
       39 O3     3d1-       0.0246   -0.0000   -0.0132   -0.0000   -0.0000    0.0000
       40 O3     3d0       -0.0000    0.0024    0.0000    0.0003   -0.0192    0.0059
       41 O3     3d1+      -0.0026    0.0000    0.0023   -0.0000   -0.0000   -0.0000
       42 O3     3d2+      -0.0000    0.0059    0.0000    0.0030   -0.0311    0.0205
--
 
 
++    Molecular charges:
      ------------------
 
      Mulliken charges per centre and basis function type
      ---------------------------------------------------
 
                O1      O2      O3    
      1s       2.0003  2.0000  2.0003
      2s       1.9353  1.6934  1.9353
      2px      2.0006  1.9137  2.0006
      2pz      1.4397  1.0724  1.4397
      2py      0.7540  1.0037  0.7540
      3s      -0.0134 -0.0231 -0.0134
      3px     -0.0195 -0.0411 -0.0195
      3pz     -0.0109 -0.0065 -0.0109
      3py     -0.0113  0.0266 -0.0113
      3d2+     0.0203  0.0223  0.0203
      3d1+     0.0002  0.0013  0.0002
      3d0      0.0057  0.0058  0.0057
      3d1-     0.0135  0.0480  0.0135
      3d2-     0.0108  0.0333  0.0108
      Total    8.1252  7.7496  8.1252
 
      N-E     -0.1252  0.2504 -0.1252
 
      Total electronic charge=   24.000000
 
      Total            charge=   -0.000000
--
 
 
  Input file to MOLDEN was generated!
 
 
++    Static properties:
      ------------------
 
 
      LoProp Charges per center
 

                   O1       O2       O3    
      Nuclear      8.0000   8.0000   8.0000
      Electronic  -8.1712  -7.6576  -8.1712
 
      Total       -0.1712   0.3424  -0.1712
--
 
 
++    Natural Bond Order analysis
      ---------------------------
      Based on LoProp computed density
      -------------------------------------------------------------------------------------
      Atom A       Atom B       Bond Order | Atom A       Atom B       Bond Order
        O1           O2             2.000  |   O2           O3             2.000
      -------------------------------------------------------------------------------------
      NBO located     16.000 core electrons.
      NBO located      8.000 electrons involved in    2 bonds.
--
 
 
++    Molecular properties:
      ---------------------
 
      Charge (e):
                      =   -0.0000
      Dipole Moment (Debye):
      Origin of the operator (Ang)=    0.0000    0.0000    0.0000
                   X= -2.8379E-02               Y= -9.3563E-10               Z=  5.4751E-14           Total=  2.8379E-02
      Quadrupole Moment (Debye*Ang):
      Origin of the operator (Ang)=    0.1204    0.0000    0.0000
                  XX= -1.6412E+01              XY= -3.7451E-11              XZ=  7.1712E-13              YY= -1.7086E+01
                  YZ=  7.0707E-14              ZZ= -1.5170E+01
      In traceless form (Debye*Ang)
                  XX= -2.8363E-01              XY= -5.6177E-11              XZ=  1.0757E-12              YY= -1.2953E+00
                  YZ=  1.0606E-13              ZZ=  1.5789E+00
--
 
 
  Input file to MOLDEN was generated!
 
 ###############################################################################
 ###############################################################################
 ###                                                                         ###
 ###                                                                         ###
 ###    RunFile label nBas                                                   ###
 ###    was used       78 times                                              ###
 ###                                                                         ###
 ###                                                                         ###
 ###############################################################################
 ###############################################################################
forrtl: warning (528): IEEE_UNDERFLOW is signaling
--- Stop Module: scf at Fri Jan 24 17:46:27 2025 /rc=_RC_ALL_IS_WELL_ ---
*** files: ozone_163.75.LprOrb ozone_163.75.LoProp.molden ozone_163.75.scf.molden ozone_163.75.ScfOrb ozone_163.75.scf.h5 xmldump
    saved to directory /home/grierjones/DDCASPT2/ozone/ANO-RCC-VDZP/ozone_163.75

>>> COPY /tmp/ozone_163.75/ozone_163.75.scf.h5 /home/grierjones/DDCASPT2/ozone/ANO-RCC-VDZP/ozone_163.75/

*** symbolic link created: INPORB -> ozone_163.75.ScfOrb
--- Start Module: rasscf at Fri Jan 24 17:46:27 2025 ---
 
()()()()()()()()()()()()()()()()()()()()()()()()()()()()()()()()()()()()()()()()()()()()()()()()()()

                                              &RASSCF

                                   only a single process is used
                       available to each process: 2.0 GB of memory, 1 thread?
()()()()()()()()()()()()()()()()()()()()()()()()()()()()()()()()()()()()()()()()()()()()()()()()()()
 
 
 *************** WARNING ****************
 ###############################################################################
 ###############################################################################
 ###                                                                         ###
 ###                                                                         ###
 ###    Too many macro-iterations.                                           ###
 ###                                                                         ###
 ###                                                                         ###
 ###############################################################################
 ###############################################################################
 Too many macro-iterations requested.
 Reset to maximum, new MAXIT=     200
 ****************************************
 
 *************** WARNING ****************
 ###############################################################################
 ###############################################################################
 ###                                                                         ###
 ###                                                                         ###
 ###    Too many SX-iterations.                                              ###
 ###                                                                         ###
 ###                                                                         ###
 ###############################################################################
 ###############################################################################
 Too many SX-iterations requested.
 Reset to maximum, new ITMAX=     100
 ****************************************
 
      Header of the ONEINT file:
      --------------------------
      
      Integrals generated by seward 4.2.0  , Fri Jan 24 17:46:25 2025
 
 
      OrdInt status: non-squared
 
 
      Cartesian coordinates in Angstrom:
      -----------------------------------------------------
      No.  Label        X            Y            Z        
      -----------------------------------------------------
       1   O1         0.18062400   1.26517200   0.00000000
       2   O2         0.00000000   0.00000000   0.00000000
       3   O3         0.18062400  -1.26517200   0.00000000
      -----------------------------------------------------
      Nuclear repulsion energy =   66.38499574
 
++    Wave function specifications:
      -----------------------------
 
      Number of closed shell electrons          20
      Number of electrons in active shells       4
      Max number of holes in RAS1 space          0
      Max nr of electrons in RAS3 space          0
      Number of inactive orbitals               10
      Number of active orbitals                  3
      Number of secondary orbitals              29
      Spin quantum number                      0.0
      State symmetry                             1
--
 
++    Orbital specifications:
      -----------------------
 
      Symmetry species                           1
                                                 a
      Frozen orbitals                            0
      Inactive orbitals                         10
      Active orbitals                            3
      RAS1 orbitals                              0
      RAS2 orbitals                              3
      RAS3 orbitals                              0
      Secondary orbitals                        29
      Deleted orbitals                           0
      Number of basis functions                 42
--
 
++    CI expansion specifications:
      ----------------------------
 
      Number of CSFs                             6
      Number of determinants                     6
      Number of root(s) required                 1
      Root chosen for geometry opt.              1
      CI root used                               1
         
      highest root included in the CI            1
      max. size of the explicit Hamiltonian      6
--
 
++    Optimization specifications:
      ----------------------------
 
      RASSCF algorithm: Conventional
      Maximum number of macro iterations       200
      Maximum number of SX iterations          100
      Threshold for RASSCF energy            0.100E-07
      Threshold for max MO rotation          0.100E+00
      Threshold for max BLB element          0.100E-03
      Level shift parameter                  0.500E+00
      Make Quasi-Newton update
--
 
      The MO-coefficients are taken from the file:
      /home/grierjones/DDCASPT2/ozone/ANO-RCC-VDZP/ozone_163.50/ozone_163.50.RasOrb                                                   
      Title: RASSCF average (pseudo-natural) orbitals                                      
 
      Total molecular charge    0.00
 
      ************************************************************************************************************************
      *                                                                                                                      *
      *                                            Wave function control section                                             *
      *                                                                                                                      *
      ************************************************************************************************************************
 
 
                                         RASSCF iterations: Energy and convergence statistics
                                         ----------------------------------------------------
 
      Iter CI   SX   CI       RASSCF       Energy    max ROT     max BLB   max BLB  Level Ln srch  Step   QN   Walltime
          iter iter root      energy       change     param      element    value   shift minimum  type update hh:mm:ss
 Nr of preliminary CI iterations:   1
        1   1    3    1  -224.47536179    0.00E+00   0.69E-03    7  14 1 -0.16E-02*  0.20   0.00    SX    NO    0:00:00
        2   1    3    1  -224.47536809   -0.63E-05*  0.41E-03    7  14 1 -0.93E-03*  0.20   0.00    SX    NO    0:00:00
        3   1    3    1  -224.47536957   -0.15E-05* -0.26E-03    7  14 1 -0.60E-03*  0.19   0.00    SX    NO    0:00:00
        4   1    3    1  -224.47537009   -0.52E-06* -0.14E-03    7  14 1 -0.30E-03*  0.19   0.00    SX    NO    0:00:00
        5   1    3    1  -224.47537026   -0.17E-06* -0.47E-03    7  14 1 -0.21E-03*  0.19   2.11    QN   YES    0:00:00
        6   1    3    1  -224.47537037   -0.11E-06* -0.20E-03    7  14 1  0.27E-03*  0.19   0.66    QN   YES    0:00:00
        7   1    3    1  -224.47537041   -0.43E-07* -0.62E-04    8  19 1  0.18E-03*  0.19   0.62    QN   YES    0:00:00
        8   1    3    1  -224.47537042   -0.15E-07* -0.93E-04    7  14 1  0.40E-04   0.19   2.50    LS   YES    0:00:00
        9   1    3    1  -224.47537043   -0.40E-08   0.53E-04    7  14 1  0.86E-04   0.19   0.73    QN   YES    0:00:00
      Convergence after  9 iterations
 
  Dmat in MO in SXCTL bf call to SXHAM                                                                                    
  mat. size =     3x    3
 
        1.9854565665738049
        0.0000000000017732      1.7545631427273904
        0.0012559743676690      0.0000000000037577      0.2599802906988035
       10   1    3    1  -224.47537043   -0.21E-08   0.53E-04    8  19 1  0.82E-04   0.19   0.73    QN   YES    0:00:00
 
      ************************************************************************************************************************
                                                      Wave function printout:
                       occupation of active orbitals, and spin coupling of open shells (u,d: Spin up or down)
      ************************************************************************************************************************
 
      Note: transformation to natural orbitals
      has been made, which may change the order of the CSFs.
 
      printout of CI-coefficients larger than  0.05 for root  1
      energy=    -224.475370
      conf/sym  111     Coeff  Weight
             1  220  -0.93274 0.87001
             3  202   0.35031 0.12272
             6  022   0.08527 0.00727
 
      Natural orbitals and occupation numbers for root  1
      sym 1:   1.985457   1.754563   0.259979
 
      ************************************************************************************************************************
      *                                                                                                                      *
      *                                                    Final results                                                     *
      *                                                                                                                      *
      ************************************************************************************************************************
 
 
++    Wave function specifications:
      -----------------------------
 
      Number of closed shell electrons          20
      Number of electrons in active shells       4
      Max number of holes in RAS1 space          0
      Max nr of electrons in RAS3 space          0
      Number of inactive orbitals               10
      Number of active orbitals                  3
      Number of secondary orbitals              29
      Spin quantum number                      0.0
      State symmetry                             1
--
 
++    Orbital specifications:
      -----------------------
 
      Symmetry species                           1
                                                 a
      Frozen orbitals                            0
      Inactive orbitals                         10
      Active orbitals                            3
      RAS1 orbitals                              0
      RAS2 orbitals                              3
      RAS3 orbitals                              0
      Secondary orbitals                        29
      Deleted orbitals                           0
      Number of basis functions                 42
--
 
++    CI expansion specifications:
      ----------------------------
 
      Number of CSFs                             6
      Number of determinants                     6
      Number of root(s) required                 1
      CI root used                               1
      highest root included in the CI            1
      Root passed to geometry opt.               1
--
 
++    Final optimization conditions:
      ------------------------------
 
      Average CI energy                            -224.47537043
      RASSCF energy for state  1                   -224.47537043
      Super-CI energy                                -0.00000001
      RASSCF energy change                           -0.00000000
      Max change in MO coefficients               0.473E-04
      Max non-diagonal density matrix element     0.531E-04
      Maximum BLB matrix element                  0.824E-04
      (orbital pair   8,  19 in symmetry   1)
      Norm of electronic gradient            0.700E-04
--
 
 
      Final state energy(ies):
      ------------------------
 
::    RASSCF root number  1 Total energy:   -224.47537043
 
++    Molecular orbitals:
      -------------------
 
      Pseudonatural active orbitals and approximate occupation numbers
 
 
 
 
      Molecular orbitals for symmetry species 1: a  
 
 
      Orbital                1         2         3         4         5         6         7         8         9        10
      Energy          -20.7643  -20.7367  -20.7366   -1.6784   -1.4534   -1.0537   -0.8001   -0.7788   -0.6168   -0.4601
      Occ. No.          2.0000    2.0000    2.0000    2.0000    2.0000    2.0000    2.0000    2.0000    2.0000    2.0000
 
    1 O1     1s         0.0104   -0.7072    0.7071   -0.0151    0.0086    0.0144   -0.0032   -0.0182    0.0053    0.0011
    2 O1     2s         0.0002   -0.0008    0.0005    0.3467   -0.5900    0.6382   -0.0669   -0.3782    0.0665   -0.0089
    3 O1     3s         0.0001   -0.0001   -0.0001   -0.0246    0.0119    0.0183   -0.0053   -0.0246    0.0062    0.0125
    4 O1     2px        0.0001    0.0001   -0.0001   -0.0123    0.0209    0.0426    0.3861   -0.1753   -0.6815    0.6391
    5 O1     3px        0.0003    0.0001    0.0000    0.0048   -0.0028   -0.0061   -0.0319    0.0094    0.0031    0.0427
    6 O1     2py       -0.0002    0.0009   -0.0010   -0.1056    0.0901    0.1930   -0.1144   -0.4278    0.1723    0.0914
    7 O1     3py       -0.0000   -0.0005    0.0003    0.0252   -0.0177   -0.0266    0.0078    0.0276    0.0006   -0.0129
    8 O1     2pz        0.0000    0.0000   -0.0000    0.0000   -0.0000    0.0000   -0.0000    0.0000    0.0000   -0.0000
    9 O1     3pz        0.0000    0.0000    0.0000    0.0000   -0.0000    0.0000   -0.0000   -0.0000    0.0000   -0.0000
   10 O1     3d2-       0.0000   -0.0000    0.0001    0.0023   -0.0047   -0.0040   -0.0211    0.0103    0.0121    0.0051
   11 O1     3d1-       0.0000   -0.0000   -0.0000   -0.0000   -0.0000    0.0000   -0.0000    0.0000   -0.0000   -0.0000
   12 O1     3d0        0.0000    0.0001   -0.0002   -0.0091    0.0089    0.0070   -0.0038   -0.0168    0.0045    0.0026
   13 O1     3d1+       0.0000   -0.0000    0.0000   -0.0000    0.0000   -0.0000   -0.0000    0.0000    0.0000   -0.0000
   14 O1     3d2+      -0.0000   -0.0002    0.0001   -0.0171    0.0142    0.0150   -0.0114   -0.0299    0.0096    0.0073
   15 O2     1s         0.9999   -0.0000   -0.0148   -0.0221   -0.0000   -0.0125   -0.0030   -0.0000    0.0000    0.0167
   16 O2     2s         0.0002   -0.0000   -0.0008    0.6434    0.0000   -0.6280   -0.0409    0.0000    0.0000    0.2147
   17 O2     3s        -0.0010   -0.0000   -0.0006   -0.0314   -0.0000   -0.0174   -0.0025   -0.0000    0.0000    0.0321
   18 O2     2px        0.0004   -0.0000   -0.0000    0.0451    0.0000    0.0585    0.6760   -0.0000   -0.0000   -0.7601
   19 O2     3px       -0.0009   -0.0000   -0.0001   -0.0095   -0.0000   -0.0072   -0.0478    0.0000    0.0000   -0.0581
   20 O2     2py       -0.0000    0.0009   -0.0000    0.0000   -0.2991   -0.0000    0.0000    0.5005   -0.1083   -0.0000
   21 O2     3py        0.0000    0.0012   -0.0000    0.0000    0.0785    0.0000   -0.0000   -0.0769    0.0005    0.0000
   22 O2     2pz       -0.0000   -0.0000   -0.0000   -0.0000    0.0000   -0.0000    0.0000    0.0000   -0.0000    0.0000
   23 O2     3pz       -0.0000   -0.0000   -0.0000   -0.0000    0.0000   -0.0000    0.0000   -0.0000   -0.0000    0.0000
   24 O2     3d2-      -0.0000    0.0001   -0.0000   -0.0000   -0.0169   -0.0000   -0.0000    0.0126   -0.0382    0.0000
   25 O2     3d1-      -0.0000   -0.0000    0.0000   -0.0000   -0.0000    0.0000    0.0000    0.0000    0.0000   -0.0000
   26 O2     3d0       -0.0001    0.0000    0.0003   -0.0176   -0.0000    0.0002   -0.0090    0.0000    0.0000    0.0161
   27 O2     3d1+      -0.0000    0.0000   -0.0000    0.0000   -0.0000   -0.0000    0.0000    0.0000    0.0000    0.0000
   28 O2     3d2+       0.0001    0.0000    0.0004   -0.0304   -0.0000    0.0001    0.0102   -0.0000    0.0000    0.0183
   29 O3     1s         0.0104    0.7072    0.7071   -0.0151   -0.0086    0.0144   -0.0032    0.0182   -0.0053    0.0011
   30 O3     2s         0.0002    0.0008    0.0005    0.3467    0.5900    0.6382   -0.0669    0.3782   -0.0665   -0.0089
   31 O3     3s         0.0001    0.0001   -0.0001   -0.0246   -0.0119    0.0183   -0.0053    0.0246   -0.0062    0.0125
   32 O3     2px        0.0001   -0.0001   -0.0001   -0.0123   -0.0209    0.0426    0.3861    0.1753    0.6815    0.6391
   33 O3     3px        0.0003   -0.0001    0.0000    0.0048    0.0028   -0.0061   -0.0319   -0.0094   -0.0031    0.0427
   34 O3     2py        0.0002    0.0009    0.0010    0.1056    0.0901   -0.1930    0.1144   -0.4278    0.1723   -0.0914
   35 O3     3py        0.0000   -0.0005   -0.0003   -0.0252   -0.0177    0.0266   -0.0078    0.0276    0.0006    0.0129
   36 O3     2pz        0.0000   -0.0000    0.0000    0.0000   -0.0000   -0.0000    0.0000    0.0000    0.0000    0.0000
   37 O3     3pz        0.0000    0.0000   -0.0000    0.0000   -0.0000   -0.0000   -0.0000    0.0000    0.0000   -0.0000
   38 O3     3d2-      -0.0000   -0.0000   -0.0001   -0.0023   -0.0047    0.0040    0.0211    0.0103    0.0121   -0.0051
   39 O3     3d1-       0.0000   -0.0000    0.0000    0.0000    0.0000    0.0000   -0.0000   -0.0000    0.0000   -0.0000
   40 O3     3d0        0.0000   -0.0001   -0.0002   -0.0091   -0.0089    0.0070   -0.0038    0.0168   -0.0045    0.0026
   41 O3     3d1+       0.0000   -0.0000    0.0000   -0.0000    0.0000    0.0000   -0.0000    0.0000   -0.0000    0.0000
   42 O3     3d2+      -0.0000    0.0002    0.0001   -0.0171   -0.0142    0.0150   -0.0114    0.0299   -0.0096    0.0073
 
 
      Orbital               11        12        13        14        15        16        17        18        19        20
      Energy            0.0000    0.0000    0.0000    0.1513    0.2877    0.4671    0.4744    0.5204    0.6494    0.6769
      Occ. No.          1.9855    1.7546    0.2600    0.0000    0.0000    0.0000    0.0000    0.0000    0.0000    0.0000
 
    1 O1     1s        -0.0000   -0.0000   -0.0000   -0.0289   -0.1631    0.0000   -0.0199    0.0321   -0.0346    0.0089
    2 O1     2s        -0.0000    0.0000   -0.0000   -0.3528   -1.1807   -0.0000   -0.1367    0.2370   -0.0893    0.0197
    3 O1     3s        -0.0000   -0.0000    0.0000   -0.0152   -0.4239   -0.0000   -0.0753    0.2120   -0.1153    0.0417
    4 O1     2px       -0.0000   -0.0000    0.0000   -0.0458    0.1333    0.0000   -0.0600   -0.0745   -0.0813   -0.0722
    5 O1     3px        0.0000    0.0000   -0.0000   -0.0154    0.1133    0.0000    0.4572    0.0991   -0.2071   -0.8007
    6 O1     2py        0.0000   -0.0000    0.0000    0.8011    0.5708   -0.0000    0.0955   -0.2501   -0.4617    0.1437
    7 O1     3py        0.0000    0.0000    0.0000    0.1799    0.6502   -0.0000    0.2033   -0.8088    0.0712   -0.0203
    8 O1     2pz        0.3229   -0.7043    0.6667   -0.0000   -0.0000    0.0218    0.0000    0.0000    0.0000   -0.0000
    9 O1     3pz       -0.0296   -0.0092   -0.0598    0.0000   -0.0000    0.4888   -0.0000    0.0000    0.0000   -0.0000
   10 O1     3d2-      -0.0000    0.0000   -0.0000   -0.0076   -0.0100    0.0000    0.0263   -0.0032   -0.0515   -0.0073
   11 O1     3d1-      -0.0296    0.0197    0.0085    0.0000   -0.0000    0.0349   -0.0000   -0.0000    0.0000   -0.0000
   12 O1     3d0        0.0000   -0.0000    0.0000   -0.0009    0.0194   -0.0000    0.0062    0.0030    0.0631   -0.0195
   13 O1     3d1+      -0.0034    0.0016    0.0012    0.0000    0.0000    0.0062   -0.0000    0.0000   -0.0000    0.0000
   14 O1     3d2+       0.0000   -0.0000    0.0000   -0.0050    0.0317    0.0000    0.0217    0.0017    0.0985   -0.0308
   15 O2     1s         0.0000   -0.0000   -0.0000    0.1179   -0.0000   -0.0000    0.0631   -0.1715    0.0000   -0.0000
   16 O2     2s         0.0000   -0.0000    0.0000    1.1271   -0.0000   -0.0000    0.3861   -1.0177    0.0000   -0.0000
   17 O2     3s         0.0000   -0.0000    0.0000    0.2669   -0.0000   -0.0000    0.1618   -0.3358   -0.0000    0.0000
   18 O2     2px       -0.0000    0.0000   -0.0000    0.3400   -0.0000   -0.0000   -0.1047   -0.0627    0.0000   -0.0000
   19 O2     3px       -0.0000   -0.0000   -0.0000    0.0781   -0.0000    0.0000    0.4179   -0.0148   -0.0000   -0.0000
   20 O2     2py       -0.0000    0.0000    0.0000    0.0000    1.3173    0.0000   -0.0000   -0.0000   -0.4135    0.1212
   21 O2     3py        0.0000    0.0000   -0.0000    0.0000    1.1124    0.0000   -0.0000   -0.0000    0.7240   -0.2084
   22 O2     2pz        0.7614   -0.0000   -0.6832    0.0000    0.0000   -0.2817    0.0000    0.0000   -0.0000    0.0000
   23 O2     3pz       -0.0057    0.0000   -0.0735    0.0000   -0.0000    0.3436   -0.0000   -0.0000    0.0000    0.0000
   24 O2     3d2-       0.0000    0.0000    0.0000    0.0000    0.0252   -0.0000    0.0000    0.0000    0.0493    0.0476
   25 O2     3d1-      -0.0000   -0.0459   -0.0000   -0.0000    0.0000    0.0000   -0.0000   -0.0000   -0.0000    0.0000
   26 O2     3d0       -0.0000    0.0000   -0.0000    0.0356   -0.0000    0.0000   -0.0284    0.0968   -0.0000    0.0000
   27 O2     3d1+       0.0155   -0.0000   -0.0095    0.0000    0.0000   -0.0130    0.0000    0.0000   -0.0000   -0.0000
   28 O2     3d2+      -0.0000    0.0000    0.0000    0.0647   -0.0000   -0.0000   -0.0678    0.1472   -0.0000    0.0000
   29 O3     1s         0.0000    0.0000    0.0000   -0.0289    0.1631    0.0000   -0.0199    0.0321    0.0346   -0.0089
   30 O3     2s         0.0000    0.0000   -0.0000   -0.3528    1.1807    0.0000   -0.1367    0.2370    0.0893   -0.0197
   31 O3     3s        -0.0000    0.0000   -0.0000   -0.0152    0.4239    0.0000   -0.0753    0.2120    0.1153   -0.0417
   32 O3     2px       -0.0000   -0.0000   -0.0000   -0.0458   -0.1333   -0.0000   -0.0600   -0.0745    0.0813    0.0722
   33 O3     3px        0.0000    0.0000    0.0000   -0.0154   -0.1133    0.0000    0.4572    0.0991    0.2071    0.8007
   34 O3     2py       -0.0000    0.0000   -0.0000   -0.8011    0.5708    0.0000   -0.0955    0.2501   -0.4617    0.1437
   35 O3     3py       -0.0000    0.0000   -0.0000   -0.1799    0.6502    0.0000   -0.2033    0.8088    0.0712   -0.0203
   36 O3     2pz        0.3229    0.7043    0.6667    0.0000   -0.0000    0.0218   -0.0000    0.0000    0.0000   -0.0000
   37 O3     3pz       -0.0296    0.0092   -0.0598    0.0000   -0.0000    0.4888   -0.0000   -0.0000   -0.0000    0.0000
   38 O3     3d2-       0.0000   -0.0000    0.0000    0.0076   -0.0100   -0.0000   -0.0263    0.0032   -0.0515   -0.0073
   39 O3     3d1-       0.0296    0.0197   -0.0085    0.0000    0.0000   -0.0349    0.0000    0.0000    0.0000   -0.0000
   40 O3     3d0        0.0000    0.0000    0.0000   -0.0009   -0.0194    0.0000    0.0062    0.0030   -0.0631    0.0195
   41 O3     3d1+      -0.0034   -0.0016    0.0012    0.0000    0.0000    0.0062   -0.0000   -0.0000    0.0000    0.0000
   42 O3     3d2+       0.0000   -0.0000    0.0000   -0.0050   -0.0317    0.0000    0.0217    0.0017   -0.0985    0.0308
 
 
      Orbital               21        22        23        24        25        26        27        28        29        30
      Energy            0.6858    0.8562    1.0114    1.0265    1.0595    1.6900    1.7268    1.7278    1.7281    2.0127
      Occ. No.          0.0000    0.0000    0.0000    0.0000    0.0000    0.0000    0.0000    0.0000    0.0000    0.0000
 
    1 O1     1s         0.0000   -0.0198   -0.0168   -0.0000    0.0951   -0.0000   -0.0492   -0.0021   -0.0000   -0.2686
    2 O1     2s         0.0000   -0.1038   -0.0910   -0.0000    0.5587    0.0000   -0.3720   -0.0176   -0.0000   -1.8303
    3 O1     3s        -0.0000    0.4534   -0.0375   -0.0000   -0.0531    0.0000   -0.5632   -0.0212   -0.0000   -1.6235
    4 O1     2px       -0.0000   -0.0121   -0.4708    0.0000   -0.1233   -0.0000    0.1727    0.0398    0.0000    0.1301
    5 O1     3px        0.0000    0.0042   -0.9070   -0.0000   -0.0928   -0.0000    0.0217    0.0243    0.0000    0.1824
    6 O1     2py       -0.0000   -0.0414    0.0351    0.0000   -0.0407   -0.0000    0.1031    0.0105    0.0000    0.6309
    7 O1     3py        0.0000    0.3091    0.0149   -0.0000    0.6859   -0.0000    0.2010    0.0109    0.0000    0.1290
    8 O1     2pz       -0.0866    0.0000   -0.0000    0.5064    0.0000   -0.1779    0.0000    0.0000   -0.0363    0.0000
    9 O1     3pz       -0.8276   -0.0000   -0.0000    0.9082    0.0000    0.0299    0.0000    0.0000   -0.0264   -0.0000
   10 O1     3d2-       0.0000   -0.0294   -0.0442   -0.0000   -0.0218   -0.0000    0.4075    0.1418    0.0000   -0.1664
   11 O1     3d1-      -0.0268    0.0000    0.0000    0.0338    0.0000   -0.4419    0.0000    0.0000   -0.1433   -0.0000
   12 O1     3d0        0.0000    0.0493    0.0265    0.0000   -0.0658   -0.0000   -0.0598    0.3727    0.0000    0.0404
   13 O1     3d1+      -0.0007    0.0000   -0.0000    0.0178    0.0000   -0.1093   -0.0000   -0.0000    0.4164    0.0000
   14 O1     3d2+       0.0000    0.0739    0.0092    0.0000   -0.1193    0.0000    0.1208   -0.1865   -0.0000   -0.0805
   15 O2     1s         0.0000    0.0117   -0.0072   -0.0000    0.0000    0.0000    0.0000    0.0063    0.0000    0.0000
   16 O2     2s        -0.0000    0.0548   -0.0210    0.0000    0.0000    0.0000    0.0000    0.0428    0.0000    0.0000
   17 O2     3s        -0.0000    0.5648   -0.0183   -0.0000    0.0000   -0.0000    0.0000    0.0392    0.0000    0.0000
   18 O2     2px        0.0000    0.0042    0.6569    0.0000    0.0000   -0.0000    0.0000    0.0330    0.0000    0.0000
   19 O2     3px        0.0000    0.0017    1.6224    0.0000    0.0000    0.0000   -0.0000   -0.0495   -0.0000    0.0000
   20 O2     2py       -0.0000   -0.0000   -0.0000    0.0000   -0.8112   -0.0000    0.3547   -0.0000    0.0000    1.9848
   21 O2     3py        0.0000    0.0000   -0.0000    0.0000   -1.0136   -0.0000    0.4437   -0.0000    0.0000    2.1477
   22 O2     2pz        0.0000   -0.0000    0.0000   -0.6706   -0.0000    0.0000    0.0000    0.0000   -0.0354   -0.0000
   23 O2     3pz       -0.0000   -0.0000    0.0000   -1.6519   -0.0000    0.0000   -0.0000   -0.0000    0.0587    0.0000
   24 O2     3d2-      -0.0000   -0.0000    0.0000   -0.0000    0.1214    0.0000   -0.4995    0.0000   -0.0000    0.2651
   25 O2     3d1-       0.0799    0.0000   -0.0000   -0.0000   -0.0000    0.5729    0.0000    0.0000    0.0000    0.0000
   26 O2     3d0       -0.0000    0.0491    0.0406   -0.0000    0.0000   -0.0000    0.0000    0.5666    0.0000    0.0000
   27 O2     3d1+       0.0000    0.0000   -0.0000    0.0284    0.0000   -0.0000   -0.0000   -0.0000    0.6607   -0.0000
   28 O2     3d2+      -0.0000    0.0709    0.0167    0.0000    0.0000    0.0000   -0.0000   -0.3398   -0.0000    0.0000
   29 O3     1s         0.0000   -0.0198   -0.0168   -0.0000   -0.0951   -0.0000    0.0492   -0.0021    0.0000    0.2686
   30 O3     2s         0.0000   -0.1038   -0.0910    0.0000   -0.5587   -0.0000    0.3720   -0.0176    0.0000    1.8303
   31 O3     3s        -0.0000    0.4534   -0.0375   -0.0000    0.0531   -0.0000    0.5632   -0.0212    0.0000    1.6235
   32 O3     2px       -0.0000   -0.0121   -0.4708   -0.0000    0.1233   -0.0000   -0.1727    0.0398    0.0000   -0.1301
   33 O3     3px       -0.0000    0.0042   -0.9070   -0.0000    0.0928    0.0000   -0.0217    0.0243    0.0000   -0.1824
   34 O3     2py       -0.0000    0.0414   -0.0351    0.0000   -0.0407   -0.0000    0.1031   -0.0105    0.0000    0.6309
   35 O3     3py        0.0000   -0.3091   -0.0149   -0.0000    0.6859   -0.0000    0.2010   -0.0109    0.0000    0.1290
   36 O3     2pz        0.0866    0.0000   -0.0000    0.5064    0.0000    0.1779    0.0000    0.0000   -0.0363   -0.0000
   37 O3     3pz        0.8276    0.0000   -0.0000    0.9082    0.0000   -0.0299    0.0000    0.0000   -0.0264   -0.0000
   38 O3     3d2-       0.0000    0.0294    0.0442   -0.0000   -0.0218   -0.0000    0.4075   -0.1418   -0.0000   -0.1664
   39 O3     3d1-      -0.0268   -0.0000    0.0000   -0.0338   -0.0000   -0.4419   -0.0000   -0.0000    0.1433   -0.0000
   40 O3     3d0       -0.0000    0.0493    0.0265   -0.0000    0.0658   -0.0000    0.0598    0.3727    0.0000   -0.0404
   41 O3     3d1+       0.0007   -0.0000   -0.0000    0.0178    0.0000    0.1093   -0.0000   -0.0000    0.4164   -0.0000
   42 O3     3d2+      -0.0000    0.0739    0.0092   -0.0000    0.1193    0.0000   -0.1208   -0.1865   -0.0000    0.0805
 
 
      Orbital               31        32        33        34        35        36        37        38        39        40
      Energy            2.0174    2.0956    2.0964    2.4415    2.4445    2.6344    2.7309    2.7682    2.9922    3.5835
      Occ. No.          0.0000    0.0000    0.0000    0.0000    0.0000    0.0000    0.0000    0.0000    0.0000    0.0000
 
    1 O1     1s        -0.1098    0.0000    0.0160    0.0326   -0.0000    0.0291    0.0000   -0.0452    0.0307    0.0000
    2 O1     2s        -0.8345    0.0000    0.1053    0.2087    0.0000    0.0791    0.0000   -0.3774    0.3464    0.0000
    3 O1     3s        -0.9360    0.0000    0.0743    0.1133    0.0000   -0.1945   -0.0000   -0.3894    0.4199    0.0000
    4 O1     2px        0.0556   -0.0000   -0.0060    0.1018    0.0000    0.1257   -0.0000   -0.2459   -0.0781    0.0000
    5 O1     3px        0.0853   -0.0000   -0.0291    0.2098    0.0000    0.2349    0.0000   -0.3436   -0.0533    0.0000
    6 O1     2py        0.5636   -0.0000   -0.0333   -0.1226   -0.0000    0.0515   -0.0000    0.3262   -0.4188   -0.0000
    7 O1     3py        0.5886    0.0000    0.0098   -0.0487   -0.0000    0.2612    0.0000    0.3268   -0.4124   -0.0000
    8 O1     2pz       -0.0000    0.0021   -0.0000    0.0000   -0.1187    0.0000   -0.3151    0.0000    0.0000   -0.3311
    9 O1     3pz       -0.0000   -0.0189    0.0000    0.0000   -0.2055    0.0000   -0.4391    0.0000    0.0000   -0.2043
   10 O1     3d2-      -0.1110    0.0000    0.1680   -0.3100   -0.0000   -0.3911   -0.0000    0.5677    0.2735   -0.0000
   11 O1     3d1-       0.0000    0.1558   -0.0000   -0.0000    0.3103   -0.0000    0.7408   -0.0000   -0.0000    0.6694
   12 O1     3d0       -0.0179    0.0000    0.6094    0.4878    0.0000    0.1199   -0.0000    0.3351   -0.4092   -0.0000
   13 O1     3d1+      -0.0000   -0.6924    0.0000   -0.0000    0.5716   -0.0000   -0.1383    0.0000    0.0000    0.1326
   14 O1     3d2+      -0.0980   -0.0000   -0.3207   -0.2758   -0.0000    0.5010    0.0000    0.3938   -0.6474   -0.0000
   15 O2     1s         0.2666   -0.0000    0.0000   -0.0222   -0.0000    0.1414    0.0000    0.1720    0.0000   -0.0000
   16 O2     2s         1.9103   -0.0000    0.0000   -0.2282   -0.0000    0.7119    0.0000    1.1065    0.0000    0.0000
   17 O2     3s         1.9100   -0.0000    0.0000   -0.3376   -0.0000   -0.0748   -0.0000    0.5937    0.0000    0.0000
   18 O2     2px        0.0610    0.0000    0.0000   -0.4031   -0.0000   -0.2562   -0.0000    0.7631    0.0000   -0.0000
   19 O2     3px        0.0934    0.0000    0.0000   -0.3735   -0.0000   -0.3769   -0.0000    0.6759    0.0000    0.0000
   20 O2     2py       -0.0000   -0.0000   -0.1214   -0.0000   -0.0000   -0.0000   -0.0000   -0.0000   -0.7632   -0.0000
   21 O2     3py       -0.0000   -0.0000   -0.1277    0.0000   -0.0000   -0.0000    0.0000   -0.0000    0.2673   -0.0000
   22 O2     2pz       -0.0000    0.0000    0.0000   -0.0000    0.3910   -0.0000    0.7668   -0.0000   -0.0000    0.0000
   23 O2     3pz        0.0000    0.0000    0.0000   -0.0000    0.3302   -0.0000    0.7466   -0.0000   -0.0000    0.0000
   24 O2     3d2-      -0.0000   -0.0000   -0.0354    0.0000   -0.0000    0.0000   -0.0000   -0.0000    0.0819   -0.0000
   25 O2     3d1-       0.0000   -0.0164    0.0000    0.0000   -0.0000   -0.0000   -0.0000   -0.0000    0.0000    1.1018
   26 O2     3d0        0.0878   -0.0000    0.0000   -0.4506   -0.0000    0.5008    0.0000   -0.2812   -0.0000    0.0000
   27 O2     3d1+       0.0000   -0.0000    0.0000    0.0000   -0.5958   -0.0000    0.5169   -0.0000   -0.0000    0.0000
   28 O2     3d2+       0.1659   -0.0000   -0.0000    0.3758    0.0000    0.2003    0.0000    0.3541   -0.0000    0.0000
   29 O3     1s        -0.1098   -0.0000   -0.0160    0.0326    0.0000    0.0291   -0.0000   -0.0452   -0.0307   -0.0000
   30 O3     2s        -0.8345   -0.0000   -0.1053    0.2087    0.0000    0.0791   -0.0000   -0.3774   -0.3464   -0.0000
   31 O3     3s        -0.9360   -0.0000   -0.0743    0.1133    0.0000   -0.1945   -0.0000   -0.3894   -0.4199   -0.0000
   32 O3     2px        0.0556    0.0000    0.0060    0.1018    0.0000    0.1257    0.0000   -0.2459    0.0781   -0.0000
   33 O3     3px        0.0853    0.0000    0.0291    0.2098    0.0000    0.2349    0.0000   -0.3436    0.0533   -0.0000
   34 O3     2py       -0.5636   -0.0000   -0.0333    0.1226    0.0000   -0.0515   -0.0000   -0.3262   -0.4188   -0.0000
   35 O3     3py       -0.5886    0.0000    0.0098    0.0487    0.0000   -0.2612   -0.0000   -0.3268   -0.4124   -0.0000
   36 O3     2pz       -0.0000   -0.0021    0.0000   -0.0000   -0.1187    0.0000   -0.3151   -0.0000    0.0000    0.3311
   37 O3     3pz       -0.0000    0.0189   -0.0000    0.0000   -0.2055    0.0000   -0.4391    0.0000    0.0000    0.2043
   38 O3     3d2-       0.1110    0.0000    0.1680    0.3100    0.0000    0.3911    0.0000   -0.5677    0.2735   -0.0000
   39 O3     3d1-       0.0000    0.1558   -0.0000    0.0000   -0.3103    0.0000   -0.7408    0.0000    0.0000    0.6694
   40 O3     3d0       -0.0179   -0.0000   -0.6094    0.4878    0.0000    0.1199    0.0000    0.3351    0.4092    0.0000
   41 O3     3d1+       0.0000    0.6924   -0.0000   -0.0000    0.5716    0.0000   -0.1383    0.0000    0.0000   -0.1326
   42 O3     3d2+      -0.0980    0.0000    0.3207   -0.2758   -0.0000    0.5010    0.0000    0.3938    0.6474    0.0000
 
 
      Orbital               41        42
      Energy            3.5881    4.4185
      Occ. No.          0.0000    0.0000
 
    1 O1     1s        -0.0313    0.2341
    2 O1     2s        -0.1971    1.5469
    3 O1     3s        -0.0718    0.7835
    4 O1     2px       -0.2975   -0.2504
    5 O1     3px       -0.1976   -0.1152
    6 O1     2py        0.1866   -1.1319
    7 O1     3py        0.0478   -0.4792
    8 O1     2pz       -0.0000    0.0000
    9 O1     3pz       -0.0000   -0.0000
   10 O1     3d2-       0.5997    0.3084
   11 O1     3d1-       0.0000   -0.0000
   12 O1     3d0        0.0367   -0.3416
   13 O1     3d1+       0.0000   -0.0000
   14 O1     3d2+       0.3159   -0.5206
   15 O2     1s         0.0000   -0.4219
   16 O2     2s         0.0000   -2.9787
   17 O2     3s         0.0000   -1.9123
   18 O2     2px        0.0000   -0.1443
   19 O2     3px        0.0000    0.0000
   20 O2     2py        0.1797   -0.0000
   21 O2     3py        0.0269   -0.0000
   22 O2     2pz       -0.0000    0.0000
   23 O2     3pz        0.0000    0.0000
   24 O2     3d2-       1.1074    0.0000
   25 O2     3d1-       0.0000    0.0000
   26 O2     3d0       -0.0000    0.7006
   27 O2     3d1+      -0.0000    0.0000
   28 O2     3d2+       0.0000    1.2233
   29 O3     1s         0.0313    0.2341
   30 O3     2s         0.1971    1.5469
   31 O3     3s         0.0718    0.7835
   32 O3     2px        0.2975   -0.2504
   33 O3     3px        0.1976   -0.1152
   34 O3     2py        0.1866    1.1319
   35 O3     3py        0.0478    0.4792
   36 O3     2pz        0.0000   -0.0000
   37 O3     3pz        0.0000   -0.0000
   38 O3     3d2-       0.5997   -0.3084
   39 O3     3d1-       0.0000    0.0000
   40 O3     3d0       -0.0367   -0.3416
   41 O3     3d1+      -0.0000   -0.0000
   42 O3     3d2+      -0.3159   -0.5206
--
 
      Von Neumann Entropy (Root  1) =  0.55879
 

      Mulliken population analysis for root number:  1
      -----------------------------------------------
 
 
++    Molecular charges:
      ------------------
 
      Mulliken charges per centre and basis function type
      ---------------------------------------------------
 
                O1      O2      O3    
      1s       2.0003  2.0000  2.0003
      2s       1.9324  1.6703  1.9324
      2px      2.0026  1.8994  2.0026
      2pz      1.2633  1.4333  1.2633
      2py      0.8256  0.9319  0.8256
      3s      -0.0128 -0.0254 -0.0128
      3px     -0.0224 -0.0527 -0.0224
      3pz     -0.0089 -0.0062 -0.0089
      3py     -0.0114  0.0141 -0.0114
      3d2+     0.0198  0.0217  0.0198
      3d1+     0.0002  0.0012  0.0002
      3d0      0.0057  0.0064  0.0057
      3d1-     0.0144  0.0336  0.0144
      3d2-     0.0116  0.0316  0.0116
      Total    8.0204  7.9592  8.0204
 
      N-E     -0.0204  0.0408 -0.0204
 
      Total electronic charge=   24.000000
 
      Total            charge=   -0.000000
--
 
 

      Expectation values of various properties for root number:  1
      -----------------------------------------------------------
 
 
++    Molecular properties:
      ---------------------
 
      Charge (e):
                      =   -0.0000
      Dipole Moment (Debye):
      Origin of the operator (Ang)=    0.0000    0.0000    0.0000
                   X=  1.9973E-01               Y=  9.3888E-11               Z=  1.7454E-13           Total=  1.9973E-01
      Quadrupole Moment (Debye*Ang):
      Origin of the operator (Ang)=    0.1204    0.0000    0.0000
                  XX= -1.6383E+01              XY=  3.4037E-12              XZ=  8.0974E-14              YY= -1.5885E+01
                  YZ=  1.8101E-13              ZZ= -1.4777E+01
      In traceless form (Debye*Ang)
                  XX= -1.0513E+00              XY=  5.1055E-12              XZ=  1.2146E-13              YY= -3.0516E-01
                  YZ=  2.7152E-13              ZZ=  1.3564E+00
--
 

      LoProp population analysis for root number:  1
      -----------------------------------------------
 
 
++    LoProp analysis:
      ----------------
 
 
 
  Input file to MOLDEN was generated!
 
 
++    Static properties:
      ------------------
 
 
      LoProp Charges per center
 

                   O1       O2       O3    
      Nuclear      8.0000   8.0000   8.0000
      Electronic  -8.0558  -7.8884  -8.0558
 
      Total       -0.0558   0.1116  -0.0558
--
 
 
      Natural Bond Order analysis for root number:  1
 
++    Natural Bond Order analysis
      ---------------------------
      Based on LoProp computed density
      -------------------------------------------------------------------------------------
      Atom A       Atom B       Bond Order | Atom A       Atom B       Bond Order
        O1           O2             1.968  |   O2           O3             1.968
      -------------------------------------------------------------------------------------
      NBO located     16.000 core electrons.
      NBO located      7.873 electrons involved in    2 bonds.
      The remaining    0.127 electrons are to be considered as diffuse
--
 
--
 
 
  Input file to MOLDEN was generated!
 
      Average orbitals are written to the RASORB file
      Natural orbitals for root   1 are written to the RASORB.1 file
      Spin density orbitals for root   1 are written to the SPDORB.1 file
 
forrtl: warning (525): IEEE_DIVIDE_BY_ZERO is signaling
forrtl: warning (526): IEEE_INVALID is signaling
forrtl: warning (528): IEEE_UNDERFLOW is signaling
--- Stop Module: rasscf at Fri Jan 24 17:46:27 2025 /rc=_RC_ALL_IS_WELL_ ---
*** files: ozone_163.75.LprOrb ozone_163.75.rasscf.molden ozone_163.75.LoProp.molden ozone_163.75.RasOrb ozone_163.75.RasOrb.1 ozone_163.75.rasscf.h5 ozone_163.75.SpdOrb.1 xmldump
    saved to directory /home/grierjones/DDCASPT2/ozone/ANO-RCC-VDZP/ozone_163.75

>>> COPY /tmp/ozone_163.75/ozone_163.75.rasscf.h5 /home/grierjones/DDCASPT2/ozone/ANO-RCC-VDZP/ozone_163.75/

>>> COPY /tmp/ozone_163.75/GMJ_Fock_MO.csv /home/grierjones/DDCASPT2/ozone/ANO-RCC-VDZP/ozone_163.75/ozone_163.75.GMJ_Fock_MO.csv

>>> COPY /tmp/ozone_163.75/GMJ_PT2_Fock_MO.csv /home/grierjones/DDCASPT2/ozone/ANO-RCC-VDZP/ozone_163.75/ozone_163.75.GMJ_PT2_Fock_MO.csv

*** symbolic link created: INPORB -> ozone_163.75.RasOrb
--- Start Module: motra at Fri Jan 24 17:46:27 2025 ---
 
()()()()()()()()()()()()()()()()()()()()()()()()()()()()()()()()()()()()()()()()()()()()()()()()()()

                                               &MOTRA

                                   only a single process is used
                       available to each process: 2.0 GB of memory, 1 thread?
()()()()()()()()()()()()()()()()()()()()()()()()()()()()()()()()()()()()()()()()()()()()()()()()()()
 
 
      *** WARNING: Default frozen orbitals is overwritten by user input.
      *** Default values:   3
 
      Header of the integral files:
      
       Integrals generated by seward 4.2.0  , Fri Jan 24 17:46:25 2025
 
 
      Header of MO coefficients source file:
      * RASSCF average (pseudo-natural) orbitals                                      
 
 
      Cartesian coordinates in Angstrom:
      -----------------------------------------------------
      No.  Label        X            Y            Z        
      -----------------------------------------------------
       1   O1         0.18062400   1.26517200   0.00000000
       2   O2         0.00000000   0.00000000   0.00000000
       3   O3         0.18062400  -1.26517200   0.00000000
      -----------------------------------------------------
      Nuclear repulsion energy =   66.38499574
 
      Orbital specifications:
      -----------------------
 
      Symmetry species:              1
      Number of basis functions:    42
      Frozen orbitals:               0
      Deleted orbitals:              0
      Number of orbitals used:      42

       SYMMETRY  BASIS FUNCTIONS       ORBITALS      INTEGRALS   CPU(SEC)  I/O(SEC)
 
        1 1 1 1   42  42  42  42    42  42  42  42      408156       0.00      0.00

       TOTAL CPU TIME(SEC)    0.31TOTAL I/O TIME(SEC)    0.76
 
--- Stop Module: motra at Fri Jan 24 17:46:28 2025 /rc=_RC_ALL_IS_WELL_ ---
*** files: xmldump
    saved to directory /home/grierjones/DDCASPT2/ozone/ANO-RCC-VDZP/ozone_163.75

>>> COPY /tmp/ozone_163.75/GMJ_one_int_indx.csv /home/grierjones/DDCASPT2/ozone/ANO-RCC-VDZP/ozone_163.75/ozone_163.75.GMJ_one_int_indx.csv

>>> COPY /tmp/ozone_163.75/GMJ_one_int.csv /home/grierjones/DDCASPT2/ozone/ANO-RCC-VDZP/ozone_163.75/ozone_163.75.GMJ_one_int.csv

>>> COPY /tmp/ozone_163.75/GMJ_two_int_indx.csv /home/grierjones/DDCASPT2/ozone/ANO-RCC-VDZP/ozone_163.75/ozone_163.75.GMJ_two_int_indx.csv

>>> COPY /tmp/ozone_163.75/GMJ_two_int.csv /home/grierjones/DDCASPT2/ozone/ANO-RCC-VDZP/ozone_163.75/ozone_163.75.GMJ_two_int.csv

*** symbolic link created: INPORB -> ozone_163.75.RasOrb
--- Start Module: caspt2 at Fri Jan 24 17:46:28 2025 ---
 
()()()()()()()()()()()()()()()()()()()()()()()()()()()()()()()()()()()()()()()()()()()()()()()()()()

                                              &CASPT2

                                   only a single process is used
                       available to each process: 2.0 GB of memory, 1 thread?
()()()()()()()()()()()()()()()()()()()()()()()()()()()()()()()()()()()()()()()()()()()()()()()()()()
 
 Cholesky algorithm in CASPT2 =    1
 
 ###############################################################################
 ###############################################################################
 ###                                                                         ###
 ###                                                                         ###
 ###    User changed nr of frozen orbitals.                                  ###
 ###                                                                         ###
 ###                                                                         ###
 ###############################################################################
 ###############################################################################
 
++    Wave function specifications:
      -----------------------------
 
      Number of closed shell electrons          20
      Number of electrons in active shells       4
      Max number of holes in RAS1 space          0
      Max number of electrons in RAS3 space      0
      Number of inactive orbitals               10
      Number of active orbitals                  3
      Number of secondary orbitals              29
      Spin quantum number                      0.0
      State symmetry                             1
      Number of CSFs                             6
      Number of root(s) available                1
      Root passed to geometry opt.               1
      A file JOBMIX will be created.
      This is a CASSCF or RASSCF reference function
--
 
++    Orbital specifications:
      -----------------------
 
      Symmetry species                           1
                                                 a
      Frozen orbitals                            0
      Inactive orbitals                         10
      Active orbitals                            3
      Secondary orbitals                        29
      Deleted orbitals                           0
      Number of basis functions                 42
--
 
      Type of Fock operator: STANDARD
      Type of 0-order Hamiltonian: STANDARD WITH DEFAULT IPEA
        "IP-EA" denominator shift =      0.25
      The input orbitals and the CI vector will be transformed.
 
--------------------------------------------------------------------------------
 Estimated memory requirements:
  POLY3 :                   250202
  RHS:                      279634
  SIGMA :                   302200
  PRPCTL:                        0
 Available workspace:    230396563
 
++ CASPT2 computation for group   1
 
********************************************************************************
 Multi-State initialization phase begins for group   1
--------------------------------------------------------------------------------
********************************************************************************
 Compute H0 matrices for state    1
--------------------------------------------------------------------------------
--------------------------------------------------------------------------------
 H0 matrices have been computed.
 
********************************************************************************
  CASPT2 EQUATION SOLUTION
--------------------------------------------------------------------------------
 
  Total nr of CASPT2 parameters:
   Before reduction:       86691
   After  reduction:       82880
 
 The contributions to the second order correlation energy in atomic units.
-----------------------------------------------------------------------------------------------------------------------------
  IT.      VJTU        VJTI        ATVX        AIVX        VJAI        BVAT        BJAT        BJAI        TOTAL       RNORM  
-----------------------------------------------------------------------------------------------------------------------------
   1    -0.000000   -0.001538   -0.015107   -0.101490   -0.016954   -0.017033   -0.121814   -0.262340   -0.536276    0.002170
   2    -0.000000   -0.001558   -0.015161   -0.101837   -0.016970   -0.017038   -0.121830   -0.262342   -0.536736    0.000176
   3    -0.000000   -0.001558   -0.015161   -0.101841   -0.016971   -0.017038   -0.121831   -0.262342   -0.536742    0.000025
   4    -0.000000   -0.001558   -0.015161   -0.101839   -0.016970   -0.017038   -0.121831   -0.262342   -0.536739    0.000003
-------------------------------------------------------------------------------------------------------------------
 
  FINAL CASPT2 RESULT:
 
  Correlation energy /Case, /Symm, and sums:
 VJTU     -0.00000000 -0.00000000
 VJTIP    -0.00155794 -0.00155794
 VJTIM     0.00000000  0.00000000
 ATVX     -0.01516101 -0.01516101
 AIVX     -0.10183848 -0.10183848
 VJAIP    -0.01180698 -0.01180698
 VJAIM    -0.00516343 -0.00516343
 BVATP    -0.01616453 -0.01616453
 BVATM    -0.00087334 -0.00087334
 BJATP    -0.04544316 -0.04544316
 BJATM    -0.07638792 -0.07638792
 BJAIP    -0.17661466 -0.17661466
 BJAIM    -0.08572773 -0.08572773
 Summed:  -0.53673918 -0.53673918
 
      Reference energy:        -224.4753704304
      E2 (Non-variational):      -0.5367391758
      E2 (Variational):          -0.5367392035
      Total energy:            -225.0121096339
      Residual norm:              0.0000002946
      Reference weight:           0.85505
 
      Contributions to the CASPT2 correlation energy
      Active & Virtual Only:         -0.0321988858
      One Inactive Excited:          -0.2236695608
      Two Inactive Excited:          -0.2808707291
 
 
++ Denominators, etc.
----------------------------------------------------------------------------------------------------
 Report on small energy denominators, large coefficients, and large energy contributions.
CASE  SYMM ACTIVE-MIX  NON-ACTIVE INDICES          DENOMINATOR     RHS VALUE       COEFFICIENT     CONTRIBUTION
ATVX     1  Mu1.0006  Se1.016                       1.89827590     -0.06832776      0.03670124     -0.00250771
ATVX     1  Mu1.0005  Se1.021                       1.86051361     -0.10781807      0.05680359     -0.00612445
ATVX     1  Mu1.0006  Se1.024                       2.45766821      0.06141914     -0.02501304     -0.00153628
ATVX     1  Mu1.0005  Se1.026                       2.86481314      0.07760721     -0.02717711     -0.00210914
AIVX     1  Mu1.0005  In1.004 Se1.014               2.61742485      0.08444931     -0.03225992     -0.00272433
AIVX     1  Mu1.0003  In1.005 Se1.014               2.07362939      0.06596485     -0.03134305     -0.00206754
AIVX     1  Mu1.0004  In1.006 Se1.014               1.83551961      0.05847997     -0.03217037     -0.00188132
AIVX     1  Mu1.0005  In1.006 Se1.014               1.99272001     -0.05560933      0.02834003     -0.00157597
AIVX     1  Mu1.0004  In1.007 Se1.014               1.58199052     -0.04704943      0.03000081     -0.00141152
AIVX     1  Mu1.0002  In1.008 Se1.014               1.30163598     -0.10811586      0.08234331     -0.00890262
AIVX     1  Mu1.0003  In1.008 Se1.014               1.39900809     -0.06003864      0.04258437     -0.00255671
AIVX     1  Mu1.0002  In1.009 Se1.014               1.13971042      0.05058676     -0.04390924     -0.00222123
AIVX     1  Mu1.0003  In1.009 Se1.014               1.23708254      0.03338067     -0.02676069     -0.00089329
AIVX     1  Mu1.0002  In1.009 Se1.017               1.46280571      0.04939641     -0.03274895     -0.00161768
AIVX     1  Mu1.0004  In1.010 Se1.017               1.56509508     -0.05861385      0.03734114     -0.00218871
AIVX     1  Mu1.0002  In1.009 Se1.018               1.50882302      0.03916021     -0.02531197     -0.00099122
AIVX     1  Mu1.0004  In1.008 Se1.019               2.05882017      0.12152448     -0.05939268     -0.00721766
AIVX     1  Mu1.0005  In1.008 Se1.019               2.21602057     -0.07459332      0.03382881     -0.00252340
AIVX     1  Mu1.0002  In1.010 Se1.020               1.50860378      0.07025881     -0.04535238     -0.00318640
AIVX     1  Mu1.0003  In1.010 Se1.020               1.60597589      0.04739978     -0.02864647     -0.00135784
AIVX     1  Mu1.0004  In1.006 Se1.022               2.54041452     -0.06790686      0.02669635     -0.00181287
AIVX     1  Mu1.0002  In1.008 Se1.022               2.00653088      0.05199777     -0.02545824     -0.00132377
BJATM    1  Mu1.0002  In1.008 Se1.019 Se1.016       2.61981359      0.06031661     -0.02524943     -0.00152296
BJATM    1  Mu1.0001  In1.009 Se1.021 Se1.020       2.36896136     -0.05925477      0.02502354     -0.00148276
BJAIP    1  Se1.014 In1.006 Se1.014 In1.006         2.40984979      0.06103497     -0.02532728     -0.00154585
BJAIP    1  Se1.014 In1.006 Se1.019 In1.008         2.63315034      0.09008882     -0.03421329     -0.00308224
BJAIP    1  Se1.014 In1.008 Se1.014 In1.008         1.86008479      0.07756708     -0.04170083     -0.00323461
BJAIP    1  Se1.019 In1.008 Se1.019 In1.008         2.85645090      0.10815071     -0.03786188     -0.00409479
BJAIP    1  Se1.017 In1.007 Se1.023 In1.010         2.74607757     -0.07124400      0.02594390     -0.00184835
BJAIP    1  Se1.017 In1.009 Se1.020 In1.010         2.22822233      0.06198968     -0.02782024     -0.00172457
BJAIM    1  Se1.014 In1.008 Se1.016 In1.009         2.02125453     -0.05317798      0.02630939     -0.00139908
--
 
   (Skipping property calculation,
    use PROP keyword to activate)
--
 
  Total CASPT2 energies:
::    CASPT2 Root  1     Total energy:   -225.01210963
 
  A NEW JOBIPH FILE NAMED 'JOBMIX' IS PREPARED.
********************************************************************************
forrtl: warning (528): IEEE_UNDERFLOW is signaling
--- Stop Module: caspt2 at Fri Jan 24 17:46:28 2025 /rc=_RC_ALL_IS_WELL_ ---
*** files: xmldump
    saved to directory /home/grierjones/DDCASPT2/ozone/ANO-RCC-VDZP/ozone_163.75

>>> EXPORT i = B

>>> EXPORT j = P

>>> IF (-FILE GMJ_e2_${i}_${j}.csv)

>>> COPY /tmp/ozone_163.75/GMJ_RHS_B_P.csv /home/grierjones/DDCASPT2/ozone/ANO-RCC-VDZP/ozone_163.75/GMJ_RHS_B_P.csv

>>> COPY /tmp/ozone_163.75/GMJ_IVECW_B_P.csv /home/grierjones/DDCASPT2/ozone/ANO-RCC-VDZP/ozone_163.75/GMJ_IVECW_B_P.csv

>>> COPY /tmp/ozone_163.75/GMJ_IVECX_B_P.csv /home/grierjones/DDCASPT2/ozone/ANO-RCC-VDZP/ozone_163.75/GMJ_IVECX_B_P.csv

>>> COPY /tmp/ozone_163.75/GMJ_IVECC2_B_P.csv /home/grierjones/DDCASPT2/ozone/ANO-RCC-VDZP/ozone_163.75/GMJ_IVECC2_B_P.csv

>>> COPY /tmp/ozone_163.75/GMJ_e2_B_P.csv /home/grierjones/DDCASPT2/ozone/ANO-RCC-VDZP/ozone_163.75/GMJ_e2_B_P.csv

>>> END FOREACH

>>> EXPORT j = M

>>> IF (-FILE GMJ_e2_${i}_${j}.csv)
(Skipped)

>>> END FOREACH

>>> END FOREACH

>>> EXPORT i = E

>>> EXPORT j = P

>>> IF (-FILE GMJ_e2_${i}_${j}.csv)

>>> COPY /tmp/ozone_163.75/GMJ_RHS_E_P.csv /home/grierjones/DDCASPT2/ozone/ANO-RCC-VDZP/ozone_163.75/GMJ_RHS_E_P.csv

>>> COPY /tmp/ozone_163.75/GMJ_IVECW_E_P.csv /home/grierjones/DDCASPT2/ozone/ANO-RCC-VDZP/ozone_163.75/GMJ_IVECW_E_P.csv

>>> COPY /tmp/ozone_163.75/GMJ_IVECX_E_P.csv /home/grierjones/DDCASPT2/ozone/ANO-RCC-VDZP/ozone_163.75/GMJ_IVECX_E_P.csv

>>> COPY /tmp/ozone_163.75/GMJ_IVECC2_E_P.csv /home/grierjones/DDCASPT2/ozone/ANO-RCC-VDZP/ozone_163.75/GMJ_IVECC2_E_P.csv

>>> COPY /tmp/ozone_163.75/GMJ_e2_E_P.csv /home/grierjones/DDCASPT2/ozone/ANO-RCC-VDZP/ozone_163.75/GMJ_e2_E_P.csv

>>> END FOREACH

>>> EXPORT j = M

>>> IF (-FILE GMJ_e2_${i}_${j}.csv)

>>> COPY /tmp/ozone_163.75/GMJ_RHS_E_M.csv /home/grierjones/DDCASPT2/ozone/ANO-RCC-VDZP/ozone_163.75/GMJ_RHS_E_M.csv

>>> COPY /tmp/ozone_163.75/GMJ_IVECW_E_M.csv /home/grierjones/DDCASPT2/ozone/ANO-RCC-VDZP/ozone_163.75/GMJ_IVECW_E_M.csv

>>> COPY /tmp/ozone_163.75/GMJ_IVECX_E_M.csv /home/grierjones/DDCASPT2/ozone/ANO-RCC-VDZP/ozone_163.75/GMJ_IVECX_E_M.csv

>>> COPY /tmp/ozone_163.75/GMJ_IVECC2_E_M.csv /home/grierjones/DDCASPT2/ozone/ANO-RCC-VDZP/ozone_163.75/GMJ_IVECC2_E_M.csv

>>> COPY /tmp/ozone_163.75/GMJ_e2_E_M.csv /home/grierjones/DDCASPT2/ozone/ANO-RCC-VDZP/ozone_163.75/GMJ_e2_E_M.csv

>>> END FOREACH

>>> END FOREACH

>>> EXPORT i = F

>>> EXPORT j = P

>>> IF (-FILE GMJ_e2_${i}_${j}.csv)

>>> COPY /tmp/ozone_163.75/GMJ_RHS_F_P.csv /home/grierjones/DDCASPT2/ozone/ANO-RCC-VDZP/ozone_163.75/GMJ_RHS_F_P.csv

>>> COPY /tmp/ozone_163.75/GMJ_IVECW_F_P.csv /home/grierjones/DDCASPT2/ozone/ANO-RCC-VDZP/ozone_163.75/GMJ_IVECW_F_P.csv

>>> COPY /tmp/ozone_163.75/GMJ_IVECX_F_P.csv /home/grierjones/DDCASPT2/ozone/ANO-RCC-VDZP/ozone_163.75/GMJ_IVECX_F_P.csv

>>> COPY /tmp/ozone_163.75/GMJ_IVECC2_F_P.csv /home/grierjones/DDCASPT2/ozone/ANO-RCC-VDZP/ozone_163.75/GMJ_IVECC2_F_P.csv

>>> COPY /tmp/ozone_163.75/GMJ_e2_F_P.csv /home/grierjones/DDCASPT2/ozone/ANO-RCC-VDZP/ozone_163.75/GMJ_e2_F_P.csv

>>> END FOREACH

>>> EXPORT j = M

>>> IF (-FILE GMJ_e2_${i}_${j}.csv)

>>> COPY /tmp/ozone_163.75/GMJ_RHS_F_M.csv /home/grierjones/DDCASPT2/ozone/ANO-RCC-VDZP/ozone_163.75/GMJ_RHS_F_M.csv

>>> COPY /tmp/ozone_163.75/GMJ_IVECW_F_M.csv /home/grierjones/DDCASPT2/ozone/ANO-RCC-VDZP/ozone_163.75/GMJ_IVECW_F_M.csv

>>> COPY /tmp/ozone_163.75/GMJ_IVECX_F_M.csv /home/grierjones/DDCASPT2/ozone/ANO-RCC-VDZP/ozone_163.75/GMJ_IVECX_F_M.csv

>>> COPY /tmp/ozone_163.75/GMJ_IVECC2_F_M.csv /home/grierjones/DDCASPT2/ozone/ANO-RCC-VDZP/ozone_163.75/GMJ_IVECC2_F_M.csv

>>> COPY /tmp/ozone_163.75/GMJ_e2_F_M.csv /home/grierjones/DDCASPT2/ozone/ANO-RCC-VDZP/ozone_163.75/GMJ_e2_F_M.csv

>>> END FOREACH

>>> END FOREACH

>>> EXPORT i = G

>>> EXPORT j = P

>>> IF (-FILE GMJ_e2_${i}_${j}.csv)

>>> COPY /tmp/ozone_163.75/GMJ_RHS_G_P.csv /home/grierjones/DDCASPT2/ozone/ANO-RCC-VDZP/ozone_163.75/GMJ_RHS_G_P.csv

>>> COPY /tmp/ozone_163.75/GMJ_IVECW_G_P.csv /home/grierjones/DDCASPT2/ozone/ANO-RCC-VDZP/ozone_163.75/GMJ_IVECW_G_P.csv

>>> COPY /tmp/ozone_163.75/GMJ_IVECX_G_P.csv /home/grierjones/DDCASPT2/ozone/ANO-RCC-VDZP/ozone_163.75/GMJ_IVECX_G_P.csv

>>> COPY /tmp/ozone_163.75/GMJ_IVECC2_G_P.csv /home/grierjones/DDCASPT2/ozone/ANO-RCC-VDZP/ozone_163.75/GMJ_IVECC2_G_P.csv

>>> COPY /tmp/ozone_163.75/GMJ_e2_G_P.csv /home/grierjones/DDCASPT2/ozone/ANO-RCC-VDZP/ozone_163.75/GMJ_e2_G_P.csv

>>> END FOREACH

>>> EXPORT j = M

>>> IF (-FILE GMJ_e2_${i}_${j}.csv)

>>> COPY /tmp/ozone_163.75/GMJ_RHS_G_M.csv /home/grierjones/DDCASPT2/ozone/ANO-RCC-VDZP/ozone_163.75/GMJ_RHS_G_M.csv

>>> COPY /tmp/ozone_163.75/GMJ_IVECW_G_M.csv /home/grierjones/DDCASPT2/ozone/ANO-RCC-VDZP/ozone_163.75/GMJ_IVECW_G_M.csv

>>> COPY /tmp/ozone_163.75/GMJ_IVECX_G_M.csv /home/grierjones/DDCASPT2/ozone/ANO-RCC-VDZP/ozone_163.75/GMJ_IVECX_G_M.csv

>>> COPY /tmp/ozone_163.75/GMJ_IVECC2_G_M.csv /home/grierjones/DDCASPT2/ozone/ANO-RCC-VDZP/ozone_163.75/GMJ_IVECC2_G_M.csv

>>> COPY /tmp/ozone_163.75/GMJ_e2_G_M.csv /home/grierjones/DDCASPT2/ozone/ANO-RCC-VDZP/ozone_163.75/GMJ_e2_G_M.csv

>>> END FOREACH

>>> END FOREACH

>>> EXPORT i = H

>>> EXPORT j = P

>>> IF (-FILE GMJ_e2_${i}_${j}.csv)

>>> COPY /tmp/ozone_163.75/GMJ_RHS_H_P.csv /home/grierjones/DDCASPT2/ozone/ANO-RCC-VDZP/ozone_163.75/GMJ_RHS_H_P.csv

>>> COPY /tmp/ozone_163.75/GMJ_IVECW_H_P.csv /home/grierjones/DDCASPT2/ozone/ANO-RCC-VDZP/ozone_163.75/GMJ_IVECW_H_P.csv

>>> COPY /tmp/ozone_163.75/GMJ_IVECX_H_P.csv /home/grierjones/DDCASPT2/ozone/ANO-RCC-VDZP/ozone_163.75/GMJ_IVECX_H_P.csv

>>> COPY /tmp/ozone_163.75/GMJ_IVECC2_H_P.csv /home/grierjones/DDCASPT2/ozone/ANO-RCC-VDZP/ozone_163.75/GMJ_IVECC2_H_P.csv

>>> COPY /tmp/ozone_163.75/GMJ_e2_H_P.csv /home/grierjones/DDCASPT2/ozone/ANO-RCC-VDZP/ozone_163.75/GMJ_e2_H_P.csv

>>> END FOREACH

>>> EXPORT j = M

>>> IF (-FILE GMJ_e2_${i}_${j}.csv)

>>> COPY /tmp/ozone_163.75/GMJ_RHS_H_M.csv /home/grierjones/DDCASPT2/ozone/ANO-RCC-VDZP/ozone_163.75/GMJ_RHS_H_M.csv

>>> COPY /tmp/ozone_163.75/GMJ_IVECW_H_M.csv /home/grierjones/DDCASPT2/ozone/ANO-RCC-VDZP/ozone_163.75/GMJ_IVECW_H_M.csv

>>> COPY /tmp/ozone_163.75/GMJ_IVECX_H_M.csv /home/grierjones/DDCASPT2/ozone/ANO-RCC-VDZP/ozone_163.75/GMJ_IVECX_H_M.csv

>>> COPY /tmp/ozone_163.75/GMJ_IVECC2_H_M.csv /home/grierjones/DDCASPT2/ozone/ANO-RCC-VDZP/ozone_163.75/GMJ_IVECC2_H_M.csv

>>> COPY /tmp/ozone_163.75/GMJ_e2_H_M.csv /home/grierjones/DDCASPT2/ozone/ANO-RCC-VDZP/ozone_163.75/GMJ_e2_H_M.csv

>>> END FOREACH

>>> END FOREACH

>>> EXPORT i = A

>>> IF (-FILE GMJ_e2_$i.csv)

>>> COPY /tmp/ozone_163.75/GMJ_RHS_A.csv /home/grierjones/DDCASPT2/ozone/ANO-RCC-VDZP/ozone_163.75/GMJ_RHS_A.csv

>>> COPY /tmp/ozone_163.75/GMJ_IVECW_A.csv /home/grierjones/DDCASPT2/ozone/ANO-RCC-VDZP/ozone_163.75/GMJ_IVECW_A.csv

>>> COPY /tmp/ozone_163.75/GMJ_IVECX_A.csv /home/grierjones/DDCASPT2/ozone/ANO-RCC-VDZP/ozone_163.75/GMJ_IVECX_A.csv

>>> COPY /tmp/ozone_163.75/GMJ_IVECC2_A.csv /home/grierjones/DDCASPT2/ozone/ANO-RCC-VDZP/ozone_163.75/GMJ_IVECC2_A.csv

>>> COPY /tmp/ozone_163.75/GMJ_e2_A.csv /home/grierjones/DDCASPT2/ozone/ANO-RCC-VDZP/ozone_163.75/GMJ_e2_A.csv

>>> END FOREACH

>>> EXPORT i = C

>>> IF (-FILE GMJ_e2_$i.csv)

>>> COPY /tmp/ozone_163.75/GMJ_RHS_C.csv /home/grierjones/DDCASPT2/ozone/ANO-RCC-VDZP/ozone_163.75/GMJ_RHS_C.csv

>>> COPY /tmp/ozone_163.75/GMJ_IVECW_C.csv /home/grierjones/DDCASPT2/ozone/ANO-RCC-VDZP/ozone_163.75/GMJ_IVECW_C.csv

>>> COPY /tmp/ozone_163.75/GMJ_IVECX_C.csv /home/grierjones/DDCASPT2/ozone/ANO-RCC-VDZP/ozone_163.75/GMJ_IVECX_C.csv

>>> COPY /tmp/ozone_163.75/GMJ_IVECC2_C.csv /home/grierjones/DDCASPT2/ozone/ANO-RCC-VDZP/ozone_163.75/GMJ_IVECC2_C.csv

>>> COPY /tmp/ozone_163.75/GMJ_e2_C.csv /home/grierjones/DDCASPT2/ozone/ANO-RCC-VDZP/ozone_163.75/GMJ_e2_C.csv

>>> END FOREACH

>>> EXPORT i = D

>>> IF (-FILE GMJ_e2_$i.csv)

>>> COPY /tmp/ozone_163.75/GMJ_RHS_D.csv /home/grierjones/DDCASPT2/ozone/ANO-RCC-VDZP/ozone_163.75/GMJ_RHS_D.csv

>>> COPY /tmp/ozone_163.75/GMJ_IVECW_D.csv /home/grierjones/DDCASPT2/ozone/ANO-RCC-VDZP/ozone_163.75/GMJ_IVECW_D.csv

>>> COPY /tmp/ozone_163.75/GMJ_IVECX_D.csv /home/grierjones/DDCASPT2/ozone/ANO-RCC-VDZP/ozone_163.75/GMJ_IVECX_D.csv

>>> COPY /tmp/ozone_163.75/GMJ_IVECC2_D.csv /home/grierjones/DDCASPT2/ozone/ANO-RCC-VDZP/ozone_163.75/GMJ_IVECC2_D.csv

>>> COPY /tmp/ozone_163.75/GMJ_e2_D.csv /home/grierjones/DDCASPT2/ozone/ANO-RCC-VDZP/ozone_163.75/GMJ_e2_D.csv

>>> END FOREACH

.########################.
.# Non-zero return code #.
.########################.

    Timing: Wall=3.62 User=2.65 System=0.96
********************************************
*** WorkDir at /tmp/ozone_163.75 cleaned ***
********************************************
