[Molden Format]
[N_Atoms]
                     2
[Atoms] (AU)
H1          1      1           0.00000000      0.00000000      0.00000000
O2          2      8           0.00000000      0.00000000      1.32280829
[Charge] (Mulliken)
  0.536697037480321     
 -0.536697037480334     
[GTO] (AU)
   1
   s   8
  1.886144500E+02  9.638500027E-04
  2.827659600E+01  7.491960021E-03
  6.424830000E+00  3.759541011E-02
  1.815041000E+00  1.433949804E-01
  5.910630000E-01  3.486363010E-01
  2.121490000E-01  4.382973612E-01
  7.989100000E-02  1.651066105E-01
  2.796200000E-02  2.102287006E-02
 
   2
   s  14
  1.053749500E+05  1.238600013E-04
  1.567924000E+04  5.120100053E-04
  3.534544700E+03  2.152910022E-03
  9.873651600E+02  8.528440089E-03
  3.159787500E+02  3.018049031E-02
  1.116542800E+02  9.099702095E-02
  4.269945100E+01  2.177936423E-01
  1.739559600E+01  3.686245738E-01
  7.438309000E+00  3.366707335E-01
  3.222862000E+00  9.657630101E-02
  1.253877000E+00  2.144520022E-03
  4.951550000E-01  1.194350012E-03
  1.916650000E-01  5.390200056E-04
  6.708300000E-02  2.103400022E-04
   s  14
  1.053749500E+05 -2.815000008E-05
  1.567924000E+04 -1.163000003E-04
  3.534544700E+03 -4.909200013E-04
  9.873651600E+02 -1.946160005E-03
  3.159787500E+02 -7.005300019E-03
  1.116542800E+02 -2.167814006E-02
  4.269945100E+01 -5.641213015E-02
  1.739559600E+01 -1.127053003E-01
  7.438309000E+00 -1.589119704E-01
  3.222862000E+00 -3.355083009E-02
  1.253877000E+00  3.531902810E-01
  4.951550000E-01  5.534199315E-01
  1.916650000E-01  2.301839106E-01
  6.708300000E-02  1.127267003E-02
   p   9
  2.000000000E+02  9.173000030E-04
  4.653336700E+01  7.377140024E-03
  1.462180900E+01  3.483515011E-02
  5.313064000E+00  1.144397004E-01
  2.102525000E+00  2.554966408E-01
  8.502230000E-01  3.722557412E-01
  3.375970000E-01  3.323314911E-01
  1.288920000E-01  1.400847905E-01
  4.511200000E-02  2.395784008E-02
 
[MO]
Sym=     1a  
Ene=   -20.6910
Spin= Alpha
Occup=    1.00000
   1        -0.00329690
   2         1.00033865
   3         0.00374882
   4         0.00000000
   5         0.00000000
   6        -0.00353687
Sym=     1a  
Ene=   -20.6530
Spin= Beta
Occup=    1.00000
   1        -0.00206863
   2         1.00021294
   3         0.00104489
   4         0.00000000
   5         0.00000000
   6        -0.00291927
Sym=     2a  
Ene=    -1.5400
Spin= Alpha
Occup=    1.00000
   1         0.14018270
   2        -0.01655670
   3         0.85213274
   4         0.00000000
   5         0.00000000
   6        -0.24995627
Sym=     2a  
Ene=    -1.3979
Spin= Beta
Occup=    1.00000
   1         0.21049100
   2        -0.02219806
   3         0.78361705
   4         0.00000000
   5         0.00000000
   6        -0.26509410
Sym=     3a  
Ene=    -0.7395
Spin= Alpha
Occup=    1.00000
   1        -0.30145832
   2         0.03248182
   3         0.52543089
   4         0.00000000
   5        -0.00000000
   6         0.79196161
Sym=     3a  
Ene=    -0.6879
Spin= Beta
Occup=    1.00000
   1        -0.28995407
   2         0.03195156
   3         0.57201344
   4         0.00000000
   5        -0.00000000
   6         0.77776339
Sym=     4a  
Ene=    -0.7044
Spin= Alpha
Occup=    1.00000
   1        -0.00000000
   2         0.00000000
   3        -0.00000000
   4         0.94467012
   5        -0.32802190
   6        -0.00000000
Sym=     4a  
Ene=    -0.5828
Spin= Beta
Occup=    1.00000
   1        -0.00000000
   2         0.00000000
   3         0.00000000
   4         0.32802190
   5         0.94467012
   6        -0.00000000
Sym=     5a  
Ene=    -0.6252
Spin= Alpha
Occup=    1.00000
   1        -0.00000000
   2         0.00000000
   3         0.00000000
   4         0.32802190
   5         0.94467012
   6        -0.00000000
Sym=     5a  
Ene=     0.0963
Spin= Beta
Occup=    0.00000
   1        -0.00000000
   2         0.00000000
   3         0.00000000
   4         0.94467012
   5        -0.32802190
   6        -0.00000000
Sym=     6a  
Ene=     0.7487
Spin= Alpha
Occup=    0.00000
   1         1.70451305
   2        -0.17541063
   3        -1.16093511
   4         0.00000000
   5         0.00000000
   6         0.97130961
Sym=     6a  
Ene=     0.7863
Spin= Beta
Occup=    0.00000
   1         1.69927038
   2        -0.17560158
   3        -1.18690187
   4         0.00000000
   5         0.00000000
   6         0.97874251
