[Molden Format]
[N_Atoms]
                     2
[Atoms] (AU)
N1          1      7           0.00000000      0.00000000      0.00000000
N2          2      7           0.00000000      0.00000000      3.02356180
[Charge] (Mulliken)
  0.999999999727845     
   1.00000000027215     
[GTO] (AU)
   1
   s  14
  7.476171500E+04  1.182599996E-04
  1.112365400E+04  5.172899983E-04
  2.512685700E+03  2.266659992E-03
  7.037772900E+02  9.145289970E-03
  2.254787900E+02  3.239342989E-02
  7.961581000E+01  9.770792967E-02
  3.023728300E+01  2.317036792E-01
  1.226362200E+01  3.768898887E-01
  5.265086000E+00  3.177420689E-01
  2.333471000E+00  8.211308973E-02
  9.018560000E-01  3.312089989E-03
  3.583360000E-01  3.720819988E-03
  1.410930000E-01  3.165419989E-03
  4.938300000E-02  4.595799985E-04
   s  14
  7.476171500E+04 -2.707000010E-05
  1.112365400E+04 -1.183700004E-04
  2.512685700E+03 -5.203800020E-04
  7.037772900E+02 -2.102930008E-03
  2.254787900E+02 -7.568200028E-03
  7.961581000E+01 -2.346767009E-02
  3.023728300E+01 -6.042901023E-02
  1.226362200E+01 -1.170549104E-01
  5.265086000E+00 -1.555321506E-01
  2.333471000E+00 -2.468935009E-02
  9.018560000E-01  3.625054514E-01
  3.583360000E-01  5.550845021E-01
  1.410930000E-01  2.148376908E-01
  4.938300000E-02  8.983850034E-03
   p   9
  1.266665700E+02  1.233630000E-03
  2.983738900E+01  9.493409996E-03
  9.394038000E+00  4.293961998E-02
  3.405104000E+00  1.362925399E-01
  1.350000000E+00  2.921362499E-01
  5.576960000E-01  3.887887598E-01
  2.324490000E-01  2.946801399E-01
  9.426400000E-02  8.012875997E-02
  3.299200000E-02  5.405199998E-04
 
   2
   s  14
  7.476171500E+04  1.182599996E-04
  1.112365400E+04  5.172899983E-04
  2.512685700E+03  2.266659992E-03
  7.037772900E+02  9.145289970E-03
  2.254787900E+02  3.239342989E-02
  7.961581000E+01  9.770792967E-02
  3.023728300E+01  2.317036792E-01
  1.226362200E+01  3.768898887E-01
  5.265086000E+00  3.177420689E-01
  2.333471000E+00  8.211308973E-02
  9.018560000E-01  3.312089989E-03
  3.583360000E-01  3.720819988E-03
  1.410930000E-01  3.165419989E-03
  4.938300000E-02  4.595799985E-04
   s  14
  7.476171500E+04 -2.707000010E-05
  1.112365400E+04 -1.183700004E-04
  2.512685700E+03 -5.203800020E-04
  7.037772900E+02 -2.102930008E-03
  2.254787900E+02 -7.568200028E-03
  7.961581000E+01 -2.346767009E-02
  3.023728300E+01 -6.042901023E-02
  1.226362200E+01 -1.170549104E-01
  5.265086000E+00 -1.555321506E-01
  2.333471000E+00 -2.468935009E-02
  9.018560000E-01  3.625054514E-01
  3.583360000E-01  5.550845021E-01
  1.410930000E-01  2.148376908E-01
  4.938300000E-02  8.983850034E-03
   p   9
  1.266665700E+02  1.233630000E-03
  2.983738900E+01  9.493409996E-03
  9.394038000E+00  4.293961998E-02
  3.405104000E+00  1.362925399E-01
  1.350000000E+00  2.921362499E-01
  5.576960000E-01  3.887887598E-01
  2.324490000E-01  2.946801399E-01
  9.426400000E-02  8.012875997E-02
  3.299200000E-02  5.405199998E-04
 
[MO]
Sym=     1a  
Ene=   -16.9290
Spin= Alpha
Occup=    2.00000
   1         0.70703669
   2        -0.00568495
   3         0.00000000
   4        -0.00000000
   5         0.00007794
   6         0.70703726
   7        -0.00568495
   8        -0.00000000
   9        -0.00000000
  10        -0.00007794
Sym=     2a  
Ene=   -16.9290
Spin= Alpha
Occup=    2.00000
   1        -0.70705421
   2         0.00903230
   3         0.00000000
   4        -0.00000000
   5        -0.00038227
   6         0.70705364
   7        -0.00903229
   8         0.00000000
   9        -0.00000000
  10        -0.00038227
Sym=     3a  
Ene=    -2.0543
Spin= Alpha
Occup=    2.00000
   1         0.00928482
   2        -0.59113381
   3        -0.00000000
   4         0.00000000
   5        -0.14103979
   6         0.00928482
   7        -0.59113381
   8         0.00000000
   9        -0.00000000
  10         0.14103979
Sym=     4a  
Ene=    -1.3279
Spin= Alpha
Occup=    2.00000
   1         0.00000000
   2         0.00000000
   3         0.12459361
   4         0.64961702
   5        -0.00000000
   6         0.00000000
   7        -0.00000000
   8         0.12459361
   9         0.64961702
  10         0.00000000
Sym=     5a  
Ene=    -1.3279
Spin= Alpha
Occup=    2.00000
   1        -0.00000000
   2        -0.00000000
   3        -0.64961702
   4         0.12459361
   5         0.00000000
   6        -0.00000000
   7        -0.00000000
   8        -0.64961702
   9         0.12459361
  10        -0.00000000
Sym=     6a  
Ene=    -1.0109
Spin= Alpha
Occup=    0.04703
   1         0.01853192
   2         0.28588040
   3        -0.00000000
   4        -0.00000000
   5        -0.63477422
   6         0.01853192
   7         0.28588040
   8        -0.00000000
   9        -0.00000000
  10         0.63477422
Sym=     7a  
Ene=    -0.0727
Spin= Alpha
Occup=    1.95297
   1        -0.02083363
   2        -0.78939730
   3         0.00000000
   4         0.00000000
   5         0.03537283
   6         0.02083363
   7         0.78939730
   8        -0.00000000
   9         0.00000000
  10         0.03537283
Sym=     8a  
Ene=    -0.9045
Spin= Alpha
Occup=    0.00000
   1        -0.00000000
   2        -0.00000000
   3         0.71881511
   4         0.25805471
   5        -0.00000000
   6         0.00000000
   7        -0.00000000
   8        -0.71881511
   9        -0.25805471
  10        -0.00000000
Sym=     9a  
Ene=    -0.9045
Spin= Alpha
Occup=    0.00000
   1         0.00000000
   2         0.00000000
   3         0.25805471
   4        -0.71881511
   5         0.00000000
   6        -0.00000000
   7        -0.00000000
   8        -0.25805471
   9         0.71881511
  10         0.00000000
Sym=    10a  
Ene=    -0.5984
Spin= Alpha
Occup=    0.00000
   1         0.03706888
   2         0.35615429
   3         0.00000000
   4         0.00000000
   5         0.88028076
   6        -0.03706888
   7        -0.35615429
   8        -0.00000000
   9        -0.00000000
  10         0.88028076
