[Molden Format]
[N_Atoms]
                     2
[Atoms] (AU)
N1          1      7           0.00000000      0.00000000      0.00000000
N2          2      7           0.00000000      0.00000000      3.02356180
[Charge] (Mulliken)
 -1.566258234220186E-010
  1.566160534594019E-010
[GTO] (AU)
   1
   s  14
  7.476171500E+04  1.182599996E-04
  1.112365400E+04  5.172899983E-04
  2.512685700E+03  2.266659992E-03
  7.037772900E+02  9.145289970E-03
  2.254787900E+02  3.239342989E-02
  7.961581000E+01  9.770792967E-02
  3.023728300E+01  2.317036792E-01
  1.226362200E+01  3.768898887E-01
  5.265086000E+00  3.177420689E-01
  2.333471000E+00  8.211308973E-02
  9.018560000E-01  3.312089989E-03
  3.583360000E-01  3.720819988E-03
  1.410930000E-01  3.165419989E-03
  4.938300000E-02  4.595799985E-04
   s  14
  7.476171500E+04 -2.707000010E-05
  1.112365400E+04 -1.183700004E-04
  2.512685700E+03 -5.203800020E-04
  7.037772900E+02 -2.102930008E-03
  2.254787900E+02 -7.568200028E-03
  7.961581000E+01 -2.346767009E-02
  3.023728300E+01 -6.042901023E-02
  1.226362200E+01 -1.170549104E-01
  5.265086000E+00 -1.555321506E-01
  2.333471000E+00 -2.468935009E-02
  9.018560000E-01  3.625054514E-01
  3.583360000E-01  5.550845021E-01
  1.410930000E-01  2.148376908E-01
  4.938300000E-02  8.983850034E-03
   p   9
  1.266665700E+02  1.233630000E-03
  2.983738900E+01  9.493409996E-03
  9.394038000E+00  4.293961998E-02
  3.405104000E+00  1.362925399E-01
  1.350000000E+00  2.921362499E-01
  5.576960000E-01  3.887887598E-01
  2.324490000E-01  2.946801399E-01
  9.426400000E-02  8.012875997E-02
  3.299200000E-02  5.405199998E-04
 
   2
   s  14
  7.476171500E+04  1.182599996E-04
  1.112365400E+04  5.172899983E-04
  2.512685700E+03  2.266659992E-03
  7.037772900E+02  9.145289970E-03
  2.254787900E+02  3.239342989E-02
  7.961581000E+01  9.770792967E-02
  3.023728300E+01  2.317036792E-01
  1.226362200E+01  3.768898887E-01
  5.265086000E+00  3.177420689E-01
  2.333471000E+00  8.211308973E-02
  9.018560000E-01  3.312089989E-03
  3.583360000E-01  3.720819988E-03
  1.410930000E-01  3.165419989E-03
  4.938300000E-02  4.595799985E-04
   s  14
  7.476171500E+04 -2.707000010E-05
  1.112365400E+04 -1.183700004E-04
  2.512685700E+03 -5.203800020E-04
  7.037772900E+02 -2.102930008E-03
  2.254787900E+02 -7.568200028E-03
  7.961581000E+01 -2.346767009E-02
  3.023728300E+01 -6.042901023E-02
  1.226362200E+01 -1.170549104E-01
  5.265086000E+00 -1.555321506E-01
  2.333471000E+00 -2.468935009E-02
  9.018560000E-01  3.625054514E-01
  3.583360000E-01  5.550845021E-01
  1.410930000E-01  2.148376908E-01
  4.938300000E-02  8.983850034E-03
   p   9
  1.266665700E+02  1.233630000E-03
  2.983738900E+01  9.493409996E-03
  9.394038000E+00  4.293961998E-02
  3.405104000E+00  1.362925399E-01
  1.350000000E+00  2.921362499E-01
  5.576960000E-01  3.887887598E-01
  2.324490000E-01  2.946801399E-01
  9.426400000E-02  8.012875997E-02
  3.299200000E-02  5.405199998E-04
 
[MO]
Sym=     1a  
Ene=   -15.6960
Spin= Alpha
Occup=    1.00000
   1         0.70700492
   2        -0.00467593
   3        -0.00000000
   4        -0.00000000
   5         0.00076633
   6         0.70700484
   7        -0.00467593
   8         0.00000000
   9        -0.00000000
  10        -0.00076633
Sym=     1a  
Ene=   -15.6960
Spin= Beta
Occup=    1.00000
   1         0.70700492
   2        -0.00467593
   3        -0.00000000
   4        -0.00000000
   5         0.00076633
   6         0.70700484
   7        -0.00467593
   8         0.00000000
   9        -0.00000000
  10        -0.00076633
Sym=     2a  
Ene=   -15.6960
Spin= Alpha
Occup=    1.00000
   1        -0.70722430
   2         0.00343330
   3        -0.00000000
   4        -0.00000000
   5        -0.00136647
   6         0.70722438
   7        -0.00343330
   8         0.00000000
   9        -0.00000000
  10        -0.00136647
Sym=     2a  
Ene=   -15.6960
Spin= Beta
Occup=    1.00000
   1        -0.70722430
   2         0.00343330
   3        -0.00000000
   4        -0.00000000
   5        -0.00136647
   6         0.70722438
   7        -0.00343330
   8         0.00000000
   9        -0.00000000
  10        -0.00136647
Sym=     3a  
Ene=    -1.1651
Spin= Alpha
Occup=    1.00000
   1        -0.01048244
   2         0.59450842
   3         0.00000000
   4        -0.00000000
   5         0.13346582
   6        -0.01048244
   7         0.59450842
   8        -0.00000000
   9         0.00000000
  10        -0.13346582
Sym=     3a  
Ene=    -1.1651
Spin= Beta
Occup=    1.00000
   1        -0.01048244
   2         0.59450842
   3         0.00000000
   4        -0.00000000
   5         0.13346582
   6        -0.01048244
   7         0.59450842
   8        -0.00000000
   9         0.00000000
  10        -0.13346582
Sym=     4a  
Ene=    -0.8649
Spin= Alpha
Occup=    1.00000
   1        -0.01183492
   2        -0.74130020
   3        -0.00000000
   4        -0.00000000
   5         0.14016110
   6         0.01183492
   7         0.74130020
   8        -0.00000000
   9         0.00000000
  10         0.14016110
Sym=     4a  
Ene=    -0.8649
Spin= Beta
Occup=    1.00000
   1        -0.01183492
   2        -0.74130020
   3        -0.00000000
   4        -0.00000000
   5         0.14016110
   6         0.01183492
   7         0.74130020
   8        -0.00000000
   9         0.00000000
  10         0.14016110
Sym=     5a  
Ene=    -0.5034
Spin= Alpha
Occup=    1.00000
   1         0.01910840
   2         0.27881354
   3        -0.00000000
   4        -0.00000000
   5        -0.63640932
   6         0.01910840
   7         0.27881354
   8        -0.00000000
   9        -0.00000000
  10         0.63640932
Sym=     5a  
Ene=    -0.5034
Spin= Beta
Occup=    1.00000
   1         0.01910840
   2         0.27881354
   3        -0.00000000
   4        -0.00000000
   5        -0.63640932
   6         0.01910840
   7         0.27881354
   8        -0.00000000
   9        -0.00000000
  10         0.63640932
Sym=     6a  
Ene=    -0.4336
Spin= Alpha
Occup=    1.00000
   1         0.00000000
   2         0.00000000
   3         0.14119876
   4         0.64621107
   5        -0.00000000
   6         0.00000000
   7         0.00000000
   8         0.14119876
   9         0.64621107
  10         0.00000000
Sym=     6a  
Ene=    -0.4336
Spin= Beta
Occup=    1.00000
   1         0.00000000
   2         0.00000000
   3         0.14119876
   4         0.64621107
   5        -0.00000000
   6         0.00000000
   7         0.00000000
   8         0.14119876
   9         0.64621107
  10         0.00000000
Sym=     7a  
Ene=    -0.4336
Spin= Alpha
Occup=    1.00000
   1         0.00000000
   2         0.00000000
   3         0.64621107
   4        -0.14119876
   5        -0.00000000
   6         0.00000000
   7         0.00000000
   8         0.64621107
   9        -0.14119876
  10         0.00000000
Sym=     7a  
Ene=    -0.4336
Spin= Beta
Occup=    1.00000
   1         0.00000000
   2         0.00000000
   3         0.64621107
   4        -0.14119876
   5        -0.00000000
   6         0.00000000
   7         0.00000000
   8         0.64621107
   9        -0.14119876
  10         0.00000000
Sym=     8a  
Ene=     0.0276
Spin= Alpha
Occup=    0.00000
   1         0.00000000
   2         0.00000000
   3        -0.71211598
   4        -0.27600405
   5         0.00000000
   6        -0.00000000
   7        -0.00000000
   8         0.71211598
   9         0.27600405
  10         0.00000000
Sym=     8a  
Ene=     0.0276
Spin= Beta
Occup=    0.00000
   1         0.00000000
   2         0.00000000
   3        -0.71211598
   4        -0.27600405
   5         0.00000000
   6        -0.00000000
   7        -0.00000000
   8         0.71211598
   9         0.27600405
  10         0.00000000
Sym=     9a  
Ene=     0.0276
Spin= Alpha
Occup=    0.00000
   1         0.00000000
   2         0.00000000
   3         0.27600405
   4        -0.71211598
   5         0.00000000
   6        -0.00000000
   7        -0.00000000
   8        -0.27600405
   9         0.71211598
  10        -0.00000000
Sym=     9a  
Ene=     0.0276
Spin= Beta
Occup=    0.00000
   1         0.00000000
   2         0.00000000
   3         0.27600405
   4        -0.71211598
   5         0.00000000
   6        -0.00000000
   7        -0.00000000
   8        -0.27600405
   9         0.71211598
  10        -0.00000000
Sym=    10a  
Ene=     0.2952
Spin= Alpha
Occup=    0.00000
   1         0.03777640
   2         0.44781444
   3         0.00000000
   4         0.00000000
   5         0.86976928
   6        -0.03777640
   7        -0.44781444
   8        -0.00000000
   9        -0.00000000
  10         0.86976928
Sym=    10a  
Ene=     0.2952
Spin= Beta
Occup=    0.00000
   1         0.03777640
   2         0.44781444
   3         0.00000000
   4         0.00000000
   5         0.86976928
   6        -0.03777640
   7        -0.44781444
   8        -0.00000000
   9        -0.00000000
  10         0.86976928
