[Molden Format]
[N_Atoms]
                     2
[Atoms] (AU)
N1          1      7           0.00000000      0.00000000      0.00000000
O2          2      8           0.00000000      0.00000000      1.13383567
[Charge] (Mulliken)
  0.399514291605209     
 -0.399514291605232     
[GTO] (AU)
   1
   s  14
  7.476171500E+04  1.182599996E-04
  1.112365400E+04  5.172899983E-04
  2.512685700E+03  2.266659992E-03
  7.037772900E+02  9.145289970E-03
  2.254787900E+02  3.239342989E-02
  7.961581000E+01  9.770792967E-02
  3.023728300E+01  2.317036792E-01
  1.226362200E+01  3.768898887E-01
  5.265086000E+00  3.177420689E-01
  2.333471000E+00  8.211308973E-02
  9.018560000E-01  3.312089989E-03
  3.583360000E-01  3.720819988E-03
  1.410930000E-01  3.165419989E-03
  4.938300000E-02  4.595799985E-04
   s  14
  7.476171500E+04 -2.707000010E-05
  1.112365400E+04 -1.183700004E-04
  2.512685700E+03 -5.203800020E-04
  7.037772900E+02 -2.102930008E-03
  2.254787900E+02 -7.568200028E-03
  7.961581000E+01 -2.346767009E-02
  3.023728300E+01 -6.042901023E-02
  1.226362200E+01 -1.170549104E-01
  5.265086000E+00 -1.555321506E-01
  2.333471000E+00 -2.468935009E-02
  9.018560000E-01  3.625054514E-01
  3.583360000E-01  5.550845021E-01
  1.410930000E-01  2.148376908E-01
  4.938300000E-02  8.983850034E-03
   p   9
  1.266665700E+02  1.233630000E-03
  2.983738900E+01  9.493409996E-03
  9.394038000E+00  4.293961998E-02
  3.405104000E+00  1.362925399E-01
  1.350000000E+00  2.921362499E-01
  5.576960000E-01  3.887887598E-01
  2.324490000E-01  2.946801399E-01
  9.426400000E-02  8.012875997E-02
  3.299200000E-02  5.405199998E-04
 
   2
   s  14
  1.053749500E+05  1.238600013E-04
  1.567924000E+04  5.120100053E-04
  3.534544700E+03  2.152910022E-03
  9.873651600E+02  8.528440089E-03
  3.159787500E+02  3.018049031E-02
  1.116542800E+02  9.099702095E-02
  4.269945100E+01  2.177936423E-01
  1.739559600E+01  3.686245738E-01
  7.438309000E+00  3.366707335E-01
  3.222862000E+00  9.657630101E-02
  1.253877000E+00  2.144520022E-03
  4.951550000E-01  1.194350012E-03
  1.916650000E-01  5.390200056E-04
  6.708300000E-02  2.103400022E-04
   s  14
  1.053749500E+05 -2.815000008E-05
  1.567924000E+04 -1.163000003E-04
  3.534544700E+03 -4.909200013E-04
  9.873651600E+02 -1.946160005E-03
  3.159787500E+02 -7.005300019E-03
  1.116542800E+02 -2.167814006E-02
  4.269945100E+01 -5.641213015E-02
  1.739559600E+01 -1.127053003E-01
  7.438309000E+00 -1.589119704E-01
  3.222862000E+00 -3.355083009E-02
  1.253877000E+00  3.531902810E-01
  4.951550000E-01  5.534199315E-01
  1.916650000E-01  2.301839106E-01
  6.708300000E-02  1.127267003E-02
   p   9
  2.000000000E+02  9.173000030E-04
  4.653336700E+01  7.377140024E-03
  1.462180900E+01  3.483515011E-02
  5.313064000E+00  1.144397004E-01
  2.102525000E+00  2.554966408E-01
  8.502230000E-01  3.722557412E-01
  3.375970000E-01  3.323314911E-01
  1.288920000E-01  1.400847905E-01
  4.511200000E-02  2.395784008E-02
 
[MO]
Sym=     1a  
Ene=   -21.5120
Spin= Alpha
Occup=    1.00000
   1         0.00513041
   2        -0.01872589
   3        -0.00000000
   4        -0.00000000
   5        -0.00318888
   6         1.00317252
   7         0.01874799
   8        -0.00000000
   9         0.00000000
  10        -0.01657290
Sym=     1a  
Ene=   -21.4810
Spin= Beta
Occup=    1.00000
   1         0.00633948
   2        -0.01582269
   3        -0.00000000
   4        -0.00000000
   5        -0.00186513
   6         1.00245138
   7         0.01488389
   8        -0.00000000
   9         0.00000000
  10        -0.01570748
Sym=     2a  
Ene=   -16.4610
Spin= Alpha
Occup=    1.00000
   1         0.99875875
   2        -0.00036955
   3        -0.00000000
   4         0.00000000
   5         0.01747818
   6        -0.03015488
   7        -0.00726298
   8         0.00000000
   9        -0.00000000
  10        -0.00957147
Sym=     2a  
Ene=   -16.4300
Spin= Beta
Occup=    1.00000
   1         0.99812897
   2        -0.00387900
   3        -0.00000000
   4         0.00000000
   5         0.01677536
   6        -0.02976692
   7        -0.00471302
   8         0.00000000
   9        -0.00000000
  10        -0.01015135
Sym=     3a  
Ene=    -2.3129
Spin= Alpha
Occup=    1.00000
   1        -0.27100942
   2         0.02371342
   3        -0.00000000
   4         0.00000000
   5         0.31941645
   6        -0.07604592
   7         0.69034110
   8        -0.00000000
   9        -0.00000000
  10        -0.53822101
Sym=     3a  
Ene=    -2.2775
Spin= Beta
Occup=    1.00000
   1        -0.27128016
   2         0.02113562
   3        -0.00000000
   4         0.00000000
   5         0.33411306
   6        -0.07832847
   7         0.67522464
   8        -0.00000000
   9        -0.00000000
  10        -0.55139052
Sym=     4a  
Ene=    -1.3698
Spin= Alpha
Occup=    1.00000
   1        -0.00000000
   2        -0.00000000
   3         0.29596587
   4         0.31039175
   5         0.00000000
   6         0.00000000
   7         0.00000000
   8         0.46365263
   9         0.48625184
  10        -0.00000000
Sym=     4a  
Ene=    -1.2686
Spin= Beta
Occup=    1.00000
   1         0.00000000
   2         0.00000000
   3        -0.31754391
   4         0.30278563
   5        -0.00000000
   6        -0.00000000
   7        -0.00000000
   8        -0.47975105
   9         0.45745397
  10        -0.00000000
Sym=     5a  
Ene=    -1.2858
Spin= Alpha
Occup=    1.00000
   1         0.00000000
   2         0.00000000
   3        -0.31869241
   4         0.30388075
   5        -0.00000000
   6        -0.00000000
   7        -0.00000000
   8        -0.47870241
   9         0.45645407
  10        -0.00000000
Sym=     5a  
Ene=    -1.2200
Spin= Beta
Occup=    1.00000
   1        -0.00000000
   2        -0.00000000
   3         0.30081924
   4         0.31548167
   5         0.00000000
   6         0.00000000
   7         0.00000000
   8         0.45924624
   9         0.48163068
  10        -0.00000000
Sym=     6a  
Ene=    -1.0609
Spin= Alpha
Occup=    1.00000
   1         0.12135125
   2         0.04473116
   3         0.00000000
   4        -0.00000000
   5        -0.30703732
   6         0.06460595
   7         0.64040800
   8        -0.00000000
   9         0.00000000
  10         0.88369588
Sym=     6a  
Ene=    -1.0089
Spin= Beta
Occup=    1.00000
   1         0.13496546
   2         0.15489036
   3         0.00000000
   4        -0.00000000
   5        -0.33454672
   6         0.05545762
   7         0.59069542
   8        -0.00000000
   9         0.00000000
  10         0.89905931
Sym=     7a  
Ene=    -0.8727
Spin= Alpha
Occup=    1.00000
   1        -0.10987160
   2        -0.93519936
   3         0.00000000
   4         0.00000000
   5         0.62566642
   6        -0.00286361
   7         0.30572531
   8        -0.00000000
   9        -0.00000000
  10        -0.17012362
Sym=     7a  
Ene=    -0.7908
Spin= Beta
Occup=    1.00000
   1        -0.08480954
   2        -0.88331529
   3         0.00000000
   4         0.00000000
   5         0.62102133
   6        -0.00860986
   7         0.30505759
   8        -0.00000000
   9        -0.00000000
  10        -0.07190422
Sym=     8a  
Ene=    -0.1775
Spin= Alpha
Occup=    1.00000
   1        -0.00000000
   2        -0.00000000
   3        -0.84057471
   4        -0.88154575
   5         0.00000000
   6        -0.00000000
   7         0.00000000
   8         0.76104394
   9         0.79813851
  10        -0.00000000
Sym=     8a  
Ene=     0.5068
Spin= Beta
Occup=    0.00000
   1         0.00000000
   2        -0.00000000
   3        -0.87899477
   4         0.83814229
   5         0.00000000
   6         0.00000000
   7         0.00000000
   8         0.80206289
   9        -0.76478593
  10         0.00000000
Sym=     9a  
Ene=     0.4766
Spin= Alpha
Occup=    0.00000
   1         0.00000000
   2        -0.00000000
   3        -0.87857902
   4         0.83774586
   5        -0.00000000
   6         0.00000000
   7         0.00000000
   8         0.80268919
   9        -0.76538312
  10         0.00000000
Sym=     9a  
Ene=     0.5647
Spin= Beta
Occup=    0.00000
   1        -0.00000000
   2        -0.00000000
   3        -0.83885007
   4        -0.87973704
   5         0.00000000
   6        -0.00000000
   7         0.00000000
   8         0.76371103
   9         0.80093560
  10        -0.00000000
Sym=    10a  
Ene=     2.8636
Spin= Alpha
Occup=    0.00000
   1         1.22115614
   2         3.98179712
   3        -0.00000000
   4         0.00000000
   5         2.28843566
   6        -1.08064959
   7        -4.23389956
   8         0.00000000
   9         0.00000000
  10         1.71896187
Sym=    10a  
Ene=     2.9139
Spin= Beta
Occup=    0.00000
   1         1.22217380
   2         3.99089853
   3        -0.00000000
   4         0.00000000
   5         2.28374807
   6        -1.08164375
   7        -4.24362082
   8         0.00000000
   9         0.00000000
  10         1.71373258
