   This run of MOLCAS is using the pymolcas driver

                             OPE
                             OPE          NMOL  CASOP  ENMOLC A   SO
                 OPE        NMOLC        AS  OP EN  MO LC     AS  OP
                OPENM       OL CA        SO  PE NM  OL CA     SOP EN
                OP EN      MO   LC       AS  OP ENMOL  CASO   PENMOL
                OP  EN     MO   LC       AS  OP EN     MO     LC ASO
               OP   E  NMOL  C  AS       OP  EN MO     LC     AS  OP
               OP  E   NMO   LC AS        OPEN  MO     LCASOP EN   M
               O  PEN   MO  LCA  SO
            OPE   NMO   L   CAS    OP
        OPENMOL  CASOP     ENMOL   CASOPE
     OPENMOLCA   SOPENMOLCASOPEN   MOLCASOPE
    OPENMOLCAS   OP           EN   MOL    CAS
    OPENMOLCAS       OP  ENM        O     LCA
    OPENMOLCAS    OPEN  MOLCASO     P  E  NMO
    OPENMOLCAS     OP               E  N  MOL
    OPENMOLCA   SO           PENM   O  L  CAS    OPEN    MO    LCAS
    OPENMOLCA   SOP           ENM   O  L  CAS   OP  EN  MOLC  AS   O
    OPENMOLCA   SOPE           NM      O  LCA   S      OP  EN MO
    OPENMOLC                AS         O  PEN   M      OL  CA  SOPE
    OPENMO        LCASOPE  NMOL        C  ASO   P      ENMOLC     AS
    OPE     NMO      LCA  SO     P     E   NM   OL  CA SO  PE N   MO
          OPENMOLCA            SOPE   NMO        LCAS  O    P  ENMO
     OPENMOLCASOPENMOLCASOPENMOLCASOPENMOLCA
        OPENMOLCASOPENMOLCASOPENMOLCASOPE
            OPENMOLCASOPENMOLCASOPENM
               OPENMOLCASOPENMOLCA        version: ea724fe96-dirty
                   OPENMOLCASO
                       OPE                tag:

 OpenMolcas is free software; you can redistribute it and/or modify it
 under the terms of the GNU Lesser General Public License version 2.1.
 OpenMolcas is distributed in the hope that it will be useful, but it
 is provided "as is" and without any express or implied warranties.
 For more details see the full text of the license in the file
 LICENSE or in <http://www.gnu.org/licenses/>.

                 Copyright (C) The OpenMolcas Authors
           For the author list and the recommended citation,
                   consult the file CONTRIBUTORS.md

           *************************************************
           * pymolcas version py2.28                       *
           *   build c4a6d18ded8cb6cad61d2372a9abd97c      *
           *   (after the EMIL interpreter by V. Veryazov) *
           *************************************************

configuration info
------------------
C Compiler ID: Intel
C flags: -std=gnu99
Fortran Compiler ID: Intel
Fortran flags: -fpp -i8 -r8 -heap-arrays
Definitions: _MOLCAS_;_I8_;_LINUX_
Parallel: OFF (GA=OFF)


   --------------------------------------------------------------------------------
  |
  |              Project: ozone_160.25
  |       Submitted from: /home/grierjones/DDCASPT2/ozone/ANO-RCC-VTZP/ozone_160.25
  |         Scratch area: /tmp/ozone_160.25
  |      Save outputs to: /home/grierjones/DDCASPT2/ozone/ANO-RCC-VTZP/ozone_160.25
  |               Molcas: /home/grierjones/Test/build
  |
  | Scratch area is empty
  |
  |       MOLCAS_DRIVER = /usr/local/pymolcas
  | MOLCAS_KEEP_WORKDIR = NO
  |  MOLCAS_NEW_WORKDIR = YES
  |       MOLCAS_NPROCS = 1
  |        MOLCAS_PRINT = NORMAL
  |       MOLCAS_SOURCE = /home/grierjones/Test/build
  |    MOLCAS_STRUCTURE = 0
  |
   --------------------------------------------------------------------------------

++ ---------   Input file   ---------

&GATEWAY
coord=ozone_160.25.xyz
Basis = ANO-RCC-VTZP
Group = nosymm
Expert
End of Input

&SEWARD
End of Input

&SCF

>>> COPY $WorkDir/ozone_160.25.scf.h5 $CurrDir/

&RASSCF
Title= RASSCF
FileOrb
/home/grierjones/DDCASPT2/ozone/ANO-RCC-VTZP/ozone_160.00/ozone_160.00.RasOrb
NACTEL
4 0 0
Inactive
10
RAS2
3
Symmetry
1
Spin
1
orblisting
all
ITERation
300 200

>>> COPY $WorkDir/ozone_160.25.rasscf.h5 $CurrDir/

>>> COPY $WorkDir/GMJ_Fock_MO.csv $CurrDir/ozone_160.25.GMJ_Fock_MO.csv

>>> COPY $WorkDir/GMJ_PT2_Fock_MO.csv $CurrDir/ozone_160.25.GMJ_PT2_Fock_MO.csv

&MOTRA
Frozen=0
LUMORB

>>> COPY $WorkDir/GMJ_one_int_indx.csv $CurrDir/ozone_160.25.GMJ_one_int_indx.csv

>>> COPY $WorkDir/GMJ_one_int.csv $CurrDir/ozone_160.25.GMJ_one_int.csv

>>> COPY $WorkDir/GMJ_two_int_indx.csv $CurrDir/ozone_160.25.GMJ_two_int_indx.csv

>>> COPY $WorkDir/GMJ_two_int.csv $CurrDir/ozone_160.25.GMJ_two_int.csv

&CASPT2
Frozen
0
MAXITER
50

>>> FOREACH i IN (B,E,F,G,H)

  >>> FOREACH j IN (P,M)

    >>> IF (-FILE GMJ_e2_${i}_${j}.csv)

      >>> COPY $WorkDir/GMJ_RHS_${i}_${j}.csv $CurrDir/GMJ_RHS_${i}_${j}.csv

      >>> COPY $WorkDir/GMJ_IVECW_${i}_${j}.csv $CurrDir/GMJ_IVECW_${i}_${j}.csv

      >>> COPY $WorkDir/GMJ_IVECX_${i}_${j}.csv $CurrDir/GMJ_IVECX_${i}_${j}.csv

      >>> COPY $WorkDir/GMJ_IVECC2_${i}_${j}.csv $CurrDir/GMJ_IVECC2_${i}_${j}.csv

      >>> COPY $WorkDir/GMJ_e2_${i}_${j}.csv $CurrDir/GMJ_e2_${i}_${j}.csv

    >>> END IF

  >>> END FOREACH

>>> END FOREACH

>>> FOREACH i IN (A,C,D)

  >>> IF (-FILE GMJ_e2_$i.csv)

    >>> COPY $WorkDir/GMJ_RHS_$i.csv $CurrDir/GMJ_RHS_$i.csv

    >>> COPY $WorkDir/GMJ_IVECW_$i.csv $CurrDir/GMJ_IVECW_$i.csv

    >>> COPY $WorkDir/GMJ_IVECX_$i.csv $CurrDir/GMJ_IVECX_$i.csv

    >>> COPY $WorkDir/GMJ_IVECC2_$i.csv $CurrDir/GMJ_IVECC2_$i.csv

    >>> COPY $WorkDir/GMJ_e2_$i.csv $CurrDir/GMJ_e2_$i.csv

  >>> END IF

>>> END FOREACH

-- ----------------------------------

--- Start Module: gateway at Thu Jan  2 10:51:47 2025 ---
 
()()()()()()()()()()()()()()()()()()()()()()()()()()()()()()()()()()()()()()()()()()()()()()()()()()

                                              &GATEWAY

                                   only a single process is used
                       available to each process: 2.0 GB of memory, 1 thread?
()()()()()()()()()()()()()()()()()()()()()()()()()()()()()()()()()()()()()()()()()()()()()()()()()()
 
 ###############################################################################
 ###############################################################################
 ###                                                                         ###
 ###                                                                         ###
 ###                                                                         ###
 ###    WARNING: EXPERT option is ON!                                        ###
 ###                                                                         ###
 ###                                                                         ###
 ###############################################################################
 ###############################################################################
 
++    Symmetry information:
      ---------------------
 
                    Character Table for C1 
 
                             E  
                    a        1  x, y, xy, Rz, z, xz, Ry, yz, Rx, I
--
 
 
++    Basis set information:
      ----------------------
 
 
      Basis set label: O.ANO-RCC...4S3P2D1F.
 
      Electronic valence basis set:
      ------------------
      Associated Effective Charge   8.000000 au
      Associated Actual Charge      8.000000 au
      Nuclear Model: Point charge
 
      Shell  nPrim  nBasis  Cartesian Spherical Contaminant
         s      14       4        X                  
         p       9       3        X                  
         d       4       2                 X         
         f       3       1                 X         
--
 
 
++    Molecular structure info:
      -------------------------
 
                    ************************************************ 
                    **** Cartesian Coordinates / Bohr, Angstrom **** 
                    ************************************************ 
 
     Center  Label                x              y              z                     x              y              z
        1      O1               0.414183       2.379288       0.000000              0.219176       1.259065       0.000000
        2      O2               0.000000       0.000000       0.000000              0.000000       0.000000       0.000000
        3      O3               0.414183      -2.379288       0.000000              0.219176      -1.259065       0.000000
 
                    *************************************** 
                    *    InterNuclear Distances / Bohr    * 
                    *************************************** 
 
               1 O1            2 O2            3 O3    
    1 O1       0.000000
    2 O2       2.415069        0.000000
    3 O3       4.758576        2.415069        0.000000
 
                    ******************************************* 
                    *    InterNuclear Distances / Angstrom    * 
                    ******************************************* 
 
               1 O1            2 O2            3 O3    
    1 O1       0.000000
    2 O2       1.278000        0.000000
    3 O3       2.518130        1.278000        0.000000
 
                    ************************************** 
                    *    Valence Bond Angles / Degree    * 
                    ************************************** 
                          Atom centers                 Phi
                      1 O1       2 O2       3 O3       160.25
--
 
 
            Nuclear Potential Energy             66.44995552 au
 
 ###############################################################################
 ###############################################################################
 ###                                                                         ###
 ###                                                                         ###
 ###    There were warnings during the execution                             ###
 ###    Please, check the output with care!                                  ###
 ###                                                                         ###
 ###                                                                         ###
 ###############################################################################
 ###############################################################################
--- Stop Module: gateway at Thu Jan  2 10:51:47 2025 /rc=_RC_ALL_IS_WELL_ ---
*** files: xmldump
    saved to directory /home/grierjones/DDCASPT2/ozone/ANO-RCC-VTZP/ozone_160.25

--- Start Module: seward at Thu Jan  2 10:51:47 2025 ---
 
()()()()()()()()()()()()()()()()()()()()()()()()()()()()()()()()()()()()()()()()()()()()()()()()()()

                                              &SEWARD

                                   only a single process is used
                       available to each process: 2.0 GB of memory, 1 thread?
()()()()()()()()()()()()()()()()()()()()()()()()()()()()()()()()()()()()()()()()()()()()()()()()()()
 
 ###############################################################################
 ###############################################################################
 ###                                                                         ###
 ###                                                                         ###
 ###                                                                         ###
 ###    WARNING: EXPERT option is ON!                                        ###
 ###                                                                         ###
 ###                                                                         ###
 ###############################################################################
 ###############################################################################
               SEWARD will generate:
                  Multipole Moment integrals up to order  2
                  Kinetic Energy integrals
                  Nuclear Attraction integrals (point charge)
                  One-Electron Hamiltonian integrals
                  Velocity integrals
                  Relativistic Douglas-Kroll-Hess integrals:
                    - Parametrization         : EXP
                    - DKH order of Hamiltonian: 2
                    - DKH order of Properties : 0
                         - multipole moment operators
                         - electric potential operators
                         - contact operators
                  Atomic mean-field integrals
                  Two-Electron Repulsion integrals
 
                   Integrals are discarded if absolute value <: 0.10E-13
                   Integral cutoff threshold is set to       <: 0.10E-15
 
            Nuclear Potential Energy             66.44995552 au
 
 
      Basis set specifications :
      Symmetry species         a  
      Basis functions           90
 
 
  Input file to MOLDEN was generated!
 
 ###############################################################################
 ###############################################################################
 ###                                                                         ###
 ###                                                                         ###
 ###    There were warnings during the execution                             ###
 ###    Please, check the output with care!                                  ###
 ###                                                                         ###
 ###                                                                         ###
 ###############################################################################
 ###############################################################################
--- Stop Module: seward at Thu Jan  2 10:51:50 2025 /rc=_RC_ALL_IS_WELL_ ---
*** files: ozone_160.25.GssOrb ozone_160.25.guessorb.h5 ozone_160.25.guessorb.molden xmldump
    saved to directory /home/grierjones/DDCASPT2/ozone/ANO-RCC-VTZP/ozone_160.25
--- Module seward spent 2 seconds ---

*** symbolic link created: INPORB -> ozone_160.25.GssOrb
--- Start Module: scf at Thu Jan  2 10:51:50 2025 ---
 
()()()()()()()()()()()()()()()()()()()()()()()()()()()()()()()()()()()()()()()()()()()()()()()()()()

                                                &SCF

                                   only a single process is used
                       available to each process: 2.0 GB of memory, 1 thread?
()()()()()()()()()()()()()()()()()()()()()()()()()()()()()()()()()()()()()()()()()()()()()()()()()()
 
++    Input section:
      --------------
 
      Header of the integral files:
      
       Integrals generated by seward 4.2.0  , Thu Jan  2 10:51:47 2025
 
 
      Cartesian coordinates in Angstrom:
      -----------------------------------------------------
      No.  Label        X            Y            Z        
      -----------------------------------------------------
       1   O1         0.21917600   1.25906500   0.00000000
       2   O2         0.00000000   0.00000000   0.00000000
       3   O3         0.21917600  -1.25906500   0.00000000
      -----------------------------------------------------
      Nuclear repulsion energy =   66.44995552
--
 
++    Orbital specifications:
      -----------------------
 
      Symmetry species               1
                                     a
      Frozen orbitals                0
      Occupied orbitals             12
      Secondary orbitals            78
      Deleted orbitals               0
      Total number of orbitals      90
      Number of basis functions     90
--
 
      Molecular charge                           0.000
 
++    Optimization specifications:
      ----------------------------
 
      SCF Algorithm: Conventional
      Minimized density differences are used
      Number of density matrices in core                5
      Maximum number of NDDO SCF iterations           400
      Maximum number of HF SCF iterations             400
      Threshold for SCF energy change            0.10E-08
      Threshold for density matrix               0.10E-03
      Threshold for Fock matrix                  0.15E-03
      Threshold for linear dependence            0.10E-08
      Threshold at which DIIS is turned on       0.15E+00
      Threshold at which QNR/C2DIIS is turned on 0.75E-01
      Threshold for Norm(delta) (QNR/C2DIIS)     0.20E-04
      DIIS extrapolation of the SCF procedure
      All orbitals punched on: SCFORB
--
 
      Input vectors read from INPORB
      Orbital file label: *Guess orbitals
 
 
++ Convergence information
                                   SCF        iterations: Energy and convergence statistics
 
Iter     Tot. SCF        One-elec.       Two-elec.     Energy      Max Dij or  Max Fij      DNorm      TNorm      AccCon     Time
         Energy          Energy          Energy        Change      Delta Norm                                                in Sec.
   1  -223.925287170  -436.762902289   146.387659603   0.00E+00    0.54E+00*   0.27E+00*    0.73E+01   0.11E+03   None         0.
   2  -224.143571693  -442.776627170   152.183099961  -0.22E+00*   0.29E+00*   0.17E+00*    0.25E+01   0.11E+03   EDIIS        0.
   3  -224.382343945  -440.088744019   149.256444558  -0.24E+00*   0.19E+00*   0.76E-01*    0.74E+00   0.11E+03   EDIIS        0.
   4  -224.401014611  -441.002593817   150.151623690  -0.19E-01*   0.54E-01*   0.49E-01*    0.22E+00   0.11E+03   EDIIS        0.
   5  -224.430049142  -440.529660151   149.649655493  -0.29E-01*   0.14E-01*   0.78E-02*    0.50E-01   0.11E+03   c2DIIS       0.
   6  -224.431114001  -440.600554850   149.719485334  -0.11E-02*   0.62E-02*   0.28E-02*    0.12E-01   0.11E+03   QNRc2DIIS    0.
   7  -224.431231958  -440.603328556   149.722141083  -0.12E-03*   0.13E-01*   0.25E-02*    0.38E-02   0.11E+03   QNRc2DIIS    0.
   8  -224.431312600  -440.595473297   149.714205181  -0.81E-04*   0.23E-02*   0.15E-02*    0.24E-02   0.11E+03   QNRc2DIIS    0.
   9  -224.431321933  -440.605693836   149.724416387  -0.93E-05*   0.13E-02*   0.63E-03*    0.82E-03   0.11E+03   QNRc2DIIS    0.
  10  -224.431325579  -440.601691007   149.720409912  -0.36E-05*   0.57E-03*   0.95E-04     0.13E-02   0.11E+03   QNRc2DIIS    0.
  11  -224.431325788  -440.603349407   149.722068103  -0.21E-06*   0.77E-04*   0.36E-04     0.56E-03   0.11E+03   QNRc2DIIS    0.
  12  -224.431325800  -440.602160506   149.720879190  -0.12E-07*   0.21E-04*   0.97E-05     0.17E-03   0.11E+03   QNRc2DIIS    0.
  13  -224.431325802  -440.602397296   149.721115978  -0.13E-08*   0.78E-05    0.25E-05     0.44E-04   0.11E+03   QNRc2DIIS    0.
  14  -224.431325802  -440.602441186   149.721159869  -0.94E-10    0.67E-06    0.23E-06     0.13E-04   0.11E+03   QNRc2DIIS    0.
 
       Convergence after 14 Macro Iterations
--
 
 *****************************************************************************************************************************
 *                                                                                                                           *
 *                                             SCF/KS-DFT Program, Final results                                             *
 *                                                                                                                           *
 *                                                                                                                           *
 *                                                                                                                           *
 *                                                       Final Results                                                       *
 *                                                                                                                           *
 *****************************************************************************************************************************
 
::    Total SCF energy                               -224.4313258017
      One-electron energy                            -440.6024411864
      Two-electron energy                             149.7211598689
      Nuclear repulsion energy                         66.4499555157
      Kinetic energy (interpolated)                   225.2131939781
      Virial theorem                                    0.9965283198
      Total spin, S(S+1)                                0.0000000000
      Total spin, S                                     0.0000000000
      Max non-diagonal density matrix element           0.0000005161
      Max non-diagonal Fock matrix element              0.0000001141
 
 
      All orbitals with orbital energies smaller than  E(LUMO)+0.5 are printed
 
++    Molecular orbitals:
      -------------------
 
      Title: SCF orbitals

      Molecular orbitals for symmetry species 1: a  
 
          Orbital            1         2         3         4         5         6         7         8         9        10    
          Energy          -20.8772  -20.7403  -20.7403   -1.7091   -1.4638   -1.0633   -0.8343   -0.7911   -0.7558   -0.6096
          Occ. No.          2.0000    2.0000    2.0000    2.0000    2.0000    2.0000    2.0000    2.0000    2.0000    2.0000
 
        1 O1     1s         0.0024   -0.7063    0.7063   -0.0127    0.0125    0.0141   -0.0046   -0.0248   -0.0000    0.0065
        2 O1     2s         0.0013    0.0059   -0.0058    0.3456   -0.5584    0.6502   -0.0996   -0.4424   -0.0000    0.0756
        3 O1     3s         0.0007    0.0042   -0.0040   -0.0092    0.0214    0.0230   -0.0064   -0.0538   -0.0000    0.0133
        4 O1     4s         0.0001    0.0009   -0.0008   -0.0003    0.0040    0.0040   -0.0013   -0.0113   -0.0000    0.0030
        5 O1     2px       -0.0002   -0.0005    0.0005   -0.0164    0.0242    0.0497    0.3263   -0.1782    0.0000   -0.6730
        6 O1     3px       -0.0003   -0.0005    0.0003    0.0073   -0.0038   -0.0088   -0.0233    0.0143    0.0000    0.0064
        7 O1     4px       -0.0002    0.0001   -0.0002    0.0017    0.0006    0.0002   -0.0007    0.0004   -0.0000    0.0054
        8 O1     2py       -0.0009   -0.0026    0.0030   -0.1152    0.0875    0.1690   -0.1354   -0.3776    0.0000    0.1887
        9 O1     3py       -0.0004   -0.0025    0.0029    0.0120   -0.0196   -0.0274    0.0116    0.0474    0.0000   -0.0048
       10 O1     4py        0.0002    0.0017   -0.0016    0.0010   -0.0034    0.0007    0.0022    0.0040   -0.0000   -0.0018
       11 O1     2pz       -0.0000   -0.0000   -0.0000    0.0000   -0.0000   -0.0000   -0.0000    0.0000    0.4179    0.0000
       12 O1     3pz        0.0000    0.0000    0.0000   -0.0000    0.0000    0.0000   -0.0000   -0.0000   -0.0149   -0.0000
       13 O1     4pz        0.0000   -0.0000   -0.0000   -0.0000   -0.0000    0.0000    0.0000    0.0000   -0.0067   -0.0000
       14 O1     3d2-       0.0000    0.0003   -0.0004    0.0050   -0.0053   -0.0056   -0.0190    0.0107   -0.0000    0.0116
       15 O1     4d2-      -0.0000    0.0002   -0.0002    0.0001   -0.0005   -0.0002   -0.0017    0.0004   -0.0000    0.0011
       16 O1     3d1-       0.0000   -0.0000   -0.0000    0.0000   -0.0000   -0.0000   -0.0000    0.0000   -0.0318   -0.0000
       17 O1     4d1-      -0.0000   -0.0000   -0.0000    0.0000    0.0000   -0.0000   -0.0000   -0.0000   -0.0056    0.0000
       18 O1     3d0       -0.0001   -0.0005    0.0006   -0.0103    0.0085    0.0069   -0.0047   -0.0149    0.0000    0.0047
       19 O1     4d0       -0.0001   -0.0004    0.0005   -0.0010    0.0007    0.0003   -0.0007   -0.0009    0.0000    0.0008
       20 O1     3d1+       0.0000   -0.0000   -0.0000   -0.0000   -0.0000    0.0000    0.0000    0.0000   -0.0046   -0.0000
       21 O1     4d1+      -0.0000   -0.0000    0.0000   -0.0000    0.0000    0.0000   -0.0000    0.0000   -0.0008   -0.0000
       22 O1     3d2+      -0.0003   -0.0012    0.0013   -0.0196    0.0145    0.0150   -0.0136   -0.0268    0.0000    0.0113
       23 O1     4d2+      -0.0001   -0.0005    0.0007   -0.0028    0.0017    0.0016   -0.0014   -0.0020    0.0000    0.0015
       24 O1     4f3-       0.0001    0.0002   -0.0002    0.0052   -0.0048   -0.0027    0.0042    0.0059   -0.0000   -0.0037
       25 O1     4f2-      -0.0000    0.0000    0.0000   -0.0000    0.0000    0.0000    0.0000   -0.0000    0.0017   -0.0000
       26 O1     4f1-       0.0000    0.0002   -0.0002    0.0034   -0.0030   -0.0019    0.0013    0.0039   -0.0000   -0.0011
       27 O1     4f0       -0.0000    0.0000    0.0000    0.0000    0.0000   -0.0000   -0.0000   -0.0000   -0.0037    0.0000
       28 O1     4f1+      -0.0000    0.0000   -0.0000    0.0005   -0.0004   -0.0004   -0.0005    0.0004    0.0000   -0.0007
       29 O1     4f2+       0.0000    0.0000   -0.0000   -0.0000    0.0000   -0.0000    0.0000   -0.0000   -0.0069   -0.0000
       30 O1     4f3+      -0.0000    0.0001   -0.0001    0.0024   -0.0023   -0.0019   -0.0063    0.0038   -0.0000    0.0049
       31 O2     1s         0.9996    0.0000   -0.0013   -0.0283   -0.0000   -0.0153   -0.0034   -0.0000    0.0000    0.0000
       32 O2     2s        -0.0025   -0.0000    0.0121    0.6240    0.0000   -0.6319   -0.0349   -0.0000    0.0000    0.0000
       33 O2     3s        -0.0021   -0.0000    0.0069   -0.0679   -0.0000   -0.0220   -0.0049   -0.0000    0.0000    0.0000
       34 O2     4s        -0.0003   -0.0000    0.0011   -0.0126   -0.0000   -0.0043   -0.0025   -0.0000    0.0000    0.0000
       35 O2     2px        0.0004   -0.0000    0.0015    0.0441    0.0000    0.0974    0.7265   -0.0000    0.0000   -0.0000
       36 O2     3px       -0.0003   -0.0000    0.0009   -0.0198   -0.0000   -0.0117   -0.0765    0.0000   -0.0000    0.0000
       37 O2     4px        0.0010    0.0000   -0.0003   -0.0038   -0.0000    0.0015   -0.0106    0.0000   -0.0000    0.0000
       38 O2     2py       -0.0000   -0.0073   -0.0000    0.0000   -0.3375   -0.0000    0.0000    0.5565    0.0000   -0.1191
       39 O2     3py       -0.0000   -0.0050   -0.0000   -0.0000    0.0645    0.0000   -0.0000   -0.0521    0.0000   -0.0040
       40 O2     4py        0.0000    0.0013    0.0000    0.0000   -0.0006    0.0000   -0.0000   -0.0114   -0.0000    0.0012
       41 O2     2pz        0.0000   -0.0000   -0.0000    0.0000    0.0000   -0.0000   -0.0000   -0.0000    0.6353   -0.0000
       42 O2     3pz       -0.0000   -0.0000   -0.0000    0.0000   -0.0000   -0.0000    0.0000   -0.0000   -0.0415    0.0000
       43 O2     4pz       -0.0000    0.0000    0.0000    0.0000    0.0000    0.0000    0.0000   -0.0000   -0.0187    0.0000
       44 O2     3d2-      -0.0000   -0.0007   -0.0000   -0.0000   -0.0195   -0.0000   -0.0000    0.0135    0.0000   -0.0428
       45 O2     4d2-      -0.0000   -0.0004   -0.0000   -0.0000   -0.0021   -0.0000    0.0000    0.0013    0.0000   -0.0069
       46 O2     3d1-       0.0000   -0.0000   -0.0000    0.0000    0.0000   -0.0000    0.0000   -0.0000   -0.0000    0.0000
       47 O2     4d1-       0.0000   -0.0000   -0.0000    0.0000   -0.0000   -0.0000   -0.0000   -0.0000   -0.0000    0.0000
       48 O2     3d0       -0.0000    0.0000   -0.0011   -0.0147   -0.0000   -0.0008   -0.0097    0.0000   -0.0000   -0.0000
       49 O2     4d0        0.0003    0.0000   -0.0006    0.0005   -0.0000    0.0007   -0.0010    0.0000   -0.0000   -0.0000
       50 O2     3d1+      -0.0000   -0.0000   -0.0000    0.0000    0.0000    0.0000   -0.0000   -0.0000    0.0160   -0.0000
       51 O2     4d1+       0.0000   -0.0000   -0.0000    0.0000    0.0000    0.0000   -0.0000   -0.0000    0.0025   -0.0000
       52 O2     3d2+       0.0005    0.0000   -0.0019   -0.0241   -0.0000   -0.0043    0.0087    0.0000   -0.0000   -0.0000
       53 O2     4d2+       0.0002    0.0000   -0.0009   -0.0011   -0.0000   -0.0001    0.0001    0.0000   -0.0000   -0.0000
       54 O2     4f3-       0.0000    0.0002    0.0000   -0.0000    0.0093    0.0000   -0.0000   -0.0090   -0.0000   -0.0038
       55 O2     4f2-      -0.0000   -0.0000   -0.0000   -0.0000   -0.0000    0.0000   -0.0000    0.0000   -0.0000    0.0000
       56 O2     4f1-       0.0000    0.0001    0.0000   -0.0000    0.0054    0.0000   -0.0000   -0.0047    0.0000    0.0008
       57 O2     4f0        0.0000    0.0000   -0.0000   -0.0000   -0.0000    0.0000    0.0000    0.0000   -0.0054    0.0000
       58 O2     4f1+       0.0000    0.0000   -0.0000   -0.0011   -0.0000    0.0002   -0.0000    0.0000    0.0000   -0.0000
       59 O2     4f2+       0.0000   -0.0000   -0.0000    0.0000    0.0000    0.0000    0.0000   -0.0000   -0.0110    0.0000
       60 O2     4f3+       0.0001    0.0000   -0.0001   -0.0059   -0.0000   -0.0008   -0.0114    0.0000    0.0000    0.0000
       61 O3     1s         0.0024    0.7063    0.7063   -0.0127   -0.0125    0.0141   -0.0046    0.0248   -0.0000   -0.0065
       62 O3     2s         0.0013   -0.0059   -0.0058    0.3456    0.5584    0.6502   -0.0996    0.4424    0.0000   -0.0756
       63 O3     3s         0.0007   -0.0042   -0.0040   -0.0092   -0.0214    0.0230   -0.0064    0.0538   -0.0000   -0.0133
       64 O3     4s         0.0001   -0.0009   -0.0008   -0.0003   -0.0040    0.0040   -0.0013    0.0113   -0.0000   -0.0030
       65 O3     2px       -0.0002    0.0005    0.0005   -0.0164   -0.0242    0.0497    0.3263    0.1782    0.0000    0.6730
       66 O3     3px       -0.0003    0.0005    0.0003    0.0073    0.0038   -0.0088   -0.0233   -0.0143    0.0000   -0.0064
       67 O3     4px       -0.0002   -0.0001   -0.0002    0.0017   -0.0006    0.0002   -0.0007   -0.0004   -0.0000   -0.0054
       68 O3     2py        0.0009   -0.0026   -0.0030    0.1152    0.0875   -0.1690    0.1354   -0.3776    0.0000    0.1887
       69 O3     3py        0.0004   -0.0025   -0.0029   -0.0120   -0.0196    0.0274   -0.0116    0.0474   -0.0000   -0.0048
       70 O3     4py       -0.0002    0.0017    0.0016   -0.0010   -0.0034   -0.0007   -0.0022    0.0040    0.0000   -0.0018
       71 O3     2pz        0.0000   -0.0000   -0.0000    0.0000    0.0000    0.0000   -0.0000   -0.0000    0.4179   -0.0000
       72 O3     3pz        0.0000   -0.0000   -0.0000   -0.0000    0.0000    0.0000    0.0000    0.0000   -0.0149    0.0000
       73 O3     4pz       -0.0000    0.0000    0.0000    0.0000    0.0000    0.0000   -0.0000    0.0000   -0.0067    0.0000
       74 O3     3d2-      -0.0000    0.0003    0.0004   -0.0050   -0.0053    0.0056    0.0190    0.0107    0.0000    0.0116
       75 O3     4d2-       0.0000    0.0002    0.0002   -0.0001   -0.0005    0.0002    0.0017    0.0004    0.0000    0.0011
       76 O3     3d1-       0.0000   -0.0000   -0.0000   -0.0000   -0.0000    0.0000   -0.0000   -0.0000    0.0318   -0.0000
       77 O3     4d1-       0.0000   -0.0000   -0.0000   -0.0000    0.0000    0.0000   -0.0000   -0.0000    0.0056   -0.0000
       78 O3     3d0       -0.0001    0.0005    0.0006   -0.0103   -0.0085    0.0069   -0.0047    0.0149    0.0000   -0.0047
       79 O3     4d0       -0.0001    0.0004    0.0005   -0.0010   -0.0007    0.0003   -0.0007    0.0009    0.0000   -0.0008
       80 O3     3d1+      -0.0000    0.0000    0.0000    0.0000    0.0000   -0.0000    0.0000   -0.0000   -0.0046    0.0000
       81 O3     4d1+      -0.0000    0.0000    0.0000    0.0000    0.0000   -0.0000    0.0000   -0.0000   -0.0008   -0.0000
       82 O3     3d2+      -0.0003    0.0012    0.0013   -0.0196   -0.0145    0.0150   -0.0136    0.0268   -0.0000   -0.0113
       83 O3     4d2+      -0.0001    0.0005    0.0007   -0.0028   -0.0017    0.0016   -0.0014    0.0020    0.0000   -0.0015
       84 O3     4f3-      -0.0001    0.0002    0.0002   -0.0052   -0.0048    0.0027   -0.0042    0.0059    0.0000   -0.0037
       85 O3     4f2-      -0.0000   -0.0000    0.0000    0.0000    0.0000    0.0000    0.0000    0.0000   -0.0017    0.0000
       86 O3     4f1-      -0.0000    0.0002    0.0002   -0.0034   -0.0030    0.0019   -0.0013    0.0039    0.0000   -0.0011
       87 O3     4f0       -0.0000    0.0000    0.0000    0.0000   -0.0000   -0.0000    0.0000    0.0000   -0.0037    0.0000
       88 O3     4f1+      -0.0000   -0.0000   -0.0000    0.0005    0.0004   -0.0004   -0.0005   -0.0004   -0.0000    0.0007
       89 O3     4f2+      -0.0000    0.0000    0.0000   -0.0000   -0.0000    0.0000    0.0000    0.0000   -0.0069    0.0000
       90 O3     4f3+      -0.0000   -0.0001   -0.0001    0.0024    0.0023   -0.0019   -0.0063   -0.0038   -0.0000   -0.0049
 
          Orbital           11        12        13        14        15        16        17        18        19        20    
          Energy           -0.5117   -0.4837   -0.0285    0.1412    0.1682    0.2331    0.2348    0.2810    0.3639    0.3687
          Occ. No.          2.0000    2.0000    0.0000    0.0000    0.0000    0.0000    0.0000    0.0000    0.0000    0.0000
 
        1 O1     1s         0.0000    0.0008    0.0000    0.0640   -0.2237   -0.0449    0.0000    0.0909   -0.0113   -0.0000
        2 O1     2s         0.0000   -0.0084    0.0000    0.5865   -1.6261   -0.2982    0.0000    0.6076   -0.0415   -0.0000
        3 O1     3s         0.0000    0.0090    0.0000    0.1648   -0.9726   -0.2189    0.0000    0.5657   -0.0139   -0.0000
        4 O1     4s         0.0000    0.0034    0.0000    0.0169   -0.2208   -0.0508    0.0000    0.1480    0.0007    0.0000
        5 O1     2px       -0.0000    0.6662    0.0000    0.0106    0.1709   -0.0280    0.0000   -0.1032   -0.1735    0.0000
        6 O1     3px       -0.0000    0.0364    0.0000   -0.0070    0.1872    0.4027   -0.0000    0.0697   -0.8517    0.0000
        7 O1     4px       -0.0000   -0.0004    0.0000    0.0033    0.0270    0.1931   -0.0000    0.0631   -0.3377    0.0000
        8 O1     2py        0.0000    0.0708    0.0000   -0.9223    0.6439    0.1508   -0.0000   -0.4176   -0.1122    0.0000
        9 O1     3py        0.0000   -0.0089   -0.0000   -0.4249    0.7987    0.2475   -0.0000   -0.9992   -0.0774    0.0000
       10 O1     4py        0.0000   -0.0027   -0.0000   -0.0520    0.1032    0.0258   -0.0000   -0.2322   -0.0147    0.0000
       11 O1     2pz       -0.6949    0.0000    0.6650   -0.0000    0.0000   -0.0000   -0.1175   -0.0000   -0.0000   -0.1506
       12 O1     3pz       -0.0254    0.0000    0.1719   -0.0000    0.0000    0.0000    0.3770    0.0000   -0.0000   -0.8765
       13 O1     4pz        0.0071   -0.0000    0.0279   -0.0000    0.0000    0.0000    0.2049    0.0000   -0.0000   -0.3521
       14 O1     3d2-       0.0000    0.0008   -0.0000    0.0173   -0.0307   -0.0061   -0.0000    0.0156    0.0128   -0.0000
       15 O1     4d2-       0.0000   -0.0001   -0.0000    0.0079   -0.0212   -0.0083    0.0000    0.0107    0.0163   -0.0000
       16 O1     3d1-       0.0253   -0.0000    0.0142    0.0000   -0.0000    0.0000    0.0071   -0.0000    0.0000    0.0107
       17 O1     4d1-       0.0058   -0.0000    0.0017    0.0000   -0.0000   -0.0000   -0.0010    0.0000    0.0000    0.0146
       18 O1     3d0       -0.0000    0.0030    0.0000   -0.0133    0.0521    0.0229   -0.0000   -0.0554   -0.0053    0.0000
       19 O1     4d0       -0.0000    0.0002    0.0000   -0.0092    0.0327    0.0147   -0.0000   -0.0389   -0.0063    0.0000
       20 O1     3d1+       0.0032   -0.0000    0.0029    0.0000    0.0000    0.0000    0.0021    0.0000    0.0000    0.0072
       21 O1     4d1+       0.0006    0.0000    0.0003    0.0000    0.0000   -0.0000    0.0005    0.0000    0.0000    0.0058
       22 O1     3d2+       0.0000    0.0070   -0.0000   -0.0159    0.0838    0.0426   -0.0000   -0.1003    0.0037    0.0000
       23 O1     4d2+       0.0000    0.0000   -0.0000   -0.0126    0.0513    0.0258   -0.0000   -0.0707   -0.0006    0.0000
       24 O1     4f3-       0.0000   -0.0016   -0.0000    0.0042   -0.0069   -0.0015    0.0000    0.0115   -0.0013   -0.0000
       25 O1     4f2-      -0.0013    0.0000   -0.0003   -0.0000   -0.0000    0.0000    0.0006   -0.0000   -0.0000   -0.0035
       26 O1     4f1-       0.0000   -0.0009    0.0000    0.0023   -0.0049   -0.0028    0.0000    0.0105    0.0032   -0.0000
       27 O1     4f0        0.0019   -0.0000    0.0015    0.0000   -0.0000   -0.0000   -0.0019    0.0000    0.0000    0.0063
       28 O1     4f1+      -0.0000    0.0012    0.0000    0.0007   -0.0004   -0.0015    0.0000    0.0012    0.0032   -0.0000
       29 O1     4f2+       0.0056   -0.0000   -0.0004   -0.0000   -0.0000   -0.0000   -0.0018    0.0000    0.0000    0.0065
       30 O1     4f3+       0.0000   -0.0020   -0.0000    0.0027   -0.0020   -0.0043    0.0000    0.0045    0.0092   -0.0000
       31 O2     1s         0.0000    0.0185   -0.0000   -0.1967   -0.0000    0.1073   -0.0000   -0.2953   -0.0000    0.0000
       32 O2     2s         0.0000    0.2178   -0.0000   -1.6390   -0.0000    0.6919   -0.0000   -1.8452   -0.0000    0.0000
       33 O2     3s         0.0000    0.0491   -0.0000   -0.7313   -0.0000    0.4448   -0.0000   -1.1038   -0.0000    0.0000
       34 O2     4s         0.0000    0.0119   -0.0000   -0.1650   -0.0000    0.0903   -0.0000   -0.2046   -0.0000    0.0000
       35 O2     2px       -0.0000   -0.6772   -0.0000   -0.3944   -0.0000   -0.0488    0.0000   -0.1206    0.0000    0.0000
       36 O2     3px        0.0000   -0.0359   -0.0000   -0.1347   -0.0000    0.3252   -0.0000   -0.1994    0.0000    0.0000
       37 O2     4px        0.0000   -0.0034   -0.0000   -0.0060   -0.0000    0.1670   -0.0000    0.0089    0.0000    0.0000
       38 O2     2py       -0.0000   -0.0000   -0.0000   -0.0000    1.5805   -0.0000   -0.0000   -0.0000   -0.0358   -0.0000
       39 O2     3py       -0.0000   -0.0000   -0.0000   -0.0000    1.6352   -0.0000   -0.0000    0.0000    0.1978   -0.0000
       40 O2     4py       -0.0000    0.0000   -0.0000   -0.0000    0.1666   -0.0000   -0.0000    0.0000    0.0996   -0.0000
       41 O2     2pz       -0.0000    0.0000   -0.9094    0.0000   -0.0000   -0.0000   -0.0455    0.0000   -0.0000   -0.0000
       42 O2     3pz       -0.0000   -0.0000   -0.2086   -0.0000    0.0000    0.0000    0.2860   -0.0000   -0.0000    0.0000
       43 O2     4pz        0.0000   -0.0000   -0.0211   -0.0000    0.0000    0.0000    0.1786    0.0000    0.0000    0.0000
       44 O2     3d2-      -0.0000    0.0000    0.0000   -0.0000    0.0683   -0.0000   -0.0000   -0.0000    0.1023   -0.0000
       45 O2     4d2-      -0.0000   -0.0000    0.0000   -0.0000    0.0420   -0.0000   -0.0000   -0.0000    0.0670   -0.0000
       46 O2     3d1-      -0.0623    0.0000    0.0000    0.0000    0.0000   -0.0000   -0.0000    0.0000    0.0000    0.1178
       47 O2     4d1-      -0.0144    0.0000    0.0000    0.0000    0.0000    0.0000   -0.0000    0.0000    0.0000    0.0713
       48 O2     3d0        0.0000    0.0146    0.0000   -0.0158   -0.0000   -0.0442    0.0000    0.1171    0.0000   -0.0000
       49 O2     4d0        0.0000    0.0016    0.0000    0.0047   -0.0000   -0.0228    0.0000    0.0520    0.0000   -0.0000
       50 O2     3d1+      -0.0000    0.0000   -0.0037    0.0000   -0.0000   -0.0000   -0.0111   -0.0000   -0.0000    0.0000
       51 O2     4d1+      -0.0000    0.0000   -0.0005    0.0000   -0.0000   -0.0000   -0.0043   -0.0000   -0.0000    0.0000
       52 O2     3d2+       0.0000    0.0233    0.0000   -0.0311   -0.0000   -0.0868    0.0000    0.1648    0.0000   -0.0000
       53 O2     4d2+       0.0000    0.0041   -0.0000    0.0078   -0.0000   -0.0411    0.0000    0.0656    0.0000   -0.0000
       54 O2     4f3-      -0.0000    0.0000    0.0000    0.0000   -0.0141   -0.0000    0.0000    0.0000   -0.0015    0.0000
       55 O2     4f2-      -0.0040    0.0000    0.0000   -0.0000    0.0000    0.0000   -0.0000    0.0000    0.0000    0.0031
       56 O2     4f1-       0.0000    0.0000   -0.0000    0.0000   -0.0112   -0.0000    0.0000   -0.0000   -0.0049    0.0000
       57 O2     4f0        0.0000    0.0000   -0.0021   -0.0000   -0.0000   -0.0000   -0.0016    0.0000   -0.0000   -0.0000
       58 O2     4f1+      -0.0000   -0.0020   -0.0000   -0.0012   -0.0000   -0.0017    0.0000    0.0024    0.0000   -0.0000
       59 O2     4f2+       0.0000   -0.0000    0.0020    0.0000   -0.0000   -0.0000   -0.0020   -0.0000   -0.0000   -0.0000
       60 O2     4f3+      -0.0000    0.0016    0.0000   -0.0005   -0.0000   -0.0054    0.0000    0.0058    0.0000   -0.0000
       61 O3     1s        -0.0000    0.0008    0.0000    0.0640    0.2237   -0.0449    0.0000    0.0909    0.0113   -0.0000
       62 O3     2s        -0.0000   -0.0084   -0.0000    0.5865    1.6261   -0.2982    0.0000    0.6076    0.0415   -0.0000
       63 O3     3s        -0.0000    0.0090    0.0000    0.1648    0.9726   -0.2189    0.0000    0.5657    0.0139   -0.0000
       64 O3     4s        -0.0000    0.0034    0.0000    0.0169    0.2208   -0.0508    0.0000    0.1480   -0.0007    0.0000
       65 O3     2px        0.0000    0.6662    0.0000    0.0106   -0.1709   -0.0280    0.0000   -0.1032    0.1735   -0.0000
       66 O3     3px        0.0000    0.0364    0.0000   -0.0070   -0.1872    0.4027   -0.0000    0.0697    0.8517   -0.0000
       67 O3     4px       -0.0000   -0.0004    0.0000    0.0033   -0.0270    0.1931   -0.0000    0.0631    0.3377   -0.0000
       68 O3     2py       -0.0000   -0.0708    0.0000    0.9223    0.6439   -0.1508    0.0000    0.4176   -0.1122    0.0000
       69 O3     3py       -0.0000    0.0089    0.0000    0.4249    0.7987   -0.2475    0.0000    0.9992   -0.0774   -0.0000
       70 O3     4py       -0.0000    0.0027    0.0000    0.0520    0.1032   -0.0258    0.0000    0.2322   -0.0147   -0.0000
       71 O3     2pz        0.6949   -0.0000    0.6650    0.0000    0.0000   -0.0000   -0.1175   -0.0000    0.0000    0.1506
       72 O3     3pz        0.0254   -0.0000    0.1719   -0.0000    0.0000    0.0000    0.3770    0.0000    0.0000    0.8765
       73 O3     4pz       -0.0071    0.0000    0.0279   -0.0000    0.0000    0.0000    0.2049    0.0000    0.0000    0.3521
       74 O3     3d2-       0.0000   -0.0008   -0.0000   -0.0173   -0.0307    0.0061   -0.0000   -0.0156    0.0128   -0.0000
       75 O3     4d2-       0.0000    0.0001   -0.0000   -0.0079   -0.0212    0.0083   -0.0000   -0.0107    0.0163   -0.0000
       76 O3     3d1-       0.0253   -0.0000   -0.0142    0.0000    0.0000   -0.0000   -0.0071    0.0000    0.0000    0.0107
       77 O3     4d1-       0.0058    0.0000   -0.0017    0.0000    0.0000    0.0000    0.0010    0.0000    0.0000    0.0146
       78 O3     3d0        0.0000    0.0030   -0.0000   -0.0133   -0.0521    0.0229   -0.0000   -0.0554    0.0053    0.0000
       79 O3     4d0        0.0000    0.0002   -0.0000   -0.0092   -0.0327    0.0147   -0.0000   -0.0389    0.0063   -0.0000
       80 O3     3d1+      -0.0032   -0.0000    0.0029   -0.0000   -0.0000    0.0000    0.0021   -0.0000   -0.0000   -0.0072
       81 O3     4d1+      -0.0006   -0.0000    0.0003   -0.0000   -0.0000    0.0000    0.0005   -0.0000   -0.0000   -0.0058
       82 O3     3d2+       0.0000    0.0070    0.0000   -0.0159   -0.0838    0.0426   -0.0000   -0.1003   -0.0037    0.0000
       83 O3     4d2+       0.0000    0.0000   -0.0000   -0.0126   -0.0513    0.0258   -0.0000   -0.0707    0.0006    0.0000
       84 O3     4f3-       0.0000    0.0016   -0.0000   -0.0042   -0.0069    0.0015   -0.0000   -0.0115   -0.0013    0.0000
       85 O3     4f2-      -0.0013   -0.0000    0.0003   -0.0000   -0.0000   -0.0000   -0.0006   -0.0000   -0.0000   -0.0035
       86 O3     4f1-      -0.0000    0.0009   -0.0000   -0.0023   -0.0049    0.0028   -0.0000   -0.0105    0.0032   -0.0000
       87 O3     4f0       -0.0019   -0.0000    0.0015    0.0000   -0.0000   -0.0000   -0.0019   -0.0000   -0.0000   -0.0063
       88 O3     4f1+       0.0000    0.0012    0.0000    0.0007    0.0004   -0.0015    0.0000    0.0012   -0.0032    0.0000
       89 O3     4f2+      -0.0056    0.0000   -0.0004    0.0000    0.0000   -0.0000   -0.0018   -0.0000   -0.0000   -0.0065
       90 O3     4f3+      -0.0000   -0.0020    0.0000    0.0027    0.0020   -0.0043    0.0000    0.0045   -0.0092    0.0000
 
          Orbital           21    
          Energy            0.4567
          Occ. No.          0.0000
 
        1 O1     1s        -0.0632
        2 O1     2s        -0.3712
        3 O1     3s         0.1651
        4 O1     4s         0.1335
        5 O1     2px        0.0938
        6 O1     3px        0.1915
        7 O1     4px        0.0387
        8 O1     2py        0.0190
        9 O1     3py        0.4471
       10 O1     4py        0.0833
       11 O1     2pz       -0.0000
       12 O1     3pz        0.0000
       13 O1     4pz        0.0000
       14 O1     3d2-      -0.0507
       15 O1     4d2-      -0.0312
       16 O1     3d1-       0.0000
       17 O1     4d1-      -0.0000
       18 O1     3d0        0.0671
       19 O1     4d0        0.0389
       20 O1     3d1+       0.0000
       21 O1     4d1+       0.0000
       22 O1     3d2+       0.0974
       23 O1     4d2+       0.0544
       24 O1     4f3-      -0.0027
       25 O1     4f2-       0.0000
       26 O1     4f1-      -0.0037
       27 O1     4f0       -0.0000
       28 O1     4f1+      -0.0011
       29 O1     4f2+       0.0000
       30 O1     4f3+      -0.0033
       31 O2     1s         0.0947
       32 O2     2s         0.5878
       33 O2     3s         0.9583
       34 O2     4s         0.2921
       35 O2     2px       -0.1020
       36 O2     3px       -0.2385
       37 O2     4px       -0.0972
       38 O2     2py       -0.0000
       39 O2     3py       -0.0000
       40 O2     4py       -0.0000
       41 O2     2pz        0.0000
       42 O2     3pz        0.0000
       43 O2     4pz        0.0000
       44 O2     3d2-      -0.0000
       45 O2     4d2-      -0.0000
       46 O2     3d1-      -0.0000
       47 O2     4d1-      -0.0000
       48 O2     3d0       -0.0341
       49 O2     4d0       -0.0123
       50 O2     3d1+       0.0000
       51 O2     4d1+       0.0000
       52 O2     3d2+      -0.0805
       53 O2     4d2+      -0.0381
       54 O2     4f3-       0.0000
       55 O2     4f2-       0.0000
       56 O2     4f1-       0.0000
       57 O2     4f0       -0.0000
       58 O2     4f1+      -0.0011
       59 O2     4f2+      -0.0000
       60 O2     4f3+      -0.0050
       61 O3     1s        -0.0632
       62 O3     2s        -0.3712
       63 O3     3s         0.1651
       64 O3     4s         0.1335
       65 O3     2px        0.0938
       66 O3     3px        0.1915
       67 O3     4px        0.0387
       68 O3     2py       -0.0190
       69 O3     3py       -0.4471
       70 O3     4py       -0.0833
       71 O3     2pz       -0.0000
       72 O3     3pz       -0.0000
       73 O3     4pz       -0.0000
       74 O3     3d2-       0.0507
       75 O3     4d2-       0.0312
       76 O3     3d1-      -0.0000
       77 O3     4d1-      -0.0000
       78 O3     3d0        0.0671
       79 O3     4d0        0.0389
       80 O3     3d1+       0.0000
       81 O3     4d1+       0.0000
       82 O3     3d2+       0.0974
       83 O3     4d2+       0.0544
       84 O3     4f3-       0.0027
       85 O3     4f2-       0.0000
       86 O3     4f1-       0.0037
       87 O3     4f0        0.0000
       88 O3     4f1+      -0.0011
       89 O3     4f2+       0.0000
       90 O3     4f3+      -0.0033
--
 
 
++    Molecular charges:
      ------------------
 
      Mulliken charges per centre and basis function type
      ---------------------------------------------------
 
                O1      O2      O3    
      1s       1.9976  1.9993  1.9976
      2s       1.9581  1.6288  1.9581
      2px      1.9874  1.8534  1.9874
      2pz      1.4285  1.0509  1.4285
      2py      0.7573  1.0465  0.7573
      3s      -0.0080 -0.0371 -0.0080
      3px     -0.0163 -0.0404 -0.0163
      3pz     -0.0069 -0.0148 -0.0069
      3py     -0.0017  0.0057 -0.0017
      4s       0.0033 -0.0002  0.0033
      3d2+     0.0214  0.0234  0.0214
      3d1+     0.0003  0.0018  0.0003
      3d0      0.0059  0.0056  0.0059
      3d1-     0.0144  0.0547  0.0144
      3d2-     0.0104  0.0360  0.0104
      4px      0.0007  0.0009  0.0007
      4pz      0.0012  0.0020  0.0012
      4py      0.0023  0.0050  0.0023
      4d2+     0.0015  0.0019  0.0015
      4d1+     0.0001  0.0003  0.0001
      4d0      0.0002 -0.0004  0.0002
      4d1-     0.0022  0.0138  0.0022
      4d2-     0.0008  0.0059  0.0008
      4f3+     0.0023  0.0038  0.0023
      4f2+     0.0019  0.0038  0.0019
      4f1+     0.0002  0.0003  0.0002
      4f0      0.0008  0.0015  0.0008
      4f1-     0.0012  0.0013  0.0012
      4f2-     0.0002  0.0008  0.0002
      4f3-     0.0031  0.0046  0.0031
      Total    8.1705  7.6590  8.1705
 
      N-E     -0.1705  0.3410 -0.1705
 
      Total electronic charge=   24.000000
 
      Total            charge=   -0.000000
--
 
 
  Input file to MOLDEN was generated!
 
 
++    Static properties:
      ------------------
 
 
      LoProp Charges per center
 

                   O1       O2       O3    
      Nuclear      8.0000   8.0000   8.0000
      Electronic  -8.1783  -7.6435  -8.1783
 
      Total       -0.1783   0.3565  -0.1783
--
 
 
++    Natural Bond Order analysis
      ---------------------------
      Based on LoProp computed density
      -------------------------------------------------------------------------------------
      Atom A       Atom B       Bond Order | Atom A       Atom B       Bond Order
        O1           O2             1.995  |   O2           O3             1.995
      -------------------------------------------------------------------------------------
      NBO located     11.999 core electrons.
      NBO located      3.986 lone pair electrons.
      NBO located      7.980 electrons involved in    2 bonds.
      The remaining    0.035 electrons are to be considered as diffuse
--
 
 
++    Molecular properties:
      ---------------------
 
      Charge (e):
                      =   -0.0000
      Dipole Moment (Debye):
      Origin of the operator (Ang)=    0.0000    0.0000    0.0000
                   X= -7.0289E-02               Y=  1.7255E-10               Z= -1.4628E-14           Total=  7.0289E-02
      Quadrupole Moment (Debye*Ang):
      Origin of the operator (Ang)=    0.1461    0.0000    0.0000
                  XX= -1.6179E+01              XY=  1.6904E-11              XZ=  7.4473E-14              YY= -1.6859E+01
                  YZ=  7.6975E-14              ZZ= -1.4903E+01
      In traceless form (Debye*Ang)
                  XX= -2.9835E-01              XY=  2.5356E-11              XZ=  1.1171E-13              YY= -1.3177E+00
                  YZ=  1.1546E-13              ZZ=  1.6160E+00
--
 
 
  Input file to MOLDEN was generated!
 
 ###############################################################################
 ###############################################################################
 ###                                                                         ###
 ###                                                                         ###
 ###    RunFile label nBas                                                   ###
 ###    was used       78 times                                              ###
 ###                                                                         ###
 ###                                                                         ###
 ###############################################################################
 ###############################################################################
--- Stop Module: scf at Thu Jan  2 10:51:51 2025 /rc=_RC_ALL_IS_WELL_ ---
*** files: ozone_160.25.LprOrb ozone_160.25.LoProp.molden ozone_160.25.scf.molden ozone_160.25.ScfOrb ozone_160.25.scf.h5 xmldump
    saved to directory /home/grierjones/DDCASPT2/ozone/ANO-RCC-VTZP/ozone_160.25

>>> COPY /tmp/ozone_160.25/ozone_160.25.scf.h5 /home/grierjones/DDCASPT2/ozone/ANO-RCC-VTZP/ozone_160.25/

*** symbolic link created: INPORB -> ozone_160.25.ScfOrb
--- Start Module: rasscf at Thu Jan  2 10:51:51 2025 ---
 
()()()()()()()()()()()()()()()()()()()()()()()()()()()()()()()()()()()()()()()()()()()()()()()()()()

                                              &RASSCF

                                   only a single process is used
                       available to each process: 2.0 GB of memory, 1 thread?
()()()()()()()()()()()()()()()()()()()()()()()()()()()()()()()()()()()()()()()()()()()()()()()()()()
 
 
 *************** WARNING ****************
 ###############################################################################
 ###############################################################################
 ###                                                                         ###
 ###                                                                         ###
 ###    Too many macro-iterations.                                           ###
 ###                                                                         ###
 ###                                                                         ###
 ###############################################################################
 ###############################################################################
 Too many macro-iterations requested.
 Reset to maximum, new MAXIT=     200
 ****************************************
 
 *************** WARNING ****************
 ###############################################################################
 ###############################################################################
 ###                                                                         ###
 ###                                                                         ###
 ###    Too many SX-iterations.                                              ###
 ###                                                                         ###
 ###                                                                         ###
 ###############################################################################
 ###############################################################################
 Too many SX-iterations requested.
 Reset to maximum, new ITMAX=     100
 ****************************************
 
      Header of the ONEINT file:
      --------------------------
      
      Integrals generated by seward 4.2.0  , Thu Jan  2 10:51:47 2025
 
 
      OrdInt status: non-squared
 
 
      Cartesian coordinates in Angstrom:
      -----------------------------------------------------
      No.  Label        X            Y            Z        
      -----------------------------------------------------
       1   O1         0.21917600   1.25906500   0.00000000
       2   O2         0.00000000   0.00000000   0.00000000
       3   O3         0.21917600  -1.25906500   0.00000000
      -----------------------------------------------------
      Nuclear repulsion energy =   66.44995552
 
++    Wave function specifications:
      -----------------------------
 
      Number of closed shell electrons          20
      Number of electrons in active shells       4
      Max number of holes in RAS1 space          0
      Max nr of electrons in RAS3 space          0
      Number of inactive orbitals               10
      Number of active orbitals                  3
      Number of secondary orbitals              77
      Spin quantum number                      0.0
      State symmetry                             1
--
 
++    Orbital specifications:
      -----------------------
 
      Symmetry species                           1
                                                 a
      Frozen orbitals                            0
      Inactive orbitals                         10
      Active orbitals                            3
      RAS1 orbitals                              0
      RAS2 orbitals                              3
      RAS3 orbitals                              0
      Secondary orbitals                        77
      Deleted orbitals                           0
      Number of basis functions                 90
--
 
++    CI expansion specifications:
      ----------------------------
 
      Number of CSFs                             6
      Number of determinants                     6
      Number of root(s) required                 1
      Root chosen for geometry opt.              1
      CI root used                               1
         
      highest root included in the CI            1
      max. size of the explicit Hamiltonian      6
--
 
++    Optimization specifications:
      ----------------------------
 
      RASSCF algorithm: Conventional
      Maximum number of macro iterations       200
      Maximum number of SX iterations          100
      Threshold for RASSCF energy            0.100E-07
      Threshold for max MO rotation          0.100E+00
      Threshold for max BLB element          0.100E-03
      Level shift parameter                  0.500E+00
      Make Quasi-Newton update
--
 
      The MO-coefficients are taken from the file:
      /home/grierjones/DDCASPT2/ozone/ANO-RCC-VTZP/ozone_160.00/ozone_160.00.RasOrb                                                   
      Title: RASSCF average (pseudo-natural) orbitals                                      
 
      Total molecular charge    0.00
 
      ************************************************************************************************************************
      *                                                                                                                      *
      *                                            Wave function control section                                             *
      *                                                                                                                      *
      ************************************************************************************************************************
 
 
                                         RASSCF iterations: Energy and convergence statistics
                                         ----------------------------------------------------
 
      Iter CI   SX   CI       RASSCF       Energy    max ROT     max BLB   max BLB  Level Ln srch  Step   QN   Walltime
          iter iter root      energy       change     param      element    value   shift minimum  type update hh:mm:ss
 Nr of preliminary CI iterations:   1
        1   1    3    1  -224.50758387    0.00E+00   0.62E-03    7  14 1 -0.14E-02*  0.19   0.00    SX    NO    0:00:00
        2   1    3    1  -224.50758966   -0.58E-05*  0.36E-03    7  14 1 -0.82E-03*  0.19   0.00    SX    NO    0:00:00
        3   1    3    1  -224.50759100   -0.13E-05*  0.24E-03    7  14 1 -0.54E-03*  0.19   0.00    SX    NO    0:00:00
        4   1    3    1  -224.50759147   -0.48E-06*  0.12E-03    7  14 1 -0.28E-03*  0.19   0.00    SX    NO    0:00:00
        5   1    3    1  -224.50759161   -0.14E-06*  0.39E-03    7  14 1 -0.21E-03*  0.19   2.02    QN   YES    0:00:00
        6   1    3    1  -224.50759169   -0.79E-07* -0.19E-03    7  14 1  0.25E-03*  0.19   0.64    QN   YES    0:00:00
        7   1    3    1  -224.50759173   -0.42E-07* -0.45E-04    8  25 1  0.15E-03*  0.19   0.62    QN   YES    0:00:00
        8   1    3    1  -224.50759175   -0.13E-07* -0.67E-04   10  14 1  0.26E-04   0.19   2.50    LS   YES    0:00:00
        9   1    3    1  -224.50759175   -0.16E-08  -0.53E-04    7  14 1  0.80E-04   0.19   0.70    QN   YES    0:00:00
      Convergence after  9 iterations
 
  Dmat in MO in SXCTL bf call to SXHAM                                                                                    
  mat. size =     3x    3
 
        1.9865661219283768
       -0.0000000000019990      1.7473524840183292
       -0.0013221427320471      0.0000000000042050      0.2660813940532950
       10   1    3    1  -224.50759175   -0.15E-08  -0.53E-04    8  25 1  0.77E-04   0.19   0.70    QN   YES    0:00:00
 
      ************************************************************************************************************************
                                                      Wave function printout:
                       occupation of active orbitals, and spin coupling of open shells (u,d: Spin up or down)
      ************************************************************************************************************************
 
      Note: transformation to natural orbitals
      has been made, which may change the order of the CSFs.
 
      printout of CI-coefficients larger than  0.05 for root  1
      energy=    -224.507592
      conf/sym  111     Coeff  Weight
             1  220  -0.93111 0.86696
             3  202   0.35542 0.12632
             6  022   0.08195 0.00672
 
      Natural orbitals and occupation numbers for root  1
      sym 1:   1.986567   1.747352   0.266080
 
      ************************************************************************************************************************
      *                                                                                                                      *
      *                                                    Final results                                                     *
      *                                                                                                                      *
      ************************************************************************************************************************
 
 
++    Wave function specifications:
      -----------------------------
 
      Number of closed shell electrons          20
      Number of electrons in active shells       4
      Max number of holes in RAS1 space          0
      Max nr of electrons in RAS3 space          0
      Number of inactive orbitals               10
      Number of active orbitals                  3
      Number of secondary orbitals              77
      Spin quantum number                      0.0
      State symmetry                             1
--
 
++    Orbital specifications:
      -----------------------
 
      Symmetry species                           1
                                                 a
      Frozen orbitals                            0
      Inactive orbitals                         10
      Active orbitals                            3
      RAS1 orbitals                              0
      RAS2 orbitals                              3
      RAS3 orbitals                              0
      Secondary orbitals                        77
      Deleted orbitals                           0
      Number of basis functions                 90
--
 
++    CI expansion specifications:
      ----------------------------
 
      Number of CSFs                             6
      Number of determinants                     6
      Number of root(s) required                 1
      CI root used                               1
      highest root included in the CI            1
      Root passed to geometry opt.               1
--
 
++    Final optimization conditions:
      ------------------------------
 
      Average CI energy                            -224.50759175
      RASSCF energy for state  1                   -224.50759175
      Super-CI energy                                -0.00000001
      RASSCF energy change                           -0.00000000
      Max change in MO coefficients              -0.554E-04
      Max non-diagonal density matrix element    -0.528E-04
      Maximum BLB matrix element                  0.766E-04
      (orbital pair   8,  25 in symmetry   1)
      Norm of electronic gradient            0.802E-04
--
 
 
      Final state energy(ies):
      ------------------------
 
::    RASSCF root number  1 Total energy:   -224.50759175
 
++    Molecular orbitals:
      -------------------
 
      Pseudonatural active orbitals and approximate occupation numbers
 
 
 
 
      Molecular orbitals for symmetry species 1: a  
 
 
      Orbital                1         2         3         4         5         6         7         8         9        10
      Energy          -20.7873  -20.7411  -20.7410   -1.6768   -1.4480   -1.0525   -0.7970   -0.7790   -0.6103   -0.4631
      Occ. No.          2.0000    2.0000    2.0000    2.0000    2.0000    2.0000    2.0000    2.0000    2.0000    2.0000
 
    1 O1     1s         0.0064   -0.7063    0.7062   -0.0127    0.0114    0.0150   -0.0038    0.0236    0.0069   -0.0003
    2 O1     2s         0.0018    0.0058   -0.0057    0.3641   -0.5751    0.6414   -0.0778    0.4109    0.0802   -0.0228
    3 O1     3s         0.0009    0.0042   -0.0039   -0.0113    0.0208    0.0238   -0.0045    0.0510    0.0136    0.0091
    4 O1     4s         0.0001    0.0009   -0.0007   -0.0008    0.0041    0.0039   -0.0011    0.0107    0.0031    0.0040
    5 O1     2px       -0.0003   -0.0005    0.0005   -0.0160    0.0233    0.0498    0.3815    0.1965   -0.6698    0.6391
    6 O1     3px       -0.0004   -0.0005    0.0003    0.0078   -0.0037   -0.0089   -0.0251   -0.0146    0.0074    0.0423
    7 O1     4px       -0.0002    0.0001   -0.0002    0.0016    0.0007   -0.0000   -0.0020   -0.0007    0.0057    0.0011
    8 O1     2py       -0.0012   -0.0025    0.0029   -0.1165    0.0843    0.1881   -0.1394    0.4003    0.2000    0.1078
    9 O1     3py       -0.0006   -0.0025    0.0028    0.0131   -0.0191   -0.0287    0.0096   -0.0454   -0.0046   -0.0084
   10 O1     4py        0.0003    0.0017   -0.0016    0.0008   -0.0034    0.0004    0.0029   -0.0049   -0.0022   -0.0039
   11 O1     2pz        0.0000   -0.0000    0.0000   -0.0000   -0.0000   -0.0000   -0.0000   -0.0000    0.0000   -0.0000
   12 O1     3pz       -0.0000   -0.0000   -0.0000   -0.0000    0.0000   -0.0000   -0.0000   -0.0000   -0.0000   -0.0000
   13 O1     4pz        0.0000    0.0000   -0.0000    0.0000   -0.0000    0.0000   -0.0000   -0.0000   -0.0000   -0.0000
   14 O1     3d2-       0.0000    0.0003   -0.0004    0.0045   -0.0048   -0.0051   -0.0194   -0.0102    0.0105    0.0048
   15 O1     4d2-      -0.0000    0.0002   -0.0002   -0.0000   -0.0004   -0.0001   -0.0018   -0.0003    0.0006    0.0010
   16 O1     3d1-       0.0000    0.0000    0.0000    0.0000    0.0000    0.0000    0.0000    0.0000    0.0000    0.0000
   17 O1     4d1-       0.0000    0.0000    0.0000    0.0000    0.0000    0.0000   -0.0000    0.0000    0.0000   -0.0000
   18 O1     3d0       -0.0002   -0.0005    0.0006   -0.0110    0.0090    0.0070   -0.0047    0.0148    0.0054    0.0031
   19 O1     4d0       -0.0001   -0.0004    0.0004   -0.0012    0.0010    0.0001   -0.0008    0.0008    0.0010    0.0002
   20 O1     3d1+      -0.0000    0.0000   -0.0000    0.0000    0.0000   -0.0000    0.0000   -0.0000   -0.0000   -0.0000
   21 O1     4d1+      -0.0000   -0.0000    0.0000   -0.0000    0.0000   -0.0000    0.0000   -0.0000   -0.0000    0.0000
   22 O1     3d2+      -0.0004   -0.0012    0.0013   -0.0193    0.0139    0.0161   -0.0129    0.0270    0.0114    0.0087
   23 O1     4d2+      -0.0002   -0.0005    0.0006   -0.0027    0.0016    0.0017   -0.0014    0.0022    0.0014    0.0003
   24 O1     4f3-       0.0001    0.0002   -0.0002    0.0052   -0.0046   -0.0029    0.0038   -0.0058   -0.0035   -0.0021
   25 O1     4f2-       0.0000   -0.0000    0.0000    0.0000   -0.0000   -0.0000   -0.0000    0.0000    0.0000   -0.0000
   26 O1     4f1-       0.0000    0.0002   -0.0002    0.0034   -0.0030   -0.0017    0.0011   -0.0035   -0.0011   -0.0009
   27 O1     4f0        0.0000    0.0000   -0.0000   -0.0000    0.0000    0.0000   -0.0000   -0.0000   -0.0000   -0.0000
   28 O1     4f1+      -0.0000    0.0000   -0.0000    0.0004   -0.0004   -0.0003   -0.0002   -0.0002   -0.0010    0.0016
   29 O1     4f2+       0.0000    0.0000   -0.0000   -0.0000    0.0000   -0.0000   -0.0000   -0.0000   -0.0000    0.0000
   30 O1     4f3+      -0.0000    0.0001   -0.0001    0.0022   -0.0021   -0.0017   -0.0064   -0.0036    0.0047   -0.0011
   31 O2     1s         0.9995    0.0000   -0.0069   -0.0290   -0.0000   -0.0131   -0.0042    0.0000    0.0000    0.0226
   32 O2     2s        -0.0032   -0.0000    0.0118    0.6012    0.0000   -0.6362   -0.0529    0.0000    0.0000    0.2704
   33 O2     3s        -0.0028   -0.0000    0.0067   -0.0595   -0.0000   -0.0281   -0.0061    0.0000    0.0000    0.0624
   34 O2     4s        -0.0003   -0.0000    0.0010   -0.0120   -0.0000   -0.0047   -0.0029    0.0000    0.0000    0.0148
   35 O2     2px        0.0004   -0.0000    0.0015    0.0457    0.0000    0.0725    0.6621    0.0000   -0.0000   -0.7309
   36 O2     3px       -0.0004   -0.0000    0.0009   -0.0197   -0.0000   -0.0075   -0.0611   -0.0000    0.0000   -0.0533
   37 O2     4px        0.0013    0.0000   -0.0003   -0.0046   -0.0000    0.0021   -0.0116   -0.0000   -0.0000   -0.0034
   38 O2     2py       -0.0000   -0.0072   -0.0000    0.0000   -0.3093   -0.0000    0.0000   -0.5267   -0.1257   -0.0000
   39 O2     3py        0.0000   -0.0049   -0.0000   -0.0000    0.0613    0.0000   -0.0000    0.0478   -0.0061   -0.0000
   40 O2     4py        0.0000    0.0012    0.0000    0.0000    0.0000    0.0000   -0.0000    0.0111    0.0012   -0.0000
   41 O2     2pz        0.0000    0.0000   -0.0000    0.0000    0.0000   -0.0000   -0.0000   -0.0000    0.0000    0.0000
   42 O2     3pz        0.0000    0.0000    0.0000    0.0000   -0.0000    0.0000    0.0000    0.0000    0.0000    0.0000
   43 O2     4pz        0.0000   -0.0000    0.0000    0.0000    0.0000   -0.0000    0.0000    0.0000    0.0000   -0.0000
   44 O2     3d2-       0.0000   -0.0007   -0.0000    0.0000   -0.0200   -0.0000    0.0000   -0.0156   -0.0407    0.0000
   45 O2     4d2-       0.0000   -0.0004   -0.0000    0.0000   -0.0021   -0.0000    0.0000   -0.0018   -0.0059   -0.0000
   46 O2     3d1-       0.0000    0.0000   -0.0000    0.0000   -0.0000    0.0000    0.0000    0.0000   -0.0000    0.0000
   47 O2     4d1-       0.0000    0.0000    0.0000    0.0000   -0.0000    0.0000    0.0000    0.0000   -0.0000    0.0000
   48 O2     3d0        0.0003    0.0000   -0.0011   -0.0142   -0.0000   -0.0005   -0.0107   -0.0000    0.0000    0.0179
   49 O2     4d0        0.0003    0.0000   -0.0006    0.0004   -0.0000    0.0006   -0.0014   -0.0000   -0.0000    0.0022
   50 O2     3d1+       0.0000    0.0000    0.0000    0.0000    0.0000   -0.0000    0.0000    0.0000    0.0000   -0.0000
   51 O2     4d1+      -0.0000   -0.0000    0.0000    0.0000   -0.0000   -0.0000    0.0000    0.0000    0.0000    0.0000
   52 O2     3d2+       0.0007    0.0000   -0.0018   -0.0245   -0.0000   -0.0009    0.0104   -0.0000   -0.0000    0.0211
   53 O2     4d2+       0.0004    0.0000   -0.0009   -0.0013   -0.0000    0.0009    0.0005   -0.0000   -0.0000    0.0031
   54 O2     4f3-       0.0000    0.0002    0.0000   -0.0000    0.0089    0.0000   -0.0000    0.0092   -0.0036    0.0000
   55 O2     4f2-      -0.0000    0.0000   -0.0000    0.0000    0.0000    0.0000    0.0000   -0.0000    0.0000    0.0000
   56 O2     4f1-       0.0000    0.0001    0.0000   -0.0000    0.0063    0.0000   -0.0000    0.0057    0.0012    0.0000
   57 O2     4f0        0.0000    0.0000    0.0000    0.0000   -0.0000   -0.0000    0.0000    0.0000    0.0000   -0.0000
   58 O2     4f1+       0.0000    0.0000   -0.0000   -0.0013    0.0000    0.0001   -0.0014   -0.0000   -0.0000   -0.0008
   59 O2     4f2+       0.0000   -0.0000    0.0000    0.0000    0.0000   -0.0000   -0.0000   -0.0000   -0.0000   -0.0000
   60 O2     4f3+       0.0001    0.0000   -0.0002   -0.0061   -0.0000   -0.0002   -0.0113   -0.0000    0.0000    0.0032
   61 O3     1s         0.0064    0.7063    0.7062   -0.0127   -0.0114    0.0150   -0.0038   -0.0236   -0.0069   -0.0003
   62 O3     2s         0.0018   -0.0058   -0.0057    0.3641    0.5751    0.6414   -0.0778   -0.4109   -0.0802   -0.0228
   63 O3     3s         0.0009   -0.0042   -0.0039   -0.0113   -0.0208    0.0238   -0.0045   -0.0510   -0.0136    0.0091
   64 O3     4s         0.0001   -0.0009   -0.0007   -0.0008   -0.0041    0.0039   -0.0011   -0.0107   -0.0031    0.0040
   65 O3     2px       -0.0003    0.0005    0.0005   -0.0160   -0.0233    0.0498    0.3815   -0.1965    0.6698    0.6391
   66 O3     3px       -0.0004    0.0005    0.0003    0.0078    0.0037   -0.0089   -0.0251    0.0146   -0.0074    0.0423
   67 O3     4px       -0.0002   -0.0001   -0.0002    0.0016   -0.0007   -0.0000   -0.0020    0.0007   -0.0057    0.0011
   68 O3     2py        0.0012   -0.0025   -0.0029    0.1165    0.0843   -0.1881    0.1394    0.4003    0.2000   -0.1078
   69 O3     3py        0.0006   -0.0025   -0.0028   -0.0131   -0.0191    0.0287   -0.0096   -0.0454   -0.0046    0.0084
   70 O3     4py       -0.0003    0.0017    0.0016   -0.0008   -0.0034   -0.0004   -0.0029   -0.0049   -0.0022    0.0039
   71 O3     2pz        0.0000    0.0000    0.0000    0.0000   -0.0000   -0.0000   -0.0000   -0.0000   -0.0000   -0.0000
   72 O3     3pz       -0.0000    0.0000    0.0000   -0.0000   -0.0000   -0.0000   -0.0000   -0.0000   -0.0000   -0.0000
   73 O3     4pz        0.0000   -0.0000   -0.0000   -0.0000   -0.0000   -0.0000   -0.0000    0.0000    0.0000    0.0000
   74 O3     3d2-      -0.0000    0.0003    0.0004   -0.0045   -0.0048    0.0051    0.0194   -0.0102    0.0105   -0.0048
   75 O3     4d2-       0.0000    0.0002    0.0002    0.0000   -0.0004    0.0001    0.0018   -0.0003    0.0006   -0.0010
   76 O3     3d1-       0.0000    0.0000    0.0000    0.0000   -0.0000   -0.0000    0.0000   -0.0000   -0.0000    0.0000
   77 O3     4d1-      -0.0000    0.0000   -0.0000    0.0000   -0.0000   -0.0000    0.0000   -0.0000   -0.0000    0.0000
   78 O3     3d0       -0.0002    0.0005    0.0006   -0.0110   -0.0090    0.0070   -0.0047   -0.0148   -0.0054    0.0031
   79 O3     4d0       -0.0001    0.0004    0.0004   -0.0012   -0.0010    0.0001   -0.0008   -0.0008   -0.0010    0.0002
   80 O3     3d1+      -0.0000   -0.0000   -0.0000   -0.0000    0.0000    0.0000    0.0000   -0.0000   -0.0000   -0.0000
   81 O3     4d1+      -0.0000    0.0000    0.0000    0.0000   -0.0000   -0.0000    0.0000   -0.0000   -0.0000    0.0000
   82 O3     3d2+      -0.0004    0.0012    0.0013   -0.0193   -0.0139    0.0161   -0.0129   -0.0270   -0.0114    0.0087
   83 O3     4d2+      -0.0002    0.0005    0.0006   -0.0027   -0.0016    0.0017   -0.0014   -0.0022   -0.0014    0.0003
   84 O3     4f3-      -0.0001    0.0002    0.0002   -0.0052   -0.0046    0.0029   -0.0038   -0.0058   -0.0035    0.0021
   85 O3     4f2-      -0.0000    0.0000    0.0000   -0.0000    0.0000   -0.0000    0.0000   -0.0000    0.0000   -0.0000
   86 O3     4f1-      -0.0000    0.0002    0.0002   -0.0034   -0.0030    0.0017   -0.0011   -0.0035   -0.0011    0.0009
   87 O3     4f0       -0.0000    0.0000   -0.0000    0.0000    0.0000   -0.0000   -0.0000    0.0000   -0.0000   -0.0000
   88 O3     4f1+      -0.0000   -0.0000   -0.0000    0.0004    0.0004   -0.0003   -0.0002    0.0002    0.0010    0.0016
   89 O3     4f2+      -0.0000   -0.0000    0.0000   -0.0000    0.0000   -0.0000    0.0000   -0.0000    0.0000    0.0000
   90 O3     4f3+      -0.0000   -0.0001   -0.0001    0.0022    0.0021   -0.0017   -0.0064    0.0036   -0.0047   -0.0011
 
 
      Orbital               11        12        13        14        15        16        17        18        19        20
      Energy            0.0000    0.0000    0.0000    0.1469    0.1678    0.2274    0.2375    0.2829    0.3644    0.3667
      Occ. No.          1.9866    1.7474    0.2661    0.0000    0.0000    0.0000    0.0000    0.0000    0.0000    0.0000
 
    1 O1     1s        -0.0000    0.0000   -0.0000   -0.0679   -0.2230    0.0000   -0.0400    0.0956   -0.0082   -0.0000
    2 O1     2s        -0.0000    0.0000   -0.0000   -0.6152   -1.6196    0.0000   -0.2630    0.6385   -0.0262   -0.0000
    3 O1     3s        -0.0000    0.0000   -0.0000   -0.1741   -0.9708   -0.0000   -0.1867    0.5792   -0.0032   -0.0000
    4 O1     4s         0.0000    0.0000   -0.0000   -0.0182   -0.2204   -0.0000   -0.0415    0.1486    0.0026   -0.0000
    5 O1     2px       -0.0000   -0.0000    0.0000   -0.0302    0.1684    0.0000   -0.0104   -0.1141   -0.1745    0.0000
    6 O1     3px       -0.0000   -0.0000   -0.0000    0.0029    0.1918    0.0000    0.4355    0.0344   -0.8595    0.0000
    7 O1     4px        0.0000    0.0000    0.0000   -0.0034    0.0291    0.0000    0.2044    0.0497   -0.3400    0.0000
    8 O1     2py        0.0000   -0.0000    0.0000    0.9213    0.6354   -0.0000    0.1200   -0.4310   -0.0907    0.0000
    9 O1     3py        0.0000   -0.0000    0.0000    0.4374    0.8024    0.0000    0.1984   -1.0277   -0.0575    0.0000
   10 O1     4py       -0.0000   -0.0000    0.0000    0.0536    0.1052    0.0000    0.0145   -0.2351   -0.0073    0.0000
   11 O1     2pz       -0.3223   -0.6984    0.6598   -0.0000   -0.0000    0.0412   -0.0000    0.0000   -0.0000   -0.1691
   12 O1     3pz        0.0218    0.0016   -0.0701    0.0000    0.0000    0.4459   -0.0000    0.0000   -0.0000   -0.8770
   13 O1     4pz        0.0054    0.0081    0.0035    0.0000    0.0000    0.2170   -0.0000    0.0000   -0.0000   -0.3515
   14 O1     3d2-      -0.0000    0.0000   -0.0000   -0.0184   -0.0311   -0.0000   -0.0068    0.0173    0.0132   -0.0000
   15 O1     4d2-      -0.0000    0.0000    0.0000   -0.0084   -0.0215   -0.0000   -0.0090    0.0121    0.0161   -0.0000
   16 O1     3d1-       0.0304    0.0193    0.0134   -0.0000   -0.0000    0.0065   -0.0000   -0.0000    0.0000    0.0123
   17 O1     4d1-       0.0050    0.0033    0.0050   -0.0000   -0.0000   -0.0025    0.0000   -0.0000    0.0000    0.0148
   18 O1     3d0       -0.0000   -0.0000    0.0000    0.0137    0.0522    0.0000    0.0207   -0.0592   -0.0061    0.0000
   19 O1     4d0        0.0000    0.0000    0.0000    0.0100    0.0330    0.0000    0.0129   -0.0410   -0.0063    0.0000
   20 O1     3d1+       0.0039    0.0018    0.0022   -0.0000    0.0000    0.0029   -0.0000    0.0000    0.0000    0.0071
   21 O1     4d1+       0.0005    0.0001    0.0003   -0.0000    0.0000    0.0008   -0.0000    0.0000    0.0000    0.0055
   22 O1     3d2+      -0.0000   -0.0000    0.0000    0.0152    0.0843    0.0000    0.0389   -0.1061    0.0024    0.0000
   23 O1     4d2+      -0.0000    0.0000    0.0000    0.0129    0.0517    0.0000    0.0229   -0.0737   -0.0008    0.0000
   24 O1     4f3-       0.0000    0.0000   -0.0000   -0.0040   -0.0070    0.0000   -0.0009    0.0119   -0.0018    0.0000
   25 O1     4f2-      -0.0015   -0.0010   -0.0005    0.0000   -0.0000    0.0007   -0.0000    0.0000   -0.0000   -0.0037
   26 O1     4f1-      -0.0000   -0.0000   -0.0000   -0.0020   -0.0050   -0.0000   -0.0024    0.0110    0.0029   -0.0000
   27 O1     4f0        0.0035   -0.0001    0.0110   -0.0000   -0.0000   -0.0022    0.0000    0.0000    0.0000    0.0067
   28 O1     4f1+       0.0000   -0.0000    0.0000   -0.0008   -0.0004   -0.0000   -0.0016    0.0013    0.0033   -0.0000
   29 O1     4f2+       0.0065    0.0051   -0.0003   -0.0000   -0.0000   -0.0023   -0.0000   -0.0000    0.0000    0.0069
   30 O1     4f3+      -0.0000   -0.0000    0.0000   -0.0027   -0.0020   -0.0000   -0.0045    0.0050    0.0093   -0.0000
   31 O2     1s         0.0000   -0.0000   -0.0000    0.2001   -0.0000    0.0000    0.0926   -0.3062    0.0000    0.0000
   32 O2     2s         0.0000   -0.0000   -0.0000    1.6782   -0.0000    0.0000    0.5945   -1.9143    0.0000    0.0000
   33 O2     3s         0.0000   -0.0000   -0.0000    0.7645   -0.0000    0.0000    0.3977   -1.1688   -0.0000    0.0000
   34 O2     4s         0.0000   -0.0000   -0.0000    0.1716   -0.0000    0.0000    0.0832   -0.2211   -0.0000    0.0000
   35 O2     2px       -0.0000   -0.0000   -0.0000    0.4399   -0.0000   -0.0000   -0.0989   -0.0976    0.0000    0.0000
   36 O2     3px        0.0000    0.0000   -0.0000    0.1605   -0.0000    0.0000    0.2598   -0.1934    0.0000    0.0000
[...]

                                   only a single process is used
                       available to each process: 2.0 GB of memory, 1 thread?
()()()()()()()()()()()()()()()()()()()()()()()()()()()()()()()()()()()()()()()()()()()()()()()()()()
 
 
      *** WARNING: Default frozen orbitals is overwritten by user input.
      *** Default values:   3
 
      Header of the integral files:
      
       Integrals generated by seward 4.2.0  , Thu Jan  2 10:51:47 2025
 
 
      Header of MO coefficients source file:
      * RASSCF average (pseudo-natural) orbitals                                      
 
 
      Cartesian coordinates in Angstrom:
      -----------------------------------------------------
      No.  Label        X            Y            Z        
      -----------------------------------------------------
       1   O1         0.21917600   1.25906500   0.00000000
       2   O2         0.00000000   0.00000000   0.00000000
       3   O3         0.21917600  -1.25906500   0.00000000
      -----------------------------------------------------
      Nuclear repulsion energy =   66.44995552
 
      Orbital specifications:
      -----------------------
 
      Symmetry species:              1
      Number of basis functions:    90
      Frozen orbitals:               0
      Deleted orbitals:              0
      Number of orbitals used:      90

       SYMMETRY  BASIS FUNCTIONS       ORBITALS      INTEGRALS   CPU(SEC)  I/O(SEC)
 
        1 1 1 1   90  90  90  90    90  90  90  90     8386560       0.00      0.00

       TOTAL CPU TIME(SEC)    4.39TOTAL I/O TIME(SEC)   11.03
 
--- Stop Module: motra at Thu Jan  2 10:52:03 2025 /rc=_RC_ALL_IS_WELL_ ---
*** files: xmldump
    saved to directory /home/grierjones/DDCASPT2/ozone/ANO-RCC-VTZP/ozone_160.25
--- Module motra spent 11 seconds ---

>>> COPY /tmp/ozone_160.25/GMJ_one_int_indx.csv /home/grierjones/DDCASPT2/ozone/ANO-RCC-VTZP/ozone_160.25/ozone_160.25.GMJ_one_int_indx.csv

>>> COPY /tmp/ozone_160.25/GMJ_one_int.csv /home/grierjones/DDCASPT2/ozone/ANO-RCC-VTZP/ozone_160.25/ozone_160.25.GMJ_one_int.csv

>>> COPY /tmp/ozone_160.25/GMJ_two_int_indx.csv /home/grierjones/DDCASPT2/ozone/ANO-RCC-VTZP/ozone_160.25/ozone_160.25.GMJ_two_int_indx.csv

>>> COPY /tmp/ozone_160.25/GMJ_two_int.csv /home/grierjones/DDCASPT2/ozone/ANO-RCC-VTZP/ozone_160.25/ozone_160.25.GMJ_two_int.csv

*** symbolic link created: INPORB -> ozone_160.25.RasOrb
--- Start Module: caspt2 at Thu Jan  2 10:52:03 2025 ---
 
()()()()()()()()()()()()()()()()()()()()()()()()()()()()()()()()()()()()()()()()()()()()()()()()()()

                                              &CASPT2

                                   only a single process is used
                       available to each process: 2.0 GB of memory, 1 thread?
()()()()()()()()()()()()()()()()()()()()()()()()()()()()()()()()()()()()()()()()()()()()()()()()()()
 
 Cholesky algorithm in CASPT2 =    1
 
 ###############################################################################
 ###############################################################################
 ###                                                                         ###
 ###                                                                         ###
 ###    User changed nr of frozen orbitals.                                  ###
 ###                                                                         ###
 ###                                                                         ###
 ###############################################################################
 ###############################################################################
 
++    Wave function specifications:
      -----------------------------
 
      Number of closed shell electrons          20
      Number of electrons in active shells       4
      Max number of holes in RAS1 space          0
      Max number of electrons in RAS3 space      0
      Number of inactive orbitals               10
      Number of active orbitals                  3
      Number of secondary orbitals              77
      Spin quantum number                      0.0
      State symmetry                             1
      Number of CSFs                             6
      Number of root(s) available                1
      Root passed to geometry opt.               1
      A file JOBMIX will be created.
      This is a CASSCF or RASSCF reference function
--
 
++    Orbital specifications:
      -----------------------
 
      Symmetry species                           1
                                                 a
      Frozen orbitals                            0
      Inactive orbitals                         10
      Active orbitals                            3
      Secondary orbitals                        77
      Deleted orbitals                           0
      Number of basis functions                 90
--
 
      Type of Fock operator: STANDARD
      Type of 0-order Hamiltonian: STANDARD WITH DEFAULT IPEA
        "IP-EA" denominator shift =      0.25
      The input orbitals and the CI vector will be transformed.
 
--------------------------------------------------------------------------------
 Estimated memory requirements:
  POLY3 :                   250202
  RHS:                      446386
  SIGMA :                   610360
  PRPCTL:                        0
 Available workspace:    230385072
 
++ CASPT2 computation for group   1
 
********************************************************************************
 Multi-State initialization phase begins for group   1
--------------------------------------------------------------------------------
********************************************************************************
 Compute H0 matrices for state    1
--------------------------------------------------------------------------------
--------------------------------------------------------------------------------
 H0 matrices have been computed.
 
********************************************************************************
  CASPT2 EQUATION SOLUTION
--------------------------------------------------------------------------------
 
  Total nr of CASPT2 parameters:
   Before reduction:      541275
   After  reduction:      532232
 
 The contributions to the second order correlation energy in atomic units.
-----------------------------------------------------------------------------------------------------------------------------
  IT.      VJTU        VJTI        ATVX        AIVX        VJAI        BVAT        BJAT        BJAI        TOTAL       RNORM  
-----------------------------------------------------------------------------------------------------------------------------
   1    -0.000000   -0.001529   -0.015389   -0.104080   -0.018713   -0.023514   -0.170708   -0.361142   -0.695075    0.003118
   2    -0.000000   -0.001555   -0.015461   -0.104563   -0.018741   -0.023522   -0.170749   -0.361148   -0.695739    0.000287
   3    -0.000000   -0.001556   -0.015462   -0.104569   -0.018741   -0.023522   -0.170750   -0.361148   -0.695748    0.000037
   4    -0.000000   -0.001556   -0.015461   -0.104566   -0.018741   -0.023522   -0.170749   -0.361148   -0.695744    0.000007
-------------------------------------------------------------------------------------------------------------------
 
  FINAL CASPT2 RESULT:
 
  Correlation energy /Case, /Symm, and sums:
 VJTU     -0.00000000 -0.00000000
 VJTIP    -0.00155589 -0.00155589
 VJTIM     0.00000000  0.00000000
 ATVX     -0.01546127 -0.01546127
 AIVX     -0.10456629 -0.10456629
 VJAIP    -0.01313668 -0.01313668
 VJAIM    -0.00560444 -0.00560444
 BVATP    -0.02218846 -0.02218846
 BVATM    -0.00133319 -0.00133319
 BJATP    -0.07071865 -0.07071865
 BJATM    -0.10003064 -0.10003064
 BJAIP    -0.24915469 -0.24915469
 BJAIM    -0.11199380 -0.11199380
 Summed:  -0.69574399 -0.69574399
 
      Reference energy:        -224.5075917509
      E2 (Non-variational):      -0.6957439944
      E2 (Variational):          -0.6957440504
      Total energy:            -225.2033358013
      Residual norm:              0.0000005831
      Reference weight:           0.84735
 
      Contributions to the CASPT2 correlation energy
      Active & Virtual Only:         -0.0389829127
      One Inactive Excited:          -0.2753155779
      Two Inactive Excited:          -0.3814455038
 
 
++ Denominators, etc.
----------------------------------------------------------------------------------------------------
 Report on small energy denominators, large coefficients, and large energy contributions.
CASE  SYMM ACTIVE-MIX  NON-ACTIVE INDICES          DENOMINATOR     RHS VALUE       COEFFICIENT     CONTRIBUTION
ATVX     1  Mu1.0005  Se1.020                       1.53942208     -0.06433603      0.04083733     -0.00262731
ATVX     1  Mu1.0005  Se1.042                       3.10079409      0.10273200     -0.03241128     -0.00332968
AIVX     1  Mu1.0005  In1.004 Se1.014               2.61571695      0.07705623     -0.02957027     -0.00227857
AIVX     1  Mu1.0003  In1.005 Se1.014               2.05928346      0.06410862     -0.03056259     -0.00195933
AIVX     1  Mu1.0004  In1.006 Se1.014               1.83297142      0.04769234     -0.02641004     -0.00125956
AIVX     1  Mu1.0004  In1.007 Se1.014               1.57752180     -0.05126442      0.03298192     -0.00169080
AIVX     1  Mu1.0002  In1.008 Se1.014               1.29370375      0.09183806     -0.07013277     -0.00644086
AIVX     1  Mu1.0003  In1.008 Se1.014               1.39025617      0.04812792     -0.03439077     -0.00165516
AIVX     1  Mu1.0002  In1.009 Se1.014               1.12506080      0.05308550     -0.04647246     -0.00246701
AIVX     1  Mu1.0003  In1.009 Se1.014               1.22161322      0.03477967     -0.02820198     -0.00098086
AIVX     1  Mu1.0002  In1.008 Se1.018               1.42974154      0.03944541     -0.02693961     -0.00106264
AIVX     1  Mu1.0002  In1.009 Se1.018               1.26109859      0.03720362     -0.02878010     -0.00107072
AIVX     1  Mu1.0004  In1.006 Se1.021               2.14958396     -0.05981680      0.02796087     -0.00167253
AIVX     1  Mu1.0002  In1.008 Se1.021               1.61031629     -0.05776830      0.03507874     -0.00202644
AIVX     1  Mu1.0004  In1.008 Se1.022               1.92381838     -0.07847326      0.04140803     -0.00324942
AIVX     1  Mu1.0004  In1.008 Se1.025               2.09398753      0.09527252     -0.04595089     -0.00437786
AIVX     1  Mu1.0005  In1.008 Se1.025               2.25237203     -0.06283601      0.02820266     -0.00177214
AIVX     1  Mu1.0002  In1.010 Se1.025               1.51235878      0.05297081     -0.03454270     -0.00182975
BJAIP    1  Se1.014 In1.008 Se1.014 In1.008         1.85164159      0.05857470     -0.03163393     -0.00185295
BJAIP    1  Se1.022 In1.008 Se1.025 In1.008         2.75050324     -0.07306057      0.02656258     -0.00194068
--
 
   (Skipping property calculation,
    use PROP keyword to activate)
--
 
  Total CASPT2 energies:
::    CASPT2 Root  1     Total energy:   -225.20333580
 
  A NEW JOBIPH FILE NAMED 'JOBMIX' IS PREPARED.
********************************************************************************
--- Stop Module: caspt2 at Thu Jan  2 10:52:04 2025 /rc=_RC_ALL_IS_WELL_ ---
*** files: xmldump
    saved to directory /home/grierjones/DDCASPT2/ozone/ANO-RCC-VTZP/ozone_160.25
--- Module caspt2 spent 1 second ---

>>> EXPORT i = B

>>> EXPORT j = P

>>> IF (-FILE GMJ_e2_${i}_${j}.csv)

>>> COPY /tmp/ozone_160.25/GMJ_RHS_B_P.csv /home/grierjones/DDCASPT2/ozone/ANO-RCC-VTZP/ozone_160.25/GMJ_RHS_B_P.csv

>>> COPY /tmp/ozone_160.25/GMJ_IVECW_B_P.csv /home/grierjones/DDCASPT2/ozone/ANO-RCC-VTZP/ozone_160.25/GMJ_IVECW_B_P.csv

>>> COPY /tmp/ozone_160.25/GMJ_IVECX_B_P.csv /home/grierjones/DDCASPT2/ozone/ANO-RCC-VTZP/ozone_160.25/GMJ_IVECX_B_P.csv

>>> COPY /tmp/ozone_160.25/GMJ_IVECC2_B_P.csv /home/grierjones/DDCASPT2/ozone/ANO-RCC-VTZP/ozone_160.25/GMJ_IVECC2_B_P.csv

>>> COPY /tmp/ozone_160.25/GMJ_e2_B_P.csv /home/grierjones/DDCASPT2/ozone/ANO-RCC-VTZP/ozone_160.25/GMJ_e2_B_P.csv

>>> END FOREACH

>>> EXPORT j = M

>>> IF (-FILE GMJ_e2_${i}_${j}.csv)
(Skipped)

>>> END FOREACH

>>> END FOREACH

>>> EXPORT i = E

>>> EXPORT j = P

>>> IF (-FILE GMJ_e2_${i}_${j}.csv)

>>> COPY /tmp/ozone_160.25/GMJ_RHS_E_P.csv /home/grierjones/DDCASPT2/ozone/ANO-RCC-VTZP/ozone_160.25/GMJ_RHS_E_P.csv

>>> COPY /tmp/ozone_160.25/GMJ_IVECW_E_P.csv /home/grierjones/DDCASPT2/ozone/ANO-RCC-VTZP/ozone_160.25/GMJ_IVECW_E_P.csv

>>> COPY /tmp/ozone_160.25/GMJ_IVECX_E_P.csv /home/grierjones/DDCASPT2/ozone/ANO-RCC-VTZP/ozone_160.25/GMJ_IVECX_E_P.csv

>>> COPY /tmp/ozone_160.25/GMJ_IVECC2_E_P.csv /home/grierjones/DDCASPT2/ozone/ANO-RCC-VTZP/ozone_160.25/GMJ_IVECC2_E_P.csv

>>> COPY /tmp/ozone_160.25/GMJ_e2_E_P.csv /home/grierjones/DDCASPT2/ozone/ANO-RCC-VTZP/ozone_160.25/GMJ_e2_E_P.csv

>>> END FOREACH

>>> EXPORT j = M

>>> IF (-FILE GMJ_e2_${i}_${j}.csv)

>>> COPY /tmp/ozone_160.25/GMJ_RHS_E_M.csv /home/grierjones/DDCASPT2/ozone/ANO-RCC-VTZP/ozone_160.25/GMJ_RHS_E_M.csv

>>> COPY /tmp/ozone_160.25/GMJ_IVECW_E_M.csv /home/grierjones/DDCASPT2/ozone/ANO-RCC-VTZP/ozone_160.25/GMJ_IVECW_E_M.csv

>>> COPY /tmp/ozone_160.25/GMJ_IVECX_E_M.csv /home/grierjones/DDCASPT2/ozone/ANO-RCC-VTZP/ozone_160.25/GMJ_IVECX_E_M.csv

>>> COPY /tmp/ozone_160.25/GMJ_IVECC2_E_M.csv /home/grierjones/DDCASPT2/ozone/ANO-RCC-VTZP/ozone_160.25/GMJ_IVECC2_E_M.csv

>>> COPY /tmp/ozone_160.25/GMJ_e2_E_M.csv /home/grierjones/DDCASPT2/ozone/ANO-RCC-VTZP/ozone_160.25/GMJ_e2_E_M.csv

>>> END FOREACH

>>> END FOREACH

>>> EXPORT i = F

>>> EXPORT j = P

>>> IF (-FILE GMJ_e2_${i}_${j}.csv)

>>> COPY /tmp/ozone_160.25/GMJ_RHS_F_P.csv /home/grierjones/DDCASPT2/ozone/ANO-RCC-VTZP/ozone_160.25/GMJ_RHS_F_P.csv

>>> COPY /tmp/ozone_160.25/GMJ_IVECW_F_P.csv /home/grierjones/DDCASPT2/ozone/ANO-RCC-VTZP/ozone_160.25/GMJ_IVECW_F_P.csv

>>> COPY /tmp/ozone_160.25/GMJ_IVECX_F_P.csv /home/grierjones/DDCASPT2/ozone/ANO-RCC-VTZP/ozone_160.25/GMJ_IVECX_F_P.csv

>>> COPY /tmp/ozone_160.25/GMJ_IVECC2_F_P.csv /home/grierjones/DDCASPT2/ozone/ANO-RCC-VTZP/ozone_160.25/GMJ_IVECC2_F_P.csv

>>> COPY /tmp/ozone_160.25/GMJ_e2_F_P.csv /home/grierjones/DDCASPT2/ozone/ANO-RCC-VTZP/ozone_160.25/GMJ_e2_F_P.csv

>>> END FOREACH

>>> EXPORT j = M

>>> IF (-FILE GMJ_e2_${i}_${j}.csv)

>>> COPY /tmp/ozone_160.25/GMJ_RHS_F_M.csv /home/grierjones/DDCASPT2/ozone/ANO-RCC-VTZP/ozone_160.25/GMJ_RHS_F_M.csv

>>> COPY /tmp/ozone_160.25/GMJ_IVECW_F_M.csv /home/grierjones/DDCASPT2/ozone/ANO-RCC-VTZP/ozone_160.25/GMJ_IVECW_F_M.csv

>>> COPY /tmp/ozone_160.25/GMJ_IVECX_F_M.csv /home/grierjones/DDCASPT2/ozone/ANO-RCC-VTZP/ozone_160.25/GMJ_IVECX_F_M.csv

>>> COPY /tmp/ozone_160.25/GMJ_IVECC2_F_M.csv /home/grierjones/DDCASPT2/ozone/ANO-RCC-VTZP/ozone_160.25/GMJ_IVECC2_F_M.csv

>>> COPY /tmp/ozone_160.25/GMJ_e2_F_M.csv /home/grierjones/DDCASPT2/ozone/ANO-RCC-VTZP/ozone_160.25/GMJ_e2_F_M.csv

>>> END FOREACH

>>> END FOREACH

>>> EXPORT i = G

>>> EXPORT j = P

>>> IF (-FILE GMJ_e2_${i}_${j}.csv)

>>> COPY /tmp/ozone_160.25/GMJ_RHS_G_P.csv /home/grierjones/DDCASPT2/ozone/ANO-RCC-VTZP/ozone_160.25/GMJ_RHS_G_P.csv

>>> COPY /tmp/ozone_160.25/GMJ_IVECW_G_P.csv /home/grierjones/DDCASPT2/ozone/ANO-RCC-VTZP/ozone_160.25/GMJ_IVECW_G_P.csv

>>> COPY /tmp/ozone_160.25/GMJ_IVECX_G_P.csv /home/grierjones/DDCASPT2/ozone/ANO-RCC-VTZP/ozone_160.25/GMJ_IVECX_G_P.csv

>>> COPY /tmp/ozone_160.25/GMJ_IVECC2_G_P.csv /home/grierjones/DDCASPT2/ozone/ANO-RCC-VTZP/ozone_160.25/GMJ_IVECC2_G_P.csv

>>> COPY /tmp/ozone_160.25/GMJ_e2_G_P.csv /home/grierjones/DDCASPT2/ozone/ANO-RCC-VTZP/ozone_160.25/GMJ_e2_G_P.csv

>>> END FOREACH

>>> EXPORT j = M

>>> IF (-FILE GMJ_e2_${i}_${j}.csv)

>>> COPY /tmp/ozone_160.25/GMJ_RHS_G_M.csv /home/grierjones/DDCASPT2/ozone/ANO-RCC-VTZP/ozone_160.25/GMJ_RHS_G_M.csv

>>> COPY /tmp/ozone_160.25/GMJ_IVECW_G_M.csv /home/grierjones/DDCASPT2/ozone/ANO-RCC-VTZP/ozone_160.25/GMJ_IVECW_G_M.csv

>>> COPY /tmp/ozone_160.25/GMJ_IVECX_G_M.csv /home/grierjones/DDCASPT2/ozone/ANO-RCC-VTZP/ozone_160.25/GMJ_IVECX_G_M.csv

>>> COPY /tmp/ozone_160.25/GMJ_IVECC2_G_M.csv /home/grierjones/DDCASPT2/ozone/ANO-RCC-VTZP/ozone_160.25/GMJ_IVECC2_G_M.csv

>>> COPY /tmp/ozone_160.25/GMJ_e2_G_M.csv /home/grierjones/DDCASPT2/ozone/ANO-RCC-VTZP/ozone_160.25/GMJ_e2_G_M.csv

>>> END FOREACH

>>> END FOREACH

>>> EXPORT i = H

>>> EXPORT j = P

>>> IF (-FILE GMJ_e2_${i}_${j}.csv)

>>> COPY /tmp/ozone_160.25/GMJ_RHS_H_P.csv /home/grierjones/DDCASPT2/ozone/ANO-RCC-VTZP/ozone_160.25/GMJ_RHS_H_P.csv

>>> COPY /tmp/ozone_160.25/GMJ_IVECW_H_P.csv /home/grierjones/DDCASPT2/ozone/ANO-RCC-VTZP/ozone_160.25/GMJ_IVECW_H_P.csv

>>> COPY /tmp/ozone_160.25/GMJ_IVECX_H_P.csv /home/grierjones/DDCASPT2/ozone/ANO-RCC-VTZP/ozone_160.25/GMJ_IVECX_H_P.csv

>>> COPY /tmp/ozone_160.25/GMJ_IVECC2_H_P.csv /home/grierjones/DDCASPT2/ozone/ANO-RCC-VTZP/ozone_160.25/GMJ_IVECC2_H_P.csv

>>> COPY /tmp/ozone_160.25/GMJ_e2_H_P.csv /home/grierjones/DDCASPT2/ozone/ANO-RCC-VTZP/ozone_160.25/GMJ_e2_H_P.csv

>>> END FOREACH

>>> EXPORT j = M

>>> IF (-FILE GMJ_e2_${i}_${j}.csv)

>>> COPY /tmp/ozone_160.25/GMJ_RHS_H_M.csv /home/grierjones/DDCASPT2/ozone/ANO-RCC-VTZP/ozone_160.25/GMJ_RHS_H_M.csv

>>> COPY /tmp/ozone_160.25/GMJ_IVECW_H_M.csv /home/grierjones/DDCASPT2/ozone/ANO-RCC-VTZP/ozone_160.25/GMJ_IVECW_H_M.csv

>>> COPY /tmp/ozone_160.25/GMJ_IVECX_H_M.csv /home/grierjones/DDCASPT2/ozone/ANO-RCC-VTZP/ozone_160.25/GMJ_IVECX_H_M.csv

>>> COPY /tmp/ozone_160.25/GMJ_IVECC2_H_M.csv /home/grierjones/DDCASPT2/ozone/ANO-RCC-VTZP/ozone_160.25/GMJ_IVECC2_H_M.csv

>>> COPY /tmp/ozone_160.25/GMJ_e2_H_M.csv /home/grierjones/DDCASPT2/ozone/ANO-RCC-VTZP/ozone_160.25/GMJ_e2_H_M.csv

>>> END FOREACH

>>> END FOREACH

>>> EXPORT i = A

>>> IF (-FILE GMJ_e2_$i.csv)

>>> COPY /tmp/ozone_160.25/GMJ_RHS_A.csv /home/grierjones/DDCASPT2/ozone/ANO-RCC-VTZP/ozone_160.25/GMJ_RHS_A.csv

>>> COPY /tmp/ozone_160.25/GMJ_IVECW_A.csv /home/grierjones/DDCASPT2/ozone/ANO-RCC-VTZP/ozone_160.25/GMJ_IVECW_A.csv

>>> COPY /tmp/ozone_160.25/GMJ_IVECX_A.csv /home/grierjones/DDCASPT2/ozone/ANO-RCC-VTZP/ozone_160.25/GMJ_IVECX_A.csv

>>> COPY /tmp/ozone_160.25/GMJ_IVECC2_A.csv /home/grierjones/DDCASPT2/ozone/ANO-RCC-VTZP/ozone_160.25/GMJ_IVECC2_A.csv

>>> COPY /tmp/ozone_160.25/GMJ_e2_A.csv /home/grierjones/DDCASPT2/ozone/ANO-RCC-VTZP/ozone_160.25/GMJ_e2_A.csv

>>> END FOREACH

>>> EXPORT i = C

>>> IF (-FILE GMJ_e2_$i.csv)

>>> COPY /tmp/ozone_160.25/GMJ_RHS_C.csv /home/grierjones/DDCASPT2/ozone/ANO-RCC-VTZP/ozone_160.25/GMJ_RHS_C.csv

>>> COPY /tmp/ozone_160.25/GMJ_IVECW_C.csv /home/grierjones/DDCASPT2/ozone/ANO-RCC-VTZP/ozone_160.25/GMJ_IVECW_C.csv

>>> COPY /tmp/ozone_160.25/GMJ_IVECX_C.csv /home/grierjones/DDCASPT2/ozone/ANO-RCC-VTZP/ozone_160.25/GMJ_IVECX_C.csv

>>> COPY /tmp/ozone_160.25/GMJ_IVECC2_C.csv /home/grierjones/DDCASPT2/ozone/ANO-RCC-VTZP/ozone_160.25/GMJ_IVECC2_C.csv

>>> COPY /tmp/ozone_160.25/GMJ_e2_C.csv /home/grierjones/DDCASPT2/ozone/ANO-RCC-VTZP/ozone_160.25/GMJ_e2_C.csv

>>> END FOREACH

>>> EXPORT i = D

>>> IF (-FILE GMJ_e2_$i.csv)

>>> COPY /tmp/ozone_160.25/GMJ_RHS_D.csv /home/grierjones/DDCASPT2/ozone/ANO-RCC-VTZP/ozone_160.25/GMJ_RHS_D.csv

>>> COPY /tmp/ozone_160.25/GMJ_IVECW_D.csv /home/grierjones/DDCASPT2/ozone/ANO-RCC-VTZP/ozone_160.25/GMJ_IVECW_D.csv

>>> COPY /tmp/ozone_160.25/GMJ_IVECX_D.csv /home/grierjones/DDCASPT2/ozone/ANO-RCC-VTZP/ozone_160.25/GMJ_IVECX_D.csv

>>> COPY /tmp/ozone_160.25/GMJ_IVECC2_D.csv /home/grierjones/DDCASPT2/ozone/ANO-RCC-VTZP/ozone_160.25/GMJ_IVECC2_D.csv

>>> COPY /tmp/ozone_160.25/GMJ_e2_D.csv /home/grierjones/DDCASPT2/ozone/ANO-RCC-VTZP/ozone_160.25/GMJ_e2_D.csv

>>> END FOREACH

.########################.
.# Non-zero return code #.
.########################.

    Timing: Wall=17.07 User=9.26 System=7.80
********************************************
*** WorkDir at /tmp/ozone_160.25 cleaned ***
********************************************
