   This run of MOLCAS is using the pymolcas driver

                             OPE
                             OPE          NMOL  CASOP  ENMOLC A   SO
                 OPE        NMOLC        AS  OP EN  MO LC     AS  OP
                OPENM       OL CA        SO  PE NM  OL CA     SOP EN
                OP EN      MO   LC       AS  OP ENMOL  CASO   PENMOL
                OP  EN     MO   LC       AS  OP EN     MO     LC ASO
               OP   E  NMOL  C  AS       OP  EN MO     LC     AS  OP
               OP  E   NMO   LC AS        OPEN  MO     LCASOP EN   M
               O  PEN   MO  LCA  SO
            OPE   NMO   L   CAS    OP
        OPENMOL  CASOP     ENMOL   CASOPE
     OPENMOLCA   SOPENMOLCASOPEN   MOLCASOPE
    OPENMOLCAS   OP           EN   MOL    CAS
    OPENMOLCAS       OP  ENM        O     LCA
    OPENMOLCAS    OPEN  MOLCASO     P  E  NMO
    OPENMOLCAS     OP               E  N  MOL
    OPENMOLCA   SO           PENM   O  L  CAS    OPEN    MO    LCAS
    OPENMOLCA   SOP           ENM   O  L  CAS   OP  EN  MOLC  AS   O
    OPENMOLCA   SOPE           NM      O  LCA   S      OP  EN MO
    OPENMOLC                AS         O  PEN   M      OL  CA  SOPE
    OPENMO        LCASOPE  NMOL        C  ASO   P      ENMOLC     AS
    OPE     NMO      LCA  SO     P     E   NM   OL  CA SO  PE N   MO
          OPENMOLCA            SOPE   NMO        LCAS  O    P  ENMO
     OPENMOLCASOPENMOLCASOPENMOLCASOPENMOLCA
        OPENMOLCASOPENMOLCASOPENMOLCASOPE
            OPENMOLCASOPENMOLCASOPENM
               OPENMOLCASOPENMOLCA        version: ea724fe96-dirty
                   OPENMOLCASO
                       OPE                tag:

 OpenMolcas is free software; you can redistribute it and/or modify it
 under the terms of the GNU Lesser General Public License version 2.1.
 OpenMolcas is distributed in the hope that it will be useful, but it
 is provided "as is" and without any express or implied warranties.
 For more details see the full text of the license in the file
 LICENSE or in <http://www.gnu.org/licenses/>.

                 Copyright (C) The OpenMolcas Authors
           For the author list and the recommended citation,
                   consult the file CONTRIBUTORS.md

           *************************************************
           * pymolcas version py2.28                       *
           *   build c4a6d18ded8cb6cad61d2372a9abd97c      *
           *   (after the EMIL interpreter by V. Veryazov) *
           *************************************************

configuration info
------------------
C Compiler ID: Intel
C flags: -std=gnu99
Fortran Compiler ID: Intel
Fortran flags: -fpp -i8 -r8 -heap-arrays
Definitions: _MOLCAS_;_I8_;_LINUX_
Parallel: OFF (GA=OFF)


   --------------------------------------------------------------------------------
  |
  |              Project: ozone_128.50
  |       Submitted from: /home/grierjones/DDCASPT2/ozone/ANO-RCC-VTZP/ozone_128.50
  |         Scratch area: /tmp/ozone_128.50
  |      Save outputs to: /home/grierjones/DDCASPT2/ozone/ANO-RCC-VTZP/ozone_128.50
  |               Molcas: /home/grierjones/Test/build
  |
  | Scratch area is empty
  |
  |       MOLCAS_DRIVER = /usr/local/pymolcas
  | MOLCAS_KEEP_WORKDIR = NO
  |  MOLCAS_NEW_WORKDIR = YES
  |       MOLCAS_NPROCS = 1
  |        MOLCAS_PRINT = NORMAL
  |       MOLCAS_SOURCE = /home/grierjones/Test/build
  |    MOLCAS_STRUCTURE = 0
  |
   --------------------------------------------------------------------------------

++ ---------   Input file   ---------

&GATEWAY
coord=ozone_128.50.xyz
Basis = ANO-RCC-VTZP
Group = nosymm
Expert
End of Input

&SEWARD
End of Input

&SCF

>>> COPY $WorkDir/ozone_128.50.scf.h5 $CurrDir/

&RASSCF
Title= RASSCF
FileOrb
/home/grierjones/DDCASPT2/ozone/ANO-RCC-VTZP/ozone_128.25/ozone_128.25.RasOrb
NACTEL
4 0 0
Inactive
10
RAS2
3
Symmetry
1
Spin
1
orblisting
all
ITERation
300 200

>>> COPY $WorkDir/ozone_128.50.rasscf.h5 $CurrDir/

>>> COPY $WorkDir/GMJ_Fock_MO.csv $CurrDir/ozone_128.50.GMJ_Fock_MO.csv

>>> COPY $WorkDir/GMJ_PT2_Fock_MO.csv $CurrDir/ozone_128.50.GMJ_PT2_Fock_MO.csv

&MOTRA
Frozen=0
LUMORB

>>> COPY $WorkDir/GMJ_one_int_indx.csv $CurrDir/ozone_128.50.GMJ_one_int_indx.csv

>>> COPY $WorkDir/GMJ_one_int.csv $CurrDir/ozone_128.50.GMJ_one_int.csv

>>> COPY $WorkDir/GMJ_two_int_indx.csv $CurrDir/ozone_128.50.GMJ_two_int_indx.csv

>>> COPY $WorkDir/GMJ_two_int.csv $CurrDir/ozone_128.50.GMJ_two_int.csv

&CASPT2
Frozen
0
MAXITER
50

>>> FOREACH i IN (B,E,F,G,H)

  >>> FOREACH j IN (P,M)

    >>> IF (-FILE GMJ_e2_${i}_${j}.csv)

      >>> COPY $WorkDir/GMJ_RHS_${i}_${j}.csv $CurrDir/GMJ_RHS_${i}_${j}.csv

      >>> COPY $WorkDir/GMJ_IVECW_${i}_${j}.csv $CurrDir/GMJ_IVECW_${i}_${j}.csv

      >>> COPY $WorkDir/GMJ_IVECX_${i}_${j}.csv $CurrDir/GMJ_IVECX_${i}_${j}.csv

      >>> COPY $WorkDir/GMJ_IVECC2_${i}_${j}.csv $CurrDir/GMJ_IVECC2_${i}_${j}.csv

      >>> COPY $WorkDir/GMJ_e2_${i}_${j}.csv $CurrDir/GMJ_e2_${i}_${j}.csv

    >>> END IF

  >>> END FOREACH

>>> END FOREACH

>>> FOREACH i IN (A,C,D)

  >>> IF (-FILE GMJ_e2_$i.csv)

    >>> COPY $WorkDir/GMJ_RHS_$i.csv $CurrDir/GMJ_RHS_$i.csv

    >>> COPY $WorkDir/GMJ_IVECW_$i.csv $CurrDir/GMJ_IVECW_$i.csv

    >>> COPY $WorkDir/GMJ_IVECX_$i.csv $CurrDir/GMJ_IVECX_$i.csv

    >>> COPY $WorkDir/GMJ_IVECC2_$i.csv $CurrDir/GMJ_IVECC2_$i.csv

    >>> COPY $WorkDir/GMJ_e2_$i.csv $CurrDir/GMJ_e2_$i.csv

  >>> END IF

>>> END FOREACH

-- ----------------------------------

--- Start Module: gateway at Wed Jan  1 07:12:04 2025 ---
 
()()()()()()()()()()()()()()()()()()()()()()()()()()()()()()()()()()()()()()()()()()()()()()()()()()

                                              &GATEWAY

                                   only a single process is used
                       available to each process: 2.0 GB of memory, 1 thread?
()()()()()()()()()()()()()()()()()()()()()()()()()()()()()()()()()()()()()()()()()()()()()()()()()()
 
 ###############################################################################
 ###############################################################################
 ###                                                                         ###
 ###                                                                         ###
 ###                                                                         ###
 ###    WARNING: EXPERT option is ON!                                        ###
 ###                                                                         ###
 ###                                                                         ###
 ###############################################################################
 ###############################################################################
 
++    Symmetry information:
      ---------------------
 
                    Character Table for C1 
 
                             E  
                    a        1  x, y, xy, Rz, z, xz, Ry, yz, Rx, I
--
 
 
++    Basis set information:
      ----------------------
 
 
      Basis set label: O.ANO-RCC...4S3P2D1F.
 
      Electronic valence basis set:
      ------------------
      Associated Effective Charge   8.000000 au
      Associated Actual Charge      8.000000 au
      Nuclear Model: Point charge
 
      Shell  nPrim  nBasis  Cartesian Spherical Contaminant
         s      14       4        X                  
         p       9       3        X                  
         d       4       2                 X         
         f       3       1                 X         
--
 
 
++    Molecular structure info:
      -------------------------
 
                    ************************************************ 
                    **** Cartesian Coordinates / Bohr, Angstrom **** 
                    ************************************************ 
 
     Center  Label                x              y              z                     x              y              z
        1      O1               1.049216       2.175249       0.000000              0.555221       1.151092       0.000000
        2      O2               0.000000       0.000000       0.000000              0.000000       0.000000       0.000000
        3      O3               1.049216      -2.175249       0.000000              0.555221      -1.151092       0.000000
 
                    *************************************** 
                    *    InterNuclear Distances / Bohr    * 
                    *************************************** 
 
               1 O1            2 O2            3 O3    
    1 O1       0.000000
    2 O2       2.415069        0.000000
    3 O3       4.350497        2.415069        0.000000
 
                    ******************************************* 
                    *    InterNuclear Distances / Angstrom    * 
                    ******************************************* 
 
               1 O1            2 O2            3 O3    
    1 O1       0.000000
    2 O2       1.278000        0.000000
    3 O3       2.302184        1.278000        0.000000
 
                    ************************************** 
                    *    Valence Bond Angles / Degree    * 
                    ************************************** 
                          Atom centers                 Phi
                      1 O1       2 O2       3 O3       128.50
--
 
 
            Nuclear Potential Energy             67.71151023 au
 
 ###############################################################################
 ###############################################################################
 ###                                                                         ###
 ###                                                                         ###
 ###    There were warnings during the execution                             ###
 ###    Please, check the output with care!                                  ###
 ###                                                                         ###
 ###                                                                         ###
 ###############################################################################
 ###############################################################################
--- Stop Module: gateway at Wed Jan  1 07:12:04 2025 /rc=_RC_ALL_IS_WELL_ ---
*** files: xmldump
    saved to directory /home/grierjones/DDCASPT2/ozone/ANO-RCC-VTZP/ozone_128.50

--- Start Module: seward at Wed Jan  1 07:12:04 2025 ---
 
()()()()()()()()()()()()()()()()()()()()()()()()()()()()()()()()()()()()()()()()()()()()()()()()()()

                                              &SEWARD

                                   only a single process is used
                       available to each process: 2.0 GB of memory, 1 thread?
()()()()()()()()()()()()()()()()()()()()()()()()()()()()()()()()()()()()()()()()()()()()()()()()()()
 
 ###############################################################################
 ###############################################################################
 ###                                                                         ###
 ###                                                                         ###
 ###                                                                         ###
 ###    WARNING: EXPERT option is ON!                                        ###
 ###                                                                         ###
 ###                                                                         ###
 ###############################################################################
 ###############################################################################
               SEWARD will generate:
                  Multipole Moment integrals up to order  2
                  Kinetic Energy integrals
                  Nuclear Attraction integrals (point charge)
                  One-Electron Hamiltonian integrals
                  Velocity integrals
                  Relativistic Douglas-Kroll-Hess integrals:
                    - Parametrization         : EXP
                    - DKH order of Hamiltonian: 2
                    - DKH order of Properties : 0
                         - multipole moment operators
                         - electric potential operators
                         - contact operators
                  Atomic mean-field integrals
                  Two-Electron Repulsion integrals
 
                   Integrals are discarded if absolute value <: 0.10E-13
                   Integral cutoff threshold is set to       <: 0.10E-15
 
            Nuclear Potential Energy             67.71151023 au
 
 
      Basis set specifications :
      Symmetry species         a  
      Basis functions           90
 
 
  Input file to MOLDEN was generated!
 
 ###############################################################################
 ###############################################################################
 ###                                                                         ###
 ###                                                                         ###
 ###    There were warnings during the execution                             ###
 ###    Please, check the output with care!                                  ###
 ###                                                                         ###
 ###                                                                         ###
 ###############################################################################
 ###############################################################################
--- Stop Module: seward at Wed Jan  1 07:12:07 2025 /rc=_RC_ALL_IS_WELL_ ---
*** files: ozone_128.50.GssOrb ozone_128.50.guessorb.h5 ozone_128.50.guessorb.molden xmldump
    saved to directory /home/grierjones/DDCASPT2/ozone/ANO-RCC-VTZP/ozone_128.50
--- Module seward spent 2 seconds ---

*** symbolic link created: INPORB -> ozone_128.50.GssOrb
--- Start Module: scf at Wed Jan  1 07:12:07 2025 ---
 
()()()()()()()()()()()()()()()()()()()()()()()()()()()()()()()()()()()()()()()()()()()()()()()()()()

                                                &SCF

                                   only a single process is used
                       available to each process: 2.0 GB of memory, 1 thread?
()()()()()()()()()()()()()()()()()()()()()()()()()()()()()()()()()()()()()()()()()()()()()()()()()()
 
++    Input section:
      --------------
 
      Header of the integral files:
      
       Integrals generated by seward 4.2.0  , Wed Jan  1 07:12:04 2025
 
 
      Cartesian coordinates in Angstrom:
      -----------------------------------------------------
      No.  Label        X            Y            Z        
      -----------------------------------------------------
       1   O1         0.55522100   1.15109200   0.00000000
       2   O2         0.00000000   0.00000000   0.00000000
       3   O3         0.55522100  -1.15109200   0.00000000
      -----------------------------------------------------
      Nuclear repulsion energy =   67.71151023
--
 
++    Orbital specifications:
      -----------------------
 
      Symmetry species               1
                                     a
      Frozen orbitals                0
      Occupied orbitals             12
      Secondary orbitals            78
      Deleted orbitals               0
      Total number of orbitals      90
      Number of basis functions     90
--
 
      Molecular charge                           0.000
 
++    Optimization specifications:
      ----------------------------
 
      SCF Algorithm: Conventional
      Minimized density differences are used
      Number of density matrices in core                5
      Maximum number of NDDO SCF iterations           400
      Maximum number of HF SCF iterations             400
      Threshold for SCF energy change            0.10E-08
      Threshold for density matrix               0.10E-03
      Threshold for Fock matrix                  0.15E-03
      Threshold for linear dependence            0.10E-08
      Threshold at which DIIS is turned on       0.15E+00
      Threshold at which QNR/C2DIIS is turned on 0.75E-01
      Threshold for Norm(delta) (QNR/C2DIIS)     0.20E-04
      DIIS extrapolation of the SCF procedure
      All orbitals punched on: SCFORB
--
 
      Input vectors read from INPORB
      Orbital file label: *Guess orbitals
 
 
++ Convergence information
                                   SCF        iterations: Energy and convergence statistics
 
Iter     Tot. SCF        One-elec.       Two-elec.     Energy      Max Dij or  Max Fij      DNorm      TNorm      AccCon     Time
         Energy          Energy          Energy        Change      Delta Norm                                                in Sec.
   1  -223.905546573  -439.078671991   147.461615184   0.00E+00    0.62E+00*   0.26E+00*    0.73E+01   0.11E+03   None         0.
   2  -224.115116724  -445.386649543   153.560022584  -0.21E+00*   0.23E+00*   0.18E+00*    0.27E+01   0.11E+03   EDIIS        0.
   3  -224.465282876  -442.710764567   150.533971457  -0.35E+00*   0.23E+00*   0.89E-01*    0.68E+00   0.11E+03   EDIIS        0.
   4  -224.465632399  -443.446580552   151.269437920  -0.35E-03*   0.15E-01*   0.46E-01*    0.27E+00   0.11E+03   EDIIS        0.
   5  -224.505462943  -443.025510560   150.808537384  -0.40E-01*   0.72E-02*   0.28E-02*    0.35E-01   0.11E+03   c2DIIS       0.
   6  -224.505655984  -443.054203475   150.837037257  -0.19E-03*   0.38E-02*   0.15E-02*    0.97E-02   0.11E+03   QNRc2DIIS    0.
   7  -224.505701245  -443.048715683   150.831504204  -0.45E-04*   0.59E-02*   0.12E-02*    0.40E-02   0.11E+03   QNRc2DIIS    0.
   8  -224.505725794  -443.050984704   150.833748677  -0.25E-04*   0.11E-02*   0.56E-03*    0.33E-02   0.11E+03   QNRc2DIIS    0.
   9  -224.505727478  -443.052441817   150.835204104  -0.17E-05*   0.74E-03*   0.42E-03*    0.67E-03   0.11E+03   QNRc2DIIS    0.
  10  -224.505728461  -443.048792851   150.831554156  -0.98E-06*   0.87E-04*   0.52E-04     0.33E-03   0.11E+03   QNRc2DIIS    0.
  11  -224.505728496  -443.050857138   150.833618408  -0.35E-07*   0.26E-04*   0.91E-05     0.96E-04   0.11E+03   QNRc2DIIS    0.
  12  -224.505728498  -443.050747633   150.833508901  -0.19E-08*   0.11E-04    0.25E-05     0.21E-04   0.11E+03   QNRc2DIIS    0.
  13  -224.505728498  -443.050689261   150.833450530  -0.17E-09    0.65E-06    0.24E-06     0.37E-03   0.11E+03   QNRc2DIIS    0.
 
       Convergence after 13 Macro Iterations
--
 
 *****************************************************************************************************************************
 *                                                                                                                           *
 *                                             SCF/KS-DFT Program, Final results                                             *
 *                                                                                                                           *
 *                                                                                                                           *
 *                                                                                                                           *
 *                                                       Final Results                                                       *
 *                                                                                                                           *
 *****************************************************************************************************************************
 
::    Total SCF energy                               -224.5057284982
      One-electron energy                            -443.0506892615
      Two-electron energy                             150.8334505295
      Nuclear repulsion energy                         67.7115102338
      Kinetic energy (interpolated)                   225.0311864293
      Virial theorem                                    0.9976649551
      Total spin, S(S+1)                                0.0000000000
      Total spin, S                                     0.0000000000
      Max non-diagonal density matrix element           0.0000005359
      Max non-diagonal Fock matrix element              0.0000000558
 
 
      All orbitals with orbital energies smaller than  E(LUMO)+0.5 are printed
 
++    Molecular orbitals:
      -------------------
 
      Title: SCF orbitals

      Molecular orbitals for symmetry species 1: a  
 
          Orbital            1         2         3         4         5         6         7         8         9        10    
          Energy          -20.9268  -20.7326  -20.7325   -1.7393   -1.4474   -1.0878   -0.8321   -0.8035   -0.7761   -0.5814
          Occ. No.          2.0000    2.0000    2.0000    2.0000    2.0000    2.0000    2.0000    2.0000    2.0000    2.0000
 
        1 O1     1s         0.0023   -0.7064    0.7063   -0.0131    0.0120    0.0109   -0.0104   -0.0231    0.0000    0.0072
        2 O1     2s         0.0032    0.0052   -0.0055    0.3375   -0.5670    0.6100   -0.2247   -0.4302    0.0000    0.0671
        3 O1     3s         0.0018    0.0037   -0.0038   -0.0090    0.0196    0.0185   -0.0195   -0.0512    0.0000    0.0178
        4 O1     4s         0.0003    0.0008   -0.0007   -0.0004    0.0040    0.0030   -0.0039   -0.0109    0.0000    0.0041
        5 O1     2px       -0.0007   -0.0012    0.0011   -0.0441    0.0555    0.0975    0.1998   -0.3035   -0.0000   -0.5756
        6 O1     3px       -0.0005   -0.0013    0.0010    0.0118   -0.0077   -0.0163   -0.0112    0.0271   -0.0000   -0.0075
        7 O1     4px       -0.0000    0.0005   -0.0007    0.0024    0.0001    0.0007   -0.0006    0.0017   -0.0000    0.0041
        8 O1     2py       -0.0019   -0.0021    0.0025   -0.1121    0.0757    0.1098   -0.3131   -0.2910    0.0000    0.4274
        9 O1     3py       -0.0011   -0.0022    0.0025    0.0139   -0.0160   -0.0185    0.0300    0.0402    0.0000   -0.0048
       10 O1     4py        0.0005    0.0014   -0.0015    0.0011   -0.0037    0.0011    0.0039    0.0034    0.0000   -0.0031
       11 O1     2pz       -0.0000    0.0000    0.0000    0.0000   -0.0000   -0.0000   -0.0000    0.0000    0.3827   -0.0000
       12 O1     3pz        0.0000   -0.0000   -0.0000    0.0000   -0.0000   -0.0000    0.0000   -0.0000   -0.0174   -0.0000
       13 O1     4pz       -0.0000   -0.0000    0.0000   -0.0000   -0.0000   -0.0000   -0.0000    0.0000   -0.0068   -0.0000
       14 O1     3d2-       0.0003    0.0009   -0.0009    0.0139   -0.0137   -0.0118   -0.0014    0.0258    0.0000    0.0025
       15 O1     4d2-       0.0001    0.0005   -0.0005    0.0014   -0.0016   -0.0008    0.0001    0.0022    0.0000    0.0010
       16 O1     3d1-      -0.0000   -0.0000   -0.0000    0.0000   -0.0000   -0.0000   -0.0000    0.0000   -0.0289   -0.0000
       17 O1     4d1-       0.0000    0.0000    0.0000    0.0000    0.0000   -0.0000   -0.0000    0.0000   -0.0046   -0.0000
       18 O1     3d0       -0.0003   -0.0005    0.0005   -0.0105    0.0092    0.0045   -0.0086   -0.0146    0.0000    0.0049
       19 O1     4d0       -0.0002   -0.0004    0.0004   -0.0005    0.0010   -0.0000   -0.0006   -0.0009   -0.0000    0.0005
       20 O1     3d1+       0.0000   -0.0000   -0.0000   -0.0000    0.0000    0.0000   -0.0000   -0.0000   -0.0141    0.0000
       21 O1     4d1+       0.0000   -0.0000   -0.0000   -0.0000    0.0000    0.0000    0.0000   -0.0000   -0.0028    0.0000
       22 O1     3d2+      -0.0005   -0.0008    0.0008   -0.0147    0.0083    0.0052   -0.0260   -0.0126    0.0000    0.0181
       23 O1     4d2+      -0.0002   -0.0003    0.0004   -0.0020    0.0011    0.0008   -0.0025   -0.0008    0.0000    0.0029
       24 O1     4f3-       0.0001    0.0001   -0.0000    0.0022   -0.0007    0.0008    0.0074   -0.0003   -0.0000   -0.0057
       25 O1     4f2-       0.0000    0.0000    0.0000    0.0000    0.0000    0.0000    0.0000    0.0000    0.0053   -0.0000
       26 O1     4f1-       0.0000    0.0002   -0.0001    0.0031   -0.0028   -0.0010    0.0022    0.0033    0.0000   -0.0010
       27 O1     4f0       -0.0000   -0.0000   -0.0000   -0.0000    0.0000    0.0000    0.0000   -0.0000   -0.0038   -0.0000
       28 O1     4f1+       0.0000    0.0001   -0.0001    0.0013   -0.0014   -0.0007    0.0003    0.0016   -0.0000   -0.0011
       29 O1     4f2+       0.0000   -0.0000    0.0000    0.0000    0.0000   -0.0000   -0.0000    0.0000   -0.0048    0.0000
       30 O1     4f3+       0.0000    0.0002   -0.0002    0.0052   -0.0053   -0.0028    0.0013    0.0070   -0.0000   -0.0006
       31 O2     1s         0.9991   -0.0000   -0.0008   -0.0275    0.0000   -0.0167   -0.0077    0.0000    0.0000    0.0000
       32 O2     2s        -0.0063    0.0000    0.0112    0.6206   -0.0000   -0.6571   -0.0826    0.0000    0.0000    0.0000
       33 O2     3s        -0.0045    0.0000    0.0064   -0.0692   -0.0000   -0.0162   -0.0140   -0.0000    0.0000    0.0000
       34 O2     4s        -0.0010    0.0000    0.0010   -0.0125   -0.0000   -0.0042   -0.0044   -0.0000    0.0000    0.0000
       35 O2     2px       -0.0010    0.0000    0.0033    0.0899    0.0000    0.2146    0.6782    0.0000    0.0000   -0.0000
       36 O2     3px       -0.0018    0.0000    0.0021   -0.0368   -0.0000   -0.0289   -0.0717   -0.0000    0.0000    0.0000
       37 O2     4px        0.0016   -0.0000   -0.0007   -0.0031   -0.0000    0.0012   -0.0093   -0.0000    0.0000    0.0000
       38 O2     2py        0.0000   -0.0060    0.0000   -0.0000   -0.3321    0.0000   -0.0000    0.5517   -0.0000   -0.1436
       39 O2     3py        0.0000   -0.0039    0.0000    0.0000    0.0640    0.0000    0.0000   -0.0571   -0.0000   -0.0077
       40 O2     4py       -0.0000    0.0012   -0.0000    0.0000   -0.0019    0.0000   -0.0000   -0.0092   -0.0000   -0.0004
       41 O2     2pz        0.0000    0.0000    0.0000    0.0000    0.0000    0.0000    0.0000    0.0000    0.6785    0.0000
       42 O2     3pz        0.0000    0.0000    0.0000    0.0000    0.0000    0.0000    0.0000    0.0000   -0.0465    0.0000
       43 O2     4pz        0.0000    0.0000    0.0000    0.0000    0.0000    0.0000    0.0000    0.0000   -0.0165    0.0000
       44 O2     3d2-       0.0000   -0.0013    0.0000   -0.0000   -0.0375    0.0000   -0.0000    0.0263   -0.0000   -0.0430
       45 O2     4d2-       0.0000   -0.0006    0.0000   -0.0000   -0.0041    0.0000    0.0000    0.0024   -0.0000   -0.0076
       46 O2     3d1-      -0.0000   -0.0000   -0.0000   -0.0000   -0.0000    0.0000    0.0000   -0.0000   -0.0000   -0.0000
       47 O2     4d1-       0.0000    0.0000   -0.0000    0.0000   -0.0000    0.0000    0.0000    0.0000   -0.0000    0.0000
       48 O2     3d0        0.0005   -0.0000   -0.0011   -0.0149   -0.0000   -0.0058   -0.0140   -0.0000   -0.0000    0.0000
       49 O2     4d0        0.0005   -0.0000   -0.0006    0.0009   -0.0000   -0.0003   -0.0007   -0.0000   -0.0000    0.0000
       50 O2     3d1+      -0.0000    0.0000    0.0000    0.0000   -0.0000   -0.0000    0.0000    0.0000    0.0292    0.0000
       51 O2     4d1+      -0.0000    0.0000    0.0000   -0.0000   -0.0000    0.0000   -0.0000    0.0000    0.0042   -0.0000
       52 O2     3d2+       0.0005   -0.0000   -0.0011   -0.0154   -0.0000   -0.0016    0.0184   -0.0000   -0.0000    0.0000
       53 O2     4d2+       0.0002   -0.0000   -0.0005   -0.0016   -0.0000   -0.0005    0.0016   -0.0000   -0.0000    0.0000
       54 O2     4f3-      -0.0000    0.0000   -0.0000    0.0000    0.0028   -0.0000    0.0000   -0.0054    0.0000   -0.0086
       55 O2     4f2-      -0.0000    0.0000   -0.0000    0.0000    0.0000   -0.0000    0.0000   -0.0000    0.0000   -0.0000
       56 O2     4f1-      -0.0000    0.0001   -0.0000    0.0000    0.0052   -0.0000    0.0000   -0.0044   -0.0000    0.0011
       57 O2     4f0        0.0000   -0.0000    0.0000    0.0000   -0.0000   -0.0000   -0.0000    0.0000   -0.0061   -0.0000
       58 O2     4f1+       0.0001   -0.0000   -0.0001   -0.0026    0.0000   -0.0003   -0.0018   -0.0000   -0.0000    0.0000
       59 O2     4f2+       0.0000    0.0000    0.0000    0.0000    0.0000   -0.0000   -0.0000    0.0000   -0.0068    0.0000
       60 O2     4f3+       0.0001   -0.0000   -0.0002   -0.0096    0.0000   -0.0012   -0.0059   -0.0000    0.0000    0.0000
       61 O3     1s         0.0023    0.7064    0.7063   -0.0131   -0.0120    0.0109   -0.0104    0.0231   -0.0000   -0.0072
       62 O3     2s         0.0032   -0.0052   -0.0055    0.3375    0.5670    0.6100   -0.2247    0.4302   -0.0000   -0.0671
       63 O3     3s         0.0018   -0.0037   -0.0038   -0.0090   -0.0196    0.0185   -0.0195    0.0512   -0.0000   -0.0178
       64 O3     4s         0.0003   -0.0008   -0.0007   -0.0004   -0.0040    0.0030   -0.0039    0.0109   -0.0000   -0.0041
       65 O3     2px       -0.0007    0.0012    0.0011   -0.0441   -0.0555    0.0975    0.1998    0.3035   -0.0000    0.5756
       66 O3     3px       -0.0005    0.0013    0.0010    0.0118    0.0077   -0.0163   -0.0112   -0.0271    0.0000    0.0075
       67 O3     4px       -0.0000   -0.0005   -0.0007    0.0024   -0.0001    0.0007   -0.0006   -0.0017    0.0000   -0.0041
       68 O3     2py        0.0019   -0.0021   -0.0025    0.1121    0.0757   -0.1098    0.3131   -0.2910   -0.0000    0.4274
       69 O3     3py        0.0011   -0.0022   -0.0025   -0.0139   -0.0160    0.0185   -0.0300    0.0402   -0.0000   -0.0048
       70 O3     4py       -0.0005    0.0014    0.0015   -0.0011   -0.0037   -0.0011   -0.0039    0.0034   -0.0000   -0.0031
       71 O3     2pz       -0.0000   -0.0000   -0.0000   -0.0000   -0.0000   -0.0000   -0.0000    0.0000    0.3827   -0.0000
       72 O3     3pz       -0.0000   -0.0000   -0.0000   -0.0000   -0.0000   -0.0000   -0.0000   -0.0000   -0.0174   -0.0000
       73 O3     4pz       -0.0000   -0.0000    0.0000   -0.0000   -0.0000   -0.0000   -0.0000   -0.0000   -0.0068   -0.0000
       74 O3     3d2-      -0.0003    0.0009    0.0009   -0.0139   -0.0137    0.0118    0.0014    0.0258   -0.0000    0.0025
       75 O3     4d2-      -0.0001    0.0005    0.0005   -0.0014   -0.0016    0.0008   -0.0001    0.0022   -0.0000    0.0010
       76 O3     3d1-       0.0000   -0.0000   -0.0000   -0.0000   -0.0000   -0.0000   -0.0000   -0.0000    0.0289   -0.0000
       77 O3     4d1-       0.0000   -0.0000   -0.0000   -0.0000   -0.0000   -0.0000   -0.0000    0.0000    0.0046   -0.0000
       78 O3     3d0       -0.0003    0.0005    0.0005   -0.0105   -0.0092    0.0045   -0.0086    0.0146    0.0000   -0.0049
       79 O3     4d0       -0.0002    0.0004    0.0004   -0.0005   -0.0010   -0.0000   -0.0006    0.0009    0.0000   -0.0005
       80 O3     3d1+      -0.0000   -0.0000    0.0000   -0.0000   -0.0000    0.0000   -0.0000    0.0000   -0.0141   -0.0000
       81 O3     4d1+      -0.0000   -0.0000    0.0000   -0.0000   -0.0000    0.0000   -0.0000    0.0000   -0.0028    0.0000
       82 O3     3d2+      -0.0005    0.0008    0.0008   -0.0147   -0.0083    0.0052   -0.0260    0.0126    0.0000   -0.0181
       83 O3     4d2+      -0.0002    0.0003    0.0004   -0.0020   -0.0011    0.0008   -0.0025    0.0008    0.0000   -0.0029
       84 O3     4f3-      -0.0001    0.0001    0.0000   -0.0022   -0.0007   -0.0008   -0.0074   -0.0003    0.0000   -0.0057
       85 O3     4f2-      -0.0000   -0.0000   -0.0000   -0.0000   -0.0000   -0.0000   -0.0000    0.0000   -0.0053    0.0000
       86 O3     4f1-      -0.0000    0.0002    0.0001   -0.0031   -0.0028    0.0010   -0.0022    0.0033    0.0000   -0.0010
       87 O3     4f0       -0.0000   -0.0000    0.0000   -0.0000    0.0000    0.0000   -0.0000   -0.0000   -0.0038    0.0000
       88 O3     4f1+       0.0000   -0.0001   -0.0001    0.0013    0.0014   -0.0007    0.0003   -0.0016   -0.0000    0.0011
       89 O3     4f2+       0.0000    0.0000    0.0000    0.0000    0.0000   -0.0000   -0.0000    0.0000   -0.0048    0.0000
       90 O3     4f3+       0.0000   -0.0002   -0.0002    0.0052    0.0053   -0.0028    0.0013   -0.0070   -0.0000    0.0006
 
          Orbital           11        12        13        14        15        16        17        18        19        20    
          Energy           -0.5363   -0.4961   -0.0455    0.1745    0.1835    0.2359    0.2548    0.3493    0.3556    0.3789
          Occ. No.          2.0000    2.0000    0.0000    0.0000    0.0000    0.0000    0.0000    0.0000    0.0000    0.0000
 
        1 O1     1s         0.0045    0.0000   -0.0000   -0.2010   -0.1286    0.0000   -0.0111   -0.0197    0.0727   -0.0000
        2 O1     2s         0.0251    0.0000   -0.0000   -1.4770   -0.9703    0.0000    0.0167   -0.0497    0.4102   -0.0000
        3 O1     3s         0.0172   -0.0000    0.0000   -0.8598   -0.5284    0.0000   -0.1281   -0.0346    0.5678   -0.0000
        4 O1     4s         0.0049   -0.0000    0.0000   -0.1935   -0.1097    0.0000   -0.0409   -0.0019    0.1599   -0.0000
        5 O1     2px        0.6607    0.0000   -0.0000    0.4180    0.1981   -0.0000   -0.1370   -0.2261   -0.0218    0.0000
        6 O1     3px        0.0120    0.0000    0.0000    0.3951    0.2905   -0.0000    0.2652   -0.7677    0.2238   -0.0000
        7 O1     4px       -0.0045   -0.0000    0.0000    0.0415    0.0709   -0.0000    0.1397   -0.3053    0.1282   -0.0000
        8 O1     2py       -0.0537   -0.0000   -0.0000    0.5599    0.8720   -0.0000   -0.3851   -0.2657   -0.0894    0.0000
        9 O1     3py       -0.0156   -0.0000   -0.0000    0.7185    0.7073   -0.0000   -0.2491   -0.1739   -0.7400   -0.0000
       10 O1     4py       -0.0011   -0.0000   -0.0000    0.1111    0.0845    0.0000   -0.1023   -0.0353   -0.1785   -0.0000
       11 O1     2pz        0.0000   -0.7024    0.6685   -0.0000   -0.0000   -0.1489    0.0000   -0.0000    0.0000   -0.1665
       12 O1     3pz        0.0000   -0.0327    0.1660    0.0000    0.0000    0.3324   -0.0000    0.0000    0.0000   -0.9167
       13 O1     4pz       -0.0000    0.0068    0.0259    0.0000    0.0000    0.1924    0.0000    0.0000    0.0000   -0.3687
       14 O1     3d2-      -0.0113   -0.0000    0.0000   -0.0738   -0.0437    0.0000   -0.0078    0.0003    0.0331    0.0000
       15 O1     4d2-      -0.0012   -0.0000    0.0000   -0.0476   -0.0291    0.0000   -0.0037    0.0144    0.0209    0.0000
       16 O1     3d1-       0.0000    0.0234    0.0090   -0.0000    0.0000    0.0118    0.0000    0.0000    0.0000    0.0024
       17 O1     4d1-       0.0000    0.0057    0.0003   -0.0000    0.0000    0.0035    0.0000    0.0000   -0.0000    0.0099
       18 O1     3d0        0.0052   -0.0000    0.0000    0.0524    0.0426   -0.0000    0.0176   -0.0065   -0.0417   -0.0000
       19 O1     4d0        0.0003   -0.0000    0.0000    0.0338    0.0287   -0.0000    0.0079   -0.0108   -0.0238   -0.0000
       20 O1     3d1+      -0.0000    0.0107    0.0052    0.0000   -0.0000    0.0036   -0.0000   -0.0000   -0.0000    0.0148
       21 O1     4d1+      -0.0000    0.0025    0.0001    0.0000   -0.0000   -0.0003   -0.0000   -0.0000   -0.0000    0.0127
       22 O1     3d2+       0.0032   -0.0000    0.0000    0.0534    0.0497   -0.0000    0.0398    0.0028   -0.1008   -0.0000
       23 O1     4d2+      -0.0008   -0.0000    0.0000    0.0314    0.0366   -0.0000    0.0152   -0.0007   -0.0620   -0.0000
       24 O1     4f3-       0.0013    0.0000    0.0000   -0.0034   -0.0009   -0.0000    0.0024   -0.0034    0.0105    0.0000
       25 O1     4f2-       0.0000   -0.0040   -0.0000   -0.0000    0.0000    0.0019    0.0000    0.0000    0.0000   -0.0057
       26 O1     4f1-      -0.0015    0.0000    0.0000   -0.0056   -0.0047   -0.0000   -0.0005    0.0053    0.0081    0.0000
       27 O1     4f0        0.0000    0.0016    0.0015    0.0000    0.0000   -0.0017    0.0000   -0.0000   -0.0000    0.0059
       28 O1     4f1+       0.0004    0.0000   -0.0000   -0.0017   -0.0028    0.0000   -0.0008    0.0046    0.0020    0.0000
       29 O1     4f2+      -0.0000    0.0035   -0.0006   -0.0000   -0.0000   -0.0011    0.0000   -0.0000   -0.0000    0.0028
       30 O1     4f3+      -0.0034    0.0000   -0.0000   -0.0086   -0.0054   -0.0000    0.0011    0.0091    0.0069    0.0000
       31 O2     1s         0.0215    0.0000   -0.0000   -0.0000    0.3133   -0.0000   -0.0310   -0.0000   -0.1959   -0.0000
       32 O2     2s         0.2612    0.0000   -0.0000   -0.0000    2.2927   -0.0000   -0.3575   -0.0000   -1.1353    0.0000
       33 O2     3s         0.0526   -0.0000   -0.0000   -0.0000    1.2294   -0.0000   -0.0177   -0.0000   -0.7598   -0.0000
       34 O2     4s         0.0130    0.0000   -0.0000   -0.0000    0.2620   -0.0000   -0.0061   -0.0000   -0.1271   -0.0000
       35 O2     2px       -0.5160   -0.0000    0.0000   -0.0000    0.7394   -0.0000   -0.3218   -0.0000   -0.2290    0.0000
       36 O2     3px       -0.0084    0.0000   -0.0000   -0.0000    0.7253   -0.0000    0.2602   -0.0000   -0.7707   -0.0000
       37 O2     4px       -0.0020    0.0000   -0.0000   -0.0000    0.1217    0.0000    0.1434   -0.0000   -0.1097   -0.0000
       38 O2     2py        0.0000   -0.0000    0.0000    1.4122    0.0000   -0.0000   -0.0000   -0.1180    0.0000    0.0000
       39 O2     3py        0.0000   -0.0000    0.0000    1.3923    0.0000   -0.0000   -0.0000    0.4466   -0.0000    0.0000
       40 O2     4py        0.0000   -0.0000    0.0000    0.1418    0.0000   -0.0000   -0.0000    0.2125   -0.0000    0.0000
       41 O2     2pz       -0.0000    0.0000   -0.8672   -0.0000   -0.0000    0.0050    0.0000    0.0000   -0.0000   -0.0000
       42 O2     3pz        0.0000    0.0000   -0.1871    0.0000    0.0000    0.3573   -0.0000    0.0000   -0.0000   -0.0000
       43 O2     4pz        0.0000   -0.0000   -0.0213    0.0000    0.0000    0.1977    0.0000    0.0000   -0.0000   -0.0000
       44 O2     3d2-       0.0000    0.0000   -0.0000    0.1335    0.0000   -0.0000   -0.0000    0.0856   -0.0000   -0.0000
       45 O2     4d2-       0.0000    0.0000   -0.0000    0.0824    0.0000   -0.0000   -0.0000    0.0630   -0.0000   -0.0000
       46 O2     3d1-       0.0000   -0.0595   -0.0000   -0.0000   -0.0000    0.0000    0.0000   -0.0000    0.0000    0.1009
       47 O2     4d1-       0.0000   -0.0140    0.0000    0.0000   -0.0000    0.0000    0.0000    0.0000    0.0000    0.0606
       48 O2     3d0        0.0189    0.0000   -0.0000    0.0000   -0.0624   -0.0000   -0.0596    0.0000    0.1580    0.0000
       49 O2     4d0        0.0022    0.0000   -0.0000    0.0000   -0.0425    0.0000   -0.0293    0.0000    0.0789    0.0000
       50 O2     3d1+      -0.0000   -0.0000    0.0038   -0.0000   -0.0000   -0.0265   -0.0000   -0.0000   -0.0000   -0.0000
       51 O2     4d1+       0.0000   -0.0000    0.0010    0.0000   -0.0000   -0.0109   -0.0000   -0.0000   -0.0000   -0.0000
       52 O2     3d2+       0.0394    0.0000   -0.0000    0.0000   -0.0535    0.0000   -0.0903    0.0000    0.0690    0.0000
       53 O2     4d2+       0.0081    0.0000   -0.0000    0.0000   -0.0325    0.0000   -0.0374    0.0000    0.0121    0.0000
       54 O2     4f3-       0.0000    0.0000   -0.0000   -0.0078   -0.0000    0.0000    0.0000    0.0013   -0.0000   -0.0000
       55 O2     4f2-       0.0000   -0.0078   -0.0000   -0.0000   -0.0000    0.0000    0.0000   -0.0000    0.0000    0.0066
       56 O2     4f1-      -0.0000    0.0000   -0.0000   -0.0090   -0.0000    0.0000    0.0000   -0.0111    0.0000    0.0000
       57 O2     4f0       -0.0000    0.0000   -0.0020    0.0000   -0.0000   -0.0019   -0.0000   -0.0000    0.0000    0.0000
       58 O2     4f1+      -0.0006   -0.0000   -0.0000    0.0000   -0.0042   -0.0000   -0.0048    0.0000    0.0099    0.0000
       59 O2     4f2+       0.0000   -0.0000    0.0009    0.0000   -0.0000   -0.0018    0.0000   -0.0000    0.0000    0.0000
       60 O2     4f3+       0.0050    0.0000   -0.0000    0.0000   -0.0100    0.0000   -0.0085    0.0000    0.0149    0.0000
       61 O3     1s         0.0045   -0.0000    0.0000    0.2010   -0.1286    0.0000   -0.0111    0.0197    0.0727    0.0000
       62 O3     2s         0.0251   -0.0000    0.0000    1.4770   -0.9703    0.0000    0.0167    0.0497    0.4102    0.0000
       63 O3     3s         0.0172    0.0000    0.0000    0.8598   -0.5284    0.0000   -0.1281    0.0346    0.5678    0.0000
       64 O3     4s         0.0049    0.0000    0.0000    0.1935   -0.1097   -0.0000   -0.0409    0.0019    0.1599    0.0000
       65 O3     2px        0.6607    0.0000   -0.0000   -0.4180    0.1981   -0.0000   -0.1370    0.2261   -0.0218   -0.0000
       66 O3     3px        0.0120   -0.0000   -0.0000   -0.3951    0.2905   -0.0000    0.2652    0.7677    0.2238    0.0000
       67 O3     4px       -0.0045   -0.0000    0.0000   -0.0415    0.0709   -0.0000    0.1397    0.3053    0.1282    0.0000
       68 O3     2py        0.0537   -0.0000    0.0000    0.5599   -0.8720    0.0000    0.3851   -0.2657    0.0894    0.0000
       69 O3     3py        0.0156    0.0000   -0.0000    0.7185   -0.7073    0.0000    0.2491   -0.1739    0.7400    0.0000
       70 O3     4py        0.0011    0.0000   -0.0000    0.1111   -0.0845    0.0000    0.1023   -0.0353    0.1785    0.0000
       71 O3     2pz       -0.0000    0.7024    0.6685   -0.0000   -0.0000   -0.1489    0.0000   -0.0000    0.0000    0.1665
       72 O3     3pz       -0.0000    0.0327    0.1660    0.0000    0.0000    0.3324    0.0000    0.0000    0.0000    0.9167
       73 O3     4pz       -0.0000   -0.0068    0.0259    0.0000    0.0000    0.1924    0.0000    0.0000    0.0000    0.3687
       74 O3     3d2-       0.0113   -0.0000   -0.0000   -0.0738    0.0437   -0.0000    0.0078    0.0003   -0.0331    0.0000
       75 O3     4d2-       0.0012   -0.0000   -0.0000   -0.0476    0.0291   -0.0000    0.0037    0.0144   -0.0209   -0.0000
       76 O3     3d1-      -0.0000    0.0234   -0.0090   -0.0000   -0.0000   -0.0118   -0.0000   -0.0000    0.0000    0.0024
       77 O3     4d1-      -0.0000    0.0057   -0.0003   -0.0000   -0.0000   -0.0035   -0.0000    0.0000    0.0000    0.0099
       78 O3     3d0        0.0052   -0.0000    0.0000   -0.0524    0.0426   -0.0000    0.0176    0.0065   -0.0417    0.0000
       79 O3     4d0        0.0003   -0.0000    0.0000   -0.0338    0.0287   -0.0000    0.0079    0.0108   -0.0238    0.0000
       80 O3     3d1+       0.0000   -0.0107    0.0052    0.0000    0.0000    0.0036   -0.0000    0.0000    0.0000   -0.0148
       81 O3     4d1+       0.0000   -0.0025    0.0001    0.0000    0.0000   -0.0003   -0.0000    0.0000    0.0000   -0.0127
       82 O3     3d2+       0.0032   -0.0000    0.0000   -0.0534    0.0497    0.0000    0.0398   -0.0028   -0.1008   -0.0000
       83 O3     4d2+      -0.0008   -0.0000    0.0000   -0.0314    0.0366   -0.0000    0.0152    0.0007   -0.0620   -0.0000
       84 O3     4f3-      -0.0013   -0.0000   -0.0000   -0.0034    0.0009    0.0000   -0.0024   -0.0034   -0.0105   -0.0000
       85 O3     4f2-       0.0000   -0.0040    0.0000    0.0000   -0.0000   -0.0019    0.0000   -0.0000   -0.0000   -0.0057
       86 O3     4f1-       0.0015    0.0000    0.0000   -0.0056    0.0047   -0.0000    0.0005    0.0053   -0.0081   -0.0000
       87 O3     4f0        0.0000   -0.0016    0.0015   -0.0000   -0.0000   -0.0017   -0.0000   -0.0000   -0.0000   -0.0059
       88 O3     4f1+       0.0004    0.0000   -0.0000    0.0017   -0.0028    0.0000   -0.0008   -0.0046    0.0020   -0.0000
       89 O3     4f2+       0.0000   -0.0035   -0.0006    0.0000    0.0000   -0.0011   -0.0000   -0.0000   -0.0000   -0.0028
       90 O3     4f3+      -0.0034    0.0000   -0.0000    0.0086   -0.0054    0.0000    0.0011   -0.0091    0.0069   -0.0000
 
          Orbital           21    
          Energy            0.4256
          Occ. No.          0.0000
 
        1 O1     1s        -0.0066
        2 O1     2s        -0.0288
        3 O1     3s         0.2078
        4 O1     4s         0.1079
        5 O1     2px        0.3038
        6 O1     3px        0.7002
        7 O1     4px        0.1882
        8 O1     2py       -0.0652
        9 O1     3py        0.4851
       10 O1     4py        0.1650
       11 O1     2pz       -0.0000
       12 O1     3pz        0.0000
       13 O1     4pz        0.0000
       14 O1     3d2-      -0.1119
       15 O1     4d2-      -0.0763
       16 O1     3d1-       0.0000
       17 O1     4d1-       0.0000
       18 O1     3d0        0.0357
       19 O1     4d0        0.0245
       20 O1     3d1+       0.0000
       21 O1     4d1+      -0.0000
       22 O1     3d2+       0.0318
       23 O1     4d2+       0.0175
       24 O1     4f3-       0.0031
       25 O1     4f2-       0.0000
       26 O1     4f1-      -0.0055
       27 O1     4f0        0.0000
       28 O1     4f1+      -0.0047
       29 O1     4f2+       0.0000
       30 O1     4f3+      -0.0129
       31 O2     1s         0.1089
       32 O2     2s         0.5728
       33 O2     3s         0.7509
       34 O2     4s         0.2091
       35 O2     2px       -0.5390
       36 O2     3px       -1.0381
       37 O2     4px       -0.3504
       38 O2     2py        0.0000
       39 O2     3py        0.0000
       40 O2     4py        0.0000
       41 O2     2pz       -0.0000
       42 O2     3pz       -0.0000
       43 O2     4pz       -0.0000
       44 O2     3d2-       0.0000
       45 O2     4d2-       0.0000
       46 O2     3d1-       0.0000
       47 O2     4d1-       0.0000
       48 O2     3d0       -0.0422
       49 O2     4d0       -0.0061
       50 O2     3d1+      -0.0000
       51 O2     4d1+      -0.0000
       52 O2     3d2+      -0.0798
       53 O2     4d2+      -0.0379
       54 O2     4f3-      -0.0000
       55 O2     4f2-       0.0000
       56 O2     4f1-      -0.0000
       57 O2     4f0        0.0000
       58 O2     4f1+       0.0042
       59 O2     4f2+       0.0000
       60 O2     4f3+       0.0031
       61 O3     1s        -0.0066
       62 O3     2s        -0.0288
       63 O3     3s         0.2078
       64 O3     4s         0.1079
       65 O3     2px        0.3038
       66 O3     3px        0.7002
       67 O3     4px        0.1882
       68 O3     2py        0.0652
       69 O3     3py       -0.4851
       70 O3     4py       -0.1650
       71 O3     2pz        0.0000
       72 O3     3pz        0.0000
       73 O3     4pz        0.0000
       74 O3     3d2-       0.1119
       75 O3     4d2-       0.0763
       76 O3     3d1-       0.0000
       77 O3     4d1-       0.0000
       78 O3     3d0        0.0357
       79 O3     4d0        0.0245
       80 O3     3d1+      -0.0000
       81 O3     4d1+      -0.0000
       82 O3     3d2+       0.0318
       83 O3     4d2+       0.0175
       84 O3     4f3-      -0.0031
       85 O3     4f2-      -0.0000
       86 O3     4f1-       0.0055
       87 O3     4f0       -0.0000
       88 O3     4f1+      -0.0047
       89 O3     4f2+      -0.0000
       90 O3     4f3+      -0.0129
--
 
 
++    Molecular charges:
      ------------------
 
      Mulliken charges per centre and basis function type
      ---------------------------------------------------
 
                O1      O2      O3    
      1s       1.9979  1.9982  1.9979
      2s       1.9466  1.7013  1.9466
      2px      1.8114  1.5817  1.8114
      2pz      1.3771  1.1589  1.3771
      2py      1.0081  1.0379  1.0081
      3s      -0.0019 -0.0254 -0.0019
      3px     -0.0123 -0.0195 -0.0123
      3pz     -0.0098 -0.0140 -0.0098
      3py      0.0036  0.0036  0.0036
      4s       0.0043  0.0023  0.0043
      3d2+     0.0147  0.0376  0.0147
      3d1+     0.0030  0.0073  0.0030
      3d0      0.0057  0.0075  0.0057
      3d1-     0.0123  0.0486  0.0123
      3d2-     0.0140  0.0414  0.0140
      4px      0.0006  0.0015  0.0006
      4pz      0.0013  0.0017  0.0013
      4py      0.0027  0.0032  0.0027
      4d2+     0.0008  0.0065  0.0008
      4d1+     0.0006  0.0010  0.0006
      4d0     -0.0000 -0.0002 -0.0000
      4d1-     0.0015  0.0124  0.0015
      4d2-     0.0004  0.0049  0.0004
      4f3+     0.0027  0.0029  0.0027
      4f2+     0.0009  0.0015  0.0009
      4f1+     0.0003  0.0004  0.0003
      4f0      0.0009  0.0016  0.0009
      4f1-     0.0010  0.0012  0.0010
      4f2-     0.0013  0.0035  0.0013
      4f3-     0.0023  0.0068  0.0023
      Total    8.1918  7.6164  8.1918
 
      N-E     -0.1918  0.3836 -0.1918
 
      Total electronic charge=   24.000000
 
      Total            charge=   -0.000000
--
 
 
  Input file to MOLDEN was generated!
 
 
++    Static properties:
      ------------------
 
 
      LoProp Charges per center
 

                   O1       O2       O3    
      Nuclear      8.0000   8.0000   8.0000
      Electronic  -8.2047  -7.5907  -8.2047
 
      Total       -0.2047   0.4093  -0.2047
--
 
 
++    Natural Bond Order analysis
      ---------------------------
      Based on LoProp computed density
      -------------------------------------------------------------------------------------
      Atom A       Atom B       Bond Order | Atom A       Atom B       Bond Order
        O1           O2             1.997  |   O2           O3             1.997
      -------------------------------------------------------------------------------------
      NBO located     11.999 core electrons.
      NBO located      3.936 lone pair electrons.
      NBO located      7.987 electrons involved in    2 bonds.
      The remaining    0.078 electrons are to be considered as diffuse
--
 
 
++    Molecular properties:
      ---------------------
 
      Charge (e):
                      =   -0.0000
      Dipole Moment (Debye):
      Origin of the operator (Ang)=    0.0000    0.0000    0.0000
                   X= -5.8076E-01               Y= -7.8235E-11               Z=  4.1389E-16           Total=  5.8076E-01
      Quadrupole Moment (Debye*Ang):
      Origin of the operator (Ang)=    0.3701    0.0000    0.0000
                  XX= -1.6026E+01              XY= -2.9561E-11              XZ= -6.6459E-14              YY= -1.7183E+01
                  YZ= -3.4488E-14              ZZ= -1.4914E+01
      In traceless form (Debye*Ang)
                  XX=  2.2596E-02              XY= -4.4342E-11              XZ= -9.9688E-14              YY= -1.7130E+00
                  YZ= -5.1732E-14              ZZ=  1.6904E+00
--
 
 
  Input file to MOLDEN was generated!
 
 ###############################################################################
 ###############################################################################
 ###                                                                         ###
 ###                                                                         ###
 ###    RunFile label nBas                                                   ###
 ###    was used       78 times                                              ###
 ###                                                                         ###
 ###                                                                         ###
 ###############################################################################
 ###############################################################################
--- Stop Module: scf at Wed Jan  1 07:12:08 2025 /rc=_RC_ALL_IS_WELL_ ---
*** files: ozone_128.50.LprOrb ozone_128.50.LoProp.molden ozone_128.50.scf.molden ozone_128.50.ScfOrb ozone_128.50.scf.h5 xmldump
    saved to directory /home/grierjones/DDCASPT2/ozone/ANO-RCC-VTZP/ozone_128.50

>>> COPY /tmp/ozone_128.50/ozone_128.50.scf.h5 /home/grierjones/DDCASPT2/ozone/ANO-RCC-VTZP/ozone_128.50/

*** symbolic link created: INPORB -> ozone_128.50.ScfOrb
--- Start Module: rasscf at Wed Jan  1 07:12:08 2025 ---
 
()()()()()()()()()()()()()()()()()()()()()()()()()()()()()()()()()()()()()()()()()()()()()()()()()()

                                              &RASSCF

                                   only a single process is used
                       available to each process: 2.0 GB of memory, 1 thread?
()()()()()()()()()()()()()()()()()()()()()()()()()()()()()()()()()()()()()()()()()()()()()()()()()()
 
 
 *************** WARNING ****************
 ###############################################################################
 ###############################################################################
 ###                                                                         ###
 ###                                                                         ###
 ###    Too many macro-iterations.                                           ###
 ###                                                                         ###
 ###                                                                         ###
 ###############################################################################
 ###############################################################################
 Too many macro-iterations requested.
 Reset to maximum, new MAXIT=     200
 ****************************************
 
 *************** WARNING ****************
 ###############################################################################
 ###############################################################################
 ###                                                                         ###
 ###                                                                         ###
 ###    Too many SX-iterations.                                              ###
 ###                                                                         ###
 ###                                                                         ###
 ###############################################################################
 ###############################################################################
 Too many SX-iterations requested.
 Reset to maximum, new ITMAX=     100
 ****************************************
 
      Header of the ONEINT file:
      --------------------------
      
      Integrals generated by seward 4.2.0  , Wed Jan  1 07:12:04 2025
 
 
      OrdInt status: non-squared
 
 
      Cartesian coordinates in Angstrom:
      -----------------------------------------------------
      No.  Label        X            Y            Z        
      -----------------------------------------------------
       1   O1         0.55522100   1.15109200   0.00000000
       2   O2         0.00000000   0.00000000   0.00000000
       3   O3         0.55522100  -1.15109200   0.00000000
      -----------------------------------------------------
      Nuclear repulsion energy =   67.71151023
 
++    Wave function specifications:
      -----------------------------
 
      Number of closed shell electrons          20
      Number of electrons in active shells       4
      Max number of holes in RAS1 space          0
      Max nr of electrons in RAS3 space          0
      Number of inactive orbitals               10
      Number of active orbitals                  3
      Number of secondary orbitals              77
      Spin quantum number                      0.0
      State symmetry                             1
--
 
++    Orbital specifications:
      -----------------------
 
      Symmetry species                           1
                                                 a
      Frozen orbitals                            0
      Inactive orbitals                         10
      Active orbitals                            3
      RAS1 orbitals                              0
      RAS2 orbitals                              3
      RAS3 orbitals                              0
      Secondary orbitals                        77
      Deleted orbitals                           0
      Number of basis functions                 90
--
 
++    CI expansion specifications:
      ----------------------------
 
      Number of CSFs                             6
      Number of determinants                     6
      Number of root(s) required                 1
      Root chosen for geometry opt.              1
      CI root used                               1
         
      highest root included in the CI            1
      max. size of the explicit Hamiltonian      6
--
 
++    Optimization specifications:
      ----------------------------
 
      RASSCF algorithm: Conventional
      Maximum number of macro iterations       200
      Maximum number of SX iterations          100
      Threshold for RASSCF energy            0.100E-07
      Threshold for max MO rotation          0.100E+00
      Threshold for max BLB element          0.100E-03
      Level shift parameter                  0.500E+00
      Make Quasi-Newton update
--
 
      The MO-coefficients are taken from the file:
      /home/grierjones/DDCASPT2/ozone/ANO-RCC-VTZP/ozone_128.25/ozone_128.25.RasOrb                                                   
      Title: RASSCF average (pseudo-natural) orbitals                                      
 
      Total molecular charge    0.00
 
      ************************************************************************************************************************
      *                                                                                                                      *
      *                                            Wave function control section                                             *
      *                                                                                                                      *
      ************************************************************************************************************************
 
 
                                         RASSCF iterations: Energy and convergence statistics
                                         ----------------------------------------------------
 
      Iter CI   SX   CI       RASSCF       Energy    max ROT     max BLB   max BLB  Level Ln srch  Step   QN   Walltime
          iter iter root      energy       change     param      element    value   shift minimum  type update hh:mm:ss
 Nr of preliminary CI iterations:   1
        1   1    3    1  -224.59792498    0.00E+00   0.50E-03    9  24 1 -0.13E-02*  0.18   0.00    SX    NO    0:00:00
        2   1    3    1  -224.59792981   -0.48E-05*  0.28E-03    9  24 1 -0.73E-03*  0.18   0.00    SX    NO    0:00:00
        3   1    3    1  -224.59793094   -0.11E-05*  0.17E-03    9  24 1 -0.43E-03*  0.18   0.00    SX    NO    0:00:00
        4   1    3    1  -224.59793133   -0.39E-06*  0.95E-04    9  24 1 -0.24E-03*  0.18   0.00    SX    NO    0:00:00
        5   1    3    1  -224.59793146   -0.13E-06*  0.14E-03    9  24 1 -0.15E-03*  0.18   2.50    LS   YES    0:00:00
        6   1    3    1  -224.59793153   -0.67E-07*  0.29E-04    8  24 1 -0.96E-04   0.18   0.92    QN   YES    0:00:00
        7   1    3    1  -224.59793154   -0.16E-07* -0.11E-04    8  24 1  0.51E-04   0.18   0.79    QN   YES    0:00:00
        8   1    2    1  -224.59793154   -0.40E-10   0.50E-05    8  24 1 -0.39E-04   0.18   0.43    QN   YES    0:00:00
      Convergence after  8 iterations
 
  Dmat in MO in SXCTL bf call to SXHAM                                                                                    
  mat. size =     3x    3
 
        1.9920436952214109
        0.0000000000004322      1.6450274199355535
       -0.0007395573610433     -0.0000000000005505      0.3629288848430378
        9   1    2    1  -224.59793154   -0.77E-09   0.50E-05    8  24 1 -0.44E-05   0.18   0.43    QN   YES    0:00:00
 
      ************************************************************************************************************************
                                                      Wave function printout:
                       occupation of active orbitals, and spin coupling of open shells (u,d: Spin up or down)
      ************************************************************************************************************************
 
      Note: transformation to natural orbitals
      has been made, which may change the order of the CSFs.
 
      printout of CI-coefficients larger than  0.05 for root  1
      energy=    -224.597932
      conf/sym  111     Coeff  Weight
             1  220  -0.90473 0.81854
             3  202   0.42129 0.17749
             6  022   0.06307 0.00398
 
      Natural orbitals and occupation numbers for root  1
      sym 1:   1.992044   1.645027   0.362929
 
      ************************************************************************************************************************
      *                                                                                                                      *
      *                                                    Final results                                                     *
      *                                                                                                                      *
      ************************************************************************************************************************
 
 
++    Wave function specifications:
      -----------------------------
 
      Number of closed shell electrons          20
      Number of electrons in active shells       4
      Max number of holes in RAS1 space          0
      Max nr of electrons in RAS3 space          0
      Number of inactive orbitals               10
      Number of active orbitals                  3
      Number of secondary orbitals              77
      Spin quantum number                      0.0
      State symmetry                             1
--
 
++    Orbital specifications:
      -----------------------
 
      Symmetry species                           1
                                                 a
      Frozen orbitals                            0
      Inactive orbitals                         10
      Active orbitals                            3
      RAS1 orbitals                              0
      RAS2 orbitals                              3
      RAS3 orbitals                              0
      Secondary orbitals                        77
      Deleted orbitals                           0
      Number of basis functions                 90
--
 
++    CI expansion specifications:
      ----------------------------
 
      Number of CSFs                             6
      Number of determinants                     6
      Number of root(s) required                 1
      CI root used                               1
      highest root included in the CI            1
      Root passed to geometry opt.               1
--
 
++    Final optimization conditions:
      ------------------------------
 
      Average CI energy                            -224.59793154
      RASSCF energy for state  1                   -224.59793154
      Super-CI energy                                -0.00000000
      RASSCF energy change                           -0.00000000
      Max change in MO coefficients              -0.607E-05
      Max non-diagonal density matrix element     0.500E-05
      Maximum BLB matrix element                 -0.435E-05
      (orbital pair   8,  24 in symmetry   1)
      Norm of electronic gradient            0.257E-04
--
 
 
      Final state energy(ies):
      ------------------------
 
::    RASSCF root number  1 Total energy:   -224.59793154
 
++    Molecular orbitals:
      -------------------
 
      Pseudonatural active orbitals and approximate occupation numbers
 
 
 
 
      Molecular orbitals for symmetry species 1: a  
 
 
      Orbital                1         2         3         4         5         6         7         8         9        10
      Energy          -20.8260  -20.7273  -20.7272   -1.7043   -1.4300   -1.0699   -0.7949   -0.7874   -0.5819   -0.5202
      Occ. No.          2.0000    2.0000    2.0000    2.0000    2.0000    2.0000    2.0000    2.0000    2.0000    2.0000
 
    1 O1     1s         0.0038   -0.7064    0.7063   -0.0132    0.0109    0.0126   -0.0086    0.0220    0.0072    0.0036
    2 O1     2s         0.0039    0.0049   -0.0053    0.3553   -0.5849    0.6158   -0.1729    0.3965    0.0665    0.0112
    3 O1     3s         0.0022    0.0036   -0.0037   -0.0112    0.0188    0.0217   -0.0160    0.0491    0.0174    0.0183
    4 O1     4s         0.0004    0.0007   -0.0007   -0.0010    0.0042    0.0033   -0.0034    0.0104    0.0041    0.0058
    5 O1     2px       -0.0009   -0.0012    0.0011   -0.0443    0.0536    0.1025    0.2550    0.3270   -0.5690    0.6482
    6 O1     3px       -0.0007   -0.0012    0.0009    0.0125   -0.0073   -0.0168   -0.0144   -0.0262   -0.0075    0.0170
    7 O1     4px       -0.0000    0.0005   -0.0006    0.0022    0.0002    0.0003   -0.0017   -0.0024    0.0045   -0.0043
    8 O1     2py       -0.0023   -0.0020    0.0024   -0.1147    0.0738    0.1360   -0.3315    0.3119    0.4378   -0.0041
    9 O1     3py       -0.0013   -0.0021    0.0024    0.0152   -0.0156   -0.0217    0.0266   -0.0385   -0.0038   -0.0168
   10 O1     4py        0.0006    0.0014   -0.0014    0.0009   -0.0037    0.0009    0.0051   -0.0042   -0.0036   -0.0024
   11 O1     2pz       -0.0000    0.0000   -0.0000   -0.0000   -0.0000    0.0000   -0.0000   -0.0000    0.0000   -0.0000
   12 O1     3pz       -0.0000    0.0000   -0.0000    0.0000   -0.0000    0.0000    0.0000    0.0000    0.0000   -0.0000
   13 O1     4pz        0.0000   -0.0000    0.0000   -0.0000   -0.0000   -0.0000    0.0000   -0.0000   -0.0000    0.0000
   14 O1     3d2-       0.0004    0.0008   -0.0009    0.0134   -0.0129   -0.0123   -0.0035   -0.0257    0.0020   -0.0098
   15 O1     4d2-       0.0001    0.0005   -0.0005    0.0012   -0.0015   -0.0009   -0.0002   -0.0022    0.0008   -0.0008
   16 O1     3d1-       0.0000   -0.0000    0.0000    0.0000   -0.0000    0.0000   -0.0000   -0.0000   -0.0000   -0.0000
   17 O1     4d1-      -0.0000   -0.0000    0.0000   -0.0000   -0.0000   -0.0000    0.0000   -0.0000   -0.0000    0.0000
   18 O1     3d0       -0.0004   -0.0005    0.0005   -0.0114    0.0099    0.0051   -0.0081    0.0146    0.0056    0.0055
   19 O1     4d0       -0.0002   -0.0004    0.0004   -0.0007    0.0014   -0.0003   -0.0007    0.0008    0.0008    0.0003
   20 O1     3d1+       0.0000    0.0000    0.0000   -0.0000    0.0000   -0.0000    0.0000   -0.0000   -0.0000    0.0000
   21 O1     4d1+      -0.0000   -0.0000    0.0000    0.0000    0.0000   -0.0000   -0.0000   -0.0000   -0.0000   -0.0000
   22 O1     3d2+      -0.0005   -0.0007    0.0008   -0.0147    0.0081    0.0071   -0.0254    0.0131    0.0175    0.0062
   23 O1     4d2+      -0.0003   -0.0003    0.0004   -0.0020    0.0011    0.0009   -0.0026    0.0010    0.0026   -0.0002
   24 O1     4f3-       0.0001    0.0001   -0.0000    0.0023   -0.0007    0.0003    0.0073    0.0002   -0.0053    0.0004
   25 O1     4f2-      -0.0000    0.0000   -0.0000   -0.0000   -0.0000   -0.0000   -0.0000    0.0000    0.0000   -0.0000
   26 O1     4f1-       0.0001    0.0001   -0.0001    0.0032   -0.0029   -0.0009    0.0016   -0.0029   -0.0007   -0.0015
   27 O1     4f0       -0.0000   -0.0000   -0.0000   -0.0000    0.0000   -0.0000   -0.0000   -0.0000   -0.0000    0.0000
   28 O1     4f1+       0.0000    0.0001   -0.0001    0.0014   -0.0014   -0.0006    0.0004   -0.0012   -0.0015    0.0008
   29 O1     4f2+      -0.0000   -0.0000   -0.0000    0.0000   -0.0000    0.0000    0.0000    0.0000   -0.0000    0.0000
   30 O1     4f3+       0.0000    0.0002   -0.0002    0.0050   -0.0050   -0.0030    0.0006   -0.0068   -0.0006   -0.0032
   31 O2     1s         0.9989    0.0000   -0.0030   -0.0282    0.0000   -0.0149   -0.0099   -0.0000   -0.0000    0.0262
   32 O2     2s        -0.0074    0.0000    0.0108    0.5972   -0.0000   -0.6620   -0.1312   -0.0000   -0.0000    0.3267
   33 O2     3s        -0.0054    0.0000    0.0062   -0.0600   -0.0000   -0.0245   -0.0184    0.0000    0.0000    0.0676
   34 O2     4s        -0.0010    0.0000    0.0010   -0.0119   -0.0000   -0.0049   -0.0054    0.0000    0.0000    0.0163
   35 O2     2px       -0.0013    0.0000    0.0032    0.0916    0.0000    0.1566    0.6232    0.0000    0.0000   -0.5584
   36 O2     3px       -0.0021    0.0000    0.0021   -0.0355   -0.0000   -0.0202   -0.0572   -0.0000   -0.0000   -0.0182
   37 O2     4px        0.0019   -0.0000   -0.0007   -0.0043    0.0000    0.0019   -0.0105    0.0000    0.0000   -0.0012
   38 O2     2py        0.0000   -0.0058    0.0000   -0.0000   -0.3005    0.0000    0.0000   -0.5177   -0.1418    0.0000
   39 O2     3py        0.0000   -0.0037    0.0000    0.0000    0.0600    0.0000   -0.0000    0.0520   -0.0114    0.0000
   40 O2     4py       -0.0000    0.0011   -0.0000    0.0000   -0.0012    0.0000   -0.0000    0.0096   -0.0008    0.0000
   41 O2     2pz        0.0000   -0.0000    0.0000    0.0000    0.0000    0.0000   -0.0000   -0.0000   -0.0000    0.0000
   42 O2     3pz       -0.0000   -0.0000    0.0000    0.0000    0.0000    0.0000    0.0000   -0.0000   -0.0000    0.0000
   43 O2     4pz       -0.0000    0.0000   -0.0000   -0.0000    0.0000   -0.0000   -0.0000   -0.0000    0.0000   -0.0000
   44 O2     3d2-       0.0000   -0.0013    0.0000   -0.0000   -0.0368    0.0000    0.0000   -0.0297   -0.0416    0.0000
   45 O2     4d2-       0.0000   -0.0006    0.0000   -0.0000   -0.0037   -0.0000    0.0000   -0.0031   -0.0069    0.0000
   46 O2     3d1-      -0.0000   -0.0000    0.0000   -0.0000    0.0000    0.0000    0.0000   -0.0000   -0.0000   -0.0000
   47 O2     4d1-       0.0000   -0.0000    0.0000   -0.0000    0.0000    0.0000    0.0000   -0.0000   -0.0000   -0.0000
   48 O2     3d0        0.0008   -0.0000   -0.0010   -0.0146   -0.0000   -0.0056   -0.0155    0.0000    0.0000    0.0226
   49 O2     4d0        0.0006   -0.0000   -0.0006    0.0007   -0.0000   -0.0005   -0.0013    0.0000    0.0000    0.0029
   50 O2     3d1+      -0.0000   -0.0000    0.0000    0.0000   -0.0000    0.0000    0.0000   -0.0000   -0.0000   -0.0000
   51 O2     4d1+       0.0000   -0.0000    0.0000    0.0000   -0.0000    0.0000    0.0000   -0.0000   -0.0000   -0.0000
   52 O2     3d2+       0.0007   -0.0000   -0.0010   -0.0152   -0.0000    0.0008    0.0220    0.0000    0.0000    0.0336
   53 O2     4d2+       0.0003   -0.0000   -0.0005   -0.0015   -0.0000    0.0004    0.0026    0.0000    0.0000    0.0061
   54 O2     4f3-      -0.0000    0.0000   -0.0000   -0.0000    0.0025   -0.0000    0.0000    0.0053   -0.0083   -0.0000
   55 O2     4f2-       0.0000   -0.0000    0.0000    0.0000    0.0000   -0.0000    0.0000   -0.0000   -0.0000   -0.0000
   56 O2     4f1-      -0.0000    0.0001   -0.0000    0.0000    0.0062   -0.0000   -0.0000    0.0056    0.0014    0.0000
   57 O2     4f0       -0.0000    0.0000   -0.0000   -0.0000    0.0000   -0.0000   -0.0000   -0.0000   -0.0000    0.0000
   58 O2     4f1+       0.0001   -0.0000   -0.0001   -0.0030   -0.0000   -0.0006   -0.0033    0.0000   -0.0000    0.0007
   59 O2     4f2+      -0.0000    0.0000    0.0000    0.0000   -0.0000   -0.0000    0.0000   -0.0000    0.0000    0.0000
   60 O2     4f3+       0.0002   -0.0000   -0.0002   -0.0097    0.0000   -0.0003   -0.0056    0.0000    0.0000    0.0060
   61 O3     1s         0.0038    0.7064    0.7063   -0.0132   -0.0109    0.0126   -0.0086   -0.0220   -0.0072    0.0036
   62 O3     2s         0.0039   -0.0049   -0.0053    0.3553    0.5849    0.6158   -0.1729   -0.3965   -0.0665    0.0112
   63 O3     3s         0.0022   -0.0036   -0.0037   -0.0112   -0.0188    0.0217   -0.0160   -0.0491   -0.0174    0.0183
   64 O3     4s         0.0004   -0.0007   -0.0007   -0.0010   -0.0042    0.0033   -0.0034   -0.0104   -0.0041    0.0058
   65 O3     2px       -0.0009    0.0012    0.0011   -0.0443   -0.0536    0.1025    0.2550   -0.3270    0.5690    0.6482
   66 O3     3px       -0.0007    0.0012    0.0009    0.0125    0.0073   -0.0168   -0.0144    0.0262    0.0075    0.0170
   67 O3     4px       -0.0000   -0.0005   -0.0006    0.0022   -0.0002    0.0003   -0.0017    0.0024   -0.0045   -0.0043
   68 O3     2py        0.0023   -0.0020   -0.0024    0.1147    0.0738   -0.1360    0.3315    0.3119    0.4378    0.0041
   69 O3     3py        0.0013   -0.0021   -0.0024   -0.0152   -0.0156    0.0217   -0.0266   -0.0385   -0.0038    0.0168
   70 O3     4py       -0.0006    0.0014    0.0014   -0.0009   -0.0037   -0.0009   -0.0051   -0.0042   -0.0036    0.0024
   71 O3     2pz       -0.0000   -0.0000    0.0000   -0.0000   -0.0000   -0.0000   -0.0000    0.0000    0.0000    0.0000
   72 O3     3pz        0.0000    0.0000   -0.0000   -0.0000   -0.0000   -0.0000   -0.0000    0.0000   -0.0000   -0.0000
   73 O3     4pz       -0.0000    0.0000   -0.0000    0.0000   -0.0000   -0.0000    0.0000    0.0000   -0.0000   -0.0000
   74 O3     3d2-      -0.0004    0.0008    0.0009   -0.0134   -0.0129    0.0123    0.0035   -0.0257    0.0020    0.0098
   75 O3     4d2-      -0.0001    0.0005    0.0005   -0.0012   -0.0015    0.0009    0.0002   -0.0022    0.0008    0.0008
   76 O3     3d1-      -0.0000    0.0000   -0.0000   -0.0000    0.0000    0.0000   -0.0000   -0.0000    0.0000   -0.0000
   77 O3     4d1-      -0.0000    0.0000    0.0000   -0.0000   -0.0000    0.0000   -0.0000    0.0000    0.0000   -0.0000
   78 O3     3d0       -0.0004    0.0005    0.0005   -0.0114   -0.0099    0.0051   -0.0081   -0.0146   -0.0056    0.0055
   79 O3     4d0       -0.0002    0.0004    0.0004   -0.0007   -0.0014   -0.0003   -0.0007   -0.0008   -0.0008    0.0003
   80 O3     3d1+       0.0000    0.0000    0.0000    0.0000   -0.0000    0.0000    0.0000    0.0000   -0.0000    0.0000
   81 O3     4d1+       0.0000   -0.0000   -0.0000    0.0000    0.0000    0.0000   -0.0000    0.0000   -0.0000   -0.0000
   82 O3     3d2+      -0.0005    0.0007    0.0008   -0.0147   -0.0081    0.0071   -0.0254   -0.0131   -0.0175    0.0062
   83 O3     4d2+      -0.0003    0.0003    0.0004   -0.0020   -0.0011    0.0009   -0.0026   -0.0010   -0.0026   -0.0002
   84 O3     4f3-      -0.0001    0.0001    0.0000   -0.0023   -0.0007   -0.0003   -0.0073    0.0002   -0.0053   -0.0004
   85 O3     4f2-       0.0000   -0.0000    0.0000   -0.0000    0.0000   -0.0000    0.0000    0.0000   -0.0000   -0.0000
   86 O3     4f1-      -0.0001    0.0001    0.0001   -0.0032   -0.0029    0.0009   -0.0016   -0.0029   -0.0007    0.0015
   87 O3     4f0        0.0000   -0.0000    0.0000    0.0000    0.0000   -0.0000    0.0000    0.0000    0.0000    0.0000
   88 O3     4f1+       0.0000   -0.0001   -0.0001    0.0014    0.0014   -0.0006    0.0004    0.0012    0.0015    0.0008
   89 O3     4f2+       0.0000   -0.0000    0.0000    0.0000    0.0000   -0.0000    0.0000    0.0000    0.0000   -0.0000
   90 O3     4f3+       0.0000   -0.0002   -0.0002    0.0050    0.0050   -0.0030    0.0006    0.0068    0.0006   -0.0032
 
 
      Orbital               11        12        13        14        15        16        17        18        19        20
      Energy            0.0000    0.0000    0.0000    0.1752    0.1905    0.2276    0.2619    0.3538    0.3642    0.3756
      Occ. No.          1.9920    1.6450    0.3629    0.0000    0.0000    0.0000    0.0000    0.0000    0.0000    0.0000
 
    1 O1     1s         0.0000    0.0000    0.0000   -0.2006   -0.1314    0.0000    0.0011   -0.0143    0.0731   -0.0000
    2 O1     2s         0.0000    0.0000    0.0000   -1.4721   -0.9893    0.0000    0.0916   -0.0235    0.4077   -0.0000
    3 O1     3s         0.0000    0.0000    0.0000   -0.8603   -0.5330    0.0000   -0.0594   -0.0102    0.5792   -0.0000
    4 O1     4s         0.0000    0.0000   -0.0000   -0.1937   -0.1089    0.0000   -0.0229    0.0031    0.1620   -0.0000
    5 O1     2px       -0.0000   -0.0000    0.0000    0.4086    0.1995    0.0000   -0.1174   -0.2220   -0.0551    0.0000
    6 O1     3px       -0.0000   -0.0000   -0.0000    0.4033    0.3176   -0.0000    0.3078   -0.8045    0.1279   -0.0000
    7 O1     4px        0.0000    0.0000    0.0000    0.0456    0.0794   -0.0000    0.1584   -0.3172    0.0954   -0.0000
    8 O1     2py        0.0000    0.0000   -0.0000    0.5506    0.8632   -0.0000   -0.4047   -0.2299   -0.0619    0.0000
    9 O1     3py       -0.0000   -0.0000   -0.0000    0.7284    0.7208   -0.0000   -0.3309   -0.1567   -0.7450    0.0000
   10 O1     4py        0.0000    0.0000    0.0000    0.1148    0.0867   -0.0000   -0.1189   -0.0273   -0.1771    0.0000
   11 O1     2pz       -0.2706   -0.7047    0.6826   -0.0000    0.0000    0.0133    0.0000   -0.0000   -0.0000   -0.1912
   12 O1     3pz        0.0237    0.0029   -0.0581   -0.0000    0.0000    0.4156    0.0000   -0.0000   -0.0000   -0.9177
   13 O1     4pz        0.0051    0.0088   -0.0013   -0.0000    0.0000    0.2092    0.0000   -0.0000   -0.0000   -0.3679
   14 O1     3d2-       0.0000    0.0000    0.0000   -0.0749   -0.0470    0.0000   -0.0062    0.0048    0.0413   -0.0000
   15 O1     4d2-       0.0000    0.0000    0.0000   -0.0485   -0.0316    0.0000   -0.0028    0.0165    0.0263   -0.0000
   16 O1     3d1-       0.0275    0.0169    0.0096   -0.0000    0.0000    0.0071    0.0000    0.0000   -0.0000    0.0046
   17 O1     4d1-       0.0043    0.0031    0.0044   -0.0000    0.0000   -0.0003    0.0000    0.0000    0.0000    0.0104
   18 O1     3d0       -0.0000   -0.0000   -0.0000    0.0532    0.0444   -0.0000    0.0129   -0.0100   -0.0470    0.0000
   19 O1     4d0       -0.0000   -0.0000   -0.0000    0.0347    0.0301   -0.0000    0.0049   -0.0123   -0.0264    0.0000
   20 O1     3d1+       0.0123    0.0073    0.0029    0.0000   -0.0000    0.0041   -0.0000    0.0000    0.0000    0.0152
   21 O1     4d1+       0.0020    0.0011    0.0006    0.0000   -0.0000   -0.0003   -0.0000    0.0000    0.0000    0.0124
   22 O1     3d2+      -0.0000   -0.0000   -0.0000    0.0542    0.0497   -0.0000    0.0312    0.0013   -0.1087    0.0000
   23 O1     4d2+      -0.0000   -0.0000   -0.0000    0.0320    0.0367   -0.0000    0.0091   -0.0011   -0.0650    0.0000
   24 O1     4f3-       0.0000    0.0000   -0.0000   -0.0035   -0.0006    0.0000    0.0036   -0.0039    0.0101   -0.0000
   25 O1     4f2-      -0.0048   -0.0034    0.0003   -0.0000    0.0000    0.0023   -0.0000   -0.0000   -0.0000   -0.0061
   26 O1     4f1-       0.0000    0.0000   -0.0000   -0.0059   -0.0048    0.0000    0.0001    0.0053    0.0090   -0.0000
   27 O1     4f0        0.0036   -0.0008    0.0099    0.0000    0.0000   -0.0022    0.0000   -0.0000    0.0000    0.0063
   28 O1     4f1+       0.0000   -0.0000    0.0000   -0.0018   -0.0030   -0.0000   -0.0008    0.0049    0.0025   -0.0000
   29 O1     4f2+       0.0045    0.0032   -0.0005    0.0000   -0.0000   -0.0018   -0.0000    0.0000    0.0000    0.0031
   30 O1     4f3+       0.0000    0.0000    0.0000   -0.0088   -0.0057   -0.0000    0.0013    0.0092    0.0082   -0.0000
   31 O2     1s        -0.0000   -0.0000   -0.0000   -0.0000    0.3179   -0.0000   -0.0528   -0.0000   -0.2055    0.0000
   32 O2     2s        -0.0000   -0.0000   -0.0000   -0.0000    2.3269   -0.0000   -0.4991   -0.0000   -1.1728    0.0000
   33 O2     3s        -0.0000    0.0000   -0.0000   -0.0000    1.2738   -0.0000   -0.1151   -0.0000   -0.8194    0.0000
   34 O2     4s        -0.0000    0.0000   -0.0000   -0.0000    0.2724   -0.0000   -0.0230   -0.0000   -0.1424    0.0000
   35 O2     2px       -0.0000    0.0000   -0.0000   -0.0000    0.7385   -0.0000   -0.4095   -0.0000   -0.1215    0.0000
   36 O2     3px       -0.0000   -0.0000   -0.0000   -0.0000    0.7056   -0.0000    0.1151   -0.0000   -0.6832    0.0000
   37 O2     4px        0.0000    0.0000   -0.0000   -0.0000    0.1125   -0.0000    0.1194   -0.0000   -0.0939    0.0000
   38 O2     2py        0.0000   -0.0000    0.0000    1.3965    0.0000    0.0000   -0.0000   -0.1237   -0.0000   -0.0000
[...]

                                               &MOTRA

                                   only a single process is used
                       available to each process: 2.0 GB of memory, 1 thread?
()()()()()()()()()()()()()()()()()()()()()()()()()()()()()()()()()()()()()()()()()()()()()()()()()()
 
 
      *** WARNING: Default frozen orbitals is overwritten by user input.
      *** Default values:   3
 
      Header of the integral files:
      
       Integrals generated by seward 4.2.0  , Wed Jan  1 07:12:04 2025
 
 
      Header of MO coefficients source file:
      * RASSCF average (pseudo-natural) orbitals                                      
 
 
      Cartesian coordinates in Angstrom:
      -----------------------------------------------------
      No.  Label        X            Y            Z        
      -----------------------------------------------------
       1   O1         0.55522100   1.15109200   0.00000000
       2   O2         0.00000000   0.00000000   0.00000000
       3   O3         0.55522100  -1.15109200   0.00000000
      -----------------------------------------------------
      Nuclear repulsion energy =   67.71151023
 
      Orbital specifications:
      -----------------------
 
      Symmetry species:              1
      Number of basis functions:    90
      Frozen orbitals:               0
      Deleted orbitals:              0
      Number of orbitals used:      90

       SYMMETRY  BASIS FUNCTIONS       ORBITALS      INTEGRALS   CPU(SEC)  I/O(SEC)
 
        1 1 1 1   90  90  90  90    90  90  90  90     8386560       0.00      0.00

       TOTAL CPU TIME(SEC)    4.31TOTAL I/O TIME(SEC)   10.99
 
--- Stop Module: motra at Wed Jan  1 07:12:20 2025 /rc=_RC_ALL_IS_WELL_ ---
*** files: xmldump
    saved to directory /home/grierjones/DDCASPT2/ozone/ANO-RCC-VTZP/ozone_128.50
--- Module motra spent 11 seconds ---

>>> COPY /tmp/ozone_128.50/GMJ_one_int_indx.csv /home/grierjones/DDCASPT2/ozone/ANO-RCC-VTZP/ozone_128.50/ozone_128.50.GMJ_one_int_indx.csv

>>> COPY /tmp/ozone_128.50/GMJ_one_int.csv /home/grierjones/DDCASPT2/ozone/ANO-RCC-VTZP/ozone_128.50/ozone_128.50.GMJ_one_int.csv

>>> COPY /tmp/ozone_128.50/GMJ_two_int_indx.csv /home/grierjones/DDCASPT2/ozone/ANO-RCC-VTZP/ozone_128.50/ozone_128.50.GMJ_two_int_indx.csv

>>> COPY /tmp/ozone_128.50/GMJ_two_int.csv /home/grierjones/DDCASPT2/ozone/ANO-RCC-VTZP/ozone_128.50/ozone_128.50.GMJ_two_int.csv

*** symbolic link created: INPORB -> ozone_128.50.RasOrb
--- Start Module: caspt2 at Wed Jan  1 07:12:20 2025 ---
 
()()()()()()()()()()()()()()()()()()()()()()()()()()()()()()()()()()()()()()()()()()()()()()()()()()

                                              &CASPT2

                                   only a single process is used
                       available to each process: 2.0 GB of memory, 1 thread?
()()()()()()()()()()()()()()()()()()()()()()()()()()()()()()()()()()()()()()()()()()()()()()()()()()
 
 Cholesky algorithm in CASPT2 =    1
 
 ###############################################################################
 ###############################################################################
 ###                                                                         ###
 ###                                                                         ###
 ###    User changed nr of frozen orbitals.                                  ###
 ###                                                                         ###
 ###                                                                         ###
 ###############################################################################
 ###############################################################################
 
++    Wave function specifications:
      -----------------------------
 
      Number of closed shell electrons          20
      Number of electrons in active shells       4
      Max number of holes in RAS1 space          0
      Max number of electrons in RAS3 space      0
      Number of inactive orbitals               10
      Number of active orbitals                  3
      Number of secondary orbitals              77
      Spin quantum number                      0.0
      State symmetry                             1
      Number of CSFs                             6
      Number of root(s) available                1
      Root passed to geometry opt.               1
      A file JOBMIX will be created.
      This is a CASSCF or RASSCF reference function
--
 
++    Orbital specifications:
      -----------------------
 
      Symmetry species                           1
                                                 a
      Frozen orbitals                            0
      Inactive orbitals                         10
      Active orbitals                            3
      Secondary orbitals                        77
      Deleted orbitals                           0
      Number of basis functions                 90
--
 
      Type of Fock operator: STANDARD
      Type of 0-order Hamiltonian: STANDARD WITH DEFAULT IPEA
        "IP-EA" denominator shift =      0.25
      The input orbitals and the CI vector will be transformed.
 
--------------------------------------------------------------------------------
 Estimated memory requirements:
  POLY3 :                   250202
  RHS:                      446386
  SIGMA :                   610360
  PRPCTL:                        0
 Available workspace:    230385072
 
++ CASPT2 computation for group   1
 
********************************************************************************
 Multi-State initialization phase begins for group   1
--------------------------------------------------------------------------------
********************************************************************************
 Compute H0 matrices for state    1
--------------------------------------------------------------------------------
--------------------------------------------------------------------------------
 H0 matrices have been computed.
 
********************************************************************************
  CASPT2 EQUATION SOLUTION
--------------------------------------------------------------------------------
 
  Total nr of CASPT2 parameters:
   Before reduction:      541275
   After  reduction:      532232
 
 The contributions to the second order correlation energy in atomic units.
-----------------------------------------------------------------------------------------------------------------------------
  IT.      VJTU        VJTI        ATVX        AIVX        VJAI        BVAT        BJAT        BJAI        TOTAL       RNORM  
-----------------------------------------------------------------------------------------------------------------------------
   1    -0.000000   -0.001247   -0.012976   -0.095187   -0.019011   -0.023422   -0.174602   -0.366064   -0.692509    0.002835
   2    -0.000000   -0.001267   -0.013033   -0.095589   -0.019036   -0.023430   -0.174661   -0.366070   -0.693085    0.000240
   3    -0.000000   -0.001267   -0.013034   -0.095595   -0.019036   -0.023429   -0.174662   -0.366070   -0.693093    0.000028
   4    -0.000000   -0.001268   -0.013033   -0.095593   -0.019036   -0.023429   -0.174661   -0.366070   -0.693090    0.000005
-------------------------------------------------------------------------------------------------------------------
 
  FINAL CASPT2 RESULT:
 
  Correlation energy /Case, /Symm, and sums:
 VJTU     -0.00000000 -0.00000000
 VJTIP    -0.00126764 -0.00126764
 VJTIM     0.00000000  0.00000000
 ATVX     -0.01303345 -0.01303345
 AIVX     -0.09559268 -0.09559268
 VJAIP    -0.01339300 -0.01339300
 VJAIM    -0.00564283 -0.00564283
 BVATP    -0.02196151 -0.02196151
 BVATM    -0.00146794 -0.00146794
 BJATP    -0.07168147 -0.07168147
 BJATM    -0.10297977 -0.10297977
 BJAIP    -0.25202742 -0.25202742
 BJAIM    -0.11404230 -0.11404230
 Summed:  -0.69309001 -0.69309001
 
      Reference energy:        -224.5979315437
      E2 (Non-variational):      -0.6930900128
      E2 (Variational):          -0.6930900523
      Total energy:            -225.2910215961
      Residual norm:              0.0000004107
      Reference weight:           0.84918
 
      Contributions to the CASPT2 correlation energy
      Active & Virtual Only:         -0.0364628991
      One Inactive Excited:          -0.2702539220
      Two Inactive Excited:          -0.3863731918
 
 
++ Denominators, etc.
----------------------------------------------------------------------------------------------------
 Report on small energy denominators, large coefficients, and large energy contributions.
CASE  SYMM ACTIVE-MIX  NON-ACTIVE INDICES          DENOMINATOR     RHS VALUE       COEFFICIENT     CONTRIBUTION
ATVX     1  Mu1.0005  Se1.020                       1.48801350     -0.05697934      0.03751269     -0.00213745
ATVX     1  Mu1.0005  Se1.043                       3.03754220      0.08546310     -0.02759058     -0.00235798
AIVX     1  Mu1.0002  In1.009 Se1.015               1.05952976      0.03522186     -0.03241996     -0.00114189
AIVX     1  Mu1.0004  In1.007 Se1.017               1.65934378      0.04515597     -0.02793822     -0.00126158
AIVX     1  Mu1.0002  In1.008 Se1.017               1.33643212     -0.05006880      0.03675251     -0.00184015
AIVX     1  Mu1.0004  In1.010 Se1.017               1.38466523     -0.03685275      0.02680556     -0.00098786
AIVX     1  Mu1.0004  In1.007 Se1.019               1.76162964     -0.06607671      0.03810205     -0.00251766
AIVX     1  Mu1.0002  In1.008 Se1.019               1.43871798      0.03941821     -0.02688037     -0.00105958
AIVX     1  Mu1.0002  In1.009 Se1.019               1.23322104      0.06275961     -0.04949644     -0.00310638
AIVX     1  Mu1.0003  In1.009 Se1.019               1.31938675     -0.04408657      0.03273231     -0.00144306
AIVX     1  Mu1.0002  In1.008 Se1.021               1.50534221     -0.04838509      0.03121037     -0.00151012
AIVX     1  Mu1.0004  In1.008 Se1.024               1.90667510     -0.11527009      0.06134883     -0.00707169
AIVX     1  Mu1.0006  In1.008 Se1.024               2.07426789      0.07034591     -0.03431945     -0.00241423
AIVX     1  Mu1.0002  In1.010 Se1.024               1.32398551     -0.07176212      0.05307767     -0.00380897
AIVX     1  Mu1.0003  In1.010 Se1.024               1.41015122      0.04739641     -0.03288973     -0.00155886
BJAIP    1  Se1.024 In1.008 Se1.024 In1.008         2.60821626      0.10600515     -0.04064276     -0.00430834
BJAIP    1  Se1.017 In1.008 Se1.024 In1.010         2.08620639      0.05772271     -0.02766874     -0.00159711
BJAIP    1  Se1.024 In1.010 Se1.024 In1.010         2.07375979      0.05795011     -0.02794447     -0.00161938
BJAIM    1  Se1.019 In1.007 Se1.023 In1.008         2.46317080      0.06344220     -0.02575630     -0.00163404
--
 
   (Skipping property calculation,
    use PROP keyword to activate)
--
 
  Total CASPT2 energies:
::    CASPT2 Root  1     Total energy:   -225.29102160
 
  A NEW JOBIPH FILE NAMED 'JOBMIX' IS PREPARED.
********************************************************************************
--- Stop Module: caspt2 at Wed Jan  1 07:12:21 2025 /rc=_RC_ALL_IS_WELL_ ---
*** files: xmldump
    saved to directory /home/grierjones/DDCASPT2/ozone/ANO-RCC-VTZP/ozone_128.50
--- Module caspt2 spent 1 second ---

>>> EXPORT i = B

>>> EXPORT j = P

>>> IF (-FILE GMJ_e2_${i}_${j}.csv)

>>> COPY /tmp/ozone_128.50/GMJ_RHS_B_P.csv /home/grierjones/DDCASPT2/ozone/ANO-RCC-VTZP/ozone_128.50/GMJ_RHS_B_P.csv

>>> COPY /tmp/ozone_128.50/GMJ_IVECW_B_P.csv /home/grierjones/DDCASPT2/ozone/ANO-RCC-VTZP/ozone_128.50/GMJ_IVECW_B_P.csv

>>> COPY /tmp/ozone_128.50/GMJ_IVECX_B_P.csv /home/grierjones/DDCASPT2/ozone/ANO-RCC-VTZP/ozone_128.50/GMJ_IVECX_B_P.csv

>>> COPY /tmp/ozone_128.50/GMJ_IVECC2_B_P.csv /home/grierjones/DDCASPT2/ozone/ANO-RCC-VTZP/ozone_128.50/GMJ_IVECC2_B_P.csv

>>> COPY /tmp/ozone_128.50/GMJ_e2_B_P.csv /home/grierjones/DDCASPT2/ozone/ANO-RCC-VTZP/ozone_128.50/GMJ_e2_B_P.csv

>>> END FOREACH

>>> EXPORT j = M

>>> IF (-FILE GMJ_e2_${i}_${j}.csv)
(Skipped)

>>> END FOREACH

>>> END FOREACH

>>> EXPORT i = E

>>> EXPORT j = P

>>> IF (-FILE GMJ_e2_${i}_${j}.csv)

>>> COPY /tmp/ozone_128.50/GMJ_RHS_E_P.csv /home/grierjones/DDCASPT2/ozone/ANO-RCC-VTZP/ozone_128.50/GMJ_RHS_E_P.csv

>>> COPY /tmp/ozone_128.50/GMJ_IVECW_E_P.csv /home/grierjones/DDCASPT2/ozone/ANO-RCC-VTZP/ozone_128.50/GMJ_IVECW_E_P.csv

>>> COPY /tmp/ozone_128.50/GMJ_IVECX_E_P.csv /home/grierjones/DDCASPT2/ozone/ANO-RCC-VTZP/ozone_128.50/GMJ_IVECX_E_P.csv

>>> COPY /tmp/ozone_128.50/GMJ_IVECC2_E_P.csv /home/grierjones/DDCASPT2/ozone/ANO-RCC-VTZP/ozone_128.50/GMJ_IVECC2_E_P.csv

>>> COPY /tmp/ozone_128.50/GMJ_e2_E_P.csv /home/grierjones/DDCASPT2/ozone/ANO-RCC-VTZP/ozone_128.50/GMJ_e2_E_P.csv

>>> END FOREACH

>>> EXPORT j = M

>>> IF (-FILE GMJ_e2_${i}_${j}.csv)

>>> COPY /tmp/ozone_128.50/GMJ_RHS_E_M.csv /home/grierjones/DDCASPT2/ozone/ANO-RCC-VTZP/ozone_128.50/GMJ_RHS_E_M.csv

>>> COPY /tmp/ozone_128.50/GMJ_IVECW_E_M.csv /home/grierjones/DDCASPT2/ozone/ANO-RCC-VTZP/ozone_128.50/GMJ_IVECW_E_M.csv

>>> COPY /tmp/ozone_128.50/GMJ_IVECX_E_M.csv /home/grierjones/DDCASPT2/ozone/ANO-RCC-VTZP/ozone_128.50/GMJ_IVECX_E_M.csv

>>> COPY /tmp/ozone_128.50/GMJ_IVECC2_E_M.csv /home/grierjones/DDCASPT2/ozone/ANO-RCC-VTZP/ozone_128.50/GMJ_IVECC2_E_M.csv

>>> COPY /tmp/ozone_128.50/GMJ_e2_E_M.csv /home/grierjones/DDCASPT2/ozone/ANO-RCC-VTZP/ozone_128.50/GMJ_e2_E_M.csv

>>> END FOREACH

>>> END FOREACH

>>> EXPORT i = F

>>> EXPORT j = P

>>> IF (-FILE GMJ_e2_${i}_${j}.csv)

>>> COPY /tmp/ozone_128.50/GMJ_RHS_F_P.csv /home/grierjones/DDCASPT2/ozone/ANO-RCC-VTZP/ozone_128.50/GMJ_RHS_F_P.csv

>>> COPY /tmp/ozone_128.50/GMJ_IVECW_F_P.csv /home/grierjones/DDCASPT2/ozone/ANO-RCC-VTZP/ozone_128.50/GMJ_IVECW_F_P.csv

>>> COPY /tmp/ozone_128.50/GMJ_IVECX_F_P.csv /home/grierjones/DDCASPT2/ozone/ANO-RCC-VTZP/ozone_128.50/GMJ_IVECX_F_P.csv

>>> COPY /tmp/ozone_128.50/GMJ_IVECC2_F_P.csv /home/grierjones/DDCASPT2/ozone/ANO-RCC-VTZP/ozone_128.50/GMJ_IVECC2_F_P.csv

>>> COPY /tmp/ozone_128.50/GMJ_e2_F_P.csv /home/grierjones/DDCASPT2/ozone/ANO-RCC-VTZP/ozone_128.50/GMJ_e2_F_P.csv

>>> END FOREACH

>>> EXPORT j = M

>>> IF (-FILE GMJ_e2_${i}_${j}.csv)

>>> COPY /tmp/ozone_128.50/GMJ_RHS_F_M.csv /home/grierjones/DDCASPT2/ozone/ANO-RCC-VTZP/ozone_128.50/GMJ_RHS_F_M.csv

>>> COPY /tmp/ozone_128.50/GMJ_IVECW_F_M.csv /home/grierjones/DDCASPT2/ozone/ANO-RCC-VTZP/ozone_128.50/GMJ_IVECW_F_M.csv

>>> COPY /tmp/ozone_128.50/GMJ_IVECX_F_M.csv /home/grierjones/DDCASPT2/ozone/ANO-RCC-VTZP/ozone_128.50/GMJ_IVECX_F_M.csv

>>> COPY /tmp/ozone_128.50/GMJ_IVECC2_F_M.csv /home/grierjones/DDCASPT2/ozone/ANO-RCC-VTZP/ozone_128.50/GMJ_IVECC2_F_M.csv

>>> COPY /tmp/ozone_128.50/GMJ_e2_F_M.csv /home/grierjones/DDCASPT2/ozone/ANO-RCC-VTZP/ozone_128.50/GMJ_e2_F_M.csv

>>> END FOREACH

>>> END FOREACH

>>> EXPORT i = G

>>> EXPORT j = P

>>> IF (-FILE GMJ_e2_${i}_${j}.csv)

>>> COPY /tmp/ozone_128.50/GMJ_RHS_G_P.csv /home/grierjones/DDCASPT2/ozone/ANO-RCC-VTZP/ozone_128.50/GMJ_RHS_G_P.csv

>>> COPY /tmp/ozone_128.50/GMJ_IVECW_G_P.csv /home/grierjones/DDCASPT2/ozone/ANO-RCC-VTZP/ozone_128.50/GMJ_IVECW_G_P.csv

>>> COPY /tmp/ozone_128.50/GMJ_IVECX_G_P.csv /home/grierjones/DDCASPT2/ozone/ANO-RCC-VTZP/ozone_128.50/GMJ_IVECX_G_P.csv

>>> COPY /tmp/ozone_128.50/GMJ_IVECC2_G_P.csv /home/grierjones/DDCASPT2/ozone/ANO-RCC-VTZP/ozone_128.50/GMJ_IVECC2_G_P.csv

>>> COPY /tmp/ozone_128.50/GMJ_e2_G_P.csv /home/grierjones/DDCASPT2/ozone/ANO-RCC-VTZP/ozone_128.50/GMJ_e2_G_P.csv

>>> END FOREACH

>>> EXPORT j = M

>>> IF (-FILE GMJ_e2_${i}_${j}.csv)

>>> COPY /tmp/ozone_128.50/GMJ_RHS_G_M.csv /home/grierjones/DDCASPT2/ozone/ANO-RCC-VTZP/ozone_128.50/GMJ_RHS_G_M.csv

>>> COPY /tmp/ozone_128.50/GMJ_IVECW_G_M.csv /home/grierjones/DDCASPT2/ozone/ANO-RCC-VTZP/ozone_128.50/GMJ_IVECW_G_M.csv

>>> COPY /tmp/ozone_128.50/GMJ_IVECX_G_M.csv /home/grierjones/DDCASPT2/ozone/ANO-RCC-VTZP/ozone_128.50/GMJ_IVECX_G_M.csv

>>> COPY /tmp/ozone_128.50/GMJ_IVECC2_G_M.csv /home/grierjones/DDCASPT2/ozone/ANO-RCC-VTZP/ozone_128.50/GMJ_IVECC2_G_M.csv

>>> COPY /tmp/ozone_128.50/GMJ_e2_G_M.csv /home/grierjones/DDCASPT2/ozone/ANO-RCC-VTZP/ozone_128.50/GMJ_e2_G_M.csv

>>> END FOREACH

>>> END FOREACH

>>> EXPORT i = H

>>> EXPORT j = P

>>> IF (-FILE GMJ_e2_${i}_${j}.csv)

>>> COPY /tmp/ozone_128.50/GMJ_RHS_H_P.csv /home/grierjones/DDCASPT2/ozone/ANO-RCC-VTZP/ozone_128.50/GMJ_RHS_H_P.csv

>>> COPY /tmp/ozone_128.50/GMJ_IVECW_H_P.csv /home/grierjones/DDCASPT2/ozone/ANO-RCC-VTZP/ozone_128.50/GMJ_IVECW_H_P.csv

>>> COPY /tmp/ozone_128.50/GMJ_IVECX_H_P.csv /home/grierjones/DDCASPT2/ozone/ANO-RCC-VTZP/ozone_128.50/GMJ_IVECX_H_P.csv

>>> COPY /tmp/ozone_128.50/GMJ_IVECC2_H_P.csv /home/grierjones/DDCASPT2/ozone/ANO-RCC-VTZP/ozone_128.50/GMJ_IVECC2_H_P.csv

>>> COPY /tmp/ozone_128.50/GMJ_e2_H_P.csv /home/grierjones/DDCASPT2/ozone/ANO-RCC-VTZP/ozone_128.50/GMJ_e2_H_P.csv

>>> END FOREACH

>>> EXPORT j = M

>>> IF (-FILE GMJ_e2_${i}_${j}.csv)

>>> COPY /tmp/ozone_128.50/GMJ_RHS_H_M.csv /home/grierjones/DDCASPT2/ozone/ANO-RCC-VTZP/ozone_128.50/GMJ_RHS_H_M.csv

>>> COPY /tmp/ozone_128.50/GMJ_IVECW_H_M.csv /home/grierjones/DDCASPT2/ozone/ANO-RCC-VTZP/ozone_128.50/GMJ_IVECW_H_M.csv

>>> COPY /tmp/ozone_128.50/GMJ_IVECX_H_M.csv /home/grierjones/DDCASPT2/ozone/ANO-RCC-VTZP/ozone_128.50/GMJ_IVECX_H_M.csv

>>> COPY /tmp/ozone_128.50/GMJ_IVECC2_H_M.csv /home/grierjones/DDCASPT2/ozone/ANO-RCC-VTZP/ozone_128.50/GMJ_IVECC2_H_M.csv

>>> COPY /tmp/ozone_128.50/GMJ_e2_H_M.csv /home/grierjones/DDCASPT2/ozone/ANO-RCC-VTZP/ozone_128.50/GMJ_e2_H_M.csv

>>> END FOREACH

>>> END FOREACH

>>> EXPORT i = A

>>> IF (-FILE GMJ_e2_$i.csv)

>>> COPY /tmp/ozone_128.50/GMJ_RHS_A.csv /home/grierjones/DDCASPT2/ozone/ANO-RCC-VTZP/ozone_128.50/GMJ_RHS_A.csv

>>> COPY /tmp/ozone_128.50/GMJ_IVECW_A.csv /home/grierjones/DDCASPT2/ozone/ANO-RCC-VTZP/ozone_128.50/GMJ_IVECW_A.csv

>>> COPY /tmp/ozone_128.50/GMJ_IVECX_A.csv /home/grierjones/DDCASPT2/ozone/ANO-RCC-VTZP/ozone_128.50/GMJ_IVECX_A.csv

>>> COPY /tmp/ozone_128.50/GMJ_IVECC2_A.csv /home/grierjones/DDCASPT2/ozone/ANO-RCC-VTZP/ozone_128.50/GMJ_IVECC2_A.csv

>>> COPY /tmp/ozone_128.50/GMJ_e2_A.csv /home/grierjones/DDCASPT2/ozone/ANO-RCC-VTZP/ozone_128.50/GMJ_e2_A.csv

>>> END FOREACH

>>> EXPORT i = C

>>> IF (-FILE GMJ_e2_$i.csv)

>>> COPY /tmp/ozone_128.50/GMJ_RHS_C.csv /home/grierjones/DDCASPT2/ozone/ANO-RCC-VTZP/ozone_128.50/GMJ_RHS_C.csv

>>> COPY /tmp/ozone_128.50/GMJ_IVECW_C.csv /home/grierjones/DDCASPT2/ozone/ANO-RCC-VTZP/ozone_128.50/GMJ_IVECW_C.csv

>>> COPY /tmp/ozone_128.50/GMJ_IVECX_C.csv /home/grierjones/DDCASPT2/ozone/ANO-RCC-VTZP/ozone_128.50/GMJ_IVECX_C.csv

>>> COPY /tmp/ozone_128.50/GMJ_IVECC2_C.csv /home/grierjones/DDCASPT2/ozone/ANO-RCC-VTZP/ozone_128.50/GMJ_IVECC2_C.csv

>>> COPY /tmp/ozone_128.50/GMJ_e2_C.csv /home/grierjones/DDCASPT2/ozone/ANO-RCC-VTZP/ozone_128.50/GMJ_e2_C.csv

>>> END FOREACH

>>> EXPORT i = D

>>> IF (-FILE GMJ_e2_$i.csv)

>>> COPY /tmp/ozone_128.50/GMJ_RHS_D.csv /home/grierjones/DDCASPT2/ozone/ANO-RCC-VTZP/ozone_128.50/GMJ_RHS_D.csv

>>> COPY /tmp/ozone_128.50/GMJ_IVECW_D.csv /home/grierjones/DDCASPT2/ozone/ANO-RCC-VTZP/ozone_128.50/GMJ_IVECW_D.csv

>>> COPY /tmp/ozone_128.50/GMJ_IVECX_D.csv /home/grierjones/DDCASPT2/ozone/ANO-RCC-VTZP/ozone_128.50/GMJ_IVECX_D.csv

>>> COPY /tmp/ozone_128.50/GMJ_IVECC2_D.csv /home/grierjones/DDCASPT2/ozone/ANO-RCC-VTZP/ozone_128.50/GMJ_IVECC2_D.csv

>>> COPY /tmp/ozone_128.50/GMJ_e2_D.csv /home/grierjones/DDCASPT2/ozone/ANO-RCC-VTZP/ozone_128.50/GMJ_e2_D.csv

>>> END FOREACH

.########################.
.# Non-zero return code #.
.########################.

    Timing: Wall=16.89 User=9.01 System=7.88
********************************************
*** WorkDir at /tmp/ozone_128.50 cleaned ***
********************************************
