[Molden Format]
[N_Atoms]
                     2
[Atoms] (AU)
B1          1      5           0.00000000      0.00000000      0.00000000
C2          2      6           0.00000000      0.00000000      2.83458919
[Charge] (Mulliken)
  0.131908137871729     
 -0.131908137871767     
[GTO] (AU)
   1
   s  14
  3.336021700E+04  1.039699991E-04
  4.972095200E+03  5.254399956E-04
  1.125641700E+03  2.509059979E-03
  3.164913600E+02  1.031887991E-02
  1.020072600E+02  3.636632969E-02
  3.629587300E+01  1.064607991E-01
  1.397141000E+01  2.403999880E-01
  5.741156000E+00  3.748581168E-01
  2.494268000E+00  3.100066974E-01
  1.114202000E+00  7.922455933E-02
  4.215490000E-01 -4.947589958E-03
  1.696330000E-01 -7.737119935E-03
  6.853500000E-02 -1.501079987E-03
  2.398700000E-02 -1.333299989E-04
   s  14
  3.336021700E+04 -2.030000008E-05
  4.972095200E+03 -1.025700004E-04
  1.125641700E+03 -4.911300020E-04
  3.164913600E+02 -2.026570008E-03
  1.020072600E+02 -7.261010030E-03
  3.629587300E+01 -2.197722009E-02
  1.397141000E+01 -5.408428022E-02
  5.741156000E+00 -1.022402604E-01
  2.494268000E+00 -1.423595206E-01
  1.114202000E+00 -4.658690019E-02
  4.215490000E-01  3.799402916E-01
  1.696330000E-01  5.890463624E-01
  6.853500000E-02  1.749075107E-01
  2.398700000E-02 -1.142030005E-03
   p   9
  5.500000000E+01  1.229800005E-03
  1.336610100E+01  8.827380035E-03
  4.135394000E+00  3.843340015E-02
  1.481256000E+00  1.150031805E-01
  6.021360000E-01  2.733674011E-01
  2.556360000E-01  4.061972116E-01
  1.111510000E-01  3.014967912E-01
  4.764800000E-02  7.684809030E-02
  1.667700000E-02 -8.170000032E-06
 
   2
   s  14
  5.055750100E+04  1.128874000E-04
  7.524785600E+03  5.295373000E-04
  1.694327600E+03  2.450038300E-03
  4.728227900E+02  1.005398470E-02
  1.517107500E+02  3.545398060E-02
  5.391874600E+01  1.044071086E-01
  2.065931100E+01  2.412894918E-01
  8.383976000E+00  3.834225483E-01
  3.577015000E+00  3.078514393E-01
  1.547118000E+00  6.872442990E-02
  6.130130000E-01  2.224445000E-04
  2.460680000E-01  1.976748900E-03
  9.908700000E-02  2.057859400E-03
  3.468000000E-02  4.182020000E-04
   s  14
  5.055750100E+04 -2.507420000E-05
  7.524785600E+03 -1.175945000E-04
  1.694327600E+03 -5.456275000E-04
  4.728227900E+02 -2.245077100E-03
  1.517107500E+02 -8.043471800E-03
  5.391874600E+01 -2.442588710E-02
  2.065931100E+01 -6.136791180E-02
  8.383976000E+00 -1.177767835E-01
  3.577015000E+00 -1.550487783E-01
  1.547118000E+00 -1.933316860E-02
  6.130130000E-01  3.996930678E-01
  2.460680000E-01  5.589420949E-01
  9.908700000E-02  1.711195023E-01
  3.468000000E-02  7.456244600E-03
   p   9
  8.333315500E+01  1.344656000E-03
  1.955761100E+01  1.023555500E-02
  6.080365000E+00  4.520067100E-02
  2.179317000E+00  1.410756198E-01
  8.651500000E-01  3.047388085E-01
  3.619440000E-01  3.995281011E-01
  1.547400000E-01  2.719163432E-01
  6.542900000E-02  5.857669330E-02
  2.290000000E-02 -1.263813000E-04
 
[MO]
Sym=     1a  
Ene=   -11.3090
Spin= Alpha
Occup=    1.00000
   1        -0.00040766
   2        -0.00227002
   3         0.00000000
   4        -0.00000000
   5        -0.00145775
   6         1.00023939
   7         0.00276873
   8         0.00000000
   9        -0.00000000
  10        -0.00151736
Sym=     1a  
Ene=   -11.2390
Spin= Beta
Occup=    1.00000
   1        -0.00013175
   2        -0.00084243
   3        -0.00000000
   4         0.00000000
   5        -0.00020126
   6         1.00005110
   7        -0.00357673
   8         0.00000000
   9         0.00000000
  10        -0.00110208
Sym=     2a  
Ene=    -7.6963
Spin= Alpha
Occup=    1.00000
   1         0.99985285
   2         0.01411952
   3         0.00000000
   4        -0.00000000
   5         0.00127028
   6        -0.00040330
   7        -0.00011269
   8         0.00000000
   9        -0.00000000
  10        -0.00057650
Sym=     2a  
Ene=    -7.7325
Spin= Beta
Occup=    1.00000
   1         0.99984735
   2         0.01646257
   3        -0.00000000
   4         0.00000000
   5         0.00049744
   6        -0.00039947
   7        -0.00019324
   8        -0.00000000
   9         0.00000000
  10        -0.00029252
Sym=     3a  
Ene=    -0.9411
Spin= Alpha
Occup=    1.00000
   1        -0.04677692
   2         0.19167117
   3         0.00000000
   4        -0.00000000
   5         0.15394240
   6        -0.02398587
   7         0.82146597
   8        -0.00000000
   9        -0.00000000
  10        -0.04128566
Sym=     3a  
Ene=    -0.7639
Spin= Beta
Occup=    1.00000
   1        -0.05514938
   2         0.54258919
   3        -0.00000000
   4         0.00000000
   5         0.13053875
   6        -0.03555762
   7         0.47859255
   8        -0.00000000
   9         0.00000000
  10        -0.24651915
Sym=     4a  
Ene=    -0.5544
Spin= Alpha
Occup=    1.00000
   1         0.05252644
   2        -0.34983184
   3        -0.00000000
   4        -0.00000000
   5        -0.21361884
   6         0.03584007
   7         0.43983531
   8        -0.00000000
   9        -0.00000000
  10         0.75482858
Sym=     4a  
Ene=    -0.4866
Spin= Beta
Occup=    1.00000
   1        -0.01681905
   2        -0.70348105
   3        -0.00000000
   4         0.00000000
   5         0.62657069
   6        -0.01912206
   7         0.34680762
   8        -0.00000000
   9         0.00000000
  10        -0.12065936
Sym=     5a  
Ene=    -0.4552
Spin= Alpha
Occup=    1.00000
   1         0.00000000
   2        -0.00000000
   3         0.11395265
   4         0.20312225
   5        -0.00000000
   6         0.00000000
   7         0.00000000
   8         0.44203159
   9         0.78792769
  10         0.00000000
Sym=     5a  
Ene=    -0.3570
Spin= Beta
Occup=    1.00000
   1        -0.00000000
   2        -0.00000000
   3         0.78222732
   4        -0.43883365
   5         0.00000000
   6        -0.00000000
   7         0.00000000
   8         0.21387660
   9        -0.11998590
  10        -0.00000000
Sym=     6a  
Ene=    -0.4419
Spin= Alpha
Occup=    1.00000
   1         0.00000000
   2        -0.00000000
   3         0.17006826
   4        -0.09540919
   5        -0.00000000
   6         0.00000000
   7         0.00000000
   8         0.80464191
   9        -0.45140835
  10         0.00000000
Sym=     6a  
Ene=     0.0173
Spin= Beta
Occup=    0.00000
   1        -0.00000000
   2         0.00000000
   3         0.40802269
   4         0.72730634
   5        -0.00000000
   6        -0.00000000
   7        -0.00000000
   8         0.17219463
   9         0.30693941
  10        -0.00000000
Sym=     7a  
Ene=     0.0788
Spin= Alpha
Occup=    0.00000
   1         0.02546497
   2         0.86021244
   3        -0.00000000
   4         0.00000000
   5        -0.54380158
   6         0.00584164
   7        -0.11604605
   8         0.00000000
   9        -0.00000000
  10         0.34464414
Sym=     7a  
Ene=     0.1276
Spin= Beta
Occup=    0.00000
   1        -0.02033495
   2         0.13837094
   3         0.00000000
   4        -0.00000000
   5         0.43816128
   6        -0.04814858
   7        -0.79405044
   8        -0.00000000
   9        -0.00000000
  10        -0.62326113
Sym=     8a  
Ene=     0.1848
Spin= Alpha
Occup=    0.00000
   1         0.00000000
   2         0.00000000
   3        -0.50145243
   4        -0.89384619
   5         0.00000000
   6        -0.00000000
   7        -0.00000000
   8         0.26276951
   9         0.46839045
  10         0.00000000
Sym=     8a  
Ene=     0.2778
Spin= Beta
Occup=    0.00000
   1         0.00000000
   2         0.00000000
   3        -0.47784943
   4         0.26807605
   5         0.00000000
   6        -0.00000000
   7        -0.00000000
   8         0.89133409
   9        -0.50004313
  10        -0.00000000
Sym=     9a  
Ene=     0.2273
Spin= Alpha
Occup=    0.00000
   1         0.00000000
   2        -0.00000000
   3        -0.90071996
   4         0.50530865
   5         0.00000000
   6        -0.00000000
   7         0.00000000
   8         0.43905702
   9        -0.24631330
  10         0.00000000
Sym=     9a  
Ene=     0.3225
Spin= Beta
Occup=    0.00000
   1         0.00000000
   2         0.00000000
   3        -0.31298119
   4        -0.55789349
   5         0.00000000
   6        -0.00000000
   7        -0.00000000
   8         0.48455005
   9         0.86371747
  10        -0.00000000
Sym=    10a  
Ene=     0.6514
Spin= Alpha
Occup=    0.00000
   1         0.12677559
   2         1.01561562
   3         0.00000000
   4         0.00000000
   5         1.21760570
   6        -0.15625741
   7        -1.12606920
   8        -0.00000000
   9        -0.00000000
  10         0.96589213
Sym=    10a  
Ene=     0.6888
Spin= Beta
Occup=    0.00000
   1         0.13394370
   2         1.05927255
   3         0.00000000
   4        -0.00000000
   5         1.11624460
   6        -0.15079356
   7        -1.08162487
   8        -0.00000000
   9         0.00000000
  10         1.07676108
