   This run of MOLCAS is using the pymolcas driver

                             OPE
                             OPE          NMOL  CASOP  ENMOLC A   SO
                 OPE        NMOLC        AS  OP EN  MO LC     AS  OP
                OPENM       OL CA        SO  PE NM  OL CA     SOP EN
                OP EN      MO   LC       AS  OP ENMOL  CASO   PENMOL
                OP  EN     MO   LC       AS  OP EN     MO     LC ASO
               OP   E  NMOL  C  AS       OP  EN MO     LC     AS  OP
               OP  E   NMO   LC AS        OPEN  MO     LCASOP EN   M
               O  PEN   MO  LCA  SO
            OPE   NMO   L   CAS    OP
        OPENMOL  CASOP     ENMOL   CASOPE
     OPENMOLCA   SOPENMOLCASOPEN   MOLCASOPE
    OPENMOLCAS   OP           EN   MOL    CAS
    OPENMOLCAS       OP  ENM        O     LCA
    OPENMOLCAS    OPEN  MOLCASO     P  E  NMO
    OPENMOLCAS     OP               E  N  MOL
    OPENMOLCA   SO           PENM   O  L  CAS    OPEN    MO    LCAS
    OPENMOLCA   SOP           ENM   O  L  CAS   OP  EN  MOLC  AS   O
    OPENMOLCA   SOPE           NM      O  LCA   S      OP  EN MO
    OPENMOLC                AS         O  PEN   M      OL  CA  SOPE
    OPENMO        LCASOPE  NMOL        C  ASO   P      ENMOLC     AS
    OPE     NMO      LCA  SO     P     E   NM   OL  CA SO  PE N   MO
          OPENMOLCA            SOPE   NMO        LCAS  O    P  ENMO
     OPENMOLCASOPENMOLCASOPENMOLCASOPENMOLCA
        OPENMOLCASOPENMOLCASOPENMOLCASOPE
            OPENMOLCASOPENMOLCASOPENM
               OPENMOLCASOPENMOLCA        version: 24.02
                   OPENMOLCASO
                       OPE                tag: 126-g611b04c8f

 OpenMolcas is free software; you can redistribute it and/or modify it
 under the terms of the GNU Lesser General Public License version 2.1.
 OpenMolcas is distributed in the hope that it will be useful, but it
 is provided "as is" and without any express or implied warranties.
 For more details see the full text of the license in the file
 LICENSE or in <http://www.gnu.org/licenses/>.

                 Copyright (C) The OpenMolcas Authors
           For the author list and the recommended citation,
                   consult the file CONTRIBUTORS.md

           *************************************************
           * pymolcas version py2.28                       *
           *   build c4a6d18ded8cb6cad61d2372a9abd97c      *
           *   (after the EMIL interpreter by V. Veryazov) *
           *************************************************

configuration info
------------------
Host name: debian (Linux)
C Compiler ID: GNU
C flags: -std=gnu99
Fortran Compiler ID: Intel
Fortran flags: -fpp -i8 -heap-arrays
Definitions: _MOLCAS_;_I8_;_LINUX_
Parallel: OFF (GA=OFF)


   -----------------------------------------------------------------
  |
  |              Project: 1.50
  |       Submitted from: /home/grierjones/DDCASPT2/delta_ML/BC/1.50
  |         Scratch area: /tmp/1.50
  |      Save outputs to: /home/grierjones/DDCASPT2/delta_ML/BC/1.50
  |               Molcas: /usr/local
  |
  | Scratch area is empty
  |
  |       MOLCAS_DRIVER = /usr/local/pymolcas
  | MOLCAS_KEEP_WORKDIR = NO
  |  MOLCAS_NEW_WORKDIR = YES
  |       MOLCAS_NPROCS = 1
  |       MOLCAS_SOURCE = /usr/local
  |    MOLCAS_STRUCTURE = 0
  |
   -----------------------------------------------------------------

++ ---------   Input file   ---------

&GATEWAY
coord=1.50.xyz
Basis = ANO-RCC-MB
Group = nosymm
End of Input

&SEWARD
End of Input

&SCF
UHF

&MBPT2
Frozen
0

&RASSCF
Title= RASSCF
FileOrb
/home/grierjones/DDCASPT2/delta_ML/BC/1.40/1.40.RasOrb

NACTEL
1 0 0
Inactive
5
RAS2
2
Symmetry
1
Spin
2
orblisting
all
ITERation
200 100
CIMX
200
SDAV
500

&CASPT2
Imaginary Shift
0.0
Frozen
0

-- ----------------------------------

--- Start Module: gateway at Thu Apr 25 13:33:18 2024 ---
 
()()()()()()()()()()()()()()()()()()()()()()()()()()()()()()()()()()()()()()()()()()()()()()()()()()

                                              &GATEWAY

                                   only a single process is used
                       available to each process: 2.0 GB of memory, 1 thread?
                                             pid: 94271
()()()()()()()()()()()()()()()()()()()()()()()()()()()()()()()()()()()()()()()()()()()()()()()()()()
 
 
++    Symmetry information:
      ---------------------
 
                    Character Table for C1 
 
                             E  
                    a        1  x, y, xy, Rz, z, xz, Ry, yz, Rx, I
--
 
 
++    Basis set information:
      ----------------------
 
 
      Basis set label: B.ANO-RCC...2S1P.
 
      Electronic valence basis set:
      ------------------
      Associated Effective Charge   5.000000 au
      Associated Actual Charge      5.000000 au
      Nuclear Model: Point charge
 
      Shell  nPrim  nBasis  Cartesian Spherical Contaminant
         s      14       2        X                  
         p       9       1        X                  
 
 
      Basis set label: C.ANO-RCC...2S1P.
 
      Electronic valence basis set:
      ------------------
      Associated Effective Charge   6.000000 au
      Associated Actual Charge      6.000000 au
      Nuclear Model: Point charge
 
      Shell  nPrim  nBasis  Cartesian Spherical Contaminant
         s      14       2        X                  
         p       9       1        X                  
--
 
 
++    Molecular structure info:
      -------------------------
 
                    ************************************************ 
                    **** Cartesian Coordinates / Bohr, Angstrom **** 
                    ************************************************ 
 
     Center  Label                x              y              z                     x              y              z
        1      B1               0.000000       0.000000       0.000000              0.000000       0.000000       0.000000
        2      C2               0.000000       0.000000       2.834589              0.000000       0.000000       1.500000
--
 
 
            Nuclear Potential Energy             10.58354422 au
 
--- Stop Module: gateway at Thu Apr 25 13:33:18 2024 /rc=_RC_ALL_IS_WELL_ ---
*** files: xmldump
    saved to directory /home/grierjones/DDCASPT2/delta_ML/BC/1.50

--- Start Module: seward at Thu Apr 25 13:33:18 2024 ---
 
()()()()()()()()()()()()()()()()()()()()()()()()()()()()()()()()()()()()()()()()()()()()()()()()()()

                                              &SEWARD

                                   only a single process is used
                       available to each process: 2.0 GB of memory, 1 thread?
                                             pid: 94275
()()()()()()()()()()()()()()()()()()()()()()()()()()()()()()()()()()()()()()()()()()()()()()()()()()
 
               SEWARD will generate:
                  Multipole Moment integrals up to order  2
                  Kinetic Energy integrals
                  Nuclear Attraction integrals (point charge)
                  One-Electron Hamiltonian integrals
                  Velocity integrals
                  Relativistic Douglas-Kroll-Hess integrals:
                    - Parametrization         : EXP
                    - DKH order of Hamiltonian: 2
                    - DKH order of Properties : 0
                         - multipole moment operators
                         - electric potential operators
                         - contact operators
                  Orbital angular momentum around ( 0.0000  0.0000  1.4783 )
                  Velocity quadrupole around ( 0.0000  0.0000  1.4783 )
                  Atomic mean-field integrals
                  Two-Electron Repulsion integrals
 
                   Integrals are discarded if absolute value <: 1.00E-14
                   Integral cutoff threshold is set to       <: 1.00E-16
 
            Nuclear Potential Energy             10.58354422 au
 
 
      Basis set specifications :
      Symmetry species         a  
      Basis functions           10
 
 
      Input file to MOLDEN was generated!
 
--- Stop Module: seward at Thu Apr 25 13:33:19 2024 /rc=_RC_ALL_IS_WELL_ ---
*** files: 1.50.GssOrb 1.50.guessorb.h5 1.50.guessorb.molden xmldump
    saved to directory /home/grierjones/DDCASPT2/delta_ML/BC/1.50

*** symbolic link created: INPORB -> 1.50.GssOrb
--- Start Module: scf at Thu Apr 25 13:33:19 2024 ---
 
()()()()()()()()()()()()()()()()()()()()()()()()()()()()()()()()()()()()()()()()()()()()()()()()()()

                                                &SCF

                                   only a single process is used
                       available to each process: 2.0 GB of memory, 1 thread?
                                             pid: 94278
()()()()()()()()()()()()()()()()()()()()()()()()()()()()()()()()()()()()()()()()()()()()()()()()()()
 
++    Input section:
      --------------
 
      Header of the integral files:
      
       Integrals generated by Gateway/Seward, Thu Apr 25 13:33:18 2024
 
 
      Cartesian coordinates in Angstrom:
      -----------------------------------------------------
      No.  Label        X            Y            Z        
      -----------------------------------------------------
       1   B1         0.00000000   0.00000000   0.00000000
       2   C2         0.00000000   0.00000000   1.50000000
      -----------------------------------------------------
      Nuclear repulsion energy =   10.58354422
--
 
++    Orbital specifications:
      -----------------------
 
      Symmetry species               1
                                     a
      Frozen orbitals                0
      Occupied orbitals alpha        6
      Occupied orbitals beta         5
      Secondary orbitals alpha       4
      Secondary orbitals beta        5
      Deleted orbitals               0
      Total number of orbitals      10
      Number of basis functions     10
--
 
      Molecular charge                           0.000
 
++    Optimization specifications:
      ----------------------------
 
      SCF Algorithm: Conventional USCF
      D(i)-D(i-1) density differences are used
      Number of density matrices in core                 5
      Maximum number of NDDO SCF iterations            400
      Maximum number of HF SCF iterations              400
      Threshold for SCF energy change             1.00E-09
      Threshold for density matrix                1.00E-04
      Threshold for Fock matrix                   1.50E-04
      Threshold for linear dependence             1.00E-09
      Threshold at which DIIS is turned on        1.50E-01
      Maximum depth in the DIIS procedure                5
      Maximum depth in the BFGS Hessian update          30
      Threshold at which QNR/C2DIIS is turned on  7.50E-02
      Threshold for Norm(delta) (QNR/C2DIIS)      1.00E-03
      All orbitals punched on: UHFORB
--
 
      Input vectors read from INPORB
      Orbital file label: *Guess orbitals
 
 
++ Convergence information
                               UHF SCF        iterations: Energy and convergence statistics
 
Iter     Tot. SCF        One-elec.       Two-elec.     Energy      Max Dij or  Max Fij      DNorm      TNorm      AccCon     Time
         Energy          Energy          Energy        Change      Delta Norm                                                in Sec.
   1   -61.999238708  -104.411324994    31.828542068   0.00E+00    8.75E-01*   1.81E-01*    4.52E+00   1.78E+01   None         0.
   2   -61.778382554  -102.320385723    29.958458951   2.21E-01*   1.70E-01*   9.86E-02*    2.40E+00   1.72E+01   EDIIS        0.
   3   -62.190795323  -103.501622271    30.727282730  -4.12E-01*   1.71E-01*   4.31E-02*    8.55E-01   1.75E+01   EDIIS        0.
   4   -62.189762272  -103.913072907    31.139766417   1.03E-03*   5.92E-02*   2.60E-02*    5.01E-01   1.76E+01   EDIIS        0.
   5   -62.201388495  -103.667954999    30.883022286  -1.16E-02*   5.25E-02*   1.03E-02*    1.93E-01   1.75E+01   c2DIIS       0.
   6   -62.203040141  -103.691996471    30.905412113  -1.65E-03*   1.03E-01*   1.62E-02*    1.16E-01   1.76E+01   QNRc2DIIS    0.
 DIIS_X: Resetting kOptim!
         Caused by energies and gradients which are inconsistent with a convex e
 nergy functional.
 kOptim=                     2 -> kOptim=                     1
   7   -62.205573698  -103.676455662    30.887337745  -2.53E-03*   1.37E-01*   1.87E-02*    1.44E-01   1.76E+01   QNRc2DIIS    0.
 DIIS_X: Resetting kOptim!
         Caused by energies and gradients which are inconsistent with a convex e
 nergy functional.
 kOptim=                     2 -> kOptim=                     1
   8   -62.210202626  -103.694785384    30.901038541  -4.63E-03*   1.85E-01*   2.93E-02*    1.91E-01   1.76E+01   QNRc2DIIS    0.
 DIIS_X: Resetting kOptim!
         Caused by energies and gradients which are inconsistent with a convex e
 nergy functional.
 kOptim=                     2 -> kOptim=                     1
   9   -62.218449334  -103.676448036    30.874454484  -8.25E-03*   2.30E-01*   3.30E-02*    2.65E-01   1.76E+01   QNRc2DIIS    0.
 DIIS_X: Resetting kOptim!
         Caused by energies and gradients which are inconsistent with a convex e
 nergy functional.
 kOptim=                     2 -> kOptim=                     1
  10   -62.231489892  -103.705625165    30.890591055  -1.30E-02*   2.62E-01*   4.38E-02*    3.28E-01   1.76E+01   QNRc2DIIS    0.
 DIIS_X: Resetting BFGS depth!
         Too large B matrix values.
 DIIS_X: Resetting kOptim!
         Caused by energies and gradients which are inconsistent with a convex e
 nergy functional.
 kOptim=                     2 -> kOptim=                     1
  11   -62.248327839  -103.695792565    30.863920508  -1.68E-02*   2.58E-01*   4.08E-02*    3.77E-01   1.76E+01   QNRc2DIIS    0.
 DIIS_X: Resetting BFGS depth!
         Too large B matrix values.
  12   -62.265275307  -103.729326023    30.880506499  -1.69E-02*   1.03E-01*   3.84E-02*    3.68E-01   1.76E+01   QNRc2DIIS    0.
 DIIS_X: Resetting BFGS depth!
         Too large B matrix values.
  13   -62.271778802  -103.731571276    30.876248256  -6.50E-03*   1.01E-01*   3.44E-02*    1.46E-01   1.76E+01   QNRc2DIIS    0.
 DIIS_X: Resetting BFGS depth!
         Too large B matrix values.
  14   -62.277795411  -103.735900818    30.874561189  -6.02E-03*   4.44E+00*   3.00E-02*    1.41E-01   1.76E+01   QNRc2DIIS    0.
 DIIS_X: Resetting BFGS depth!
         Too large B matrix values.
  15   -61.472780122  -104.080151767    32.023827427   8.05E-01*   5.11E+00*   2.46E-01*    5.72E+00   1.80E+01   QNRc2DIIS    0.
  16   -62.235612022  -103.708692176    30.889535936  -7.63E-01*   2.15E-01*   3.93E-02*    6.07E+00   1.76E+01   QNRc2DIIS    0.
 DIIS_X: Resetting BFGS depth!
         Too large B matrix values.
  17   -62.246082086  -103.734946998    30.905320695  -1.05E-02*   3.39E-01*   3.64E-02*    3.15E-01   1.76E+01   QNRc2DIIS    0.
 DIIS_X: Resetting BFGS depth!
         Too large B matrix values.
  18   -62.227284982  -103.715120744    30.904291543   1.88E-02*   7.75E-01*   3.89E-02*    4.53E-01   1.76E+01   QNRc2DIIS    0.
 DIIS_X: Resetting BFGS depth!
         Too large B matrix values.
  19   -62.181511741  -103.684872009    30.919816049   4.58E-02*   8.20E-01*   5.74E-02*    1.09E+00   1.76E+01   QNRc2DIIS    0.
  20   -62.079372474  -103.772817719    31.109901027   1.02E-01*   5.48E-01*   1.63E-01*    1.31E+00   1.77E+01   QNRc2DIIS    0.
 DIIS_X: Resetting BFGS depth!
         Too large B matrix values.
  21   -62.134721362  -103.872874268    31.154608688  -5.53E-02*   8.59E-01*   1.53E-01*    8.71E-01   1.77E+01   QNRc2DIIS    0.
 DIIS_X: Resetting BFGS depth!
         Too large B matrix values.
  22   -62.195141242  -103.978121477    31.199436018  -6.04E-02*   1.58E+00*   1.31E-01*    1.25E+00   1.77E+01   QNRc2DIIS    0.
  23   -62.242999055  -103.827700590    31.001157317  -4.79E-02*   1.21E+00*   9.98E-02*    2.14E+00   1.77E+01   QNRc2DIIS    0.
  24   -62.212528548  -103.454474669    30.658401902   3.05E-02*   3.29E-01*   1.45E-01*    1.80E+00   1.76E+01   QNRc2DIIS    0.
 DIIS_X: Resetting kOptim!
         Caused by energies and gradients which are inconsistent with a convex e
 nergy functional.
 kOptim=                     5 -> kOptim=                     1
  25   -62.250120288  -103.513922106    30.680257599  -3.76E-02*   5.10E-01*   1.20E-01*    5.48E-01   1.76E+01   QNRc2DIIS    0.
  26   -62.301889116  -103.846352116    30.960918782  -5.18E-02*   1.37E-01*   5.04E-02*    8.52E-01   1.77E+01   QNRc2DIIS    0.
  27   -62.306519249  -103.832273026    30.942209559  -4.63E-03*   7.25E-02*   1.21E-02*    2.40E-01   1.77E+01   QNRc2DIIS    0.
  28   -62.307300386  -103.809714902    30.918870298  -7.81E-04*   2.82E-02*   2.79E-03*    1.07E-01   1.77E+01   QNRc2DIIS    0.
  29   -62.307380768  -103.805629751    30.914704764  -8.04E-05*   7.77E-03*   1.20E-03*    4.20E-02   1.77E+01   QNRc2DIIS    0.
  30   -62.307385422  -103.804822887    30.913893247  -4.65E-06*   2.34E-03*   3.89E-04*    1.36E-02   1.77E+01   QNRc2DIIS    0.
  31   -62.307386196  -103.805358847    30.914428433  -7.74E-07*   5.92E-04    1.20E-04     3.52E-03   1.77E+01   QNRc2DIIS    0.
  32   -62.307386260  -103.805350948    30.914420471  -6.38E-08*   4.98E-04    4.16E-05     9.93E-04   1.77E+01   QNRc2DIIS    0.
  33   -62.307386281  -103.805297718    30.914367218  -2.16E-08*   1.26E-04    1.14E-05     8.04E-04   1.77E+01   QNRc2DIIS    0.
  34   -62.307386283  -103.805271859    30.914341359  -1.48E-09*   1.89E-05    2.77E-06     1.97E-04   1.77E+01   QNRc2DIIS    0.
  35   -62.307386283  -103.805271730    30.914341229  -5.00E-11    1.08E-05    1.03E-06     2.74E-05   1.77E+01   QNRc2DIIS    0.
 
       Convergence after  35 Macro Iterations
--
 
 *****************************************************************************************************************************
 *                                                                                                                           *
 *                                             SCF/KS-DFT Program, Final results                                             *
 *                                                                                                                           *
 *                                                                                                                           *
 *                                                                                                                           *
 *                                                       Final Results                                                       *
 *                                                                                                                           *
 *****************************************************************************************************************************
 
::    Total SCF energy                                -62.3073862829
      One-electron energy                            -103.8052717304
      Two-electron energy                              30.9143412294
      Nuclear repulsion energy                         10.5835442181
      Kinetic energy (interpolated)                    62.4261788349
      Virial theorem                                    0.9980970715
      Total spin, S(S+1)                                2.2226397159
      Total spin, S                                     1.0724629458
      Max non-diagonal density matrix element           0.0000075566
      Max non-diagonal Fock matrix element              0.0000013639
 
 
      All orbitals with orbital energies smaller than  E(LUMO)+0.5 are printed
 
++    Molecular orbitals:
      -------------------
 
      Title: UHF orbitals (alpha)

      Molecular orbitals for symmetry species 1: a  
 
          Orbital            1         2         3         4         5         6         7         8         9    
          Energy          -11.3085   -7.6963   -0.9411   -0.5544   -0.4552   -0.4419    0.0788    0.1848    0.2273
          Occ. No.          1.0000    1.0000    1.0000    1.0000    1.0000    1.0000    0.0000    0.0000    0.0000
 
        1 B1     1s        -0.0004    0.9999   -0.0468    0.0525    0.0000    0.0000    0.0255    0.0000    0.0000
        2 B1     2s        -0.0023    0.0141    0.1917   -0.3498   -0.0000   -0.0000    0.8602    0.0000   -0.0000
        3 B1     2px        0.0000    0.0000    0.0000   -0.0000    0.1140    0.1701   -0.0000   -0.5015   -0.9007
        4 B1     2py       -0.0000   -0.0000   -0.0000   -0.0000    0.2031   -0.0954    0.0000   -0.8938    0.5053
        5 B1     2pz       -0.0015    0.0013    0.1539   -0.2136   -0.0000   -0.0000   -0.5438   -0.0000    0.0000
        6 C2     1s         1.0002   -0.0004   -0.0240    0.0358    0.0000    0.0000    0.0058   -0.0000   -0.0000
        7 C2     2s         0.0028   -0.0001    0.8215    0.4398    0.0000    0.0000   -0.1160   -0.0000    0.0000
        8 C2     2px        0.0000    0.0000   -0.0000   -0.0000    0.4420    0.8046    0.0000    0.2628    0.4391
        9 C2     2py       -0.0000   -0.0000   -0.0000   -0.0000    0.7879   -0.4514   -0.0000    0.4684   -0.2463
       10 C2     2pz       -0.0015   -0.0006   -0.0413    0.7548    0.0000    0.0000    0.3446    0.0000   -0.0000
--
 
 
      Input file to MOLDEN was generated!
 
 
++    Static properties:
      ------------------
 
 
      LoProp Charges per center
 

                   B1       C2    
      Nuclear      5.0000   6.0000
      Electronic  -4.9727  -6.0273
 
      Total        0.0273  -0.0273
--
 
 
      All orbitals with orbital energies smaller than  E(LUMO)+0.5 are printed
 
++    Molecular orbitals:
      -------------------
 
      Title: UHF orbitals (beta)

      Molecular orbitals for symmetry species 1: a  
 
          Orbital            1         2         3         4         5         6         7         8         9    
          Energy          -11.2392   -7.7325   -0.7639   -0.4866   -0.3570    0.0173    0.1276    0.2779    0.3225
          Occ. No.          1.0000    1.0000    1.0000    1.0000    1.0000    0.0000    0.0000    0.0000    0.0000
 
        1 B1     1s        -0.0001    0.9998   -0.0551   -0.0168   -0.0000   -0.0000   -0.0203    0.0000    0.0000
        2 B1     2s        -0.0008    0.0165    0.5426   -0.7035   -0.0000    0.0000    0.1384    0.0000   -0.0000
        3 B1     2px       -0.0000   -0.0000   -0.0000   -0.0000    0.7822    0.4080    0.0000   -0.4778   -0.3130
        4 B1     2py        0.0000    0.0000    0.0000    0.0000   -0.4388    0.7273   -0.0000    0.2681   -0.5579
        5 B1     2pz       -0.0002    0.0005    0.1305    0.6266    0.0000   -0.0000    0.4382    0.0000    0.0000
        6 C2     1s         1.0001   -0.0004   -0.0356   -0.0191   -0.0000   -0.0000   -0.0481   -0.0000   -0.0000
        7 C2     2s        -0.0036   -0.0002    0.4786    0.3468    0.0000   -0.0000   -0.7941   -0.0000   -0.0000
        8 C2     2px        0.0000   -0.0000   -0.0000   -0.0000    0.2139    0.1722   -0.0000    0.8913    0.4846
        9 C2     2py        0.0000    0.0000    0.0000    0.0000   -0.1200    0.3069   -0.0000   -0.5000    0.8637
       10 C2     2pz       -0.0011   -0.0003   -0.2465   -0.1207   -0.0000   -0.0000   -0.6233   -0.0000   -0.0000
--
 
 
++    Molecular charges:
      ------------------
 
      Mulliken charges per centre and basis function type
      ---------------------------------------------------
 
                            B1                      C2    
                     alpha        beta       alpha        beta
      1s           1.0005      1.0003      1.0002      0.9999
      2s           0.2693      0.8154      0.8850      0.4917
      2px          0.0995      0.6634      0.9005      0.0972
      2pz          0.1258      0.5721      0.7191      0.1205
      2py          0.1129      0.2088      0.8871      0.0306
      Total        1.6080      3.2601      4.3920      1.7399
      Total              4.8681                  6.1319
 
      Charge            0.1319                 -0.1319
 
      Total electronic charge=   11.000000
 
      Total            charge=   -0.000000
--
 
 
      Input file to MOLDEN was generated!
 
 
++    Static properties:
      ------------------
 
 
      LoProp Charges per center
 

                   B1       C2    
      Nuclear      5.0000   6.0000
      Electronic  -4.9727  -6.0273
 
      Total        0.0273  -0.0273
--
 
 
++    Natural Bond Order analysis
      ---------------------------
      Based on LoProp computed density
      -------------------------------------------------------------------------------------
      Atom A       Atom B       Bond Order
      -------------------------------------------------------------------------------------
      NBO located      0.995 non-bonded electrons on atom B1        
      The remaining    5.041 electrons are to be considered as diffuse
--
 
 
++    Molecular orbitals:
      -------------------
 
      Title: Natural orbitals

      Molecular orbitals for symmetry species 1: a  
 
          Orbital            1         2         3         4         5         6         7         8         9        10    
          Energy          -11.2625   -7.7142   -0.8290   -0.2920   -0.3169   -0.1567   -0.1295    0.1452    0.6641    0.1914
          Occ. No.          2.0000    2.0000    1.9989    1.6703    1.2823    1.0000    0.7177    0.3297    0.0011    0.0000
 
        1 B1     1s         0.0014    1.0002   -0.0546   -0.0000   -0.0163   -0.0000   -0.0307    0.0000    0.1298   -0.0000
        2 B1     2s        -0.0121    0.0125    0.3323   -0.0000    0.6667   -0.0000   -0.4661    0.0000    1.0763   -0.0000
        3 B1     2px        0.0000    0.0000    0.0000    0.5210    0.0000    0.1139   -0.0000   -0.7542   -0.0000   -0.5015
        4 B1     2py       -0.0000   -0.0000   -0.0000   -0.2923    0.0000    0.2030    0.0000    0.4231   -0.0000   -0.8939
        5 B1     2pz       -0.0087    0.0001    0.2493   -0.0000   -0.2717    0.0000    0.6003   -0.0000    1.1624   -0.0000
        6 C2     1s         1.0008   -0.0001   -0.0045   -0.0000   -0.0110   -0.0000   -0.0317    0.0000   -0.1552    0.0000
        7 C2     2s        -0.0205   -0.0030    0.5748   -0.0000   -0.5823    0.0000   -0.4084    0.0000   -1.1459    0.0000
        8 C2     2px        0.0000    0.0000    0.0000    0.5572    0.0000    0.4421    0.0000    0.7279    0.0000    0.2627
        9 C2     2py        0.0000   -0.0000   -0.0000   -0.3126    0.0000    0.7880   -0.0000   -0.4083    0.0000    0.4683
       10 C2     2pz        0.0072    0.0012   -0.2922    0.0000   -0.3927   -0.0000   -0.6218    0.0000    0.9984   -0.0000
--
 
 
++    Molecular properties:
      ---------------------
 
      Charge (e):
                      =   -0.0000
      Dipole Moment (Debye):
      Origin of the operator (Ang)=    0.0000    0.0000    0.0000
                   X=  4.8169E-14               Y=  1.3015E-13               Z= -3.4594E-01           Total=  3.4594E-01
      Quadrupole Moment (Debye*Ang):
      Origin of the operator (Ang)=    0.0000    0.0000    0.7823
                  XX= -1.3458E+01              XY=  1.1866E+00              XZ=  8.8690E-14              YY= -1.2008E+01
                  YZ=  1.3447E-15              ZZ= -1.1478E+01
      In traceless form (Debye*Ang)
                  XX= -1.7147E+00              XY=  1.7799E+00              XZ=  1.3303E-13              YY=  4.5948E-01
                  YZ=  2.0171E-15              ZZ=  1.2552E+00
--
 
 
      Input file to MOLDEN was generated!
 
 ###############################################################################
 ###############################################################################
 ###                                                                         ###
 ###                                                                         ###
 ###    WARNING: RunFile label nBas                                          ###
 ###    was used       87 times                                              ###
 ###                                                                         ###
 ###                                                                         ###
 ###############################################################################
 ###############################################################################
--- Stop Module: scf at Thu Apr 25 13:33:20 2024 /rc=_RC_ALL_IS_WELL_ ---
*** files: 1.50.LprOrb 1.50.LoProp.molden 1.50.scf.molden 1.50.scf.h5 1.50.UhfOrb 1.50.UnaOrb xmldump
    saved to directory /home/grierjones/DDCASPT2/delta_ML/BC/1.50

*** symbolic link created: INPORB -> 1.50.UnaOrb
--- Start Module: mbpt2 at Thu Apr 25 13:33:20 2024 ---
 
()()()()()()()()()()()()()()()()()()()()()()()()()()()()()()()()()()()()()()()()()()()()()()()()()()

                                               &MBPT2

                                   only a single process is used
                       available to each process: 2.0 GB of memory, 1 thread?
                                             pid: 94282
()()()()()()()()()()()()()()()()()()()()()()()()()()()()()()()()()()()()()()()()()()()()()()()()()()
 
 
 ###############################################################################
 ###############################################################################
 ###                                                                         ###
 ###                                                                         ###
 ###    WARNING: MP2 implementation intended for RHF references only         ###
 ###                                                                         ###
 ###                                                                         ###
 ###############################################################################
 ###############################################################################
MBPT2 WARNING: Reference function according to RunFile:UHF-SCF 
I'll assume you know what you're doing and continue
 
 
WARNING!
Default frozen orbitals as non valence orbitals is overwritten by user input.
Default values:   2
 
 
      Cartesian coordinates in Angstrom:
      -----------------------------------------------------
      No.  Label        X            Y            Z        
      -----------------------------------------------------
       1   B1         0.00000000   0.00000000   0.00000000
       2   C2         0.00000000   0.00000000   1.50000000
      -----------------------------------------------------
      Nuclear repulsion energy =   10.58354422
 
      Contents of RUNFILE file:
      -------------------------
 
      Symmetry species                           1
                                                 a
      Number of basis functions                 10
      Frozen occupied orbitals                   0
      Active occupied orbitals                   6
      Active external orbitals                   4
      Deleted external orbitals                  0
 
 
      Energies of the active occupied orbitals
 
      symmetry species 1                   -11.308502     -7.696333     -0.941130     -0.554404     -0.455200
                                            -0.441857
 
 
      Energies of the active external orbitals
 
      symmetry species 1                     0.078844      0.184835      0.227310      0.651385
 
 
      ********************************************************************************************************
      *                                               Results                                                *
      ********************************************************************************************************
 
 Conventional algorithm used...

       SCF energy                           =      -62.3073862829 a.u.
       Second-order correlation energy      =       -0.0427346718 a.u.

       Total energy                         =      -62.3501209548 a.u.
       Reference weight ( Cref**2 )         =        0.97436
 
::    Total MBPT2 energy                              -62.3501209548
 
 
       Zeroth-order energy (E0)             =      -32.2113076273 a.u.
 
       Shanks-type energy S1(E)             =      -62.3501817218 a.u.
 
 


       Data processing and timing information:

       Section                                              time(sec)
                                                          CPU  Elapsed

      Input data processing                              0.01      0.05
      Transformation of integrals                        0.01      0.00
      MBPT2 calculations (BJAI)                          0.00      0.00
      Total MBPT2 calculations                           0.02      0.05
 
 
--- Stop Module: mbpt2 at Thu Apr 25 13:33:20 2024 /rc=_RC_ALL_IS_WELL_ ---
*** files: xmldump
    saved to directory /home/grierjones/DDCASPT2/delta_ML/BC/1.50

*** symbolic link created: INPORB -> 1.50.UnaOrb
--- Start Module: rasscf at Thu Apr 25 13:33:20 2024 ---
 
()()()()()()()()()()()()()()()()()()()()()()()()()()()()()()()()()()()()()()()()()()()()()()()()()()

                                              &RASSCF

                                   only a single process is used
                       available to each process: 2.0 GB of memory, 1 thread?
                                             pid: 94285
()()()()()()()()()()()()()()()()()()()()()()()()()()()()()()()()()()()()()()()()()()()()()()()()()()
 
 
      Header of the ONEINT file:
      --------------------------
      
      Integrals generated by Gateway/Seward, Thu Apr 25 13:33:18 2024
 
 
      OrdInt status: non-squared
 
 
      Cartesian coordinates in Angstrom:
      -----------------------------------------------------
      No.  Label        X            Y            Z        
      -----------------------------------------------------
       1   B1         0.00000000   0.00000000   0.00000000
       2   C2         0.00000000   0.00000000   1.50000000
      -----------------------------------------------------
      Nuclear repulsion energy =   10.58354422
 
++    Wave function specifications:
      -----------------------------
 
      Number of closed shell electrons          10
      Number of electrons in active shells       1
      Max number of holes in RAS1 space          0
      Max nr of electrons in RAS3 space          0
      Number of inactive orbitals                5
      Number of active orbitals                  2
      Number of secondary orbitals               3
      Spin quantum number                      0.5
      State symmetry                             1
--
 
++    Orbital specifications:
      -----------------------
 
      Symmetry species                           1
                                                 a
      Frozen orbitals                            0
      Inactive orbitals                          5
      Active orbitals                            2
      RAS1 orbitals                              0
      RAS2 orbitals                              2
      RAS3 orbitals                              0
      Secondary orbitals                         3
      Deleted orbitals                           0
      Number of basis functions                 10
--
 
++    CI expansion specifications:
      ----------------------------
 
      Number of CSFs                             2
      Number of determinants                     2
      Number of root(s) required                 1
      Root chosen for geometry opt.              1
      CI root used                               1
         
      highest root included in the CI            1
      max. size of the explicit Hamiltonian      2
--
 
++    Optimization specifications:
      ----------------------------
 
      RASSCF algorithm: Conventional
      Maximum number of macro iterations       200
      Maximum number of SX iterations          100
      Threshold for RASSCF energy            1.000E-08
      Threshold for max MO rotation          1.000E-01
      Threshold for max BLB element          1.000E-04
      Level shift parameter                  5.000E-01
      Make Quasi-Newton update
--
 
      The MO-coefficients are taken from the file:
      /home/grierjones/DDCASPT2/delta_ML/BC/1.40/1.40.RasOrb                                                                                                                                                                                                          
      Title: RASSCF average (pseudo-natural) orbitals                                      
 
      Total molecular charge    0.00
 
      ************************************************************************************************************************
      *                                                                                                                      *
      *                                            Wave function control section                                             *
      *                                                                                                                      *
      ************************************************************************************************************************
 
 
                                         RASSCF iterations: Energy and convergence statistics
                                         ----------------------------------------------------
 
      Iter CI   SX   CI       RASSCF       Energy    max ROT     max BLB   max BLB  Level Ln srch  Step   QN   Walltime
          iter iter root      energy       change     param      element    value   shift minimum  type update hh:mm:ss
 Nr of preliminary CI iterations:   1
        1   1    6    1   -62.11114070    0.00E+00  -1.22E-02    3   7 1 -3.31E-02*  0.41   0.00    SX    NO    0:00:00
        2   1    6    1   -62.11187624   -7.36E-04* -2.44E-02    3   7 1 -1.67E-02*  0.41   0.00    SX    NO    0:00:00
        3   1    5    1   -62.11210929   -2.33E-04* -2.87E-02    3   7 1 -8.64E-03*  0.41   0.00    SX    NO    0:00:00
        4   1    5    1   -62.11219668   -8.74E-05* -3.09E-02    3   7 1 -4.51E-03*  0.41   0.00    SX    NO    0:00:00
        5   1    5    1   -62.11223616   -3.95E-05* -4.24E-02    3  10 1 -2.87E-03*  0.41   2.50    LS   YES    0:00:00
        6   1    5    1   -62.11226755   -3.14E-05* -5.83E-02    6  10 1 -1.65E-03*  0.41   1.58    QN   YES    0:00:00
        7   1    6    1   -62.11228279   -1.52E-05* -6.56E-02    3   7 1  1.47E-03*  0.41   1.46    QN   YES    0:00:00
        8   1    6    1   -62.11229321   -1.04E-05*  7.32E-02    3   7 1  1.20E-03*  0.41   1.45    QN   YES    0:00:00
        9   1    6    1   -62.11230127   -8.07E-06* -5.32E-02    3  10 1  8.75E-04*  0.41   1.32    QN   YES    0:00:00
       10   1    7    1   -62.11230486   -3.59E-06* -3.43E-02    3  10 1  6.06E-04*  0.41   1.28    QN   YES    0:00:00
       11   1    6    1   -62.11230608   -1.22E-06*  8.94E-03    3   7 1 -2.84E-04*  0.41   1.14    QN   YES    0:00:00
       12   1    6    1   -62.11230627   -1.89E-07*  4.84E-03    3   7 1 -1.78E-04*  0.41   1.35    QN   YES    0:00:00
       13   1    6    1   -62.11230630   -3.41E-08*  2.62E-03    3  10 1 -4.99E-05   0.41   0.83    QN   YES    0:00:00
       14   1    6    1   -62.11230631   -4.39E-09  -8.19E-05    4  10 1 -1.89E-05   0.41   0.84    QN   YES    0:00:00
      Convergence after 14 iterations
       15   1    6    1   -62.11230631   -1.76E-09  -8.19E-05    4  10 1 -2.15E-05   0.41   0.84    QN   YES    0:00:00
 
      ************************************************************************************************************************
                                                      Wave function printout:
                       occupation of active orbitals, and spin coupling of open shells (u,d: Spin up or down)
      ************************************************************************************************************************
 
      Note: transformation to natural orbitals
      has been made, which may change the order of the CSFs.
 
      printout of CI-coefficients larger than  0.05 for root  1
      energy=     -62.112306
      conf/sym  11     Coeff  Weight
             1  u0   1.00000 1.00000
 
      Natural orbitals and occupation numbers for root  1
      sym 1:   1.000000   0.000000
 
      ************************************************************************************************************************
      *                                                                                                                      *
      *                                                    Final results                                                     *
      *                                                                                                                      *
      ************************************************************************************************************************
 
 
++    Wave function specifications:
      -----------------------------
 
      Number of closed shell electrons          10
      Number of electrons in active shells       1
      Max number of holes in RAS1 space          0
      Max nr of electrons in RAS3 space          0
      Number of inactive orbitals                5
      Number of active orbitals                  2
      Number of secondary orbitals               3
      Spin quantum number                      0.5
      State symmetry                             1
--
 
++    Orbital specifications:
      -----------------------
 
      Symmetry species                           1
                                                 a
      Frozen orbitals                            0
      Inactive orbitals                          5
      Active orbitals                            2
      RAS1 orbitals                              0
      RAS2 orbitals                              2
      RAS3 orbitals                              0
      Secondary orbitals                         3
      Deleted orbitals                           0
      Number of basis functions                 10
--
 
++    CI expansion specifications:
      ----------------------------
 
      Number of CSFs                             2
      Number of determinants                     2
      Number of root(s) required                 1
      CI root used                               1
      highest root included in the CI            1
      Root passed to geometry opt.               1
--
 
++    Final optimization conditions:
      ------------------------------
 
      Average CI energy                             -62.11230631
      RASSCF energy for state  1                    -62.11230631
      Super-CI energy                                -0.00000000
      RASSCF energy change                           -0.00000000
      Max change in MO coefficients               6.807E-05
      Max non-diagonal density matrix element    -8.186E-05
      Maximum BLB matrix element                 -2.150E-05
      (orbital pair   4,  10 in symmetry   1)
      Norm of electronic gradient            2.972E-05
--
 
 
      Final state energy(ies):
      ------------------------
 
::    RASSCF root number  1 Total energy:    -62.11230631
 
++    Molecular orbitals:
      -------------------
 
      Pseudonatural active orbitals and approximate occupation numbers
 
 
 
 
      Molecular orbitals for symmetry species 1: a  
 
 
      Orbital                 1         2         3         4         5         6         8         9        10
      Energy           -11.3265   -7.7750   -0.8362   -0.3620   -0.3620   -0.2710    0.1177    0.1692    0.1692
      Occ. No.           2.0000    2.0000    2.0000    2.0000    2.0000    1.0000    0.0000    0.0000    0.0000
 
     1 B1     1s        -0.0001    0.9999   -0.0532    0.0000   -0.0000    0.0063   -0.0228   -0.0000   -0.0002
     2 B1     2s        -0.0009    0.0151    0.2851   -0.0002    0.0000   -0.8504   -0.3665    0.0000   -0.0020
     3 B1     2px       -0.0000   -0.0000    0.0000   -0.1654   -0.4679    0.0001    0.0011   -0.8735   -0.3088
     4 B1     2py        0.0000    0.0000   -0.0000    0.4679   -0.1654   -0.0002   -0.0032   -0.3088    0.8735
     5 B1     2pz       -0.0004    0.0009    0.1804    0.0000   -0.0000    0.3952   -1.0193   -0.0000   -0.0042
     6 C2     1s         1.0001   -0.0004   -0.0282    0.0000   -0.0000    0.0075    0.1082    0.0000    0.0005
     7 C2     2s        -0.0012   -0.0001    0.7220    0.0002   -0.0000    0.3956    0.9389   -0.0000    0.0039
     8 C2     2px        0.0000    0.0000    0.0000   -0.2429   -0.6871    0.0000   -0.0009    0.7140    0.2524
     9 C2     2py       -0.0000   -0.0000   -0.0000    0.6871   -0.2429   -0.0001    0.0025    0.2524   -0.7140
    10 C2     2pz       -0.0002   -0.0002   -0.1462    0.0001   -0.0000    0.1451    0.1854   -0.0000   -0.0002
--
 
      Von Neumann Entropy (Root   1) =  0.50000
 

      Mulliken population analysis for root number:  1
      -----------------------------------------------
 
 
++    Molecular charges:
      ------------------
 
      Mulliken charges per centre and basis function type
      ---------------------------------------------------
 
                B1      C2    
      1s       2.0007  2.0001
      2s       0.9995  1.4316
      2px      0.7152  1.2848
      2pz      0.4237  0.1445
      2py      0.7152  1.2848
      Total    4.8542  6.1458
 
      N-E      0.1458 -0.1458
 
      Total electronic charge=   11.000000
 
      Total            charge=   -0.000000
--
 
 

      Expectation values of various properties for root number:  1
      -----------------------------------------------------------
 
 
++    Molecular properties:
      ---------------------
 
      Charge (e):
                      =   -0.0000
      Dipole Moment (Debye):
      Origin of the operator (Ang)=    0.0000    0.0000    0.0000
                   X=  5.2504E-05               Y= -1.4852E-04               Z= -7.3571E-02           Total=  7.3571E-02
      Quadrupole Moment (Debye*Ang):
      Origin of the operator (Ang)=    0.0000    0.0000    0.7823
                  XX= -1.4294E+01              XY= -6.1638E-08              XZ=  3.4156E-04              YY= -1.4294E+01
                  YZ= -9.6618E-04              ZZ= -7.7042E+00
      In traceless form (Debye*Ang)
                  XX= -3.2947E+00              XY= -9.2457E-08              XZ=  5.1233E-04              YY= -3.2947E+00
                  YZ= -1.4493E-03              ZZ=  6.5895E+00
--
 

      Mulliken spin population analysis for root number:  1
      ---------------------------------------------------
 
 
++    Molecular charges:
      ------------------
 
      Mulliken spin population per centre and basis function type
      ---------------------------------------------------
 
                B1      C2    
      1s       0.0001 -0.0000
      2s       0.6320  0.0928
      2px      0.0000  0.0000
      2pz      0.2188  0.0563
      2py      0.0000  0.0000
      Total    0.8509  0.1491
 
      Total electronic spin=    1.000000
--
 
 

      LoProp population analysis for root number:  1
      -----------------------------------------------
 
 
++    LoProp analysis:
      ----------------
 
 
 
      Input file to MOLDEN was generated!
 
 
++    Static properties:
      ------------------
 
 
      LoProp Charges per center
 

                   B1       C2    
      Nuclear      5.0000   6.0000
      Electronic  -5.0006  -5.9994
 
      Total       -0.0006   0.0006
--
 
 
      Natural Bond Order analysis for root number:  1
 
++    Natural Bond Order analysis
      ---------------------------
      Based on LoProp computed density
      -------------------------------------------------------------------------------------
      Atom A       Atom B       Bond Order
        B1           C2             1.465
      -------------------------------------------------------------------------------------
      NBO located      2.930 electrons involved in    1 bonds.
      NBO located      0.997 non-bonded electrons on atom B1        
      The remaining    2.330 electrons are to be considered as diffuse
--
 
--
 
 
      Input file to MOLDEN was generated!
 
 
      Input file to MOLDEN was generated!
 
      Average orbitals are written to the RASORB file
      Natural orbitals for root   1 are written to the RASORB.1 file
      Spin density orbitals for root   1 are written to the SPDORB.1 file
 
--- Stop Module: rasscf at Thu Apr 25 13:33:20 2024 /rc=_RC_ALL_IS_WELL_ ---
*** files: 1.50.LprOrb 1.50.rasscf.molden 1.50.rasscf.molden.1 1.50.LoProp.molden 1.50.RasOrb 1.50.RasOrb.1 1.50.rasscf.h5 1.50.SpdOrb.1 xmldump
    saved to directory /home/grierjones/DDCASPT2/delta_ML/BC/1.50

*** symbolic link created: INPORB -> 1.50.RasOrb
--- Start Module: caspt2 at Thu Apr 25 13:33:20 2024 ---
 
()()()()()()()()()()()()()()()()()()()()()()()()()()()()()()()()()()()()()()()()()()()()()()()()()()

                                              &CASPT2

                                   only a single process is used
                       available to each process: 2.0 GB of memory, 1 thread?
                                             pid: 94288
()()()()()()()()()()()()()()()()()()()()()()()()()()()()()()()()()()()()()()()()()()()()()()()()()()
 
 ###############################################################################
 ###############################################################################
 ###                                                                         ###
 ###                                                                         ###
 ###    WARNING: User changed nr of frozen orbitals.                         ###
 ###                                                                         ###
 ###                                                                         ###
 ###############################################################################
 ###############################################################################
 
++    Wave function specifications:
      -----------------------------
 
      Number of closed shell electrons          10
      Number of electrons in active shells       1
      Max number of holes in RAS1 space          0
      Max number of electrons in RAS3 space      0
      Number of inactive orbitals                5
      Number of active orbitals                  2
      Number of secondary orbitals               3
      Spin quantum number                      0.5
      State symmetry                             1
      Number of CSFs                             2
      Number of CASSCF root(s) available         1
      CASPT2 state passed to geometry opt.       1
      A file JOBMIX will be created
      This is a CASSCF or RASSCF reference function
--
 
++    Orbital specifications:
      -----------------------
 
      Symmetry species                           1
                                                 a
      Frozen orbitals                            0
      Inactive orbitals                          5
      Active orbitals                            2
      Secondary orbitals                         3
      Deleted orbitals                           0
      Number of basis functions                 10
--
 
++    CASPT2 specifications:
      ----------------------
 
      Type of calculation                        SS-CASPT2
      Fock operator                              state-specific
      IPEA shift                                 0.25
      Real shift                                 0.00
      Imaginary shift                            0.00
      The input orbitals will be transformed to quasi-canonical
--
 
--------------------------------------------------------------------------------
 Estimated memory requirements:
  POLY3 :                   250056
  RHS:                      250476
  SIGMA :                   250480
  PRPCTL:                        0
 Available workspace:    230392719
 
++ CASPT2 computation for group   1
 
********************************************************************************
 Multi-State initialization phase begins for group   1
--------------------------------------------------------------------------------
********************************************************************************
 Compute H0 matrices for state    1
--------------------------------------------------------------------------------
--------------------------------------------------------------------------------
 H0 matrices have been computed.
 
********************************************************************************
  CASPT2 EQUATION SOLUTION
--------------------------------------------------------------------------------
 
  Total nr of CASPT2 parameters:
   Before reduction:         620
   After  reduction:         438
 
 Variance of |WF0>:       0.1774086704
 
 The contributions to the second order correlation energy in atomic units.
-----------------------------------------------------------------------------------------------------------------------------
  IT.      VJTU        VJTI        ATVX        AIVX        VJAI        BVAT        BJAT        BJAI        TOTAL       RNORM  
-----------------------------------------------------------------------------------------------------------------------------
   1    -0.000743   -0.003091    0.000000   -0.009553   -0.015481    0.000000   -0.019496   -0.089224   -0.137587    0.014915
   2    -0.000784   -0.003333    0.000000   -0.009817   -0.015640    0.000000   -0.020482   -0.090174   -0.140231    0.002799
   3    -0.000783   -0.003338    0.000000   -0.009810   -0.015702    0.000000   -0.020493   -0.090252   -0.140379    0.000885
   4    -0.000782   -0.003340    0.000000   -0.009800   -0.015699    0.000000   -0.020448   -0.090233   -0.140301    0.000131
   5    -0.000782   -0.003341    0.000000   -0.009798   -0.015696    0.000000   -0.020448   -0.090231   -0.140297    0.000027
   6    -0.000782   -0.003341    0.000000   -0.009798   -0.015696    0.000000   -0.020448   -0.090233   -0.140298    0.000004
-----------------------------------------------------------------------------------------------------------------------------
 
  FINAL CASPT2 RESULT:
 
      Reference energy:         -62.1123063084
      E2 (Non-variational):      -0.1402979582
      E2 (Variational):          -0.1402979479
      Total energy:             -62.2526042563
      Residual norm:              0.0000006788
      Reference weight:           0.88867
 
      Contributions to the CASPT2 correlation energy
      Active & Virtual Only:          0.0000000007
      One Inactive Excited:          -0.0310285775
      Two Inactive Excited:          -0.1092693814
 
 
++ Denominators, etc.
--------------------------------------------------------------------------------------------------------------
 Report on small energy denominators, large coefficients, and large energy contributions.
CASE  SYMM ACTIVE-MIX  NON-ACTIVE INDICES          DENOMINATOR     RHS VALUE       COEFFICIENT     CONTRIBUTION
VJTIP    1  Mu1.0002  In1.003 In1.003               2.73876873      0.07992481     -0.03095953     -0.00247443
AIVX     1  Mu1.0001  In1.003 Se1.008               1.05792448      0.02223260     -0.02533130     -0.00056318
AIVX     1  Mu1.0002  In1.003 Se1.008               1.26624370     -0.04000080      0.03737506     -0.00149503
AIVX     1  Mu1.0003  In1.003 Se1.008               1.82052217     -0.05540050      0.03072745     -0.00170232
AIVX     1  Mu1.0001  In1.005 Se1.009               0.63519215      0.01506707     -0.02684545     -0.00040448
AIVX     1  Mu1.0002  In1.005 Se1.009               0.84351137     -0.02511894      0.02735206     -0.00068705
AIVX     1  Mu1.0003  In1.005 Se1.009               1.39778985      0.02483303     -0.03425942     -0.00085077
AIVX     1  Mu1.0004  In1.005 Se1.009               1.52280496     -0.03064038      0.03059569     -0.00093746
AIVX     1  Mu1.0001  In1.004 Se1.010               0.63519298      0.01506696     -0.02684527     -0.00040448
AIVX     1  Mu1.0002  In1.004 Se1.010               0.84351220     -0.02511866      0.02735172     -0.00068704
AIVX     1  Mu1.0003  In1.004 Se1.010               1.39779068      0.02483270     -0.03425900     -0.00085074
AIVX     1  Mu1.0004  In1.004 Se1.010               1.52280579     -0.03064024      0.03059556     -0.00093746
VJAIP    1  Mu1.0001  Se1.008 In1.003 In1.003       1.64414036      0.04201962     -0.02662961     -0.00111897
VJAIP    1  Mu1.0001  Se1.010 In1.004 In1.003       1.22140886     -0.06093343      0.05055622     -0.00308056
VJAIP    1  Mu1.0001  Se1.009 In1.005 In1.003       1.22140803     -0.06093385      0.05055658     -0.00308061
VJAIM    1  Mu1.0001  Se1.010 In1.004 In1.003       1.22140886     -0.04500900      0.03804756     -0.00171248
VJAIM    1  Mu1.0001  Se1.009 In1.005 In1.003       1.22140803     -0.04500934      0.03804785     -0.00171251
BJATP    1  Mu1.0001  In1.003 Se1.008 Se1.008       1.43624609     -0.02752528      0.02515275     -0.00069234
BJATP    1  Mu1.0001  In1.005 Se1.009 Se1.008       1.01351376      0.05308227     -0.06025955     -0.00319871
BJATP    1  Mu1.0001  In1.004 Se1.010 Se1.008       1.01351459      0.05308123     -0.06025835     -0.00319859
BJATM    1  Mu1.0001  In1.005 Se1.009 Se1.008       1.01351376     -0.07680450      0.08647126     -0.00664138
BJATM    1  Mu1.0001  In1.004 Se1.010 Se1.008       1.01351459     -0.07680502      0.08647181     -0.00664147
BJAIP    1  Se1.008 In1.003 Se1.008 In1.003         1.90781184      0.07472024     -0.04239456     -0.00316773
BJAIP    1  Se1.008 In1.003 Se1.010 In1.004         1.48508034     -0.08950966      0.05780048     -0.00517370
BJAIP    1  Se1.008 In1.004 Se1.008 In1.004         0.95940061      0.02502548     -0.03088668     -0.00077295
BJAIP    1  Se1.010 In1.004 Se1.010 In1.004         1.06234884      0.12717514     -0.11971146     -0.01522432
BJAIP    1  Se1.008 In1.003 Se1.009 In1.005         1.48507951     -0.08951163      0.05780174     -0.00517393
BJAIP    1  Se1.009 In1.004 Se1.010 In1.005         1.06234801      0.11502031     -0.10826995     -0.01245324
BJAIP    1  Se1.008 In1.005 Se1.008 In1.005         0.95940061      0.02502383     -0.03088509     -0.00077286
BJAIP    1  Se1.009 In1.005 Se1.009 In1.005         1.06234718      0.12717661     -0.11971284     -0.01522467
BJAIM    1  Se1.008 In1.003 Se1.009 In1.004         1.48508034     -0.07552141      0.04890216     -0.00369316
BJAIM    1  Se1.008 In1.003 Se1.008 In1.005         1.48507951     -0.07552077      0.04890178     -0.00369310
BJAIM    1  Se1.009 In1.004 Se1.009 In1.005         1.06234801     -0.15711354      0.14789280     -0.02323596
--
 
   (Skipping property calculation,
    use PROP keyword to activate)
--
 
  Total CASPT2 energies:
::    CASPT2 Root  1     Total energy:    -62.25260426
 
  A NEW JOBIPH FILE NAMED 'JOBMIX' IS PREPARED.
********************************************************************************
--- Stop Module: caspt2 at Thu Apr 25 13:33:20 2024 /rc=_RC_ALL_IS_WELL_ ---
*** files: xmldump
    saved to directory /home/grierjones/DDCASPT2/delta_ML/BC/1.50

.##################.
.# Happy landing! #.
.##################.

    Timing: Wall=2.74 User=1.93 System=0.29
************************************
*** WorkDir at /tmp/1.50 removed ***
************************************
