[Molden Format]
[N_Atoms]
                     2
[Atoms] (AU)
B1          1      5           0.00000000      0.00000000      0.00000000
C2          2      6           0.00000000      0.00000000      2.83458919
[Charge] (Mulliken)
  0.129521138260185     
 -0.129521138260225     
[GTO] (AU)
   1
   s  14
  3.336021700E+04  1.039699991E-04
  4.972095200E+03  5.254399956E-04
  1.125641700E+03  2.509059979E-03
  3.164913600E+02  1.031887991E-02
  1.020072600E+02  3.636632969E-02
  3.629587300E+01  1.064607991E-01
  1.397141000E+01  2.403999880E-01
  5.741156000E+00  3.748581168E-01
  2.494268000E+00  3.100066974E-01
  1.114202000E+00  7.922455933E-02
  4.215490000E-01 -4.947589958E-03
  1.696330000E-01 -7.737119935E-03
  6.853500000E-02 -1.501079987E-03
  2.398700000E-02 -1.333299989E-04
   s  14
  3.336021700E+04 -2.030000008E-05
  4.972095200E+03 -1.025700004E-04
  1.125641700E+03 -4.911300020E-04
  3.164913600E+02 -2.026570008E-03
  1.020072600E+02 -7.261010030E-03
  3.629587300E+01 -2.197722009E-02
  1.397141000E+01 -5.408428022E-02
  5.741156000E+00 -1.022402604E-01
  2.494268000E+00 -1.423595206E-01
  1.114202000E+00 -4.658690019E-02
  4.215490000E-01  3.799402916E-01
  1.696330000E-01  5.890463624E-01
  6.853500000E-02  1.749075107E-01
  2.398700000E-02 -1.142030005E-03
   p   9
  5.500000000E+01  1.229800005E-03
  1.336610100E+01  8.827380035E-03
  4.135394000E+00  3.843340015E-02
  1.481256000E+00  1.150031805E-01
  6.021360000E-01  2.733674011E-01
  2.556360000E-01  4.061972116E-01
  1.111510000E-01  3.014967912E-01
  4.764800000E-02  7.684809030E-02
  1.667700000E-02 -8.170000032E-06
 
   2
   s  14
  5.055750100E+04  1.128874000E-04
  7.524785600E+03  5.295373000E-04
  1.694327600E+03  2.450038300E-03
  4.728227900E+02  1.005398470E-02
  1.517107500E+02  3.545398060E-02
  5.391874600E+01  1.044071086E-01
  2.065931100E+01  2.412894918E-01
  8.383976000E+00  3.834225483E-01
  3.577015000E+00  3.078514393E-01
  1.547118000E+00  6.872442990E-02
  6.130130000E-01  2.224445000E-04
  2.460680000E-01  1.976748900E-03
  9.908700000E-02  2.057859400E-03
  3.468000000E-02  4.182020000E-04
   s  14
  5.055750100E+04 -2.507420000E-05
  7.524785600E+03 -1.175945000E-04
  1.694327600E+03 -5.456275000E-04
  4.728227900E+02 -2.245077100E-03
  1.517107500E+02 -8.043471800E-03
  5.391874600E+01 -2.442588710E-02
  2.065931100E+01 -6.136791180E-02
  8.383976000E+00 -1.177767835E-01
  3.577015000E+00 -1.550487783E-01
  1.547118000E+00 -1.933316860E-02
  6.130130000E-01  3.996930678E-01
  2.460680000E-01  5.589420949E-01
  9.908700000E-02  1.711195023E-01
  3.468000000E-02  7.456244600E-03
   p   9
  8.333315500E+01  1.344656000E-03
  1.955761100E+01  1.023555500E-02
  6.080365000E+00  4.520067100E-02
  2.179317000E+00  1.410756198E-01
  8.651500000E-01  3.047388085E-01
  3.619440000E-01  3.995281011E-01
  1.547400000E-01  2.719163432E-01
  6.542900000E-02  5.857669330E-02
  2.290000000E-02 -1.263813000E-04
 
[MO]
Sym=     1a  
Ene=   -11.3240
Spin= Alpha
Occup=    2.00000
   1        -0.00031072
   2        -0.00210769
   3         0.00000000
   4         0.00000000
   5        -0.00094866
   6         1.00018481
   7        -0.00077540
   8        -0.00000000
   9         0.00000000
  10        -0.00183579
Sym=     2a  
Ene=    -7.7500
Spin= Alpha
Occup=    2.00000
   1         0.99986144
   2         0.01518227
   3        -0.00000000
   4         0.00000000
   5         0.00080882
   6        -0.00037102
   7        -0.00051732
   8        -0.00000000
   9        -0.00000000
  10        -0.00053172
Sym=     3a  
Ene=    -0.8601
Spin= Alpha
Occup=    2.00000
   1        -0.05199815
   2         0.28240766
   3         0.00000000
   4        -0.00000000
   5         0.16759725
   6        -0.02676106
   7         0.73688940
   8         0.00000000
   9        -0.00000000
  10        -0.12918689
Sym=     4a  
Ene=    -0.3627
Spin= Alpha
Occup=    2.00000
   1        -0.00000000
   2        -0.00000000
   3         0.44490779
   4         0.32571533
   5         0.00000000
   6        -0.00000000
   7        -0.00000000
   8         0.54998144
   9         0.40263939
  10        -0.00000000
Sym=     5a  
Ene=    -0.1894
Spin= Alpha
Occup=    1.00000
   1        -0.00000000
   2        -0.00000000
   3        -0.25125796
   4         0.34320340
   5         0.00000000
   6        -0.00000000
   7        -0.00000000
   8        -0.46284141
   9         0.63221387
  10        -0.00000000
Sym=     6a  
Ene=    -0.0064
Spin= Alpha
Occup=    2.00000
   1         0.01598932
   2        -0.79911759
   3        -0.00000000
   4         0.00000000
   5         0.12658815
   6         0.02891948
   7         0.57725491
   8        -0.00000000
   9         0.00000000
  10         0.35069625
Sym=     7a  
Ene=    -0.0371
Spin= Alpha
Occup=    0.00000
   1         0.03728715
   2         0.40799113
   3        -0.00000000
   4         0.00000000
   5        -0.65983474
   6         0.03905133
   7         0.30490973
   8        -0.00000000
   9         0.00000000
  10         0.63384300
Sym=     8a  
Ene=     0.1636
Spin= Alpha
Occup=    0.00000
   1         0.00000000
   2         0.00000000
   3        -0.72197833
   4        -0.52855773
   5         0.00000000
   6         0.00000000
   7        -0.00000000
   8         0.64553551
   9         0.47259417
  10        -0.00000000
Sym=     9a  
Ene=     0.1839
Spin= Alpha
Occup=    0.00000
   1         0.00000000
   2         0.00000000
   3         0.56774394
   4        -0.77550441
   5        -0.00000000
   6         0.00000000
   7         0.00000000
   8        -0.41381343
   9         0.56524446
  10         0.00000000
Sym=    10a  
Ene=     0.6436
Spin= Alpha
Occup=    0.00000
   1        -0.13153219
   2        -1.02260965
   3        -0.00000000
   4         0.00000000
   5        -1.16966746
   6         0.15278104
   7         1.08653928
   8         0.00000000
   9        -0.00000000
  10        -1.04007827
