[Molden Format]
[N_Atoms]
                     2
[Atoms] (AU)
F1          1      9           0.00000000      0.00000000      0.00000000
LI2         2      3           0.00000000      0.00000000      1.88972612
[Charge] (Mulliken)
 -0.720468564227692     
  0.720468564227667     
[GTO] (AU)
   1
   s  14
  1.031094600E+05  1.713099991E-04
  1.528100700E+04  7.123999962E-04
  3.441539200E+03  2.990479984E-03
  9.670948300E+02  1.164036994E-02
  3.140353400E+02  3.968642979E-02
  1.134423000E+02  1.128546094E-01
  4.464472700E+01  2.473650687E-01
  1.894287400E+01  3.672702681E-01
  8.532743000E+00  2.896286985E-01
  3.919401000E+00  7.786681959E-02
  1.568157000E+00  4.562139976E-03
  6.232900000E-01  2.468879987E-03
  2.408610000E-01  1.106309994E-03
  8.430100000E-02  1.739699991E-04
   s  14
  1.031094600E+05 -4.044999995E-05
  1.528100700E+04 -1.682299998E-04
  3.441539200E+03 -7.084299991E-04
  9.670948300E+02 -2.767999996E-03
  3.140353400E+02 -9.611379987E-03
  1.134423000E+02 -2.833957996E-02
  4.464472700E+01 -6.839343991E-02
  1.894287400E+01 -1.237379298E-01
  8.532743000E+00 -1.512859698E-01
  3.919401000E+00 -9.099909988E-03
  1.568157000E+00  3.716257695E-01
  6.232900000E-01  5.500214393E-01
  2.408610000E-01  2.092318697E-01
  8.430100000E-02  8.074639989E-03
   p   9
  2.453302900E+02  1.024860004E-03
  5.691900500E+01  8.344290032E-03
  1.760456800E+01  4.078927016E-02
  6.274995000E+00  1.351370605E-01
  2.447030000E+00  2.798830811E-01
  9.950600000E-01  3.597966414E-01
  4.039730000E-01  3.055347412E-01
  1.548100000E-01  1.354703905E-01
  5.418400000E-02  2.804449011E-02
 
   2
   s  14
  9.497934400E+03  9.668999974E-05
  1.416811200E+03  6.087099984E-04
  3.214599400E+02  3.101519992E-03
  9.112416300E+01  1.266904997E-02
  2.999989100E+01  4.248012989E-02
  1.101763100E+01  1.150183297E-01
  4.372801000E+00  2.398650094E-01
  1.831256000E+00  3.584300090E-01
  8.022610000E-01  3.048527792E-01
  3.626480000E-01  8.824261976E-02
  1.139950000E-01 -8.445899977E-04
  5.123700000E-02 -7.943959979E-03
  2.246800000E-02 -3.764419990E-03
  7.860000000E-03 -8.868999976E-05
   s  14
  9.497934400E+03 -1.244999993E-05
  1.416811200E+03 -7.838999954E-05
  3.214599400E+02 -4.007099976E-04
  9.112416300E+01 -1.645249990E-03
  2.999989100E+01 -5.634599967E-03
  1.101763100E+01 -1.590780991E-02
  4.372801000E+00 -3.612581979E-02
  1.831256000E+00 -6.459927962E-02
  8.022610000E-01 -1.008321794E-01
  3.626480000E-01 -9.757613942E-02
  1.139950000E-01  2.301215886E-01
  5.123700000E-02  6.102389764E-01
  2.246800000E-02  2.849406083E-01
  7.860000000E-03  4.026899976E-03
   p   9
  1.311950400E+01  1.524940000E-03
  3.077424200E+00  8.314830000E-03
  1.098800500E+00  1.933203000E-02
  4.357784000E-01  4.934293000E-02
  1.802432000E-01  1.623554000E-01
  7.613330000E-02  3.847505400E-01
  3.254650000E-02  4.336100400E-01
  1.401820000E-02  1.287005900E-01
  4.906400000E-03 -1.018520000E-03
 
[MO]
Sym=     1a  
Ene=   -25.9320
Spin= Alpha
Occup=    2.00000
   1         1.00002852
   2        -0.00057773
   3        -0.00003248
   4        -0.00002224
   5        -0.00091069
   6        -0.00028887
   7        -0.00024225
   8        -0.00000451
   9        -0.00000309
  10         0.00034053
Sym=     2a  
Ene=    -2.5065
Spin= Alpha
Occup=    2.00000
   1        -0.01122353
   2         0.10446728
   3         0.00065301
   4         0.00044719
   5         0.11083309
   6         0.93534160
   7        -0.00337547
   8         0.00008892
   9         0.00006090
  10        -0.00224403
Sym=     3a  
Ene=    -1.0234
Spin= Alpha
Occup=    2.00000
   1        -0.00703564
   2        -0.81848872
   3        -0.01509575
   4        -0.01033778
   5        -0.67052832
   6         0.50747663
   7         0.08691980
   8        -0.00205617
   9        -0.00140809
  10         0.07025030
Sym=     4a  
Ene=    -0.5092
Spin= Alpha
Occup=    2.00000
   1        -0.00000000
   2        -0.00000000
   3         0.53999578
   4        -0.78852903
   5        -0.00000000
   6         0.00000000
   7         0.00000000
   8         0.07231090
   9        -0.10559202
  10         0.00000000
Sym=     5a  
Ene=    -0.5091
Spin= Alpha
Occup=    2.00000
   1        -0.00021029
   2        -0.00295277
   3         0.78818618
   4         0.53976099
   5        -0.03093291
   6         0.01232087
   7         0.00445757
   8         0.10554538
   9         0.07227896
  10         0.00172509
Sym=     6a  
Ene=    -0.7551
Spin= Alpha
Occup=    1.99918
   1        -0.00586675
   2         0.56987178
   3        -0.01764594
   4        -0.01208419
   5        -0.80175751
   6         0.15048244
   7         0.12788715
   8        -0.00242996
   9        -0.00166407
  10         0.01440142
Sym=     7a  
Ene=     0.0059
Spin= Alpha
Occup=    0.00082
   1        -0.06784542
   2        -0.57235501
   3         0.00638966
   4         0.00437573
   5         0.13096146
   6         0.07074727
   7         0.86763324
   8        -0.01558535
   9        -0.01067307
  10        -0.72920465
Sym=     8a  
Ene=     0.0426
Spin= Alpha
Occup=    0.00000
   1         0.02036198
   2         0.13323709
   3        -0.00396820
   4        -0.00271748
   5         0.03060088
   6        -0.04933590
   7         0.59410961
   8         0.00980584
   9         0.00671518
  10         0.80642234
Sym=     9a  
Ene=     0.1366
Spin= Alpha
Occup=    0.00000
   1        -0.00000000
   2         0.00000000
   3         0.23738130
   4        -0.34663615
   5        -0.00000000
   6        -0.00000000
   7        -0.00000000
   8        -0.58541988
   9         0.85485963
  10         0.00000000
Sym=    10a  
Ene=     0.1366
Spin= Alpha
Occup=    0.00000
   1         0.00147203
   2         0.01196109
   3         0.34655581
   4         0.23732628
   5        -0.00195285
   6        -0.00188605
   7        -0.00902806
   8        -0.85466113
   9        -0.58528394
  10         0.02255279
