[Molden Format]
[N_Atoms]
                     2
[Atoms] (AU)
BE1         1      4           0.00000000      0.00000000      0.00000000
BE2         2      4           0.00000000      0.00000000      2.07869874
[Charge] (Mulliken)
  1.235900271012724E-012
 -1.236344360222574E-012
[GTO] (AU)
   1
   s  14
  2.262859900E+04  8.443999941E-05
  3.372318100E+03  4.601499968E-04
  7.603504000E+02  2.285389984E-03
  2.117404800E+02  9.648129932E-03
  6.722346800E+01  3.494469975E-02
  2.337217700E+01  1.061099893E-01
  8.721373000E+00  2.458240383E-01
  3.468091000E+00  3.862428773E-01
  1.452144000E+00  3.105526078E-01
  6.086150000E-01  6.415933955E-02
  2.576860000E-01 -2.265049984E-03
  1.041760000E-01 -5.217499963E-04
  4.242700000E-02 -8.757499938E-04
  1.484900000E-02  1.242199991E-04
   s  14
  2.262859900E+04 -1.586999994E-05
  3.372318100E+03 -8.656999968E-05
  7.603504000E+02 -4.302199984E-04
  2.117404800E+02 -1.825079993E-03
  6.722346800E+01 -6.682749976E-03
  2.337217700E+01 -2.095119992E-02
  8.721373000E+00 -5.200308981E-02
  3.468091000E+00 -9.849176964E-02
  1.452144000E+00 -1.355800695E-01
  6.086150000E-01 -6.429875976E-02
  2.576860000E-01  3.125414989E-01
  1.041760000E-01  6.270468577E-01
  4.242700000E-02  2.110231492E-01
  1.484900000E-02 -4.104669985E-03
   p   9
  3.371018400E+01  1.069960000E-03
  8.057649500E+00  6.828550001E-03
  2.836471400E+00  2.119065000E-02
  1.099965700E+00  5.843696001E-02
  4.433964000E-01  2.020920800E-01
  1.822264000E-01  4.582953101E-01
  7.572410000E-02  3.691239601E-01
  3.168540000E-02  6.611471001E-02
  1.108990000E-02  1.405160000E-03
 
   2
   s  14
  2.262859900E+04  8.443999941E-05
  3.372318100E+03  4.601499968E-04
  7.603504000E+02  2.285389984E-03
  2.117404800E+02  9.648129932E-03
  6.722346800E+01  3.494469975E-02
  2.337217700E+01  1.061099893E-01
  8.721373000E+00  2.458240383E-01
  3.468091000E+00  3.862428773E-01
  1.452144000E+00  3.105526078E-01
  6.086150000E-01  6.415933955E-02
  2.576860000E-01 -2.265049984E-03
  1.041760000E-01 -5.217499963E-04
  4.242700000E-02 -8.757499938E-04
  1.484900000E-02  1.242199991E-04
   s  14
  2.262859900E+04 -1.586999994E-05
  3.372318100E+03 -8.656999968E-05
  7.603504000E+02 -4.302199984E-04
  2.117404800E+02 -1.825079993E-03
  6.722346800E+01 -6.682749976E-03
  2.337217700E+01 -2.095119992E-02
  8.721373000E+00 -5.200308981E-02
  3.468091000E+00 -9.849176964E-02
  1.452144000E+00 -1.355800695E-01
  6.086150000E-01 -6.429875976E-02
  2.576860000E-01  3.125414989E-01
  1.041760000E-01  6.270468577E-01
  4.242700000E-02  2.110231492E-01
  1.484900000E-02 -4.104669985E-03
   p   9
  3.371018400E+01  1.069960000E-03
  8.057649500E+00  6.828550001E-03
  2.836471400E+00  2.119065000E-02
  1.099965700E+00  5.843696001E-02
  4.433964000E-01  2.020920800E-01
  1.822264000E-01  4.582953101E-01
  7.572410000E-02  3.691239601E-01
  3.168540000E-02  6.611471001E-02
  1.108990000E-02  1.405160000E-03
 
[MO]
Sym=     1a  
Ene=    -4.9568
Spin= Alpha
Occup=    1.00000
   1         0.69829933
   2         0.00033322
   3         0.00000000
   4         0.00000000
   5         0.01093209
   6         0.69829933
   7         0.00033322
   8        -0.00000000
   9        -0.00000000
  10        -0.01093209
Sym=     1a  
Ene=    -4.9568
Spin= Beta
Occup=    1.00000
   1         0.69829933
   2         0.00033322
   3         0.00000000
   4         0.00000000
   5         0.01093209
   6         0.69829933
   7         0.00033322
   8        -0.00000000
   9        -0.00000000
  10        -0.01093209
Sym=     2a  
Ene=    -4.8860
Spin= Alpha
Occup=    1.00000
   1        -0.72224485
   2        -0.03087940
   3         0.00000000
   4         0.00000000
   5        -0.01450334
   6         0.72224485
   7         0.03087940
   8         0.00000000
   9        -0.00000000
  10        -0.01450334
Sym=     2a  
Ene=    -4.8860
Spin= Beta
Occup=    1.00000
   1        -0.72224485
   2        -0.03087940
   3         0.00000000
   4         0.00000000
   5        -0.01450334
   6         0.72224485
   7         0.03087940
   8         0.00000000
   9        -0.00000000
  10        -0.01450334
Sym=     3a  
Ene=    -0.4915
Spin= Alpha
Occup=    1.00000
   1        -0.14134977
   2         0.46465684
   3        -0.00000000
   4        -0.00000000
   5         0.23431647
   6        -0.14134977
   7         0.46465684
   8        -0.00000000
   9        -0.00000000
  10        -0.23431647
Sym=     3a  
Ene=    -0.4915
Spin= Beta
Occup=    1.00000
   1        -0.14134977
   2         0.46465684
   3        -0.00000000
   4        -0.00000000
   5         0.23431647
   6        -0.14134977
   7         0.46465684
   8        -0.00000000
   9        -0.00000000
  10        -0.23431647
Sym=     4a  
Ene=    -0.2215
Spin= Alpha
Occup=    1.00000
   1        -0.01294177
   2        -0.64436902
   3        -0.00000000
   4        -0.00000000
   5         0.38007216
   6         0.01294177
   7         0.64436902
   8        -0.00000000
   9        -0.00000000
  10         0.38007216
Sym=     4a  
Ene=    -0.2215
Spin= Beta
Occup=    1.00000
   1        -0.01294177
   2        -0.64436902
   3        -0.00000000
   4        -0.00000000
   5         0.38007216
   6         0.01294177
   7         0.64436902
   8        -0.00000000
   9        -0.00000000
  10         0.38007216
Sym=     5a  
Ene=    -0.0696
Spin= Alpha
Occup=    0.00000
   1        -0.00000000
   2        -0.00000000
   3         0.34700270
   4         0.41504278
   5         0.00000000
   6         0.00000000
   7         0.00000000
   8         0.34700270
   9         0.41504278
  10         0.00000000
Sym=     5a  
Ene=    -0.0696
Spin= Beta
Occup=    0.00000
   1        -0.00000000
   2        -0.00000000
   3         0.34700270
   4         0.41504278
   5         0.00000000
   6         0.00000000
   7         0.00000000
   8         0.34700270
   9         0.41504278
  10         0.00000000
Sym=     6a  
Ene=    -0.0696
Spin= Alpha
Occup=    0.00000
   1        -0.00000000
   2        -0.00000000
   3         0.41504278
   4        -0.34700270
   5         0.00000000
   6         0.00000000
   7         0.00000000
   8         0.41504278
   9        -0.34700270
  10         0.00000000
Sym=     6a  
Ene=    -0.0696
Spin= Beta
Occup=    0.00000
   1        -0.00000000
   2        -0.00000000
   3         0.41504278
   4        -0.34700270
   5         0.00000000
   6         0.00000000
   7         0.00000000
   8         0.41504278
   9        -0.34700270
  10         0.00000000
Sym=     7a  
Ene=     0.0614
Spin= Alpha
Occup=    0.00000
   1         0.17547915
   2         0.34561044
   3         0.00000000
   4         0.00000000
   5        -0.89687749
   6         0.17547915
   7         0.34561044
   8        -0.00000000
   9        -0.00000000
  10         0.89687749
Sym=     7a  
Ene=     0.0614
Spin= Beta
Occup=    0.00000
   1         0.17547915
   2         0.34561044
   3         0.00000000
   4         0.00000000
   5        -0.89687749
   6         0.17547915
   7         0.34561044
   8        -0.00000000
   9        -0.00000000
  10         0.89687749
Sym=     8a  
Ene=     0.2703
Spin= Alpha
Occup=    0.00000
   1         0.00000000
   2         0.00000000
   3        -1.30802702
   4         0.06121368
   5        -0.00000000
   6         0.00000000
   7        -0.00000000
   8         1.30802702
   9        -0.06121368
  10         0.00000000
Sym=     8a  
Ene=     0.2703
Spin= Beta
Occup=    0.00000
   1         0.00000000
   2         0.00000000
   3        -1.30802702
   4         0.06121368
   5        -0.00000000
   6         0.00000000
   7        -0.00000000
   8         1.30802702
   9        -0.06121368
  10         0.00000000
Sym=     9a  
Ene=     0.2703
Spin= Alpha
Occup=    0.00000
   1         0.00000000
   2         0.00000000
   3        -0.06121368
   4        -1.30802702
   5        -0.00000000
   6         0.00000000
   7        -0.00000000
   8         0.06121368
   9         1.30802702
  10         0.00000000
Sym=     9a  
Ene=     0.2703
Spin= Beta
Occup=    0.00000
   1         0.00000000
   2         0.00000000
   3        -0.06121368
   4        -1.30802702
   5        -0.00000000
   6         0.00000000
   7        -0.00000000
   8         0.06121368
   9         1.30802702
  10         0.00000000
Sym=    10a  
Ene=     2.0367
Spin= Alpha
Occup=    0.00000
   1        -2.42407697
   2        -8.68340701
   3        -0.00000000
   4        -0.00000000
   5        -3.62822231
   6         2.42407697
   7         8.68340701
   8        -0.00000000
   9        -0.00000000
  10        -3.62822231
Sym=    10a  
Ene=     2.0367
Spin= Beta
Occup=    0.00000
   1        -2.42407697
   2        -8.68340701
   3        -0.00000000
   4        -0.00000000
   5        -3.62822231
   6         2.42407697
   7         8.68340701
   8        -0.00000000
   9        -0.00000000
  10        -3.62822231
