[Molden Format]
[N_Atoms]
                     2
[Atoms] (AU)
BE1         1      4           0.00000000      0.00000000      0.00000000
BE2         2      4           0.00000000      0.00000000      2.07869874
[Charge] (Mulliken)
 -4.192202140984591E-013
  4.116706975310080E-013
[GTO] (AU)
   1
   s  14
  2.262859900E+04  8.443999941E-05
  3.372318100E+03  4.601499968E-04
  7.603504000E+02  2.285389984E-03
  2.117404800E+02  9.648129932E-03
  6.722346800E+01  3.494469975E-02
  2.337217700E+01  1.061099893E-01
  8.721373000E+00  2.458240383E-01
  3.468091000E+00  3.862428773E-01
  1.452144000E+00  3.105526078E-01
  6.086150000E-01  6.415933955E-02
  2.576860000E-01 -2.265049984E-03
  1.041760000E-01 -5.217499963E-04
  4.242700000E-02 -8.757499938E-04
  1.484900000E-02  1.242199991E-04
   s  14
  2.262859900E+04 -1.586999994E-05
  3.372318100E+03 -8.656999968E-05
  7.603504000E+02 -4.302199984E-04
  2.117404800E+02 -1.825079993E-03
  6.722346800E+01 -6.682749976E-03
  2.337217700E+01 -2.095119992E-02
  8.721373000E+00 -5.200308981E-02
  3.468091000E+00 -9.849176964E-02
  1.452144000E+00 -1.355800695E-01
  6.086150000E-01 -6.429875976E-02
  2.576860000E-01  3.125414989E-01
  1.041760000E-01  6.270468577E-01
  4.242700000E-02  2.110231492E-01
  1.484900000E-02 -4.104669985E-03
   p   9
  3.371018400E+01  1.069960000E-03
  8.057649500E+00  6.828550001E-03
  2.836471400E+00  2.119065000E-02
  1.099965700E+00  5.843696001E-02
  4.433964000E-01  2.020920800E-01
  1.822264000E-01  4.582953101E-01
  7.572410000E-02  3.691239601E-01
  3.168540000E-02  6.611471001E-02
  1.108990000E-02  1.405160000E-03
 
   2
   s  14
  2.262859900E+04  8.443999941E-05
  3.372318100E+03  4.601499968E-04
  7.603504000E+02  2.285389984E-03
  2.117404800E+02  9.648129932E-03
  6.722346800E+01  3.494469975E-02
  2.337217700E+01  1.061099893E-01
  8.721373000E+00  2.458240383E-01
  3.468091000E+00  3.862428773E-01
  1.452144000E+00  3.105526078E-01
  6.086150000E-01  6.415933955E-02
  2.576860000E-01 -2.265049984E-03
  1.041760000E-01 -5.217499963E-04
  4.242700000E-02 -8.757499938E-04
  1.484900000E-02  1.242199991E-04
   s  14
  2.262859900E+04 -1.586999994E-05
  3.372318100E+03 -8.656999968E-05
  7.603504000E+02 -4.302199984E-04
  2.117404800E+02 -1.825079993E-03
  6.722346800E+01 -6.682749976E-03
  2.337217700E+01 -2.095119992E-02
  8.721373000E+00 -5.200308981E-02
  3.468091000E+00 -9.849176964E-02
  1.452144000E+00 -1.355800695E-01
  6.086150000E-01 -6.429875976E-02
  2.576860000E-01  3.125414989E-01
  1.041760000E-01  6.270468577E-01
  4.242700000E-02  2.110231492E-01
  1.484900000E-02 -4.104669985E-03
   p   9
  3.371018400E+01  1.069960000E-03
  8.057649500E+00  6.828550001E-03
  2.836471400E+00  2.119065000E-02
  1.099965700E+00  5.843696001E-02
  4.433964000E-01  2.020920800E-01
  1.822264000E-01  4.582953101E-01
  7.572410000E-02  3.691239601E-01
  3.168540000E-02  6.611471001E-02
  1.108990000E-02  1.405160000E-03
 
[MO]
Sym=     1a  
Ene=    -4.9158
Spin= Alpha
Occup=    2.00000
   1         0.69886594
   2         0.00134802
   3         0.00000000
   4         0.00000000
   5         0.00808941
   6         0.69886594
   7         0.00134802
   8        -0.00000000
   9        -0.00000000
  10        -0.00808941
Sym=     2a  
Ene=    -4.8456
Spin= Alpha
Occup=    2.00000
   1        -0.71603791
   2        -0.00992199
   3         0.00000000
   4        -0.00000000
   5        -0.00437567
   6         0.71603791
   7         0.00992199
   8         0.00000000
   9        -0.00000000
  10        -0.00437567
Sym=     3a  
Ene=    -0.4432
Spin= Alpha
Occup=    2.00000
   1        -0.13533561
   2         0.47602620
   3         0.00000000
   4        -0.00000000
   5         0.20399686
   6        -0.13533561
   7         0.47602620
   8        -0.00000000
   9         0.00000000
  10        -0.20399686
Sym=     4a  
Ene=     0.0123
Spin= Alpha
Occup=    0.03499
   1        -0.11911992
   2        -1.02922440
   3        -0.00000000
   4         0.00000000
   5         0.21862805
   6         0.11911992
   7         1.02922440
   8        -0.00000000
   9         0.00000000
  10         0.21862805
Sym=     5a  
Ene=     0.0000
Spin= Alpha
Occup=    1.96501
   1        -0.00000000
   2        -0.00000000
   3         0.51933221
   4         0.15154354
   5        -0.00000000
   6         0.00000000
   7        -0.00000000
   8         0.51933221
   9         0.15154354
  10        -0.00000000
Sym=     6a  
Ene=    -0.0355
Spin= Alpha
Occup=    0.00000
   1        -0.00000000
   2         0.00000000
   3        -0.15154354
   4         0.51933221
   5        -0.00000000
   6         0.00000000
   7        -0.00000000
   8        -0.15154354
   9         0.51933221
  10        -0.00000000
Sym=     7a  
Ene=     0.1078
Spin= Alpha
Occup=    0.00000
   1         0.17794749
   2         0.32977250
   3         0.00000000
   4        -0.00000000
   5        -0.90428579
   6         0.17794749
   7         0.32977250
   8        -0.00000000
   9         0.00000000
  10         0.90428579
Sym=     8a  
Ene=     0.2842
Spin= Alpha
Occup=    0.00000
   1         0.00000000
   2        -0.00000000
   3        -1.25703363
   4        -0.36680822
   5        -0.00000000
   6         0.00000000
   7        -0.00000000
   8         1.25703363
   9         0.36680822
  10         0.00000000
Sym=     9a  
Ene=     0.2923
Spin= Alpha
Occup=    0.00000
   1        -0.00000000
   2        -0.00000000
   3         0.36680822
   4        -1.25703363
   5         0.00000000
   6        -0.00000000
   7        -0.00000000
   8        -0.36680822
   9         1.25703363
  10        -0.00000000
Sym=    10a  
Ene=     2.0436
Spin= Alpha
Occup=    0.00000
   1        -2.42302588
   2        -8.64628943
   3         0.00000000
   4        -0.00000000
   5        -3.64154431
   6         2.42302588
   7         8.64628943
   8         0.00000000
   9        -0.00000000
  10        -3.64154431
