[Molden Format]
[N_Atoms]
                     2
[Atoms] (AU)
BE1         1      4           0.00000000      0.00000000      0.00000000
BE2         2      4           0.00000000      0.00000000      2.07869874
[Charge] (Mulliken)
   1.00000000000041     
  0.999999999999593     
[GTO] (AU)
   1
   s  14
  2.262859900E+04  8.443999941E-05
  3.372318100E+03  4.601499968E-04
  7.603504000E+02  2.285389984E-03
  2.117404800E+02  9.648129932E-03
  6.722346800E+01  3.494469975E-02
  2.337217700E+01  1.061099893E-01
  8.721373000E+00  2.458240383E-01
  3.468091000E+00  3.862428773E-01
  1.452144000E+00  3.105526078E-01
  6.086150000E-01  6.415933955E-02
  2.576860000E-01 -2.265049984E-03
  1.041760000E-01 -5.217499963E-04
  4.242700000E-02 -8.757499938E-04
  1.484900000E-02  1.242199991E-04
   s  14
  2.262859900E+04 -1.586999994E-05
  3.372318100E+03 -8.656999968E-05
  7.603504000E+02 -4.302199984E-04
  2.117404800E+02 -1.825079993E-03
  6.722346800E+01 -6.682749976E-03
  2.337217700E+01 -2.095119992E-02
  8.721373000E+00 -5.200308981E-02
  3.468091000E+00 -9.849176964E-02
  1.452144000E+00 -1.355800695E-01
  6.086150000E-01 -6.429875976E-02
  2.576860000E-01  3.125414989E-01
  1.041760000E-01  6.270468577E-01
  4.242700000E-02  2.110231492E-01
  1.484900000E-02 -4.104669985E-03
   p   9
  3.371018400E+01  1.069960000E-03
  8.057649500E+00  6.828550001E-03
  2.836471400E+00  2.119065000E-02
  1.099965700E+00  5.843696001E-02
  4.433964000E-01  2.020920800E-01
  1.822264000E-01  4.582953101E-01
  7.572410000E-02  3.691239601E-01
  3.168540000E-02  6.611471001E-02
  1.108990000E-02  1.405160000E-03
 
   2
   s  14
  2.262859900E+04  8.443999941E-05
  3.372318100E+03  4.601499968E-04
  7.603504000E+02  2.285389984E-03
  2.117404800E+02  9.648129932E-03
  6.722346800E+01  3.494469975E-02
  2.337217700E+01  1.061099893E-01
  8.721373000E+00  2.458240383E-01
  3.468091000E+00  3.862428773E-01
  1.452144000E+00  3.105526078E-01
  6.086150000E-01  6.415933955E-02
  2.576860000E-01 -2.265049984E-03
  1.041760000E-01 -5.217499963E-04
  4.242700000E-02 -8.757499938E-04
  1.484900000E-02  1.242199991E-04
   s  14
  2.262859900E+04 -1.586999994E-05
  3.372318100E+03 -8.656999968E-05
  7.603504000E+02 -4.302199984E-04
  2.117404800E+02 -1.825079993E-03
  6.722346800E+01 -6.682749976E-03
  2.337217700E+01 -2.095119992E-02
  8.721373000E+00 -5.200308981E-02
  3.468091000E+00 -9.849176964E-02
  1.452144000E+00 -1.355800695E-01
  6.086150000E-01 -6.429875976E-02
  2.576860000E-01  3.125414989E-01
  1.041760000E-01  6.270468577E-01
  4.242700000E-02  2.110231492E-01
  1.484900000E-02 -4.104669985E-03
   p   9
  3.371018400E+01  1.069960000E-03
  8.057649500E+00  6.828550001E-03
  2.836471400E+00  2.119065000E-02
  1.099965700E+00  5.843696001E-02
  4.433964000E-01  2.020920800E-01
  1.822264000E-01  4.582953101E-01
  7.572410000E-02  3.691239601E-01
  3.168540000E-02  6.611471001E-02
  1.108990000E-02  1.405160000E-03
 
[MO]
Sym=     1a  
Ene=    -5.6423
Spin= Alpha
Occup=    2.00000
   1         0.70092646
   2        -0.00427091
   3         0.00000002
   4        -0.00000019
   5         0.00366149
   6         0.70092646
   7        -0.00427091
   8        -0.00000002
   9         0.00000019
  10        -0.00366149
Sym=     2a  
Ene=    -5.5739
Spin= Alpha
Occup=    2.00000
   1        -0.71581625
   2        -0.00842525
   3         0.00000000
   4        -0.00000001
   5        -0.00450894
   6         0.71581625
   7         0.00842525
   8         0.00000000
   9        -0.00000001
  10        -0.00450894
Sym=     3a  
Ene=    -1.0388
Spin= Alpha
Occup=    1.93272
   1        -0.15911035
   2         0.39986169
   3        -0.00000005
   4         0.00000044
   5         0.38196690
   6        -0.15911035
   7         0.39986169
   8         0.00000005
   9        -0.00000044
  10        -0.38196690
Sym=     4a  
Ene=    -0.0000
Spin= Alpha
Occup=    0.06728
   1        -0.00000084
   2        -0.00000153
   3        -0.06394606
   4         0.53719855
   5        -0.00000219
   6         0.00000084
   7         0.00000153
   8        -0.06394606
   9         0.53719855
  10        -0.00000219
Sym=     5a  
Ene=    -0.5939
Spin= Alpha
Occup=    0.00000
   1         0.00000000
   2        -0.00000000
   3         0.53719855
   4         0.06394606
   5        -0.00000000
   6        -0.00000000
   7         0.00000000
   8         0.53719855
   9         0.06394606
  10         0.00000000
Sym=     6a  
Ene=    -0.5134
Spin= Alpha
Occup=    0.00000
   1        -0.00425771
   2         0.58520046
   3         0.00000015
   4        -0.00000128
   5        -0.40478098
   6         0.00425771
   7        -0.58520046
   8         0.00000015
   9        -0.00000128
  10        -0.40478098
Sym=     7a  
Ene=    -0.4614
Spin= Alpha
Occup=    0.00000
   1         0.14758265
   2         0.41886161
   3         0.00000001
   4        -0.00000012
   5        -0.84468978
   6         0.14758265
   7         0.41886161
   8        -0.00000001
   9         0.00000012
  10         0.84468978
Sym=     8a  
Ene=    -0.2746
Spin= Alpha
Occup=    0.00000
   1        -0.00000017
   2         0.00000010
   3         0.15478020
   4        -1.30027878
   5         0.00000020
   6        -0.00000017
   7         0.00000010
   8        -0.15478020
   9         1.30027878
  10        -0.00000020
Sym=     9a  
Ene=    -0.2743
Spin= Alpha
Occup=    0.00000
   1         0.00000000
   2        -0.00000000
   3        -1.30027878
   4        -0.15478020
   5        -0.00000000
   6         0.00000000
   7        -0.00000000
   8         1.30027878
   9         0.15478020
  10         0.00000000
Sym=    10a  
Ene=     1.4399
Spin= Alpha
Occup=    0.00000
   1        -2.42601386
   2        -8.68764593
   3         0.00000002
   4        -0.00000018
   5        -3.62557504
   6         2.42601386
   7         8.68764593
   8         0.00000002
   9        -0.00000018
  10        -3.62557504
