[Molden Format]
[N_Atoms]
                     2
[Atoms] (AU)
LI1         1      3           0.00000000      0.00000000      0.00000000
O2          2      8           0.00000000      0.00000000      1.88972612
[Charge] (Mulliken)
  0.710823961449568     
 -0.710823961449581     
[GTO] (AU)
   1
   s  14
  9.497934400E+03  9.668999974E-05
  1.416811200E+03  6.087099984E-04
  3.214599400E+02  3.101519992E-03
  9.112416300E+01  1.266904997E-02
  2.999989100E+01  4.248012989E-02
  1.101763100E+01  1.150183297E-01
  4.372801000E+00  2.398650094E-01
  1.831256000E+00  3.584300090E-01
  8.022610000E-01  3.048527792E-01
  3.626480000E-01  8.824261976E-02
  1.139950000E-01 -8.445899977E-04
  5.123700000E-02 -7.943959979E-03
  2.246800000E-02 -3.764419990E-03
  7.860000000E-03 -8.868999976E-05
   s  14
  9.497934400E+03 -1.244999993E-05
  1.416811200E+03 -7.838999954E-05
  3.214599400E+02 -4.007099976E-04
  9.112416300E+01 -1.645249990E-03
  2.999989100E+01 -5.634599967E-03
  1.101763100E+01 -1.590780991E-02
  4.372801000E+00 -3.612581979E-02
  1.831256000E+00 -6.459927962E-02
  8.022610000E-01 -1.008321794E-01
  3.626480000E-01 -9.757613942E-02
  1.139950000E-01  2.301215886E-01
  5.123700000E-02  6.102389764E-01
  2.246800000E-02  2.849406083E-01
  7.860000000E-03  4.026899976E-03
   p   9
  1.311950400E+01  1.524940000E-03
  3.077424200E+00  8.314830000E-03
  1.098800500E+00  1.933203000E-02
  4.357784000E-01  4.934293000E-02
  1.802432000E-01  1.623554000E-01
  7.613330000E-02  3.847505400E-01
  3.254650000E-02  4.336100400E-01
  1.401820000E-02  1.287005900E-01
  4.906400000E-03 -1.018520000E-03
 
   2
   s  14
  1.053749500E+05  1.238600013E-04
  1.567924000E+04  5.120100053E-04
  3.534544700E+03  2.152910022E-03
  9.873651600E+02  8.528440089E-03
  3.159787500E+02  3.018049031E-02
  1.116542800E+02  9.099702095E-02
  4.269945100E+01  2.177936423E-01
  1.739559600E+01  3.686245738E-01
  7.438309000E+00  3.366707335E-01
  3.222862000E+00  9.657630101E-02
  1.253877000E+00  2.144520022E-03
  4.951550000E-01  1.194350012E-03
  1.916650000E-01  5.390200056E-04
  6.708300000E-02  2.103400022E-04
   s  14
  1.053749500E+05 -2.815000008E-05
  1.567924000E+04 -1.163000003E-04
  3.534544700E+03 -4.909200013E-04
  9.873651600E+02 -1.946160005E-03
  3.159787500E+02 -7.005300019E-03
  1.116542800E+02 -2.167814006E-02
  4.269945100E+01 -5.641213015E-02
  1.739559600E+01 -1.127053003E-01
  7.438309000E+00 -1.589119704E-01
  3.222862000E+00 -3.355083009E-02
  1.253877000E+00  3.531902810E-01
  4.951550000E-01  5.534199315E-01
  1.916650000E-01  2.301839106E-01
  6.708300000E-02  1.127267003E-02
   p   9
  2.000000000E+02  9.173000030E-04
  4.653336700E+01  7.377140024E-03
  1.462180900E+01  3.483515011E-02
  5.313064000E+00  1.144397004E-01
  2.102525000E+00  2.554966408E-01
  8.502230000E-01  3.722557412E-01
  3.375970000E-01  3.323314911E-01
  1.288920000E-01  1.400847905E-01
  4.511200000E-02  2.395784008E-02
 
[MO]
Sym=     1a  
Ene=   -20.4190
Spin= Alpha
Occup=    1.00000
   1        -0.00095633
   2        -0.00098692
   3        -0.00000000
   4        -0.00000000
   5        -0.00058736
   6         1.00008647
   7         0.00284902
   8        -0.00000000
   9         0.00000000
  10        -0.00089446
Sym=     1a  
Ene=   -20.3740
Spin= Beta
Occup=    1.00000
   1        -0.00053151
   2        -0.00046292
   3        -0.00000000
   4        -0.00000000
   5        -0.00016918
   6         1.00003651
   7         0.00023591
   8        -0.00000000
   9         0.00000000
  10        -0.00093021
Sym=     2a  
Ene=    -2.6139
Spin= Alpha
Occup=    1.00000
   1         0.94431842
   2        -0.00593078
   3        -0.00000000
   4         0.00000000
   5         0.00343858
   6        -0.01452321
   7         0.10390223
   8        -0.00000000
   9        -0.00000000
  10        -0.07423708
Sym=     2a  
Ene=    -2.5537
Spin= Beta
Occup=    1.00000
   1         0.95284445
   2        -0.00106569
   3        -0.00000000
   4         0.00000000
   5         0.00227782
   6        -0.01440020
   7         0.09730067
   8        -0.00000000
   9        -0.00000000
  10        -0.05738309
Sym=     3a  
Ene=    -1.1860
Spin= Alpha
Occup=    1.00000
   1        -0.34441534
   2        -0.01735960
   3        -0.00000000
   4         0.00000000
   5         0.03385344
   6         0.00182328
   7         1.01738142
   8         0.00000000
   9        -0.00000000
  10        -0.04166142
Sym=     3a  
Ene=    -1.0151
Spin= Beta
Occup=    1.00000
   1        -0.33935889
   2         0.01265131
   3        -0.00000000
   4         0.00000000
   5         0.06003970
   6         0.00113256
   7         0.99531231
   8         0.00000000
   9        -0.00000000
  10        -0.05374279
Sym=     4a  
Ene=    -0.4935
Spin= Alpha
Occup=    1.00000
   1        -0.00000000
   2         0.00000000
   3        -0.01014687
   4         0.11237123
   5        -0.00000000
   6         0.00000000
   7         0.00000000
   8        -0.08603129
   9         0.95275115
  10        -0.00000000
Sym=     4a  
Ene=    -0.4341
Spin= Beta
Occup=    1.00000
   1         0.00000000
   2         0.00000000
   3        -0.00844483
   4         0.17434628
   5        -0.00000000
   6        -0.00000000
   7        -0.00000000
   8        -0.04489929
   9         0.92696068
  10         0.00000000
Sym=     5a  
Ene=    -0.4935
Spin= Alpha
Occup=    1.00000
   1        -0.00000000
   2        -0.00000000
   3         0.11237123
   4         0.01014687
   5         0.00000000
   6         0.00000000
   7         0.00000000
   8         0.95275115
   9         0.08603129
  10        -0.00000000
Sym=     5a  
Ene=    -0.4341
Spin= Beta
Occup=    1.00000
   1         0.00000000
   2        -0.00000000
   3         0.17434628
   4         0.00844483
   5         0.00000000
   6         0.00000000
   7        -0.00000000
   8         0.92696068
   9         0.04489929
  10        -0.00000000
Sym=     6a  
Ene=    -0.4678
Spin= Alpha
Occup=    1.00000
   1         0.43982470
   2         0.12577640
   3         0.00000000
   4         0.00000000
   5        -0.08477083
   6        -0.00602359
   7        -0.05511957
   8         0.00000000
   9         0.00000000
  10         1.07108744
Sym=     6a  
Ene=     0.0177
Spin= Beta
Occup=    0.00000
   1        -0.03548833
   2        -0.84949556
   3         0.00000000
   4        -0.00000000
   5         0.54601650
   6         0.00308126
   7         0.08467723
   8        -0.00000000
   9         0.00000000
  10        -0.05770626
Sym=     7a  
Ene=     0.0197
Spin= Alpha
Occup=    0.00000
   1         0.00139549
   2        -0.83695435
   3         0.00000000
   4        -0.00000000
   5         0.54754533
   6         0.00187217
   7         0.06517877
   8        -0.00000000
   9         0.00000000
  10         0.02958638
Sym=     7a  
Ene=     0.1471
Spin= Beta
Occup=    0.00000
   1        -0.00000000
   2        -0.00000000
   3        -1.03610810
   4        -0.14732811
   5        -0.00000000
   6         0.00000000
   7         0.00000000
   8         0.50909829
   9         0.07239060
  10        -0.00000000
Sym=     8a  
Ene=     0.1383
Spin= Alpha
Occup=    0.00000
   1         0.00000000
   2        -0.00000000
   3        -1.04845150
   4        -0.11710130
   5        -0.00000000
   6         0.00000000
   7         0.00000000
   8         0.45602974
   9         0.05093385
  10         0.00000000
Sym=     8a  
Ene=     0.1471
Spin= Beta
Occup=    0.00000
   1        -0.00000000
   2        -0.00000000
   3         0.14732811
   4        -1.03610810
   5        -0.00000000
   6         0.00000000
   7         0.00000000
   8        -0.07239060
   9         0.50909829
  10        -0.00000000
Sym=     9a  
Ene=     0.1383
Spin= Alpha
Occup=    0.00000
   1        -0.00000000
   2        -0.00000000
   3        -0.11710130
   4         1.04845150
   5         0.00000000
   6        -0.00000000
   7        -0.00000000
   8         0.05093385
   9        -0.45602974
  10        -0.00000000
Sym=     9a  
Ene=     0.2148
Spin= Beta
Occup=    0.00000
   1         0.23477581
   2         0.68643679
   3        -0.00000000
   4        -0.00000000
   5         0.93937332
   6        -0.08641530
   7        -0.69925555
   8         0.00000000
   9         0.00000000
  10         0.17164285
Sym=    10a  
Ene=     0.2106
Spin= Alpha
Occup=    0.00000
   1         0.12869721
   2         0.69898301
   3        -0.00000000
   4        -0.00000000
   5         0.97491666
   6        -0.08704958
   7        -0.67808219
   8         0.00000000
   9         0.00000000
  10        -0.08890440
Sym=    10a  
Ene=     0.3821
Spin= Beta
Occup=    0.00000
   1         0.37538569
   2        -0.11057780
   3        -0.00000000
   4        -0.00000000
   5        -0.27284879
   6         0.01567969
   7         0.12925949
   8         0.00000000
   9        -0.00000000
  10         1.06032166
