[Molden Format]
[N_Atoms]
                     2
[Atoms] (AU)
LI1         1      3           0.00000000      0.00000000      0.00000000
LI2         2      3           0.00000000      0.00000000      1.88972612
[Charge] (Mulliken)
 -1.162625551387464E-012
  1.158628748498813E-012
[GTO] (AU)
   1
   s  14
  9.497934400E+03  9.668999974E-05
  1.416811200E+03  6.087099984E-04
  3.214599400E+02  3.101519992E-03
  9.112416300E+01  1.266904997E-02
  2.999989100E+01  4.248012989E-02
  1.101763100E+01  1.150183297E-01
  4.372801000E+00  2.398650094E-01
  1.831256000E+00  3.584300090E-01
  8.022610000E-01  3.048527792E-01
  3.626480000E-01  8.824261976E-02
  1.139950000E-01 -8.445899977E-04
  5.123700000E-02 -7.943959979E-03
  2.246800000E-02 -3.764419990E-03
  7.860000000E-03 -8.868999976E-05
   s  14
  9.497934400E+03 -1.244999993E-05
  1.416811200E+03 -7.838999954E-05
  3.214599400E+02 -4.007099976E-04
  9.112416300E+01 -1.645249990E-03
  2.999989100E+01 -5.634599967E-03
  1.101763100E+01 -1.590780991E-02
  4.372801000E+00 -3.612581979E-02
  1.831256000E+00 -6.459927962E-02
  8.022610000E-01 -1.008321794E-01
  3.626480000E-01 -9.757613942E-02
  1.139950000E-01  2.301215886E-01
  5.123700000E-02  6.102389764E-01
  2.246800000E-02  2.849406083E-01
  7.860000000E-03  4.026899976E-03
   p   9
  1.311950400E+01  1.524940000E-03
  3.077424200E+00  8.314830000E-03
  1.098800500E+00  1.933203000E-02
  4.357784000E-01  4.934293000E-02
  1.802432000E-01  1.623554000E-01
  7.613330000E-02  3.847505400E-01
  3.254650000E-02  4.336100400E-01
  1.401820000E-02  1.287005900E-01
  4.906400000E-03 -1.018520000E-03
 
   2
   s  14
  9.497934400E+03  9.668999974E-05
  1.416811200E+03  6.087099984E-04
  3.214599400E+02  3.101519992E-03
  9.112416300E+01  1.266904997E-02
  2.999989100E+01  4.248012989E-02
  1.101763100E+01  1.150183297E-01
  4.372801000E+00  2.398650094E-01
  1.831256000E+00  3.584300090E-01
  8.022610000E-01  3.048527792E-01
  3.626480000E-01  8.824261976E-02
  1.139950000E-01 -8.445899977E-04
  5.123700000E-02 -7.943959979E-03
  2.246800000E-02 -3.764419990E-03
  7.860000000E-03 -8.868999976E-05
   s  14
  9.497934400E+03 -1.244999993E-05
  1.416811200E+03 -7.838999954E-05
  3.214599400E+02 -4.007099976E-04
  9.112416300E+01 -1.645249990E-03
  2.999989100E+01 -5.634599967E-03
  1.101763100E+01 -1.590780991E-02
  4.372801000E+00 -3.612581979E-02
  1.831256000E+00 -6.459927962E-02
  8.022610000E-01 -1.008321794E-01
  3.626480000E-01 -9.757613942E-02
  1.139950000E-01  2.301215886E-01
  5.123700000E-02  6.102389764E-01
  2.246800000E-02  2.849406083E-01
  7.860000000E-03  4.026899976E-03
   p   9
  1.311950400E+01  1.524940000E-03
  3.077424200E+00  8.314830000E-03
  1.098800500E+00  1.933203000E-02
  4.357784000E-01  4.934293000E-02
  1.802432000E-01  1.623554000E-01
  7.613330000E-02  3.847505400E-01
  3.254650000E-02  4.336100400E-01
  1.401820000E-02  1.287005900E-01
  4.906400000E-03 -1.018520000E-03
 
[MO]
Sym=     1a  
Ene=    -2.8580
Spin= Alpha
Occup=    1.00000
   1         0.67074500
   2         0.00190141
   3        -0.00000000
   4         0.00000000
   5         0.00855380
   6         0.67074500
   7         0.00190141
   8         0.00000000
   9        -0.00000000
  10        -0.00855380
Sym=     1a  
Ene=    -2.8580
Spin= Beta
Occup=    1.00000
   1         0.67074500
   2         0.00190141
   3        -0.00000000
   4         0.00000000
   5         0.00855380
   6         0.67074500
   7         0.00190141
   8         0.00000000
   9        -0.00000000
  10        -0.00855380
Sym=     2a  
Ene=    -2.5707
Spin= Alpha
Occup=    1.00000
   1        -0.74189183
   2         0.02037774
   3        -0.00000000
   4         0.00000000
   5         0.00596583
   6         0.74189183
   7        -0.02037774
   8        -0.00000000
   9         0.00000000
  10         0.00596583
Sym=     2a  
Ene=    -2.5707
Spin= Beta
Occup=    1.00000
   1        -0.74189183
   2         0.02037774
   3        -0.00000000
   4         0.00000000
   5         0.00596583
   6         0.74189183
   7        -0.02037774
   8        -0.00000000
   9         0.00000000
  10         0.00596583
Sym=     3a  
Ene=    -0.2236
Spin= Alpha
Occup=    1.00000
   1        -0.08508930
   2         0.51593630
   3         0.00000000
   4        -0.00000000
   5         0.01479801
   6        -0.08508930
   7         0.51593630
   8         0.00000000
   9        -0.00000000
  10        -0.01479801
Sym=     3a  
Ene=    -0.2236
Spin= Beta
Occup=    1.00000
   1        -0.08508930
   2         0.51593630
   3         0.00000000
   4        -0.00000000
   5         0.01479801
   6        -0.08508930
   7         0.51593630
   8         0.00000000
   9        -0.00000000
  10        -0.01479801
Sym=     4a  
Ene=    -0.0092
Spin= Alpha
Occup=    0.00000
   1        -0.00000000
   2         0.00000000
   3         0.18131863
   4         0.47995312
   5        -0.00000000
   6        -0.00000000
   7        -0.00000000
   8         0.18131863
   9         0.47995312
  10        -0.00000000
Sym=     4a  
Ene=    -0.0092
Spin= Beta
Occup=    0.00000
   1        -0.00000000
   2         0.00000000
   3         0.18131863
   4         0.47995312
   5        -0.00000000
   6        -0.00000000
   7        -0.00000000
   8         0.18131863
   9         0.47995312
  10        -0.00000000
Sym=     5a  
Ene=    -0.0092
Spin= Alpha
Occup=    0.00000
   1         0.00000000
   2         0.00000000
   3         0.47995312
   4        -0.18131863
   5        -0.00000000
   6         0.00000000
   7        -0.00000000
   8         0.47995312
   9        -0.18131863
  10        -0.00000000
Sym=     5a  
Ene=    -0.0092
Spin= Beta
Occup=    0.00000
   1         0.00000000
   2         0.00000000
   3         0.47995312
   4        -0.18131863
   5        -0.00000000
   6         0.00000000
   7        -0.00000000
   8         0.47995312
   9        -0.18131863
  10        -0.00000000
Sym=     6a  
Ene=     0.0173
Spin= Alpha
Occup=    0.00000
   1         0.02324329
   2        -0.49477277
   3         0.00000000
   4         0.00000000
   5         0.44184590
   6        -0.02324329
   7         0.49477277
   8         0.00000000
   9         0.00000000
  10         0.44184590
Sym=     6a  
Ene=     0.0173
Spin= Beta
Occup=    0.00000
   1         0.02324329
   2        -0.49477277
   3         0.00000000
   4         0.00000000
   5         0.44184590
   6        -0.02324329
   7         0.49477277
   8         0.00000000
   9         0.00000000
  10         0.44184590
Sym=     7a  
Ene=     0.1850
Spin= Alpha
Occup=    0.00000
   1         0.00000000
   2         0.00000000
   3        -2.22681549
   4         0.12202012
   5        -0.00000000
   6         0.00000000
   7         0.00000000
   8         2.22681549
   9        -0.12202012
  10         0.00000000
Sym=     7a  
Ene=     0.1850
Spin= Beta
Occup=    0.00000
   1         0.00000000
   2         0.00000000
   3        -2.22681549
   4         0.12202012
   5        -0.00000000
   6         0.00000000
   7         0.00000000
   8         2.22681549
   9        -0.12202012
  10         0.00000000
Sym=     8a  
Ene=     0.1850
Spin= Alpha
Occup=    0.00000
   1        -0.00000000
   2        -0.00000000
   3        -0.12202012
   4        -2.22681549
   5         0.00000000
   6        -0.00000000
   7        -0.00000000
   8         0.12202012
   9         2.22681549
  10        -0.00000000
Sym=     8a  
Ene=     0.1850
Spin= Beta
Occup=    0.00000
   1        -0.00000000
   2        -0.00000000
   3        -0.12202012
   4        -2.22681549
   5         0.00000000
   6        -0.00000000
   7        -0.00000000
   8         0.12202012
   9         2.22681549
  10        -0.00000000
Sym=     9a  
Ene=     0.1948
Spin= Alpha
Occup=    0.00000
   1         0.29992145
   2         0.24654403
   3         0.00000000
   4        -0.00000000
   5        -1.60511783
   6         0.29992145
   7         0.24654403
   8        -0.00000000
   9         0.00000000
  10         1.60511783
Sym=     9a  
Ene=     0.1948
Spin= Beta
Occup=    0.00000
   1         0.29992145
   2         0.24654403
   3         0.00000000
   4        -0.00000000
   5        -1.60511783
   6         0.29992145
   7         0.24654403
   8        -0.00000000
   9         0.00000000
  10         1.60511783
Sym=    10a  
Ene=     1.7527
Spin= Alpha
Occup=    0.00000
   1        -2.51967149
   2       -10.40317825
   3         0.00000000
   4         0.00000000
   5        -2.27208685
   6         2.51967149
   7        10.40317825
   8         0.00000000
   9        -0.00000000
  10        -2.27208685
Sym=    10a  
Ene=     1.7527
Spin= Beta
Occup=    0.00000
   1        -2.51967149
   2       -10.40317825
   3         0.00000000
   4         0.00000000
   5        -2.27208685
   6         2.51967149
   7        10.40317825
   8         0.00000000
   9        -0.00000000
  10        -2.27208685
