   This run of MOLCAS is using the pymolcas driver

                             OPE
                             OPE          NMOL  CASOP  ENMOLC A   SO
                 OPE        NMOLC        AS  OP EN  MO LC     AS  OP
                OPENM       OL CA        SO  PE NM  OL CA     SOP EN
                OP EN      MO   LC       AS  OP ENMOL  CASO   PENMOL
                OP  EN     MO   LC       AS  OP EN     MO     LC ASO
               OP   E  NMOL  C  AS       OP  EN MO     LC     AS  OP
               OP  E   NMO   LC AS        OPEN  MO     LCASOP EN   M
               O  PEN   MO  LCA  SO
            OPE   NMO   L   CAS    OP
        OPENMOL  CASOP     ENMOL   CASOPE
     OPENMOLCA   SOPENMOLCASOPEN   MOLCASOPE
    OPENMOLCAS   OP           EN   MOL    CAS
    OPENMOLCAS       OP  ENM        O     LCA
    OPENMOLCAS    OPEN  MOLCASO     P  E  NMO
    OPENMOLCAS     OP               E  N  MOL
    OPENMOLCA   SO           PENM   O  L  CAS    OPEN    MO    LCAS
    OPENMOLCA   SOP           ENM   O  L  CAS   OP  EN  MOLC  AS   O
    OPENMOLCA   SOPE           NM      O  LCA   S      OP  EN MO
    OPENMOLC                AS         O  PEN   M      OL  CA  SOPE
    OPENMO        LCASOPE  NMOL        C  ASO   P      ENMOLC     AS
    OPE     NMO      LCA  SO     P     E   NM   OL  CA SO  PE N   MO
          OPENMOLCA            SOPE   NMO        LCAS  O    P  ENMO
     OPENMOLCASOPENMOLCASOPENMOLCASOPENMOLCA
        OPENMOLCASOPENMOLCASOPENMOLCASOPE
            OPENMOLCASOPENMOLCASOPENM
               OPENMOLCASOPENMOLCA        version: 24.02
                   OPENMOLCASO
                       OPE                tag: 126-g611b04c8f

 OpenMolcas is free software; you can redistribute it and/or modify it
 under the terms of the GNU Lesser General Public License version 2.1.
 OpenMolcas is distributed in the hope that it will be useful, but it
 is provided "as is" and without any express or implied warranties.
 For more details see the full text of the license in the file
 LICENSE or in <http://www.gnu.org/licenses/>.

                 Copyright (C) The OpenMolcas Authors
           For the author list and the recommended citation,
                   consult the file CONTRIBUTORS.md

           *************************************************
           * pymolcas version py2.28                       *
           *   build c4a6d18ded8cb6cad61d2372a9abd97c      *
           *   (after the EMIL interpreter by V. Veryazov) *
           *************************************************

configuration info
------------------
Host name: debian (Linux)
C Compiler ID: GNU
C flags: -std=gnu99
Fortran Compiler ID: Intel
Fortran flags: -fpp -i8 -heap-arrays
Definitions: _MOLCAS_;_I8_;_LINUX_
Parallel: OFF (GA=OFF)


   -------------------------------------------------------------------
  |
  |              Project: 1.00
  |       Submitted from: /home/grierjones/DDCASPT2/delta_ML/LiLi/1.00
  |         Scratch area: /tmp/1.00
  |      Save outputs to: /home/grierjones/DDCASPT2/delta_ML/LiLi/1.00
  |               Molcas: /usr/local
  |
  | Scratch area is empty
  |
  |       MOLCAS_DRIVER = /usr/local/pymolcas
  | MOLCAS_KEEP_WORKDIR = NO
  |  MOLCAS_NEW_WORKDIR = YES
  |       MOLCAS_NPROCS = 1
  |       MOLCAS_SOURCE = /usr/local
  |    MOLCAS_STRUCTURE = 0
  |
   -------------------------------------------------------------------

++ ---------   Input file   ---------

&GATEWAY
coord=1.00.xyz
Basis = ANO-RCC-MB
Group = nosymm
End of Input

&SEWARD
End of Input

&SCF
UHF

&MBPT2
Frozen
0

&RASSCF
Title= RASSCF
FileOrb
/home/grierjones/DDCASPT2/delta_ML/LiLi/0.90/0.90.RasOrb

NACTEL
2 0 0
Inactive
2
RAS2
2
Symmetry
1
Spin
1
orblisting
all
ITERation
200 100
CIMX
200
SDAV
500

&CASPT2
Imaginary Shift
0.0
Frozen
0

-- ----------------------------------

--- Start Module: gateway at Thu Apr 25 14:01:48 2024 ---
 
()()()()()()()()()()()()()()()()()()()()()()()()()()()()()()()()()()()()()()()()()()()()()()()()()()

                                              &GATEWAY

                                   only a single process is used
                       available to each process: 2.0 GB of memory, 1 thread?
                                            pid: 113705
()()()()()()()()()()()()()()()()()()()()()()()()()()()()()()()()()()()()()()()()()()()()()()()()()()
 
 
++    Symmetry information:
      ---------------------
 
                    Character Table for C1 
 
                             E  
                    a        1  x, y, xy, Rz, z, xz, Ry, yz, Rx, I
--
 
 
++    Basis set information:
      ----------------------
 
 
      Basis set label: LI.ANO-RCC...2S1P.
 
      Electronic valence basis set:
      ------------------
      Associated Effective Charge   3.000000 au
      Associated Actual Charge      3.000000 au
      Nuclear Model: Point charge
 
      Shell  nPrim  nBasis  Cartesian Spherical Contaminant
         s      14       2        X                  
         p       9       1        X                  
--
 
 
++    Molecular structure info:
      -------------------------
 
                    ************************************************ 
                    **** Cartesian Coordinates / Bohr, Angstrom **** 
                    ************************************************ 
 
     Center  Label                x              y              z                     x              y              z
        1      LI1              0.000000       0.000000       0.000000              0.000000       0.000000       0.000000
        2      LI2              0.000000       0.000000       1.889726              0.000000       0.000000       1.000000
--
 
 
            Nuclear Potential Energy              4.76259490 au
 
--- Stop Module: gateway at Thu Apr 25 14:01:48 2024 /rc=_RC_ALL_IS_WELL_ ---
*** files: xmldump
    saved to directory /home/grierjones/DDCASPT2/delta_ML/LiLi/1.00

--- Start Module: seward at Thu Apr 25 14:01:48 2024 ---
 
()()()()()()()()()()()()()()()()()()()()()()()()()()()()()()()()()()()()()()()()()()()()()()()()()()

                                              &SEWARD

                                   only a single process is used
                       available to each process: 2.0 GB of memory, 1 thread?
                                            pid: 113708
()()()()()()()()()()()()()()()()()()()()()()()()()()()()()()()()()()()()()()()()()()()()()()()()()()
 
               SEWARD will generate:
                  Multipole Moment integrals up to order  2
                  Kinetic Energy integrals
                  Nuclear Attraction integrals (point charge)
                  One-Electron Hamiltonian integrals
                  Velocity integrals
                  Relativistic Douglas-Kroll-Hess integrals:
                    - Parametrization         : EXP
                    - DKH order of Hamiltonian: 2
                    - DKH order of Properties : 0
                         - multipole moment operators
                         - electric potential operators
                         - contact operators
                  Orbital angular momentum around ( 0.0000  0.0000  0.9449 )
                  Velocity quadrupole around ( 0.0000  0.0000  0.9449 )
                  Atomic mean-field integrals
                  Two-Electron Repulsion integrals
 
                   Integrals are discarded if absolute value <: 1.00E-14
                   Integral cutoff threshold is set to       <: 1.00E-16
 
            Nuclear Potential Energy              4.76259490 au
 
 
      Basis set specifications :
      Symmetry species         a  
      Basis functions           10
 
 
      Input file to MOLDEN was generated!
 
--- Stop Module: seward at Thu Apr 25 14:01:49 2024 /rc=_RC_ALL_IS_WELL_ ---
*** files: 1.00.GssOrb 1.00.guessorb.h5 1.00.guessorb.molden xmldump
    saved to directory /home/grierjones/DDCASPT2/delta_ML/LiLi/1.00

*** symbolic link created: INPORB -> 1.00.GssOrb
--- Start Module: scf at Thu Apr 25 14:01:49 2024 ---
 
()()()()()()()()()()()()()()()()()()()()()()()()()()()()()()()()()()()()()()()()()()()()()()()()()()

                                                &SCF

                                   only a single process is used
                       available to each process: 2.0 GB of memory, 1 thread?
                                            pid: 113711
()()()()()()()()()()()()()()()()()()()()()()()()()()()()()()()()()()()()()()()()()()()()()()()()()()
 
++    Input section:
      --------------
 
      Header of the integral files:
      
       Integrals generated by Gateway/Seward, Thu Apr 25 14:01:49 2024
 
 
      Cartesian coordinates in Angstrom:
      -----------------------------------------------------
      No.  Label        X            Y            Z        
      -----------------------------------------------------
       1   LI1        0.00000000   0.00000000   0.00000000
       2   LI2        0.00000000   0.00000000   1.00000000
      -----------------------------------------------------
      Nuclear repulsion energy =    4.76259490
--
 
++    Orbital specifications:
      -----------------------
 
      Symmetry species               1
                                     a
      Frozen orbitals                0
      Occupied orbitals alpha        3
      Occupied orbitals beta         3
      Secondary orbitals alpha       7
      Secondary orbitals beta        7
      Deleted orbitals               0
      Total number of orbitals      10
      Number of basis functions     10
--
 
      Molecular charge                           0.000
 
++    Optimization specifications:
      ----------------------------
 
      SCF Algorithm: Conventional USCF
      D(i)-D(i-1) density differences are used
      Number of density matrices in core                 5
      Maximum number of NDDO SCF iterations            400
      Maximum number of HF SCF iterations              400
      Threshold for SCF energy change             1.00E-09
      Threshold for density matrix                1.00E-04
      Threshold for Fock matrix                   1.50E-04
      Threshold for linear dependence             1.00E-09
      Threshold at which DIIS is turned on        1.50E-01
      Maximum depth in the DIIS procedure                5
      Maximum depth in the BFGS Hessian update          30
      Threshold at which QNR/C2DIIS is turned on  7.50E-02
      Threshold for Norm(delta) (QNR/C2DIIS)      1.00E-03
      All orbitals punched on: UHFORB
--
 
      Input vectors read from INPORB
      Orbital file label: *Guess orbitals
 
 
++ Convergence information
                               UHF SCF        iterations: Energy and convergence statistics
 
Iter     Tot. SCF        One-elec.       Two-elec.     Energy      Max Dij or  Max Fij      DNorm      TNorm      AccCon     Time
         Energy          Energy          Energy        Change      Delta Norm                                                in Sec.
   1   -14.573164493   -27.364203244     8.028443853   0.00E+00    1.31E-02*   1.57E-02*    3.20E+00   6.75E+00   None         0.
   2   -14.573616994   -27.364550046     8.028338154  -4.53E-04*   4.20E-03*   1.41E-03*    8.41E-02   6.75E+00   EDIIS        0.
   3   -14.573624684   -27.366458925     8.030239343  -7.69E-06*   1.06E-03*   3.57E-04*    1.52E-02   6.75E+00   c2DIIS       0.
   4   -14.573625367   -27.367401323     8.031181058  -6.82E-07*   5.30E-04    7.84E-05     3.74E-03   6.75E+00   QNRc2DIIS    0.
   5   -14.573625407   -27.367620376     8.031400071  -4.01E-08*   2.89E-04    2.77E-05     1.32E-03   6.75E+00   QNRc2DIIS    0.
   6   -14.573625412   -27.367738607     8.031518296  -5.69E-09*   3.45E-07    2.28E-07     7.20E-04   6.75E+00   QNRc2DIIS    0.
 DIIS_X: Reduction of the subspace dimension due to numerical imbalance of the v
 alues in the B-Matrix
 kOptim=                     4 -> kOptim=                     3
 DIIS_X: Reduction of the subspace dimension due to numerical imbalance of the v
 alues in the B-Matrix
 kOptim=                     3 -> kOptim=                     2
   7   -14.573625412   -27.367738543     8.031518233  -6.93E-14    1.42E-09    2.11E-09     7.22E-07   6.75E+00   QNRc2DIIS    0.
 
       Convergence after   7 Macro Iterations
--
 
 *****************************************************************************************************************************
 *                                                                                                                           *
 *                                             SCF/KS-DFT Program, Final results                                             *
 *                                                                                                                           *
 *                                                                                                                           *
 *                                                                                                                           *
 *                                                       Final Results                                                       *
 *                                                                                                                           *
 *****************************************************************************************************************************
 
::    Total SCF energy                                -14.5736254123
      One-electron energy                             -27.3677385432
      Two-electron energy                               8.0315182328
      Nuclear repulsion energy                          4.7625948981
      Kinetic energy (interpolated)                    15.1887545792
      Virial theorem                                    0.9595010135
      Total spin, S(S+1)                               -0.0000000000
      Total spin, S                                    -0.0000000000
      Max non-diagonal density matrix element           0.0000000010
      Max non-diagonal Fock matrix element              0.0000000000
 
 
      All orbitals with orbital energies smaller than  E(LUMO)+0.5 are printed
 
++    Molecular orbitals:
      -------------------
 
      Title: UHF orbitals (alpha)

      Molecular orbitals for symmetry species 1: a  
 
          Orbital            1         2         3         4         5         6         7         8         9    
          Energy           -2.8580   -2.5707   -0.2236   -0.0092   -0.0092    0.0173    0.1850    0.1850    0.1948
          Occ. No.          1.0000    1.0000    1.0000    0.0000    0.0000    0.0000    0.0000    0.0000    0.0000
 
        1 LI1    1s         0.6707   -0.7419   -0.0851   -0.0000    0.0000    0.0232    0.0000   -0.0000    0.2999
        2 LI1    2s         0.0019    0.0204    0.5159    0.0000    0.0000   -0.4948    0.0000   -0.0000    0.2465
        3 LI1    2px       -0.0000   -0.0000    0.0000    0.1813    0.4800    0.0000   -2.2268   -0.1220    0.0000
        4 LI1    2py        0.0000    0.0000   -0.0000    0.4800   -0.1813    0.0000    0.1220   -2.2268   -0.0000
        5 LI1    2pz        0.0086    0.0060    0.0148   -0.0000   -0.0000    0.4418   -0.0000    0.0000   -1.6051
        6 LI2    1s         0.6707    0.7419   -0.0851   -0.0000    0.0000   -0.0232    0.0000   -0.0000    0.2999
        7 LI2    2s         0.0019   -0.0204    0.5159   -0.0000   -0.0000    0.4948    0.0000   -0.0000    0.2465
        8 LI2    2px        0.0000   -0.0000    0.0000    0.1813    0.4800    0.0000    2.2268    0.1220   -0.0000
        9 LI2    2py       -0.0000    0.0000   -0.0000    0.4800   -0.1813    0.0000   -0.1220    2.2268    0.0000
       10 LI2    2pz       -0.0086    0.0060   -0.0148   -0.0000   -0.0000    0.4418    0.0000   -0.0000    1.6051
--
 
 
      Input file to MOLDEN was generated!
 
 
++    Static properties:
      ------------------
 
 
      LoProp Charges per center
 

                   LI1      LI2   
      Nuclear      3.0000   3.0000
      Electronic  -3.0000  -3.0000
 
      Total       -0.0000   0.0000
--
 
 
      All orbitals with orbital energies smaller than  E(LUMO)+0.5 are printed
 
++    Molecular orbitals:
      -------------------
 
      Title: UHF orbitals (beta)

      Molecular orbitals for symmetry species 1: a  
 
          Orbital            1         2         3         4         5         6         7         8         9    
          Energy           -2.8580   -2.5707   -0.2236   -0.0092   -0.0092    0.0173    0.1850    0.1850    0.1948
          Occ. No.          1.0000    1.0000    1.0000    0.0000    0.0000    0.0000    0.0000    0.0000    0.0000
 
        1 LI1    1s         0.6707   -0.7419   -0.0851   -0.0000    0.0000    0.0232    0.0000   -0.0000    0.2999
        2 LI1    2s         0.0019    0.0204    0.5159    0.0000    0.0000   -0.4948    0.0000   -0.0000    0.2465
        3 LI1    2px       -0.0000   -0.0000    0.0000    0.1813    0.4800    0.0000   -2.2268   -0.1220    0.0000
        4 LI1    2py        0.0000    0.0000   -0.0000    0.4800   -0.1813    0.0000    0.1220   -2.2268   -0.0000
        5 LI1    2pz        0.0086    0.0060    0.0148   -0.0000   -0.0000    0.4418   -0.0000    0.0000   -1.6051
        6 LI2    1s         0.6707    0.7419   -0.0851   -0.0000    0.0000   -0.0232    0.0000   -0.0000    0.2999
        7 LI2    2s         0.0019   -0.0204    0.5159   -0.0000   -0.0000    0.4948    0.0000   -0.0000    0.2465
        8 LI2    2px        0.0000   -0.0000    0.0000    0.1813    0.4800    0.0000    2.2268    0.1220   -0.0000
        9 LI2    2py       -0.0000    0.0000   -0.0000    0.4800   -0.1813    0.0000   -0.1220    2.2268    0.0000
       10 LI2    2pz       -0.0086    0.0060   -0.0148   -0.0000   -0.0000    0.4418    0.0000   -0.0000    1.6051
--
 
 
++    Molecular charges:
      ------------------
 
      Mulliken charges per centre and basis function type
      ---------------------------------------------------
 
                            LI1                     LI2   
                     alpha        beta       alpha        beta
      1s           0.9953      0.9953      0.9953      0.9953
      2s           0.5002      0.5002      0.5002      0.5002
      2px          0.0000      0.0000      0.0000      0.0000
      2pz          0.0046      0.0046      0.0046      0.0046
      2py          0.0000      0.0000      0.0000      0.0000
      Total        1.5000      1.5000      1.5000      1.5000
      Total              3.0000                  3.0000
 
      Charge           -0.0000                  0.0000
 
      Total electronic charge=    6.000000
 
      Total            charge=   -0.000000
--
 
 
      Input file to MOLDEN was generated!
 
 
++    Static properties:
      ------------------
 
 
      LoProp Charges per center
 

                   LI1      LI2   
      Nuclear      3.0000   3.0000
      Electronic  -3.0000  -3.0000
 
      Total       -0.0000   0.0000
--
 
 
++    Natural Bond Order analysis
      ---------------------------
      Based on LoProp computed density
      -------------------------------------------------------------------------------------
      Atom A       Atom B       Bond Order
        LI1          LI2            0.754
      -------------------------------------------------------------------------------------
      NBO located      1.509 electrons involved in    1 bonds.
      NBO located      0.929 non-bonded electrons on atom LI1       
      NBO located      0.929 non-bonded electrons on atom LI2       
      The remaining    0.084 electrons are to be considered as diffuse
--
 
 
++    Molecular orbitals:
      -------------------
 
      Title: Natural orbitals

      Molecular orbitals for symmetry species 1: a  
 
          Orbital            1         2         3         4         5         6         7         8         9        10    
          Energy           -2.8580   -2.5707   -0.2236   -0.0092   -0.0092    0.0173    0.1850    0.1850    0.1948    1.7527
          Occ. No.          2.0000    2.0000    2.0000    0.0000    0.0000    0.0000    0.0000    0.0000    0.0000    0.0000
 
        1 LI1    1s         0.6707   -0.7419   -0.0851   -0.0000    0.0000    0.0232    0.0000   -0.0000    0.2999   -2.5197
        2 LI1    2s         0.0019    0.0204    0.5159    0.0000    0.0000   -0.4948    0.0000   -0.0000    0.2465  -10.4032
        3 LI1    2px       -0.0000   -0.0000    0.0000    0.1813    0.4800    0.0000   -2.2268   -0.1220    0.0000    0.0000
        4 LI1    2py        0.0000    0.0000   -0.0000    0.4800   -0.1813    0.0000    0.1220   -2.2268   -0.0000    0.0000
        5 LI1    2pz        0.0086    0.0060    0.0148   -0.0000   -0.0000    0.4418   -0.0000    0.0000   -1.6051   -2.2721
        6 LI2    1s         0.6707    0.7419   -0.0851   -0.0000    0.0000   -0.0232    0.0000   -0.0000    0.2999    2.5197
        7 LI2    2s         0.0019   -0.0204    0.5159   -0.0000   -0.0000    0.4948    0.0000   -0.0000    0.2465   10.4032
        8 LI2    2px        0.0000   -0.0000    0.0000    0.1813    0.4800    0.0000    2.2268    0.1220   -0.0000    0.0000
        9 LI2    2py       -0.0000    0.0000   -0.0000    0.4800   -0.1813    0.0000   -0.1220    2.2268    0.0000   -0.0000
       10 LI2    2pz       -0.0086    0.0060   -0.0148   -0.0000   -0.0000    0.4418    0.0000   -0.0000    1.6051   -2.2721
--
 
 
++    Molecular properties:
      ---------------------
 
      Charge (e):
                      =   -0.0000
      Dipole Moment (Debye):
      Origin of the operator (Ang)=    0.0000    0.0000    0.0000
                   X= -3.1414E-13               Y=  3.4731E-14               Z=  4.0342E-12           Total=  4.0466E-12
      Quadrupole Moment (Debye*Ang):
      Origin of the operator (Ang)=    0.0000    0.0000    0.5000
                  XX= -1.7148E+01              XY=  5.0563E-28              XZ=  5.0272E-14              YY= -1.7148E+01
                  YZ=  8.9449E-15              ZZ= -1.5635E+01
      In traceless form (Debye*Ang)
                  XX= -7.5671E-01              XY=  7.5845E-28              XZ=  7.5408E-14              YY= -7.5671E-01
                  YZ=  1.3417E-14              ZZ=  1.5134E+00
--
 
 
      Input file to MOLDEN was generated!
 
 ###############################################################################
 ###############################################################################
 ###                                                                         ###
 ###                                                                         ###
 ###    WARNING: RunFile label nBas                                          ###
 ###    was used       87 times                                              ###
 ###                                                                         ###
 ###                                                                         ###
 ###############################################################################
 ###############################################################################
--- Stop Module: scf at Thu Apr 25 14:01:50 2024 /rc=_RC_ALL_IS_WELL_ ---
*** files: 1.00.LprOrb 1.00.LoProp.molden 1.00.scf.molden 1.00.scf.h5 1.00.UhfOrb 1.00.UnaOrb xmldump
    saved to directory /home/grierjones/DDCASPT2/delta_ML/LiLi/1.00

*** symbolic link created: INPORB -> 1.00.UnaOrb
--- Start Module: mbpt2 at Thu Apr 25 14:01:50 2024 ---
 
()()()()()()()()()()()()()()()()()()()()()()()()()()()()()()()()()()()()()()()()()()()()()()()()()()

                                               &MBPT2

                                   only a single process is used
                       available to each process: 2.0 GB of memory, 1 thread?
                                            pid: 113715
()()()()()()()()()()()()()()()()()()()()()()()()()()()()()()()()()()()()()()()()()()()()()()()()()()
 
 
 ###############################################################################
 ###############################################################################
 ###                                                                         ###
 ###                                                                         ###
 ###    WARNING: MP2 implementation intended for RHF references only         ###
 ###                                                                         ###
 ###                                                                         ###
 ###############################################################################
 ###############################################################################
MBPT2 WARNING: Reference function according to RunFile:UHF-SCF 
I'll assume you know what you're doing and continue
 
 
WARNING!
Default frozen orbitals as non valence orbitals is overwritten by user input.
Default values:   2
 
 
      Cartesian coordinates in Angstrom:
      -----------------------------------------------------
      No.  Label        X            Y            Z        
      -----------------------------------------------------
       1   LI1        0.00000000   0.00000000   0.00000000
       2   LI2        0.00000000   0.00000000   1.00000000
      -----------------------------------------------------
      Nuclear repulsion energy =    4.76259490
 
      Contents of RUNFILE file:
      -------------------------
 
      Symmetry species                           1
                                                 a
      Number of basis functions                 10
      Frozen occupied orbitals                   0
      Active occupied orbitals                   3
      Active external orbitals                   7
      Deleted external orbitals                  0
 
 
      Energies of the active occupied orbitals
 
      symmetry species 1                    -2.858033     -2.570706     -0.223612
 
 
      Energies of the active external orbitals
 
      symmetry species 1                    -0.009246     -0.009246      0.017284      0.184954      0.184954
                                             0.194837      1.752707
 
 
      ********************************************************************************************************
      *                                               Results                                                *
      ********************************************************************************************************
 
 Conventional algorithm used...

       SCF energy                           =      -14.5736254123 a.u.
       Second-order correlation energy      =       -0.0185356149 a.u.

       Total energy                         =      -14.5921610272 a.u.
       Reference weight ( Cref**2 )         =        0.96807
 
::    Total MBPT2 energy                              -14.5921610272
 
 
       Zeroth-order energy (E0)             =       -6.5421071795 a.u.
 
       Shanks-type energy S1(E)             =      -14.5922039038 a.u.
 
 


       Data processing and timing information:

       Section                                              time(sec)
                                                          CPU  Elapsed

      Input data processing                              0.03      0.04
      Transformation of integrals                        0.00      0.01
      MBPT2 calculations (BJAI)                          0.00      0.00
      Total MBPT2 calculations                           0.03      0.05
 
 
--- Stop Module: mbpt2 at Thu Apr 25 14:01:50 2024 /rc=_RC_ALL_IS_WELL_ ---
*** files: xmldump
    saved to directory /home/grierjones/DDCASPT2/delta_ML/LiLi/1.00

*** symbolic link created: INPORB -> 1.00.UnaOrb
--- Start Module: rasscf at Thu Apr 25 14:01:50 2024 ---
 
()()()()()()()()()()()()()()()()()()()()()()()()()()()()()()()()()()()()()()()()()()()()()()()()()()

                                              &RASSCF

                                   only a single process is used
                       available to each process: 2.0 GB of memory, 1 thread?
                                            pid: 113718
()()()()()()()()()()()()()()()()()()()()()()()()()()()()()()()()()()()()()()()()()()()()()()()()()()
 
 
      Header of the ONEINT file:
      --------------------------
      
      Integrals generated by Gateway/Seward, Thu Apr 25 14:01:49 2024
 
 
      OrdInt status: non-squared
 
 
      Cartesian coordinates in Angstrom:
      -----------------------------------------------------
      No.  Label        X            Y            Z        
      -----------------------------------------------------
       1   LI1        0.00000000   0.00000000   0.00000000
       2   LI2        0.00000000   0.00000000   1.00000000
      -----------------------------------------------------
      Nuclear repulsion energy =    4.76259490
 
++    Wave function specifications:
      -----------------------------
 
      Number of closed shell electrons           4
      Number of electrons in active shells       2
      Max number of holes in RAS1 space          0
      Max nr of electrons in RAS3 space          0
      Number of inactive orbitals                2
      Number of active orbitals                  2
      Number of secondary orbitals               6
      Spin quantum number                      0.0
      State symmetry                             1
--
 
++    Orbital specifications:
      -----------------------
 
      Symmetry species                           1
                                                 a
      Frozen orbitals                            0
      Inactive orbitals                          2
      Active orbitals                            2
      RAS1 orbitals                              0
      RAS2 orbitals                              2
      RAS3 orbitals                              0
      Secondary orbitals                         6
      Deleted orbitals                           0
      Number of basis functions                 10
--
 
++    CI expansion specifications:
      ----------------------------
 
      Number of CSFs                             3
      Number of determinants                     3
      Number of root(s) required                 1
      Root chosen for geometry opt.              1
      CI root used                               1
         
      highest root included in the CI            1
      max. size of the explicit Hamiltonian      3
--
 
++    Optimization specifications:
      ----------------------------
 
      RASSCF algorithm: Conventional
      Maximum number of macro iterations       200
      Maximum number of SX iterations          100
      Threshold for RASSCF energy            1.000E-08
      Threshold for max MO rotation          1.000E-01
      Threshold for max BLB element          1.000E-04
      Level shift parameter                  5.000E-01
      Make Quasi-Newton update
--
 
      The MO-coefficients are taken from the file:
      /home/grierjones/DDCASPT2/delta_ML/LiLi/0.90/0.90.RasOrb                                                                                                                                                                                                        
      Title: RASSCF average (pseudo-natural) orbitals                                      
 
      Total molecular charge    0.00
 
      ************************************************************************************************************************
      *                                                                                                                      *
      *                                            Wave function control section                                             *
      *                                                                                                                      *
      ************************************************************************************************************************
 
 
                                         RASSCF iterations: Energy and convergence statistics
                                         ----------------------------------------------------
 
      Iter CI   SX   CI       RASSCF       Energy    max ROT     max BLB   max BLB  Level Ln srch  Step   QN   Walltime
          iter iter root      energy       change     param      element    value   shift minimum  type update hh:mm:ss
 Nr of preliminary CI iterations:   1
        1   1    4    1   -14.58896780    0.00E+00   3.75E-03    2  10 1 -3.36E-02*  0.34   0.00    SX    NO    0:00:00
        2   1    4    1   -14.58918515   -2.17E-04*  7.37E-04    2  10 1 -4.82E-03*  0.34   0.00    SX    NO    0:00:00
        3   1    3    1   -14.58919125   -6.10E-06*  2.89E-04    2  10 1 -7.17E-04*  0.34   0.00    SX    NO    0:00:00
        4   1    3    1   -14.58919158   -3.36E-07*  1.78E-04    3   9 1 -2.23E-04*  0.34   0.00    SX    NO    0:00:00
        5   1    3    1   -14.58919165   -6.93E-08*  2.30E-04    3   9 1 -1.35E-04*  0.34   2.29    LS   YES    0:00:00
        6   1    3    1   -14.58919169   -3.23E-08*  3.09E-05    1   9 1 -9.71E-05   0.34   1.00    QN   YES    0:00:00
        7   1    2    1   -14.58919169   -4.33E-09   1.02E-05    1   9 1 -2.53E-05   0.34   1.33    QN   YES    0:00:00
      Convergence after  7 iterations
        8   1    2    1   -14.58919169   -2.84E-10   1.02E-05    2  10 1 -4.73E-07   0.34   1.33    QN   YES    0:00:00
 
      ************************************************************************************************************************
                                                      Wave function printout:
                       occupation of active orbitals, and spin coupling of open shells (u,d: Spin up or down)
      ************************************************************************************************************************
 
      Note: transformation to natural orbitals
      has been made, which may change the order of the CSFs.
 
      printout of CI-coefficients larger than  0.05 for root  1
      energy=     -14.589192
      conf/sym  11     Coeff  Weight
             1  20  -0.94579 0.89452
             3  02   0.32477 0.10548
 
      Natural orbitals and occupation numbers for root  1
      sym 1:   1.789045   0.210955
 
      ************************************************************************************************************************
      *                                                                                                                      *
      *                                                    Final results                                                     *
      *                                                                                                                      *
      ************************************************************************************************************************
 
 
++    Wave function specifications:
      -----------------------------
 
      Number of closed shell electrons           4
      Number of electrons in active shells       2
      Max number of holes in RAS1 space          0
      Max nr of electrons in RAS3 space          0
      Number of inactive orbitals                2
      Number of active orbitals                  2
      Number of secondary orbitals               6
      Spin quantum number                      0.0
      State symmetry                             1
--
 
++    Orbital specifications:
      -----------------------
 
      Symmetry species                           1
                                                 a
      Frozen orbitals                            0
      Inactive orbitals                          2
      Active orbitals                            2
      RAS1 orbitals                              0
      RAS2 orbitals                              2
      RAS3 orbitals                              0
      Secondary orbitals                         6
      Deleted orbitals                           0
      Number of basis functions                 10
--
 
++    CI expansion specifications:
      ----------------------------
 
      Number of CSFs                             3
      Number of determinants                     3
      Number of root(s) required                 1
      CI root used                               1
      highest root included in the CI            1
      Root passed to geometry opt.               1
--
 
++    Final optimization conditions:
      ------------------------------
 
      Average CI energy                             -14.58919169
      RASSCF energy for state  1                    -14.58919169
      Super-CI energy                                -0.00000000
      RASSCF energy change                           -0.00000000
      Max change in MO coefficients               2.821E-05
      Max non-diagonal density matrix element     1.022E-05
      Maximum BLB matrix element                 -4.731E-07
      (orbital pair   2,  10 in symmetry   1)
      Norm of electronic gradient            5.410E-07
--
 
 
      Final state energy(ies):
      ------------------------
 
::    RASSCF root number  1 Total energy:    -14.58919169
 
++    Molecular orbitals:
      -------------------
 
      Pseudonatural active orbitals and approximate occupation numbers
 
 
 
 
      Molecular orbitals for symmetry species 1: a  
 
 
      Orbital                 1         2         3         4         5         6         7         8         9        10
      Energy            -2.8618   -2.5748   -0.2074   -0.0000   -0.0093    0.0176    0.1822    0.1823    0.1919    1.7493
      Occ. No.           2.0000    2.0000    1.7890    0.2110    0.0000    0.0000    0.0000    0.0000    0.0000    0.0000
 
     1 LI1    1s         0.6711   -0.7417   -0.0877   -0.0000   -0.0000    0.0233   -0.0000    0.0000    0.2983   -2.5197
     2 LI1    2s        -0.0003    0.0212    0.5114   -0.0000    0.0000   -0.4945   -0.0000    0.0000    0.2559  -10.4032
     3 LI1    2px       -0.0000   -0.0000   -0.0000    0.4738    0.1968    0.0000   -0.8553   -2.0596    0.0000   -0.0000
     4 LI1    2py        0.0000    0.0000    0.0000   -0.1968    0.4738    0.0000   -2.0596    0.8553   -0.0000    0.0000
     5 LI1    2pz        0.0083    0.0062    0.0440   -0.0000   -0.0000    0.4419    0.0000   -0.0000   -1.6046   -2.2721
     6 LI2    1s         0.6711    0.7417   -0.0877    0.0000   -0.0000   -0.0233   -0.0000    0.0000    0.2983    2.5197
     7 LI2    2s        -0.0003   -0.0212    0.5114    0.0000   -0.0000    0.4945   -0.0000    0.0000    0.2559   10.4032
     8 LI2    2px        0.0000    0.0000    0.0000    0.4738    0.1968   -0.0000    0.8553    2.0596   -0.0000    0.0000
     9 LI2    2py       -0.0000   -0.0000   -0.0000   -0.1968    0.4738    0.0000    2.0596   -0.8553    0.0000    0.0000
    10 LI2    2pz       -0.0083    0.0062   -0.0440    0.0000   -0.0000    0.4419   -0.0000    0.0000    1.6046   -2.2721
--
 
      Von Neumann Entropy (Root   1) =  0.48612
 

      Mulliken population analysis for root number:  1
      -----------------------------------------------
 
 
++    Molecular charges:
      ------------------
 
      Mulliken charges per centre and basis function type
      ---------------------------------------------------
 
                LI1     LI2   
      1s       1.9903  1.9903
      2s       0.8874  0.8874
      2px      0.0900  0.0900
      2pz      0.0168  0.0168
      2py      0.0155  0.0155
      Total    3.0000  3.0000
 
      N-E     -0.0000  0.0000
 
      Total electronic charge=    6.000000
 
      Total            charge=   -0.000000
--
 
 

      Expectation values of various properties for root number:  1
      -----------------------------------------------------------
 
 
++    Molecular properties:
      ---------------------
 
      Charge (e):
                      =   -0.0000
      Dipole Moment (Debye):
      Origin of the operator (Ang)=    0.0000    0.0000    0.0000
                   X=  9.5620E-14               Y=  1.7403E-14               Z=  1.5916E-12           Total=  1.5945E-12
      Quadrupole Moment (Debye*Ang):
      Origin of the operator (Ang)=    0.0000    0.0000    0.5000
                  XX= -1.9420E+01              XY=  1.0410E+00              XZ= -1.1781E-13              YY= -1.7345E+01
                  YZ=  2.4277E-14              ZZ= -1.4769E+01
      In traceless form (Debye*Ang)
                  XX= -3.3623E+00              XY=  1.5614E+00              XZ= -1.7672E-13              YY= -2.5089E-01
                  YZ=  3.6416E-14              ZZ=  3.6132E+00
--
 

      LoProp population analysis for root number:  1
      -----------------------------------------------
 
 
++    LoProp analysis:
      ----------------
 
 
 
      Input file to MOLDEN was generated!
 
 
++    Static properties:
      ------------------
 
 
      LoProp Charges per center
 

                   LI1      LI2   
      Nuclear      3.0000   3.0000
      Electronic  -3.0000  -3.0000
 
      Total       -0.0000   0.0000
--
 
 
      Natural Bond Order analysis for root number:  1
 
++    Natural Bond Order analysis
      ---------------------------
      Based on LoProp computed density
      -------------------------------------------------------------------------------------
      Atom A       Atom B       Bond Order
      -------------------------------------------------------------------------------------
      NBO located      0.999 non-bonded electrons on atom LI1       
      The remaining    2.458 electrons are to be considered as diffuse
--
 
--
 
 
      Input file to MOLDEN was generated!
 
      Average orbitals are written to the RASORB file
      Natural orbitals for root   1 are written to the RASORB.1 file
      Spin density orbitals for root   1 are written to the SPDORB.1 file
 
--- Stop Module: rasscf at Thu Apr 25 14:01:50 2024 /rc=_RC_ALL_IS_WELL_ ---
*** files: 1.00.LprOrb 1.00.rasscf.molden 1.00.LoProp.molden 1.00.RasOrb 1.00.RasOrb.1 1.00.rasscf.h5 1.00.SpdOrb.1 xmldump
    saved to directory /home/grierjones/DDCASPT2/delta_ML/LiLi/1.00

*** symbolic link created: INPORB -> 1.00.RasOrb
--- Start Module: caspt2 at Thu Apr 25 14:01:50 2024 ---
 
()()()()()()()()()()()()()()()()()()()()()()()()()()()()()()()()()()()()()()()()()()()()()()()()()()

                                              &CASPT2

                                   only a single process is used
                       available to each process: 2.0 GB of memory, 1 thread?
                                            pid: 113721
()()()()()()()()()()()()()()()()()()()()()()()()()()()()()()()()()()()()()()()()()()()()()()()()()()
 
 ###############################################################################
 ###############################################################################
 ###                                                                         ###
 ###                                                                         ###
 ###    WARNING: User changed nr of frozen orbitals.                         ###
 ###                                                                         ###
 ###                                                                         ###
 ###############################################################################
 ###############################################################################
 
++    Wave function specifications:
      -----------------------------
 
      Number of closed shell electrons           4
      Number of electrons in active shells       2
      Max number of holes in RAS1 space          0
      Max number of electrons in RAS3 space      0
      Number of inactive orbitals                2
      Number of active orbitals                  2
      Number of secondary orbitals               6
      Spin quantum number                      0.0
      State symmetry                             1
      Number of CSFs                             3
      Number of CASSCF root(s) available         1
      CASPT2 state passed to geometry opt.       1
      A file JOBMIX will be created
      This is a CASSCF or RASSCF reference function
--
 
++    Orbital specifications:
      -----------------------
 
      Symmetry species                           1
                                                 a
      Frozen orbitals                            0
      Inactive orbitals                          2
      Active orbitals                            2
      Secondary orbitals                         6
      Deleted orbitals                           0
      Number of basis functions                 10
--
 
++    CASPT2 specifications:
      ----------------------
 
      Type of calculation                        SS-CASPT2
      Fock operator                              state-specific
      IPEA shift                                 0.25
      Real shift                                 0.00
      Imaginary shift                            0.00
      The input orbitals will be transformed to quasi-canonical
--
 
--------------------------------------------------------------------------------
 Estimated memory requirements:
  POLY3 :                   250070
  RHS:                      250428
  SIGMA :                   250384
  PRPCTL:                        0
 Available workspace:    230392690
 
++ CASPT2 computation for group   1
 
********************************************************************************
 Multi-State initialization phase begins for group   1
--------------------------------------------------------------------------------
********************************************************************************
 Compute H0 matrices for state    1
--------------------------------------------------------------------------------
--------------------------------------------------------------------------------
 H0 matrices have been computed.
 
********************************************************************************
  CASPT2 EQUATION SOLUTION
--------------------------------------------------------------------------------
 
  Total nr of CASPT2 parameters:
   Before reduction:         518
   After  reduction:         358
 
 Variance of |WF0>:       0.0295448504
 
 The contributions to the second order correlation energy in atomic units.
-----------------------------------------------------------------------------------------------------------------------------
  IT.      VJTU        VJTI        ATVX        AIVX        VJAI        BVAT        BJAT        BJAI        TOTAL       RNORM  
-----------------------------------------------------------------------------------------------------------------------------
   1    -0.000000   -0.000001   -0.000000   -0.000014   -0.000062   -0.006590   -0.000286   -0.002906   -0.009858    0.000016
-----------------------------------------------------------------------------------------------------------------------------
 
  FINAL CASPT2 RESULT:
 
      Reference energy:         -14.5891916900
      E2 (Non-variational):      -0.0098591178
      E2 (Variational):          -0.0098591176
      Total energy:             -14.5990508075
      Residual norm:              0.0000000771
      Reference weight:           0.98741
 
      Contributions to the CASPT2 correlation energy
      Active & Virtual Only:         -0.0065908384
      One Inactive Excited:          -0.0003000374
      Two Inactive Excited:          -0.0029682420
 
 
++ Denominators, etc.
--------------------------------------------------------------------------------------------------------------
 Report on small energy denominators, large coefficients, and large energy contributions.
CASE  SYMM ACTIVE-MIX  NON-ACTIVE INDICES          DENOMINATOR     RHS VALUE       COEFFICIENT     CONTRIBUTION
ATVX     1  Mu1.0001  Se1.005                       0.29568166     -0.00000000      0.00000000     -0.00000000
BVATP    1  Mu1.0001  Se1.005 Se1.005               0.48280303     -0.03988153      0.08253975     -0.00329181
BVATP    1  Mu1.0001  Se1.006 Se1.006               0.53653972     -0.03610391      0.06729051     -0.00242945
--
 
   (Skipping property calculation,
    use PROP keyword to activate)
--
 
  Total CASPT2 energies:
::    CASPT2 Root  1     Total energy:    -14.59905081
 
  A NEW JOBIPH FILE NAMED 'JOBMIX' IS PREPARED.
********************************************************************************
--- Stop Module: caspt2 at Thu Apr 25 14:01:51 2024 /rc=_RC_ALL_IS_WELL_ ---
*** files: xmldump
    saved to directory /home/grierjones/DDCASPT2/delta_ML/LiLi/1.00

.##################.
.# Happy landing! #.
.##################.

    Timing: Wall=2.35 User=1.50 System=0.23
************************************
*** WorkDir at /tmp/1.00 removed ***
************************************
