[Molden Format]
[N_Atoms]
                     2
[Atoms] (AU)
LI1         1      3           0.00000000      0.00000000      0.00000000
LI2         2      3           0.00000000      0.00000000      1.88972612
[Charge] (Mulliken)
   1.00505312597921     
  0.994946874020791     
[GTO] (AU)
   1
   s  14
  9.497934400E+03  9.668999974E-05
  1.416811200E+03  6.087099984E-04
  3.214599400E+02  3.101519992E-03
  9.112416300E+01  1.266904997E-02
  2.999989100E+01  4.248012989E-02
  1.101763100E+01  1.150183297E-01
  4.372801000E+00  2.398650094E-01
  1.831256000E+00  3.584300090E-01
  8.022610000E-01  3.048527792E-01
  3.626480000E-01  8.824261976E-02
  1.139950000E-01 -8.445899977E-04
  5.123700000E-02 -7.943959979E-03
  2.246800000E-02 -3.764419990E-03
  7.860000000E-03 -8.868999976E-05
   s  14
  9.497934400E+03 -1.244999993E-05
  1.416811200E+03 -7.838999954E-05
  3.214599400E+02 -4.007099976E-04
  9.112416300E+01 -1.645249990E-03
  2.999989100E+01 -5.634599967E-03
  1.101763100E+01 -1.590780991E-02
  4.372801000E+00 -3.612581979E-02
  1.831256000E+00 -6.459927962E-02
  8.022610000E-01 -1.008321794E-01
  3.626480000E-01 -9.757613942E-02
  1.139950000E-01  2.301215886E-01
  5.123700000E-02  6.102389764E-01
  2.246800000E-02  2.849406083E-01
  7.860000000E-03  4.026899976E-03
   p   9
  1.311950400E+01  1.524940000E-03
  3.077424200E+00  8.314830000E-03
  1.098800500E+00  1.933203000E-02
  4.357784000E-01  4.934293000E-02
  1.802432000E-01  1.623554000E-01
  7.613330000E-02  3.847505400E-01
  3.254650000E-02  4.336100400E-01
  1.401820000E-02  1.287005900E-01
  4.906400000E-03 -1.018520000E-03
 
   2
   s  14
  9.497934400E+03  9.668999974E-05
  1.416811200E+03  6.087099984E-04
  3.214599400E+02  3.101519992E-03
  9.112416300E+01  1.266904997E-02
  2.999989100E+01  4.248012989E-02
  1.101763100E+01  1.150183297E-01
  4.372801000E+00  2.398650094E-01
  1.831256000E+00  3.584300090E-01
  8.022610000E-01  3.048527792E-01
  3.626480000E-01  8.824261976E-02
  1.139950000E-01 -8.445899977E-04
  5.123700000E-02 -7.943959979E-03
  2.246800000E-02 -3.764419990E-03
  7.860000000E-03 -8.868999976E-05
   s  14
  9.497934400E+03 -1.244999993E-05
  1.416811200E+03 -7.838999954E-05
  3.214599400E+02 -4.007099976E-04
  9.112416300E+01 -1.645249990E-03
  2.999989100E+01 -5.634599967E-03
  1.101763100E+01 -1.590780991E-02
  4.372801000E+00 -3.612581979E-02
  1.831256000E+00 -6.459927962E-02
  8.022610000E-01 -1.008321794E-01
  3.626480000E-01 -9.757613942E-02
  1.139950000E-01  2.301215886E-01
  5.123700000E-02  6.102389764E-01
  2.246800000E-02  2.849406083E-01
  7.860000000E-03  4.026899976E-03
   p   9
  1.311950400E+01  1.524940000E-03
  3.077424200E+00  8.314830000E-03
  1.098800500E+00  1.933203000E-02
  4.357784000E-01  4.934293000E-02
  1.802432000E-01  1.623554000E-01
  7.613330000E-02  3.847505400E-01
  3.254650000E-02  4.336100400E-01
  1.401820000E-02  1.287005900E-01
  4.906400000E-03 -1.018520000E-03
 
[MO]
Sym=     1a  
Ene=    -3.3604
Spin= Alpha
Occup=    2.00000
   1         0.12115968
   2         0.00278242
   3        -0.00000000
   4        -0.00000000
   5         0.00780057
   6         0.97763309
   7        -0.00022052
   8        -0.00000000
   9         0.00000000
  10        -0.00642648
Sym=     2a  
Ene=    -3.2627
Spin= Alpha
Occup=    1.99955
   1        -0.99408486
   2         0.00896373
   3         0.00000000
   4        -0.00000000
   5        -0.00277671
   6         0.22474108
   7        -0.01101123
   8         0.00000000
   9        -0.00000000
  10         0.00853060
Sym=     3a  
Ene=    -0.0103
Spin= Alpha
Occup=    0.00045
   1        -2.29263082
   2        -8.72098252
   3        -0.00000000
   4        -0.00000000
   5        -1.47214614
   6         2.02838847
   7         8.87409532
   8        -0.00000000
   9        -0.00000000
  10        -2.60515994
Sym=     4a  
Ene=    -0.3908
Spin= Alpha
Occup=    0.00000
   1         0.17974147
   2         0.90540325
   3         0.00000000
   4         0.00000000
   5         0.15814806
   6        -0.20898485
   7        -0.00954055
   8         0.00000000
   9         0.00000000
  10         0.69033776
Sym=     5a  
Ene=    -0.3825
Spin= Alpha
Occup=    0.00000
   1        -0.00000000
   2        -0.00000000
   3         0.17789615
   4         0.48155229
   5        -0.00000000
   6         0.00000000
   7        -0.00000000
   8         0.17768804
   9         0.48098896
  10        -0.00000000
Sym=     6a  
Ene=    -0.3825
Spin= Alpha
Occup=    0.00000
   1         0.00000000
   2         0.00000000
   3        -0.48155229
   4         0.17789615
   5         0.00000000
   6        -0.00000000
   7         0.00000000
   8        -0.48098896
   9         0.17768804
  10         0.00000000
Sym=     7a  
Ene=    -0.2958
Spin= Alpha
Occup=    0.00000
   1        -0.32715770
   2        -1.51948995
   3         0.00000000
   4         0.00000000
   5         1.06845313
   6         0.04089055
   7         0.82568259
   8         0.00000000
   9         0.00000000
  10        -0.80689429
Sym=     8a  
Ene=    -0.2179
Spin= Alpha
Occup=    0.00000
   1        -0.00000000
   2        -0.00000000
   3        -2.22703673
   4         0.11659905
   5        -0.00000000
   6         0.00000000
   7         0.00000000
   8         2.22717470
   9        -0.11660628
  10         0.00000000
Sym=     9a  
Ene=    -0.2179
Spin= Alpha
Occup=    0.00000
   1        -0.00000000
   2         0.00000000
   3        -0.11659905
   4        -2.22703673
   5         0.00000000
   6        -0.00000000
   7        -0.00000000
   8         0.11660628
   9         2.22717470
  10        -0.00000000
Sym=    10a  
Ene=     0.1036
Spin= Alpha
Occup=    0.00000
   1        -1.02391428
   2        -5.44188221
   3         0.00000000
   4         0.00000000
   5        -2.14486637
   6         1.51023129
   7         5.41911240
   8         0.00000000
   9         0.00000000
  10         0.14042950
