[Molden Format]
[N_Atoms]
                     2
[Atoms] (AU)
C1          1      6           0.00000000      0.00000000      0.00000000
F2          2      9           0.00000000      0.00000000      4.53534270
[Charge] (Mulliken)
  4.982648682175217E-002
 -4.982648682179303E-002
[GTO] (AU)
   1
   s  14
  5.055750100E+04  1.128874000E-04
  7.524785600E+03  5.295373000E-04
  1.694327600E+03  2.450038300E-03
  4.728227900E+02  1.005398470E-02
  1.517107500E+02  3.545398060E-02
  5.391874600E+01  1.044071086E-01
  2.065931100E+01  2.412894918E-01
  8.383976000E+00  3.834225483E-01
  3.577015000E+00  3.078514393E-01
  1.547118000E+00  6.872442990E-02
  6.130130000E-01  2.224445000E-04
  2.460680000E-01  1.976748900E-03
  9.908700000E-02  2.057859400E-03
  3.468000000E-02  4.182020000E-04
   s  14
  5.055750100E+04 -2.507420000E-05
  7.524785600E+03 -1.175945000E-04
  1.694327600E+03 -5.456275000E-04
  4.728227900E+02 -2.245077100E-03
  1.517107500E+02 -8.043471800E-03
  5.391874600E+01 -2.442588710E-02
  2.065931100E+01 -6.136791180E-02
  8.383976000E+00 -1.177767835E-01
  3.577015000E+00 -1.550487783E-01
  1.547118000E+00 -1.933316860E-02
  6.130130000E-01  3.996930678E-01
  2.460680000E-01  5.589420949E-01
  9.908700000E-02  1.711195023E-01
  3.468000000E-02  7.456244600E-03
   p   9
  8.333315500E+01  1.344656000E-03
  1.955761100E+01  1.023555500E-02
  6.080365000E+00  4.520067100E-02
  2.179317000E+00  1.410756198E-01
  8.651500000E-01  3.047388085E-01
  3.619440000E-01  3.995281011E-01
  1.547400000E-01  2.719163432E-01
  6.542900000E-02  5.857669330E-02
  2.290000000E-02 -1.263813000E-04
 
   2
   s  14
  1.031094600E+05  1.713099991E-04
  1.528100700E+04  7.123999962E-04
  3.441539200E+03  2.990479984E-03
  9.670948300E+02  1.164036994E-02
  3.140353400E+02  3.968642979E-02
  1.134423000E+02  1.128546094E-01
  4.464472700E+01  2.473650687E-01
  1.894287400E+01  3.672702681E-01
  8.532743000E+00  2.896286985E-01
  3.919401000E+00  7.786681959E-02
  1.568157000E+00  4.562139976E-03
  6.232900000E-01  2.468879987E-03
  2.408610000E-01  1.106309994E-03
  8.430100000E-02  1.739699991E-04
   s  14
  1.031094600E+05 -4.044999995E-05
  1.528100700E+04 -1.682299998E-04
  3.441539200E+03 -7.084299991E-04
  9.670948300E+02 -2.767999996E-03
  3.140353400E+02 -9.611379987E-03
  1.134423000E+02 -2.833957996E-02
  4.464472700E+01 -6.839343991E-02
  1.894287400E+01 -1.237379298E-01
  8.532743000E+00 -1.512859698E-01
  3.919401000E+00 -9.099909988E-03
  1.568157000E+00  3.716257695E-01
  6.232900000E-01  5.500214393E-01
  2.408610000E-01  2.092318697E-01
  8.430100000E-02  8.074639989E-03
   p   9
  2.453302900E+02  1.024860004E-03
  5.691900500E+01  8.344290032E-03
  1.760456800E+01  4.078927016E-02
  6.274995000E+00  1.351370605E-01
  2.447030000E+00  2.798830811E-01
  9.950600000E-01  3.597966414E-01
  4.039730000E-01  3.055347412E-01
  1.548100000E-01  1.354703905E-01
  5.418400000E-02  2.804449011E-02
 
[MO]
Sym=     1a  
Ene=   -26.3750
Spin= Alpha
Occup=    1.00000
   1        -0.00000328
   2        -0.00003747
   3        -0.00000000
   4        -0.00000000
   5        -0.00002976
   6         0.99999180
   7        -0.00411723
   8         0.00000000
   9        -0.00000000
  10        -0.00004558
Sym=     1a  
Ene=   -26.4160
Spin= Beta
Occup=    1.00000
   1        -0.00000574
   2        -0.00008556
   3        -0.00000000
   4        -0.00000000
   5        -0.00010662
   6         0.99999791
   7        -0.00244738
   8         0.00000000
   9        -0.00000000
  10        -0.00006866
Sym=     2a  
Ene=   -11.2920
Spin= Alpha
Occup=    1.00000
   1         1.00000174
   2        -0.00006016
   3         0.00000000
   4        -0.00000000
   5         0.00012508
   6        -0.00003171
   7        -0.00031908
   8        -0.00000000
   9        -0.00000000
  10         0.00022998
Sym=     2a  
Ene=   -11.2460
Spin= Beta
Occup=    1.00000
   1         0.99998847
   2        -0.00495329
   3         0.00000000
   4         0.00000000
   5         0.00011825
   6        -0.00001852
   7        -0.00017367
   8        -0.00000000
   9        -0.00000000
  10         0.00010251
Sym=     3a  
Ene=    -1.4887
Spin= Alpha
Occup=    1.00000
   1        -0.00071109
   2         0.01590831
   3        -0.00000000
   4        -0.00000000
   5         0.01390224
   6         0.00398598
   7         0.99791548
   8        -0.00000000
   9         0.00000000
  10         0.00381643
Sym=     3a  
Ene=    -1.6558
Spin= Beta
Occup=    1.00000
   1        -0.00070341
   2         0.00266845
   3        -0.00000000
   4         0.00000000
   5         0.00100127
   6         0.00244633
   7         0.99976830
   8        -0.00000000
   9         0.00000000
  10        -0.00700121
Sym=     4a  
Ene=    -0.8106
Spin= Alpha
Occup=    1.00000
   1        -0.00011709
   2         0.99636648
   3         0.00000000
   4        -0.00000000
   5        -0.00238738
   6        -0.00258148
   7        -0.05724915
   8         0.00000000
   9        -0.00000000
  10        -0.04051417
Sym=     4a  
Ene=    -0.8104
Spin= Beta
Occup=    1.00000
   1         0.00549985
   2        -0.07527820
   3        -0.00000000
   4         0.00000000
   5        -0.00871007
   6         0.00031330
   7         0.01145116
   8         0.00000000
   9         0.00000000
  10         0.98951252
Sym=     5a  
Ene=    -0.6768
Spin= Alpha
Occup=    1.00000
   1        -0.00000000
   2         0.00000000
   3         0.02679695
   4         0.01214688
   5        -0.00000000
   6         0.00000000
   7         0.00000000
   8         0.90939682
   9         0.41222358
  10        -0.00000000
Sym=     5a  
Ene=    -0.7190
Spin= Beta
Occup=    1.00000
   1         0.00000000
   2        -0.00000000
   3        -0.00105488
   4         0.00232714
   5         0.00000000
   6         0.00000000
   7        -0.00000000
   8        -0.41281672
   9         0.91070533
  10         0.00000000
Sym=     6a  
Ene=    -0.6764
Spin= Alpha
Occup=    1.00000
   1        -0.00000000
   2        -0.00000000
   3        -0.00295669
   4         0.00652268
   5        -0.00000000
   6         0.00000000
   7        -0.00000000
   8        -0.41273616
   9         0.91052762
  10        -0.00000000
Sym=     6a  
Ene=    -0.7183
Spin= Beta
Occup=    1.00000
   1         0.00000000
   2        -0.00000000
   3        -0.00133156
   4        -0.00060359
   5         0.00000000
   6         0.00000000
   7        -0.00000000
   8        -0.91074466
   9        -0.41283455
  10         0.00000000
Sym=     7a  
Ene=    -0.4264
Spin= Alpha
Occup=    1.00000
   1         0.00000000
   2         0.00000000
   3         0.91104282
   4         0.41296970
   5        -0.00000000
   6         0.00000000
   7         0.00000000
   8        -0.06094683
   9        -0.02762679
  10         0.00000000
Sym=     7a  
Ene=    -0.5730
Spin= Beta
Occup=    1.00000
   1        -0.00598391
   2        -1.00205165
   3        -0.00000000
   4         0.00000000
   5        -0.00233907
   6         0.00251436
   7         0.04461126
   8         0.00000000
   9        -0.00000000
  10        -0.16387905
Sym=     8a  
Ene=    -0.4229
Spin= Alpha
Occup=    1.00000
   1        -0.00105684
   2        -0.02049914
   3         0.00000000
   4        -0.00000000
   5         0.97045592
   6        -0.00658301
   7        -0.09446862
   8        -0.00000000
   9        -0.00000000
  10        -0.16875733
Sym=     8a  
Ene=     0.1489
Spin= Beta
Occup=    0.00000
   1         0.00000000
   2         0.00000000
   3        -0.41314696
   4         0.91143386
   5         0.00000000
   6        -0.00000000
   7        -0.00000000
   8         0.01654925
   9        -0.03650890
  10         0.00000000
Sym=     9a  
Ene=     0.0892
Spin= Alpha
Occup=    0.00000
   1        -0.00000000
   2        -0.00000000
   3        -0.41313772
   4         0.91141349
   5         0.00000000
   6        -0.00000000
   7        -0.00000000
   8         0.01844937
   9        -0.04070072
  10        -0.00000000
Sym=     9a  
Ene=     0.2111
Spin= Beta
Occup=    0.00000
   1        -0.00000000
   2        -0.00000000
   3         0.91143586
   4         0.41314786
   5        -0.00000000
   6         0.00000000
   7         0.00000000
   8        -0.03551409
   9        -0.01609830
  10        -0.00000000
Sym=    10a  
Ene=     0.0988
Spin= Alpha
Occup=    0.00000
   1         0.00623966
   2         0.12846526
   3        -0.00000000
   4         0.00000000
   5         0.27998832
   6        -0.00221272
   7        -0.03591402
   8        -0.00000000
   9         0.00000000
  10         0.99539467
Sym=    10a  
Ene=     0.2175
Spin= Beta
Occup=    0.00000
   1        -0.00074572
   2        -0.01080696
   3        -0.00000000
   4         0.00000000
   5        -1.01009642
   6         0.00679485
   7         0.08763550
   8         0.00000000
   9        -0.00000000
  10        -0.12208690
