[Molden Format]
[N_Atoms]
                     2
[Atoms] (AU)
BE1         1      4           0.00000000      0.00000000      0.00000000
BE2         2      4           0.00000000      0.00000000      3.02356180
[Charge] (Mulliken)
  6.390443729742401E-013
 -6.474820679613913E-013
[GTO] (AU)
   1
   s  14
  2.262859900E+04  8.443999941E-05
  3.372318100E+03  4.601499968E-04
  7.603504000E+02  2.285389984E-03
  2.117404800E+02  9.648129932E-03
  6.722346800E+01  3.494469975E-02
  2.337217700E+01  1.061099893E-01
  8.721373000E+00  2.458240383E-01
  3.468091000E+00  3.862428773E-01
  1.452144000E+00  3.105526078E-01
  6.086150000E-01  6.415933955E-02
  2.576860000E-01 -2.265049984E-03
  1.041760000E-01 -5.217499963E-04
  4.242700000E-02 -8.757499938E-04
  1.484900000E-02  1.242199991E-04
   s  14
  2.262859900E+04 -1.586999994E-05
  3.372318100E+03 -8.656999968E-05
  7.603504000E+02 -4.302199984E-04
  2.117404800E+02 -1.825079993E-03
  6.722346800E+01 -6.682749976E-03
  2.337217700E+01 -2.095119992E-02
  8.721373000E+00 -5.200308981E-02
  3.468091000E+00 -9.849176964E-02
  1.452144000E+00 -1.355800695E-01
  6.086150000E-01 -6.429875976E-02
  2.576860000E-01  3.125414989E-01
  1.041760000E-01  6.270468577E-01
  4.242700000E-02  2.110231492E-01
  1.484900000E-02 -4.104669985E-03
   p   9
  3.371018400E+01  1.069960000E-03
  8.057649500E+00  6.828550001E-03
  2.836471400E+00  2.119065000E-02
  1.099965700E+00  5.843696001E-02
  4.433964000E-01  2.020920800E-01
  1.822264000E-01  4.582953101E-01
  7.572410000E-02  3.691239601E-01
  3.168540000E-02  6.611471001E-02
  1.108990000E-02  1.405160000E-03
 
   2
   s  14
  2.262859900E+04  8.443999941E-05
  3.372318100E+03  4.601499968E-04
  7.603504000E+02  2.285389984E-03
  2.117404800E+02  9.648129932E-03
  6.722346800E+01  3.494469975E-02
  2.337217700E+01  1.061099893E-01
  8.721373000E+00  2.458240383E-01
  3.468091000E+00  3.862428773E-01
  1.452144000E+00  3.105526078E-01
  6.086150000E-01  6.415933955E-02
  2.576860000E-01 -2.265049984E-03
  1.041760000E-01 -5.217499963E-04
  4.242700000E-02 -8.757499938E-04
  1.484900000E-02  1.242199991E-04
   s  14
  2.262859900E+04 -1.586999994E-05
  3.372318100E+03 -8.656999968E-05
  7.603504000E+02 -4.302199984E-04
  2.117404800E+02 -1.825079993E-03
  6.722346800E+01 -6.682749976E-03
  2.337217700E+01 -2.095119992E-02
  8.721373000E+00 -5.200308981E-02
  3.468091000E+00 -9.849176964E-02
  1.452144000E+00 -1.355800695E-01
  6.086150000E-01 -6.429875976E-02
  2.576860000E-01  3.125414989E-01
  1.041760000E-01  6.270468577E-01
  4.242700000E-02  2.110231492E-01
  1.484900000E-02 -4.104669985E-03
   p   9
  3.371018400E+01  1.069960000E-03
  8.057649500E+00  6.828550001E-03
  2.836471400E+00  2.119065000E-02
  1.099965700E+00  5.843696001E-02
  4.433964000E-01  2.020920800E-01
  1.822264000E-01  4.582953101E-01
  7.572410000E-02  3.691239601E-01
  3.168540000E-02  6.611471001E-02
  1.108990000E-02  1.405160000E-03
 
[MO]
Sym=     1a  
Ene=    -4.7393
Spin= Alpha
Occup=    2.00000
   1         0.70632773
   2         0.00259839
   3        -0.00000000
   4         0.00000000
   5         0.00112479
   6         0.70632773
   7         0.00259839
   8         0.00000000
   9        -0.00000000
  10        -0.00112479
Sym=     2a  
Ene=    -4.7352
Spin= Alpha
Occup=    2.00000
   1        -0.70756815
   2        -0.00174216
   3         0.00000000
   4        -0.00000000
   5         0.00019951
   6         0.70756815
   7         0.00174216
   8         0.00000000
   9        -0.00000000
  10         0.00019951
Sym=     3a  
Ene=    -0.4306
Spin= Alpha
Occup=    2.00000
   1        -0.08472438
   2         0.47568435
   3         0.00000000
   4        -0.00000000
   5         0.19974928
   6        -0.08472438
   7         0.47568435
   8        -0.00000000
   9         0.00000000
  10        -0.19974928
Sym=     4a  
Ene=    -0.0768
Spin= Alpha
Occup=    0.80742
   1        -0.03621766
   2        -0.79192082
   3        -0.00000000
   4         0.00000000
   5         0.24948621
   6         0.03621766
   7         0.79192082
   8        -0.00000000
   9         0.00000000
  10         0.24948621
Sym=     5a  
Ene=     0.0000
Spin= Alpha
Occup=    1.19258
   1         0.00000000
   2         0.00000000
   3         0.55271016
   4         0.16128338
   5        -0.00000000
   6        -0.00000000
   7        -0.00000000
   8         0.55271016
   9         0.16128338
  10        -0.00000000
Sym=     6a  
Ene=     0.0206
Spin= Alpha
Occup=    0.00000
   1        -0.00000000
   2         0.00000000
   3        -0.16128338
   4         0.55271016
   5        -0.00000000
   6         0.00000000
   7        -0.00000000
   8        -0.16128338
   9         0.55271016
  10        -0.00000000
Sym=     7a  
Ene=     0.0699
Spin= Alpha
Occup=    0.00000
   1         0.08189603
   2         0.37147547
   3         0.00000000
   4        -0.00000000
   5        -0.71230132
   6         0.08189603
   7         0.37147547
   8        -0.00000000
   9         0.00000000
  10         0.71230132
Sym=     8a  
Ene=     0.2232
Spin= Alpha
Occup=    0.00000
   1         0.00000000
   2        -0.00000000
   3        -0.96802458
   4        -0.28247404
   5        -0.00000000
   6         0.00000000
   7        -0.00000000
   8         0.96802458
   9         0.28247404
  10         0.00000000
Sym=     9a  
Ene=     0.2353
Spin= Alpha
Occup=    0.00000
   1        -0.00000000
   2        -0.00000000
   3         0.28247404
   4        -0.96802458
   5         0.00000000
   6        -0.00000000
   7        -0.00000000
   8        -0.28247404
   9         0.96802458
  10        -0.00000000
Sym=    10a  
Ene=     0.7184
Spin= Alpha
Occup=    0.00000
   1        -0.61808147
   2        -2.90662024
   3         0.00000000
   4        -0.00000000
   5        -1.95749199
   6         0.61808147
   7         2.90662024
   8         0.00000000
   9        -0.00000000
  10        -1.95749199
