[Molden Format]
[N_Atoms]
                     2
[Atoms] (AU)
BE1         1      4           0.00000000      0.00000000      0.00000000
BE2         2      4           0.00000000      0.00000000      3.02356180
[Charge] (Mulliken)
   1.00000000000065     
  0.999999999999347     
[GTO] (AU)
   1
   s  14
  2.262859900E+04  8.443999941E-05
  3.372318100E+03  4.601499968E-04
  7.603504000E+02  2.285389984E-03
  2.117404800E+02  9.648129932E-03
  6.722346800E+01  3.494469975E-02
  2.337217700E+01  1.061099893E-01
  8.721373000E+00  2.458240383E-01
  3.468091000E+00  3.862428773E-01
  1.452144000E+00  3.105526078E-01
  6.086150000E-01  6.415933955E-02
  2.576860000E-01 -2.265049984E-03
  1.041760000E-01 -5.217499963E-04
  4.242700000E-02 -8.757499938E-04
  1.484900000E-02  1.242199991E-04
   s  14
  2.262859900E+04 -1.586999994E-05
  3.372318100E+03 -8.656999968E-05
  7.603504000E+02 -4.302199984E-04
  2.117404800E+02 -1.825079993E-03
  6.722346800E+01 -6.682749976E-03
  2.337217700E+01 -2.095119992E-02
  8.721373000E+00 -5.200308981E-02
  3.468091000E+00 -9.849176964E-02
  1.452144000E+00 -1.355800695E-01
  6.086150000E-01 -6.429875976E-02
  2.576860000E-01  3.125414989E-01
  1.041760000E-01  6.270468577E-01
  4.242700000E-02  2.110231492E-01
  1.484900000E-02 -4.104669985E-03
   p   9
  3.371018400E+01  1.069960000E-03
  8.057649500E+00  6.828550001E-03
  2.836471400E+00  2.119065000E-02
  1.099965700E+00  5.843696001E-02
  4.433964000E-01  2.020920800E-01
  1.822264000E-01  4.582953101E-01
  7.572410000E-02  3.691239601E-01
  3.168540000E-02  6.611471001E-02
  1.108990000E-02  1.405160000E-03
 
   2
   s  14
  2.262859900E+04  8.443999941E-05
  3.372318100E+03  4.601499968E-04
  7.603504000E+02  2.285389984E-03
  2.117404800E+02  9.648129932E-03
  6.722346800E+01  3.494469975E-02
  2.337217700E+01  1.061099893E-01
  8.721373000E+00  2.458240383E-01
  3.468091000E+00  3.862428773E-01
  1.452144000E+00  3.105526078E-01
  6.086150000E-01  6.415933955E-02
  2.576860000E-01 -2.265049984E-03
  1.041760000E-01 -5.217499963E-04
  4.242700000E-02 -8.757499938E-04
  1.484900000E-02  1.242199991E-04
   s  14
  2.262859900E+04 -1.586999994E-05
  3.372318100E+03 -8.656999968E-05
  7.603504000E+02 -4.302199984E-04
  2.117404800E+02 -1.825079993E-03
  6.722346800E+01 -6.682749976E-03
  2.337217700E+01 -2.095119992E-02
  8.721373000E+00 -5.200308981E-02
  3.468091000E+00 -9.849176964E-02
  1.452144000E+00 -1.355800695E-01
  6.086150000E-01 -6.429875976E-02
  2.576860000E-01  3.125414989E-01
  1.041760000E-01  6.270468577E-01
  4.242700000E-02  2.110231492E-01
  1.484900000E-02 -4.104669985E-03
   p   9
  3.371018400E+01  1.069960000E-03
  8.057649500E+00  6.828550001E-03
  2.836471400E+00  2.119065000E-02
  1.099965700E+00  5.843696001E-02
  4.433964000E-01  2.020920800E-01
  1.822264000E-01  4.582953101E-01
  7.572410000E-02  3.691239601E-01
  3.168540000E-02  6.611471001E-02
  1.108990000E-02  1.405160000E-03
 
[MO]
Sym=     1a  
Ene=    -5.4191
Spin= Alpha
Occup=    2.00000
   1         0.70757052
   2        -0.00290180
   3        -0.00000000
   4        -0.00000000
   5        -0.00310416
   6         0.70757052
   7        -0.00290180
   8        -0.00000000
   9         0.00000000
  10         0.00310416
Sym=     2a  
Ene=    -5.4157
Spin= Alpha
Occup=    2.00000
   1        -0.70664717
   2         0.00309558
   3        -0.00000000
   4         0.00000000
   5         0.00281365
   6         0.70664717
   7        -0.00309558
   8         0.00000000
   9         0.00000000
  10         0.00281365
Sym=     3a  
Ene=    -0.9851
Spin= Alpha
Occup=    1.96959
   1        -0.08835849
   2         0.40242619
   3        -0.00000000
   4         0.00000000
   5         0.32265098
   6        -0.08835849
   7         0.40242619
   8         0.00000000
   9        -0.00000000
  10        -0.32265098
Sym=     4a  
Ene=     0.0000
Spin= Alpha
Occup=    0.03041
   1         0.00000000
   2         0.00000000
   3        -0.06805593
   4         0.57172479
   5         0.00000000
   6        -0.00000000
   7        -0.00000000
   8        -0.06805593
   9         0.57172479
  10         0.00000000
Sym=     5a  
Ene=    -0.4949
Spin= Alpha
Occup=    0.00000
   1         0.00000000
   2        -0.00000000
   3         0.57172479
   4         0.06805593
   5         0.00000000
   6        -0.00000000
   7         0.00000000
   8         0.57172479
   9         0.06805593
  10         0.00000000
Sym=     6a  
Ene=    -0.4858
Spin= Alpha
Occup=    0.00000
   1         0.01078624
   2         0.66924595
   3         0.00000000
   4        -0.00000000
   5        -0.33141401
   6        -0.01078624
   7        -0.66924595
   8         0.00000000
   9        -0.00000000
  10        -0.33141401
Sym=     7a  
Ene=    -0.4379
Spin= Alpha
Occup=    0.00000
   1         0.06573264
   2         0.44980119
   3         0.00000000
   4         0.00000000
   5        -0.66570333
   6         0.06573264
   7         0.44980119
   8        -0.00000000
   9         0.00000000
  10         0.66570333
Sym=     8a  
Ene=    -0.2926
Spin= Alpha
Occup=    0.00000
   1        -0.00000000
   2         0.00000000
   3         0.11919414
   4        -1.00132708
   5         0.00000000
   6        -0.00000000
   7         0.00000000
   8        -0.11919414
   9         1.00132708
  10        -0.00000000
Sym=     9a  
Ene=    -0.2923
Spin= Alpha
Occup=    0.00000
   1         0.00000000
   2        -0.00000000
   3        -1.00132708
   4        -0.11919414
   5        -0.00000000
   6        -0.00000000
   7        -0.00000000
   8         1.00132708
   9         0.11919414
  10         0.00000000
Sym=    10a  
Ene=     0.1434
Spin= Alpha
Occup=    0.00000
   1        -0.62009882
   2        -2.93729180
   3        -0.00000000
   4         0.00000000
   5        -1.94529564
   6         0.62009882
   7         2.93729180
   8        -0.00000000
   9         0.00000000
  10        -1.94529564
