[Molden Format]
[N_Atoms]
                     2
[Atoms] (AU)
B1          1      5           0.00000000      0.00000000      0.00000000
BE2         2      4           0.00000000      0.00000000      2.64561657
[Charge] (Mulliken)
 -0.207322616282496     
  0.207322616282492     
[GTO] (AU)
   1
   s  14
  3.336021700E+04  1.039699991E-04
  4.972095200E+03  5.254399956E-04
  1.125641700E+03  2.509059979E-03
  3.164913600E+02  1.031887991E-02
  1.020072600E+02  3.636632969E-02
  3.629587300E+01  1.064607991E-01
  1.397141000E+01  2.403999880E-01
  5.741156000E+00  3.748581168E-01
  2.494268000E+00  3.100066974E-01
  1.114202000E+00  7.922455933E-02
  4.215490000E-01 -4.947589958E-03
  1.696330000E-01 -7.737119935E-03
  6.853500000E-02 -1.501079987E-03
  2.398700000E-02 -1.333299989E-04
   s  14
  3.336021700E+04 -2.030000008E-05
  4.972095200E+03 -1.025700004E-04
  1.125641700E+03 -4.911300020E-04
  3.164913600E+02 -2.026570008E-03
  1.020072600E+02 -7.261010030E-03
  3.629587300E+01 -2.197722009E-02
  1.397141000E+01 -5.408428022E-02
  5.741156000E+00 -1.022402604E-01
  2.494268000E+00 -1.423595206E-01
  1.114202000E+00 -4.658690019E-02
  4.215490000E-01  3.799402916E-01
  1.696330000E-01  5.890463624E-01
  6.853500000E-02  1.749075107E-01
  2.398700000E-02 -1.142030005E-03
   p   9
  5.500000000E+01  1.229800005E-03
  1.336610100E+01  8.827380035E-03
  4.135394000E+00  3.843340015E-02
  1.481256000E+00  1.150031805E-01
  6.021360000E-01  2.733674011E-01
  2.556360000E-01  4.061972116E-01
  1.111510000E-01  3.014967912E-01
  4.764800000E-02  7.684809030E-02
  1.667700000E-02 -8.170000032E-06
 
   2
   s  14
  2.262859900E+04  8.443999941E-05
  3.372318100E+03  4.601499968E-04
  7.603504000E+02  2.285389984E-03
  2.117404800E+02  9.648129932E-03
  6.722346800E+01  3.494469975E-02
  2.337217700E+01  1.061099893E-01
  8.721373000E+00  2.458240383E-01
  3.468091000E+00  3.862428773E-01
  1.452144000E+00  3.105526078E-01
  6.086150000E-01  6.415933955E-02
  2.576860000E-01 -2.265049984E-03
  1.041760000E-01 -5.217499963E-04
  4.242700000E-02 -8.757499938E-04
  1.484900000E-02  1.242199991E-04
   s  14
  2.262859900E+04 -1.586999994E-05
  3.372318100E+03 -8.656999968E-05
  7.603504000E+02 -4.302199984E-04
  2.117404800E+02 -1.825079993E-03
  6.722346800E+01 -6.682749976E-03
  2.337217700E+01 -2.095119992E-02
  8.721373000E+00 -5.200308981E-02
  3.468091000E+00 -9.849176964E-02
  1.452144000E+00 -1.355800695E-01
  6.086150000E-01 -6.429875976E-02
  2.576860000E-01  3.125414989E-01
  1.041760000E-01  6.270468577E-01
  4.242700000E-02  2.110231492E-01
  1.484900000E-02 -4.104669985E-03
   p   9
  3.371018400E+01  1.069960000E-03
  8.057649500E+00  6.828550001E-03
  2.836471400E+00  2.119065000E-02
  1.099965700E+00  5.843696001E-02
  4.433964000E-01  2.020920800E-01
  1.822264000E-01  4.582953101E-01
  7.572410000E-02  3.691239601E-01
  3.168540000E-02  6.611471001E-02
  1.108990000E-02  1.405160000E-03
 
[MO]
Sym=     1a  
Ene=    -7.6643
Spin= Alpha
Occup=    1.00000
   1         1.00001935
   2         0.01641555
   3        -0.00000000
   4        -0.00000000
   5         0.00054347
   6         0.00010929
   7        -0.00102523
   8         0.00000000
   9         0.00000000
  10         0.00040718
Sym=     1a  
Ene=    -7.6643
Spin= Beta
Occup=    1.00000
   1         1.00001935
   2         0.01641555
   3        -0.00000000
   4        -0.00000000
   5         0.00054347
   6         0.00010929
   7        -0.00102523
   8         0.00000000
   9         0.00000000
  10         0.00040718
Sym=     2a  
Ene=    -4.7830
Spin= Alpha
Occup=    1.00000
   1        -0.00190402
   2         0.00487127
   3        -0.00000000
   4        -0.00000000
   5         0.00345126
   6         0.99881868
   7         0.00097284
   8         0.00000000
   9         0.00000000
  10         0.00187826
Sym=     2a  
Ene=    -4.7830
Spin= Beta
Occup=    1.00000
   1        -0.00190402
   2         0.00487127
   3        -0.00000000
   4        -0.00000000
   5         0.00345126
   6         0.99881868
   7         0.00097284
   8         0.00000000
   9         0.00000000
  10         0.00187826
Sym=     3a  
Ene=    -0.5725
Spin= Alpha
Occup=    1.00000
   1        -0.06021151
   2         0.69378120
   3         0.00000000
   4        -0.00000000
   5         0.20120072
   6        -0.11735950
   7         0.25067639
   8        -0.00000000
   9         0.00000000
  10        -0.18059144
Sym=     3a  
Ene=    -0.5725
Spin= Beta
Occup=    1.00000
   1        -0.06021151
   2         0.69378120
   3         0.00000000
   4        -0.00000000
   5         0.20120072
   6        -0.11735950
   7         0.25067639
   8        -0.00000000
   9         0.00000000
  10        -0.18059144
Sym=     4a  
Ene=    -0.1295
Spin= Alpha
Occup=    1.00000
   1         0.00000000
   2         0.00000000
   3         0.61120304
   4        -0.31907821
   5        -0.00000000
   6        -0.00000000
   7        -0.00000000
   8         0.40843160
   9        -0.21322149
  10         0.00000000
Sym=     4a  
Ene=    -0.1295
Spin= Beta
Occup=    0.00000
   1         0.00000000
   2         0.00000000
   3         0.61120304
   4        -0.31907821
   5        -0.00000000
   6        -0.00000000
   7        -0.00000000
   8         0.40843160
   9        -0.21322149
  10         0.00000000
Sym=     5a  
Ene=     0.0000
Spin= Alpha
Occup=    1.00000
   1        -0.00000000
   2        -0.00000000
   3         0.29872697
   4         0.57221969
   5         0.00000000
   6         0.00000000
   7         0.00000000
   8         0.23589110
   9         0.45185586
  10        -0.00000000
Sym=     5a  
Ene=     0.0000
Spin= Beta
Occup=    1.00000
   1        -0.00000000
   2        -0.00000000
   3         0.29872697
   4         0.57221969
   5         0.00000000
   6         0.00000000
   7         0.00000000
   8         0.23589110
   9         0.45185586
  10        -0.00000000
Sym=     6a  
Ene=    -0.0151
Spin= Alpha
Occup=    0.00000
   1         0.01387434
   2        -0.33718534
   3         0.00000000
   4        -0.00000000
   5         0.28904390
   6        -0.01917129
   7         0.70551558
   8        -0.00000000
   9        -0.00000000
  10         0.49348775
Sym=     6a  
Ene=    -0.0151
Spin= Beta
Occup=    0.00000
   1         0.01387434
   2        -0.33718534
   3         0.00000000
   4        -0.00000000
   5         0.28904390
   6        -0.01917129
   7         0.70551558
   8        -0.00000000
   9        -0.00000000
  10         0.49348775
Sym=     7a  
Ene=     0.0784
Spin= Alpha
Occup=    0.00000
   1         0.04860275
   2         0.39291545
   3         0.00000000
   4         0.00000000
   5        -0.85412407
   6         0.11458451
   7         0.28778964
   8         0.00000000
   9         0.00000000
  10         0.54835860
Sym=     7a  
Ene=     0.0784
Spin= Beta
Occup=    0.00000
   1         0.04860275
   2         0.39291545
   3         0.00000000
   4         0.00000000
   5        -0.85412407
   6         0.11458451
   7         0.28778964
   8         0.00000000
   9         0.00000000
  10         0.54835860
Sym=     8a  
Ene=     0.2452
Spin= Alpha
Occup=    0.00000
   1        -0.00000000
   2        -0.00000000
   3        -0.43953021
   4        -0.84193213
   5         0.00000000
   6        -0.00000000
   7         0.00000000
   8         0.47621423
   9         0.91220139
  10        -0.00000000
Sym=     8a  
Ene=     0.2452
Spin= Beta
Occup=    0.00000
   1        -0.00000000
   2        -0.00000000
   3        -0.43953021
   4        -0.84193213
   5         0.00000000
   6        -0.00000000
   7         0.00000000
   8         0.47621423
   9         0.91220139
  10        -0.00000000
Sym=     9a  
Ene=     0.2561
Spin= Alpha
Occup=    0.00000
   1        -0.00000000
   2         0.00000000
   3        -0.81407366
   4         0.42498671
   5         0.00000000
   6        -0.00000000
   7         0.00000000
   8         0.93245306
   9        -0.48678661
  10         0.00000000
Sym=     9a  
Ene=     0.2561
Spin= Beta
Occup=    0.00000
   1        -0.00000000
   2         0.00000000
   3        -0.81407366
   4         0.42498671
   5         0.00000000
   6        -0.00000000
   7         0.00000000
   8         0.93245306
   9        -0.48678661
  10         0.00000000
Sym=    10a  
Ene=     0.6657
Spin= Alpha
Occup=    0.00000
   1        -0.40201313
   2        -2.31152744
   3        -0.00000000
   4        -0.00000000
   5        -1.17755475
   6         0.46775296
   7         2.03935512
   8        -0.00000000
   9        -0.00000000
  10        -1.69645814
Sym=    10a  
Ene=     0.6657
Spin= Beta
Occup=    0.00000
   1        -0.40201313
   2        -2.31152744
   3        -0.00000000
   4        -0.00000000
   5        -1.17755475
   6         0.46775296
   7         2.03935512
   8        -0.00000000
   9        -0.00000000
  10        -1.69645814
