[Molden Format]
[N_Atoms]
                     2
[Atoms] (AU)
B1          1      5           0.00000000      0.00000000      0.00000000
BE2         2      4           0.00000000      0.00000000      2.64561657
[Charge] (Mulliken)
 -0.272204069022989     
  0.272204069022941     
[GTO] (AU)
   1
   s  14
  3.336021700E+04  1.039699991E-04
  4.972095200E+03  5.254399956E-04
  1.125641700E+03  2.509059979E-03
  3.164913600E+02  1.031887991E-02
  1.020072600E+02  3.636632969E-02
  3.629587300E+01  1.064607991E-01
  1.397141000E+01  2.403999880E-01
  5.741156000E+00  3.748581168E-01
  2.494268000E+00  3.100066974E-01
  1.114202000E+00  7.922455933E-02
  4.215490000E-01 -4.947589958E-03
  1.696330000E-01 -7.737119935E-03
  6.853500000E-02 -1.501079987E-03
  2.398700000E-02 -1.333299989E-04
   s  14
  3.336021700E+04 -2.030000008E-05
  4.972095200E+03 -1.025700004E-04
  1.125641700E+03 -4.911300020E-04
  3.164913600E+02 -2.026570008E-03
  1.020072600E+02 -7.261010030E-03
  3.629587300E+01 -2.197722009E-02
  1.397141000E+01 -5.408428022E-02
  5.741156000E+00 -1.022402604E-01
  2.494268000E+00 -1.423595206E-01
  1.114202000E+00 -4.658690019E-02
  4.215490000E-01  3.799402916E-01
  1.696330000E-01  5.890463624E-01
  6.853500000E-02  1.749075107E-01
  2.398700000E-02 -1.142030005E-03
   p   9
  5.500000000E+01  1.229800005E-03
  1.336610100E+01  8.827380035E-03
  4.135394000E+00  3.843340015E-02
  1.481256000E+00  1.150031805E-01
  6.021360000E-01  2.733674011E-01
  2.556360000E-01  4.061972116E-01
  1.111510000E-01  3.014967912E-01
  4.764800000E-02  7.684809030E-02
  1.667700000E-02 -8.170000032E-06
 
   2
   s  14
  2.262859900E+04  8.443999941E-05
  3.372318100E+03  4.601499968E-04
  7.603504000E+02  2.285389984E-03
  2.117404800E+02  9.648129932E-03
  6.722346800E+01  3.494469975E-02
  2.337217700E+01  1.061099893E-01
  8.721373000E+00  2.458240383E-01
  3.468091000E+00  3.862428773E-01
  1.452144000E+00  3.105526078E-01
  6.086150000E-01  6.415933955E-02
  2.576860000E-01 -2.265049984E-03
  1.041760000E-01 -5.217499963E-04
  4.242700000E-02 -8.757499938E-04
  1.484900000E-02  1.242199991E-04
   s  14
  2.262859900E+04 -1.586999994E-05
  3.372318100E+03 -8.656999968E-05
  7.603504000E+02 -4.302199984E-04
  2.117404800E+02 -1.825079993E-03
  6.722346800E+01 -6.682749976E-03
  2.337217700E+01 -2.095119992E-02
  8.721373000E+00 -5.200308981E-02
  3.468091000E+00 -9.849176964E-02
  1.452144000E+00 -1.355800695E-01
  6.086150000E-01 -6.429875976E-02
  2.576860000E-01  3.125414989E-01
  1.041760000E-01  6.270468577E-01
  4.242700000E-02  2.110231492E-01
  1.484900000E-02 -4.104669985E-03
   p   9
  3.371018400E+01  1.069960000E-03
  8.057649500E+00  6.828550001E-03
  2.836471400E+00  2.119065000E-02
  1.099965700E+00  5.843696001E-02
  4.433964000E-01  2.020920800E-01
  1.822264000E-01  4.582953101E-01
  7.572410000E-02  3.691239601E-01
  3.168540000E-02  6.611471001E-02
  1.108990000E-02  1.405160000E-03
 
[MO]
Sym=     1a  
Ene=    -7.6663
Spin= Alpha
Occup=    1.00000
   1         1.00051348
   2         0.02201833
   3         0.00000000
   4         0.00000000
   5         0.00307649
   6        -0.00087986
   7        -0.00427428
   8         0.00000000
   9        -0.00000000
  10         0.00235113
Sym=     1a  
Ene=    -7.6362
Spin= Beta
Occup=    1.00000
   1         1.00019611
   2         0.01576093
   3         0.00000000
   4        -0.00000000
   5         0.00256839
   6        -0.00026197
   7        -0.00216080
   8        -0.00000000
   9        -0.00000000
  10         0.00084561
Sym=     2a  
Ene=    -4.7285
Spin= Alpha
Occup=    1.00000
   1        -0.00268448
   2         0.00227031
   3        -0.00000000
   4        -0.00000000
   5         0.00408227
   6         0.99897729
   7         0.00207341
   8         0.00000000
   9         0.00000000
  10        -0.00232415
Sym=     2a  
Ene=    -4.7368
Spin= Beta
Occup=    1.00000
   1        -0.00209921
   2         0.00400587
   3        -0.00000000
   4        -0.00000000
   5         0.00393360
   6         0.99882113
   7         0.00133168
   8         0.00000000
   9         0.00000000
  10         0.00020190
Sym=     3a  
Ene=    -0.6750
Spin= Alpha
Occup=    1.00000
   1        -0.05578332
   2         0.77021083
   3        -0.00000000
   4        -0.00000000
   5         0.16008504
   6        -0.11889090
   7         0.16590793
   8         0.00000000
   9         0.00000000
  10        -0.17813577
Sym=     3a  
Ene=    -0.5567
Spin= Beta
Occup=    1.00000
   1        -0.05555098
   2         0.65099724
   3        -0.00000000
   4         0.00000000
   5         0.35336571
   6        -0.14158073
   7         0.23770876
   8        -0.00000000
   9        -0.00000000
  10        -0.16720422
Sym=     4a  
Ene=    -0.4055
Spin= Alpha
Occup=    1.00000
   1        -0.02836186
   2        -0.40275998
   3         0.00000000
   4        -0.00000000
   5         0.91131090
   6        -0.12735734
   7         0.12467736
   8         0.00000000
   9        -0.00000000
  10        -0.15711138
Sym=     4a  
Ene=    -0.3001
Spin= Beta
Occup=    1.00000
   1         0.03401175
   2        -0.18050893
   3         0.00000000
   4        -0.00000000
   5        -0.07795055
   6         0.03266252
   7         0.75190679
   8         0.00000000
   9        -0.00000000
  10         0.67590374
Sym=     5a  
Ene=    -0.3591
Spin= Alpha
Occup=    1.00000
   1        -0.00000000
   2        -0.00000000
   3         0.13126726
   4         0.81114879
   5         0.00000000
   6        -0.00000000
   7         0.00000000
   8         0.04706306
   9         0.29081998
  10        -0.00000000
Sym=     5a  
Ene=    -0.0025
Spin= Beta
Occup=    0.00000
   1        -0.00000000
   2         0.00000000
   3         0.47850630
   4        -0.07743612
   5        -0.00000000
   6         0.00000000
   7        -0.00000000
   8         0.65966205
   9        -0.10675234
  10        -0.00000000
Sym=     6a  
Ene=    -0.0175
Spin= Alpha
Occup=    0.00000
   1         0.00000000
   2         0.00000000
   3         0.65101402
   4        -0.10535284
   5        -0.00000000
   6         0.00000000
   7        -0.00000000
   8         0.48809338
   9        -0.07898758
  10         0.00000000
Sym=     6a  
Ene=     0.0266
Spin= Beta
Occup=    0.00000
   1         0.00000000
   2         0.00000000
   3         0.06977561
   4         0.43116922
   5        -0.00000000
   6         0.00000000
   7         0.00000000
   8         0.11344134
   9         0.70099584
  10         0.00000000
Sym=     7a  
Ene=     0.1106
Spin= Alpha
Occup=    0.00000
   1        -0.00463056
   2        -0.25395341
   3         0.00000000
   4        -0.00000000
   5        -0.34061659
   6         0.09011700
   7         0.95954301
   8        -0.00000000
   9         0.00000000
  10         0.53059187
Sym=     7a  
Ene=     0.1586
Spin= Beta
Occup=    0.00000
   1         0.03239503
   2         0.59337439
   3         0.00000000
   4        -0.00000000
   5        -0.85806516
   6         0.09458559
   7         0.02647880
   8        -0.00000000
   9        -0.00000000
  10         0.28461690
Sym=     8a  
Ene=     0.2227
Spin= Alpha
Occup=    0.00000
   1        -0.00000000
   2        -0.00000000
   3        -0.12815102
   4        -0.79189239
   5         0.00000000
   6        -0.00000000
   7        -0.00000000
   8         0.17731003
   9         1.09566402
  10        -0.00000000
Sym=     8a  
Ene=     0.2816
Spin= Beta
Occup=    0.00000
   1         0.00000000
   2         0.00000000
   3        -1.02766125
   4         0.16630522
   5         0.00000000
   6        -0.00000000
   7        -0.00000000
   8         0.92190124
   9        -0.14919020
  10         0.00000000
Sym=     9a  
Ene=     0.2735
Spin= Alpha
Occup=    0.00000
   1        -0.00000000
   2        -0.00000000
   3        -0.92802837
   4         0.15018175
   5         0.00000000
   6        -0.00000000
   7         0.00000000
   8         1.02314259
   9        -0.16557398
  10         0.00000000
Sym=     9a  
Ene=     0.3134
Spin= Beta
Occup=    0.00000
   1        -0.00000000
   2        -0.00000000
   3        -0.16966185
   4        -1.04840308
   5        -0.00000000
   6         0.00000000
   7         0.00000000
   8         0.14416949
   9         0.89087640
  10        -0.00000000
Sym=    10a  
Ene=     0.6412
Spin= Alpha
Occup=    0.00000
   1         0.40356535
   2         2.29617912
   3        -0.00000000
   4        -0.00000000
   5         1.12607408
   6        -0.45526870
   7        -1.95922685
   8         0.00000000
   9         0.00000000
  10         1.76546298
Sym=    10a  
Ene=     0.6434
Spin= Beta
Occup=    0.00000
   1         0.40267631
   2         2.29872197
   3         0.00000000
   4        -0.00000000
   5         1.17173457
   6        -0.46475788
   7        -2.04445793
   8        -0.00000000
   9         0.00000000
  10         1.69970699
