   This run of MOLCAS is using the pymolcas driver

                             OPE
                             OPE          NMOL  CASOP  ENMOLC A   SO
                 OPE        NMOLC        AS  OP EN  MO LC     AS  OP
                OPENM       OL CA        SO  PE NM  OL CA     SOP EN
                OP EN      MO   LC       AS  OP ENMOL  CASO   PENMOL
                OP  EN     MO   LC       AS  OP EN     MO     LC ASO
               OP   E  NMOL  C  AS       OP  EN MO     LC     AS  OP
               OP  E   NMO   LC AS        OPEN  MO     LCASOP EN   M
               O  PEN   MO  LCA  SO
            OPE   NMO   L   CAS    OP
        OPENMOL  CASOP     ENMOL   CASOPE
     OPENMOLCA   SOPENMOLCASOPEN   MOLCASOPE
    OPENMOLCAS   OP           EN   MOL    CAS
    OPENMOLCAS       OP  ENM        O     LCA
    OPENMOLCAS    OPEN  MOLCASO     P  E  NMO
    OPENMOLCAS     OP               E  N  MOL
    OPENMOLCA   SO           PENM   O  L  CAS    OPEN    MO    LCAS
    OPENMOLCA   SOP           ENM   O  L  CAS   OP  EN  MOLC  AS   O
    OPENMOLCA   SOPE           NM      O  LCA   S      OP  EN MO
    OPENMOLC                AS         O  PEN   M      OL  CA  SOPE
    OPENMO        LCASOPE  NMOL        C  ASO   P      ENMOLC     AS
    OPE     NMO      LCA  SO     P     E   NM   OL  CA SO  PE N   MO
          OPENMOLCA            SOPE   NMO        LCAS  O    P  ENMO
     OPENMOLCASOPENMOLCASOPENMOLCASOPENMOLCA
        OPENMOLCASOPENMOLCASOPENMOLCASOPE
            OPENMOLCASOPENMOLCASOPENM
               OPENMOLCASOPENMOLCA        version: 24.02
                   OPENMOLCASO
                       OPE                tag: 126-g611b04c8f

 OpenMolcas is free software; you can redistribute it and/or modify it
 under the terms of the GNU Lesser General Public License version 2.1.
 OpenMolcas is distributed in the hope that it will be useful, but it
 is provided "as is" and without any express or implied warranties.
 For more details see the full text of the license in the file
 LICENSE or in <http://www.gnu.org/licenses/>.

                 Copyright (C) The OpenMolcas Authors
           For the author list and the recommended citation,
                   consult the file CONTRIBUTORS.md

           *************************************************
           * pymolcas version py2.28                       *
           *   build c4a6d18ded8cb6cad61d2372a9abd97c      *
           *   (after the EMIL interpreter by V. Veryazov) *
           *************************************************

configuration info
------------------
Host name: debian (Linux)
C Compiler ID: GNU
C flags: -std=gnu99
Fortran Compiler ID: Intel
Fortran flags: -fpp -i8 -heap-arrays
Definitions: _MOLCAS_;_I8_;_LINUX_
Parallel: OFF (GA=OFF)


   ------------------------------------------------------------------
  |
  |              Project: 1.40
  |       Submitted from: /home/grierjones/DDCASPT2/delta_ML/BBe/1.40
  |         Scratch area: /tmp/1.40
  |      Save outputs to: /home/grierjones/DDCASPT2/delta_ML/BBe/1.40
  |               Molcas: /usr/local
  |
  | Scratch area is empty
  |
  |       MOLCAS_DRIVER = /usr/local/pymolcas
  | MOLCAS_KEEP_WORKDIR = NO
  |  MOLCAS_NEW_WORKDIR = YES
  |       MOLCAS_NPROCS = 1
  |       MOLCAS_SOURCE = /usr/local
  |    MOLCAS_STRUCTURE = 0
  |
   ------------------------------------------------------------------

++ ---------   Input file   ---------

&GATEWAY
coord=1.40.xyz
Basis = ANO-RCC-MB
Group = nosymm
End of Input

&SEWARD
End of Input

&SCF
UHF

&MBPT2
Frozen
0

&RASSCF
Title= RASSCF
FileOrb
/home/grierjones/DDCASPT2/delta_ML/BBe/1.30/1.30.RasOrb

NACTEL
1 0 0
Inactive
4
RAS2
2
Symmetry
1
Spin
2
orblisting
all
ITERation
200 100
CIMX
200
SDAV
500

&CASPT2
Imaginary Shift
0.0
Frozen
0

-- ----------------------------------

--- Start Module: gateway at Thu Apr 25 13:32:04 2024 ---
 
()()()()()()()()()()()()()()()()()()()()()()()()()()()()()()()()()()()()()()()()()()()()()()()()()()

                                              &GATEWAY

                                   only a single process is used
                       available to each process: 2.0 GB of memory, 1 thread?
                                             pid: 93542
()()()()()()()()()()()()()()()()()()()()()()()()()()()()()()()()()()()()()()()()()()()()()()()()()()
 
 
++    Symmetry information:
      ---------------------
 
                    Character Table for C1 
 
                             E  
                    a        1  x, y, xy, Rz, z, xz, Ry, yz, Rx, I
--
 
 
++    Basis set information:
      ----------------------
 
 
      Basis set label: B.ANO-RCC...2S1P.
 
      Electronic valence basis set:
      ------------------
      Associated Effective Charge   5.000000 au
      Associated Actual Charge      5.000000 au
      Nuclear Model: Point charge
 
      Shell  nPrim  nBasis  Cartesian Spherical Contaminant
         s      14       2        X                  
         p       9       1        X                  
 
 
      Basis set label: BE.ANO-RCC...2S1P.
 
      Electronic valence basis set:
      ------------------
      Associated Effective Charge   4.000000 au
      Associated Actual Charge      4.000000 au
      Nuclear Model: Point charge
 
      Shell  nPrim  nBasis  Cartesian Spherical Contaminant
         s      14       2        X                  
         p       9       1        X                  
--
 
 
++    Molecular structure info:
      -------------------------
 
                    ************************************************ 
                    **** Cartesian Coordinates / Bohr, Angstrom **** 
                    ************************************************ 
 
     Center  Label                x              y              z                     x              y              z
        1      B1               0.000000       0.000000       0.000000              0.000000       0.000000       0.000000
        2      BE2              0.000000       0.000000       2.645617              0.000000       0.000000       1.400000
--
 
 
            Nuclear Potential Energy              7.55967444 au
 
--- Stop Module: gateway at Thu Apr 25 13:32:04 2024 /rc=_RC_ALL_IS_WELL_ ---
*** files: xmldump
    saved to directory /home/grierjones/DDCASPT2/delta_ML/BBe/1.40

--- Start Module: seward at Thu Apr 25 13:32:04 2024 ---
 
()()()()()()()()()()()()()()()()()()()()()()()()()()()()()()()()()()()()()()()()()()()()()()()()()()

                                              &SEWARD

                                   only a single process is used
                       available to each process: 2.0 GB of memory, 1 thread?
                                             pid: 93545
()()()()()()()()()()()()()()()()()()()()()()()()()()()()()()()()()()()()()()()()()()()()()()()()()()
 
               SEWARD will generate:
                  Multipole Moment integrals up to order  2
                  Kinetic Energy integrals
                  Nuclear Attraction integrals (point charge)
                  One-Electron Hamiltonian integrals
                  Velocity integrals
                  Relativistic Douglas-Kroll-Hess integrals:
                    - Parametrization         : EXP
                    - DKH order of Hamiltonian: 2
                    - DKH order of Properties : 0
                         - multipole moment operators
                         - electric potential operators
                         - contact operators
                  Orbital angular momentum around ( 0.0000  0.0000  1.1909 )
                  Velocity quadrupole around ( 0.0000  0.0000  1.1909 )
                  Atomic mean-field integrals
                  Two-Electron Repulsion integrals
 
                   Integrals are discarded if absolute value <: 1.00E-14
                   Integral cutoff threshold is set to       <: 1.00E-16
 
            Nuclear Potential Energy              7.55967444 au
 
 
      Basis set specifications :
      Symmetry species         a  
      Basis functions           10
 
 
      Input file to MOLDEN was generated!
 
--- Stop Module: seward at Thu Apr 25 13:32:05 2024 /rc=_RC_ALL_IS_WELL_ ---
*** files: 1.40.GssOrb 1.40.guessorb.h5 1.40.guessorb.molden xmldump
    saved to directory /home/grierjones/DDCASPT2/delta_ML/BBe/1.40

*** symbolic link created: INPORB -> 1.40.GssOrb
--- Start Module: scf at Thu Apr 25 13:32:05 2024 ---
 
()()()()()()()()()()()()()()()()()()()()()()()()()()()()()()()()()()()()()()()()()()()()()()()()()()

                                                &SCF

                                   only a single process is used
                       available to each process: 2.0 GB of memory, 1 thread?
                                             pid: 93549
()()()()()()()()()()()()()()()()()()()()()()()()()()()()()()()()()()()()()()()()()()()()()()()()()()
 
++    Input section:
      --------------
 
      Header of the integral files:
      
       Integrals generated by Gateway/Seward, Thu Apr 25 13:32:04 2024
 
 
      Cartesian coordinates in Angstrom:
      -----------------------------------------------------
      No.  Label        X            Y            Z        
      -----------------------------------------------------
       1   B1         0.00000000   0.00000000   0.00000000
       2   BE2        0.00000000   0.00000000   1.40000000
      -----------------------------------------------------
      Nuclear repulsion energy =    7.55967444
--
 
++    Orbital specifications:
      -----------------------
 
      Symmetry species               1
                                     a
      Frozen orbitals                0
      Occupied orbitals alpha        5
      Occupied orbitals beta         4
      Secondary orbitals alpha       5
      Secondary orbitals beta        6
      Deleted orbitals               0
      Total number of orbitals      10
      Number of basis functions     10
--
 
      Molecular charge                           0.000
 
++    Optimization specifications:
      ----------------------------
 
      SCF Algorithm: Conventional USCF
      D(i)-D(i-1) density differences are used
      Number of density matrices in core                 5
      Maximum number of NDDO SCF iterations            400
      Maximum number of HF SCF iterations              400
      Threshold for SCF energy change             1.00E-09
      Threshold for density matrix                1.00E-04
      Threshold for Fock matrix                   1.50E-04
      Threshold for linear dependence             1.00E-09
      Threshold at which DIIS is turned on        1.50E-01
      Maximum depth in the DIIS procedure                5
      Maximum depth in the BFGS Hessian update          30
      Threshold at which QNR/C2DIIS is turned on  7.50E-02
      Threshold for Norm(delta) (QNR/C2DIIS)      1.00E-03
      All orbitals punched on: UHFORB
--
 
      Input vectors read from INPORB
      Orbital file label: *Guess orbitals
 
 
++ Convergence information
                               UHF SCF        iterations: Energy and convergence statistics
 
Iter     Tot. SCF        One-elec.       Two-elec.     Energy      Max Dij or  Max Fij      DNorm      TNorm      AccCon     Time
         Energy          Energy          Energy        Change      Delta Norm                                                in Sec.
   1   -38.749129873   -66.353067004    20.044262690   0.00E+00    9.51E-01*   1.43E-01*    4.21E+00   1.32E+01   None         0.
   2   -38.908170891   -65.511931055    19.044085722  -1.59E-01*   4.51E-01*   8.35E-02*    2.50E+00   1.29E+01   EDIIS        0.
   3   -38.933326516   -66.163604837    19.670603880  -2.52E-02*   3.42E-01*   4.62E-02*    1.11E+00   1.31E+01   EDIIS        0.
   4   -38.945421372   -65.891913146    19.386817332  -1.21E-02*   2.78E-01*   4.61E-02*    5.60E-01   1.30E+01   EDIIS        0.
   5   -38.960887900   -66.028279701    19.507717359  -1.55E-02*   2.94E-01*   4.61E-02*    4.77E-01   1.30E+01   EDIIS        0.
   6   -38.983253380   -65.987177544    19.444249723  -2.24E-02*   2.54E-01*   4.52E-02*    5.55E-01   1.30E+01   EDIIS        0.
   7   -39.003934867   -66.014945529    19.451336221  -2.07E-02*   1.96E-01*   3.94E-02*    5.41E-01   1.31E+01   EDIIS        0.
   8   -39.015502284   -66.039865275    19.464688549  -1.16E-02*   1.23E-01*   2.64E-02*    4.20E-01   1.31E+01   EDIIS        0.
   9   -39.020113589   -66.061798400    19.482010369  -4.61E-03*   2.10E-02*   3.94E-02*    2.71E-01   1.31E+01   c2DIIS       0.
  10   -39.022403565   -66.099836432    19.517758426  -2.29E-03*   1.71E-02*   3.04E-03*    8.80E-02   1.31E+01   QNRc2DIIS    0.
  11   -39.022465354   -66.098493953    19.516354158  -6.18E-05*   1.41E-02*   1.30E-03*    3.33E-02   1.31E+01   QNRc2DIIS    0.
  12   -39.022481772   -66.099438043    19.517281830  -1.64E-05*   2.50E-03*   3.22E-04*    2.54E-02   1.31E+01   QNRc2DIIS    0.
  13   -39.022482380   -66.100128608    19.517971787  -6.08E-07*   8.51E-04    8.13E-05     4.27E-03   1.31E+01   QNRc2DIIS    0.
  14   -39.022482429   -66.100111477    19.517954606  -4.96E-08*   1.38E-04    1.60E-05     1.58E-03   1.31E+01   QNRc2DIIS    0.
  15   -39.022482431   -66.100158907    19.518002035  -2.04E-09*   2.09E-05    2.82E-06     3.28E-04   1.31E+01   QNRc2DIIS    0.
  16   -39.022482431   -66.100162682    19.518005809  -4.80E-11    6.83E-06    1.11E-06     4.38E-05   1.31E+01   QNRc2DIIS    0.
 
       Convergence after  16 Macro Iterations
--
 
 *****************************************************************************************************************************
 *                                                                                                                           *
 *                                             SCF/KS-DFT Program, Final results                                             *
 *                                                                                                                           *
 *                                                                                                                           *
 *                                                                                                                           *
 *                                                       Final Results                                                       *
 *                                                                                                                           *
 *****************************************************************************************************************************
 
::    Total SCF energy                                -39.0224824314
      One-electron energy                             -66.1001626817
      Two-electron energy                              19.5180058088
      Nuclear repulsion energy                          7.5596744415
      Kinetic energy (interpolated)                    39.9065776506
      Virial theorem                                    0.9778458773
      Total spin, S(S+1)                                1.7108553491
      Total spin, S                                     0.9003054485
      Max non-diagonal density matrix element           0.0000050619
      Max non-diagonal Fock matrix element              0.0000005725
 
 
      All orbitals with orbital energies smaller than  E(LUMO)+0.5 are printed
 
++    Molecular orbitals:
      -------------------
 
      Title: UHF orbitals (alpha)

      Molecular orbitals for symmetry species 1: a  
 
          Orbital            1         2         3         4         5         6         7         8         9    
          Energy           -7.6663   -4.7285   -0.6750   -0.4055   -0.3591   -0.0175    0.1106    0.2227    0.2735
          Occ. No.          1.0000    1.0000    1.0000    1.0000    1.0000    0.0000    0.0000    0.0000    0.0000
 
        1 B1     1s         1.0005   -0.0027   -0.0558   -0.0284   -0.0000    0.0000   -0.0046   -0.0000   -0.0000
        2 B1     2s         0.0220    0.0023    0.7702   -0.4028   -0.0000    0.0000   -0.2540   -0.0000   -0.0000
        3 B1     2px        0.0000   -0.0000   -0.0000    0.0000    0.1313    0.6510    0.0000   -0.1282   -0.9280
        4 B1     2py        0.0000   -0.0000   -0.0000   -0.0000    0.8111   -0.1054   -0.0000   -0.7919    0.1502
        5 B1     2pz        0.0031    0.0041    0.1601    0.9113    0.0000   -0.0000   -0.3406    0.0000    0.0000
        6 BE2    1s        -0.0009    0.9990   -0.1189   -0.1274   -0.0000    0.0000    0.0901   -0.0000   -0.0000
        7 BE2    2s        -0.0043    0.0021    0.1659    0.1247    0.0000   -0.0000    0.9595   -0.0000    0.0000
        8 BE2    2px        0.0000    0.0000    0.0000    0.0000    0.0471    0.4881   -0.0000    0.1773    1.0231
        9 BE2    2py       -0.0000    0.0000    0.0000   -0.0000    0.2908   -0.0790    0.0000    1.0957   -0.1656
       10 BE2    2pz        0.0024   -0.0023   -0.1781   -0.1571   -0.0000    0.0000    0.5306   -0.0000    0.0000
--
 
 
      Input file to MOLDEN was generated!
 
 
++    Static properties:
      ------------------
 
 
      LoProp Charges per center
 

                   B1       BE2   
      Nuclear      5.0000   4.0000
      Electronic  -5.7222  -3.2778
 
      Total       -0.7222   0.7222
--
 
 
      All orbitals with orbital energies smaller than  E(LUMO)+0.5 are printed
 
++    Molecular orbitals:
      -------------------
 
      Title: UHF orbitals (beta)

      Molecular orbitals for symmetry species 1: a  
 
          Orbital            1         2         3         4         5         6         7         8         9    
          Energy           -7.6362   -4.7368   -0.5567   -0.3001   -0.0025    0.0266    0.1586    0.2816    0.3134
          Occ. No.          1.0000    1.0000    1.0000    1.0000    0.0000    0.0000    0.0000    0.0000    0.0000
 
        1 B1     1s         1.0002   -0.0021   -0.0556    0.0340   -0.0000    0.0000    0.0324    0.0000   -0.0000
        2 B1     2s         0.0158    0.0040    0.6510   -0.1805    0.0000    0.0000    0.5934    0.0000   -0.0000
        3 B1     2px        0.0000   -0.0000   -0.0000    0.0000    0.4785    0.0698    0.0000   -1.0277   -0.1697
        4 B1     2py       -0.0000   -0.0000    0.0000   -0.0000   -0.0774    0.4312   -0.0000    0.1663   -1.0484
        5 B1     2pz        0.0026    0.0039    0.3534   -0.0780   -0.0000   -0.0000   -0.8581    0.0000   -0.0000
        6 BE2    1s        -0.0003    0.9988   -0.1416    0.0327    0.0000    0.0000    0.0946   -0.0000    0.0000
        7 BE2    2s        -0.0022    0.0013    0.2377    0.7519   -0.0000    0.0000    0.0265   -0.0000    0.0000
        8 BE2    2px       -0.0000    0.0000   -0.0000    0.0000    0.6597    0.1134   -0.0000    0.9219    0.1442
        9 BE2    2py       -0.0000    0.0000   -0.0000   -0.0000   -0.1068    0.7010   -0.0000   -0.1492    0.8909
       10 BE2    2pz        0.0008    0.0002   -0.1672    0.6759   -0.0000    0.0000    0.2846    0.0000   -0.0000
--
 
 
++    Molecular charges:
      ------------------
 
      Mulliken charges per centre and basis function type
      ---------------------------------------------------
 
                            B1                      BE2   
                     alpha        beta       alpha        beta
      1s           1.0012      1.0009      1.0001      0.9996
      2s           0.8402      0.5916      0.1455      0.6444
      2px          0.0203      0.0000      0.0053      0.0000
      2pz          0.9032      0.1409      0.1098      0.6225
      2py          0.7739      0.0000      0.2005      0.0000
      Total        3.5388      1.7334      1.4612      2.2666
      Total              5.2722                  3.7278
 
      Charge           -0.2722                  0.2722
 
      Total electronic charge=    9.000000
 
      Total            charge=   -0.000000
--
 
 
      Input file to MOLDEN was generated!
 
 
++    Static properties:
      ------------------
 
 
      LoProp Charges per center
 

                   B1       BE2   
      Nuclear      5.0000   4.0000
      Electronic  -5.7222  -3.2778
 
      Total       -0.7222   0.7222
--
 
 
++    Natural Bond Order analysis
      ---------------------------
      Based on LoProp computed density
      -------------------------------------------------------------------------------------
      Atom A       Atom B       Bond Order
      -------------------------------------------------------------------------------------
      NBO located      0.987 non-bonded electrons on atom B1        
      The remaining    3.901 electrons are to be considered as diffuse
--
 
 
++    Molecular orbitals:
      -------------------
 
      Title: Natural orbitals

      Molecular orbitals for symmetry species 1: a  
 
          Orbital            1         2         3         4         5         6         7         8         9        10    
          Energy           -6.3699   -1.6262   -4.9965   -0.1605   -0.1438   -0.0622    0.6397   -0.0056    0.2456    0.2732
          Occ. No.          2.0000    2.0000    2.0000    1.1979    1.0000    0.8021    0.0000    0.0000    0.0000    0.0000
 
        1 B1     1s         0.7745   -0.2425   -0.5878    0.0084   -0.0000   -0.0381   -0.4027   -0.0000   -0.0000    0.0000
        2 B1     2s        -0.0770    0.5817   -0.3059   -0.4541   -0.0000   -0.3348   -2.3101   -0.0000   -0.0000    0.0000
        3 B1     2px       -0.0000    0.0000   -0.0000    0.0000    0.1313    0.0000   -0.0000    0.6510   -0.1282   -0.9280
        4 B1     2py       -0.0000   -0.0000   -0.0000   -0.0000    0.8111   -0.0000    0.0000   -0.1054   -0.7919    0.1502
        5 B1     2pz       -0.0451    0.3165   -0.1606    0.5153    0.0000    0.7176   -1.1540   -0.0000   -0.0000    0.0000
        6 BE2    1s         0.6445    0.3036    0.7148   -0.0464   -0.0000   -0.0964    0.4623    0.0000    0.0000   -0.0000
        7 BE2    2s        -0.0285    0.1686   -0.0825    0.5493    0.0000   -0.5372    2.0435    0.0000    0.0000   -0.0000
        8 BE2    2px        0.0000    0.0000    0.0000    0.0000    0.0471   -0.0000   -0.0000    0.4881    0.1773    1.0231
        9 BE2    2py        0.0000    0.0000   -0.0000   -0.0000    0.2908   -0.0000   -0.0000   -0.0790    1.0957   -0.1656
       10 BE2    2pz        0.0296   -0.1852    0.0919    0.3556   -0.0000   -0.6141   -1.7052   -0.0000   -0.0000    0.0000
--
 
 
++    Molecular properties:
      ---------------------
 
      Charge (e):
                      =   -0.0000
      Dipole Moment (Debye):
      Origin of the operator (Ang)=    0.0000    0.0000    0.0000
                   X= -5.8343E-15               Y=  4.4506E-14               Z= -5.6617E-01           Total=  5.6617E-01
      Quadrupole Moment (Debye*Ang):
      Origin of the operator (Ang)=    0.0000    0.0000    0.6302
                  XX= -1.0759E+01              XY= -5.3546E-01              XZ= -3.2345E-13              YY= -1.3982E+01
                  YZ=  1.5512E-13              ZZ= -1.6986E+01
      In traceless form (Debye*Ang)
                  XX=  4.7246E+00              XY= -8.0320E-01              XZ= -4.8518E-13              YY= -1.0871E-01
                  YZ=  2.3269E-13              ZZ= -4.6158E+00
--
 
 
      Input file to MOLDEN was generated!
 
 ###############################################################################
 ###############################################################################
 ###                                                                         ###
 ###                                                                         ###
 ###    WARNING: RunFile label nBas                                          ###
 ###    was used       87 times                                              ###
 ###                                                                         ###
 ###                                                                         ###
 ###############################################################################
 ###############################################################################
--- Stop Module: scf at Thu Apr 25 13:32:06 2024 /rc=_RC_ALL_IS_WELL_ ---
*** files: 1.40.LprOrb 1.40.LoProp.molden 1.40.scf.molden 1.40.scf.h5 1.40.UhfOrb 1.40.UnaOrb xmldump
    saved to directory /home/grierjones/DDCASPT2/delta_ML/BBe/1.40

*** symbolic link created: INPORB -> 1.40.UnaOrb
--- Start Module: mbpt2 at Thu Apr 25 13:32:06 2024 ---
 
()()()()()()()()()()()()()()()()()()()()()()()()()()()()()()()()()()()()()()()()()()()()()()()()()()

                                               &MBPT2

                                   only a single process is used
                       available to each process: 2.0 GB of memory, 1 thread?
                                             pid: 93553
()()()()()()()()()()()()()()()()()()()()()()()()()()()()()()()()()()()()()()()()()()()()()()()()()()
 
 
 ###############################################################################
 ###############################################################################
 ###                                                                         ###
 ###                                                                         ###
 ###    WARNING: MP2 implementation intended for RHF references only         ###
 ###                                                                         ###
 ###                                                                         ###
 ###############################################################################
 ###############################################################################
MBPT2 WARNING: Reference function according to RunFile:UHF-SCF 
I'll assume you know what you're doing and continue
 
 
WARNING!
Default frozen orbitals as non valence orbitals is overwritten by user input.
Default values:   2
 
 
      Cartesian coordinates in Angstrom:
      -----------------------------------------------------
      No.  Label        X            Y            Z        
      -----------------------------------------------------
       1   B1         0.00000000   0.00000000   0.00000000
       2   BE2        0.00000000   0.00000000   1.40000000
      -----------------------------------------------------
      Nuclear repulsion energy =    7.55967444
 
      Contents of RUNFILE file:
      -------------------------
 
      Symmetry species                           1
                                                 a
      Number of basis functions                 10
      Frozen occupied orbitals                   0
      Active occupied orbitals                   5
      Active external orbitals                   5
      Deleted external orbitals                  0
 
 
      Energies of the active occupied orbitals
 
      symmetry species 1                    -7.666290     -4.728515     -0.675036     -0.405472     -0.359099
 
 
      Energies of the active external orbitals
 
      symmetry species 1                    -0.017515      0.110605      0.222725      0.273538      0.641243
 
 
      ********************************************************************************************************
      *                                               Results                                                *
      ********************************************************************************************************
 
 Conventional algorithm used...

       SCF energy                           =      -39.0224824314 a.u.
       Second-order correlation energy      =       -0.0251605504 a.u.

       Total energy                         =      -39.0476429817 a.u.
       Reference weight ( Cref**2 )         =        0.98226
 
::    Total MBPT2 energy                              -39.0476429817
 
 
       Zeroth-order energy (E0)             =      -20.1091469929 a.u.
 
       Shanks-type energy S1(E)             =      -39.0476764976 a.u.
 
 


       Data processing and timing information:

       Section                                              time(sec)
                                                          CPU  Elapsed

      Input data processing                              0.03      0.05
      Transformation of integrals                        0.00      0.00
      MBPT2 calculations (BJAI)                          0.00      0.00
      Total MBPT2 calculations                           0.03      0.05
 
 
--- Stop Module: mbpt2 at Thu Apr 25 13:32:06 2024 /rc=_RC_ALL_IS_WELL_ ---
*** files: xmldump
    saved to directory /home/grierjones/DDCASPT2/delta_ML/BBe/1.40

*** symbolic link created: INPORB -> 1.40.UnaOrb
--- Start Module: rasscf at Thu Apr 25 13:32:06 2024 ---
 
()()()()()()()()()()()()()()()()()()()()()()()()()()()()()()()()()()()()()()()()()()()()()()()()()()

                                              &RASSCF

                                   only a single process is used
                       available to each process: 2.0 GB of memory, 1 thread?
                                             pid: 93556
()()()()()()()()()()()()()()()()()()()()()()()()()()()()()()()()()()()()()()()()()()()()()()()()()()
 
 
      Header of the ONEINT file:
      --------------------------
      
      Integrals generated by Gateway/Seward, Thu Apr 25 13:32:04 2024
 
 
      OrdInt status: non-squared
 
 
      Cartesian coordinates in Angstrom:
      -----------------------------------------------------
      No.  Label        X            Y            Z        
      -----------------------------------------------------
       1   B1         0.00000000   0.00000000   0.00000000
       2   BE2        0.00000000   0.00000000   1.40000000
      -----------------------------------------------------
      Nuclear repulsion energy =    7.55967444
 
++    Wave function specifications:
      -----------------------------
 
      Number of closed shell electrons           8
      Number of electrons in active shells       1
      Max number of holes in RAS1 space          0
      Max nr of electrons in RAS3 space          0
      Number of inactive orbitals                4
      Number of active orbitals                  2
      Number of secondary orbitals               4
      Spin quantum number                      0.5
      State symmetry                             1
--
 
++    Orbital specifications:
      -----------------------
 
      Symmetry species                           1
                                                 a
      Frozen orbitals                            0
      Inactive orbitals                          4
      Active orbitals                            2
      RAS1 orbitals                              0
      RAS2 orbitals                              2
      RAS3 orbitals                              0
      Secondary orbitals                         4
      Deleted orbitals                           0
      Number of basis functions                 10
--
 
++    CI expansion specifications:
      ----------------------------
 
      Number of CSFs                             2
      Number of determinants                     2
      Number of root(s) required                 1
      Root chosen for geometry opt.              1
      CI root used                               1
         
      highest root included in the CI            1
      max. size of the explicit Hamiltonian      2
--
 
++    Optimization specifications:
      ----------------------------
 
      RASSCF algorithm: Conventional
      Maximum number of macro iterations       200
      Maximum number of SX iterations          100
      Threshold for RASSCF energy            1.000E-08
      Threshold for max MO rotation          1.000E-01
      Threshold for max BLB element          1.000E-04
      Level shift parameter                  5.000E-01
      Make Quasi-Newton update
--
 
      The MO-coefficients are taken from the file:
      /home/grierjones/DDCASPT2/delta_ML/BBe/1.30/1.30.RasOrb                                                                                                                                                                                                         
      Title: RASSCF average (pseudo-natural) orbitals                                      
 
      Total molecular charge    0.00
 
      ************************************************************************************************************************
      *                                                                                                                      *
      *                                            Wave function control section                                             *
      *                                                                                                                      *
      ************************************************************************************************************************
 
 
                                         RASSCF iterations: Energy and convergence statistics
                                         ----------------------------------------------------
 
      Iter CI   SX   CI       RASSCF       Energy    max ROT     max BLB   max BLB  Level Ln srch  Step   QN   Walltime
          iter iter root      energy       change     param      element    value   shift minimum  type update hh:mm:ss
 Nr of preliminary CI iterations:   1
 ###############################################################################
 ###############################################################################
 ###                                                                         ###
 ###                                                                         ###
 ###    WARNING: Problems in orbital optimization.                           ###
 ###                                                                         ###
 ###                                                                         ###
 ###############################################################################
 ###############################################################################
  Warning: In symmetry  1, orbital p=   6 has diagonal density matrix element D(p,p) close to zero. D(p,p)=  9.189405E-28
        1   1    5    1   -38.96593453    0.00E+00   5.94E-03    3  10 1 -2.04E-02*  0.50   0.00    SX    NO    0:00:00
 ###############################################################################
 ###############################################################################
 ###                                                                         ###
 ###                                                                         ###
 ###    WARNING: Problems in orbital optimization.                           ###
 ###                                                                         ###
 ###                                                                         ###
 ###############################################################################
 ###############################################################################
  Warning: In symmetry  1, orbital p=   6 has diagonal density matrix element D(p,p) close to zero. D(p,p)=  1.030817E-27
        2   1    4    1   -38.96635485   -4.20E-04* -3.87E-03    3   7 1 -8.97E-03*  0.50   0.00    SX    NO    0:00:00
 ###############################################################################
 ###############################################################################
 ###                                                                         ###
 ###                                                                         ###
 ###    WARNING: Problems in orbital optimization.                           ###
 ###                                                                         ###
 ###                                                                         ###
 ###############################################################################
 ###############################################################################
  Warning: In symmetry  1, orbital p=   6 has diagonal density matrix element D(p,p) close to zero. D(p,p)=  1.054063E-27
        3   1    4    1   -38.96644377   -8.89E-05* -2.57E-03    3   7 1 -5.94E-03*  0.50   0.00    SX    NO    0:00:00
 ###############################################################################
 ###############################################################################
 ###                                                                         ###
 ###                                                                         ###
 ###    WARNING: Problems in orbital optimization.                           ###
 ###                                                                         ###
 ###                                                                         ###
 ###############################################################################
 ###############################################################################
  Warning: In symmetry  1, orbital p=   6 has diagonal density matrix element D(p,p) close to zero. D(p,p)=  1.057897E-27
        4   1    4    1   -38.96647516   -3.14E-05*  1.66E-03    3   7 1 -3.84E-03*  0.50   0.00    SX    NO    0:00:00
 ###############################################################################
 ###############################################################################
 ###                                                                         ###
 ###                                                                         ###
 ###    WARNING: Problems in orbital optimization.                           ###
 ###                                                                         ###
 ###                                                                         ###
 ###############################################################################
 ###############################################################################
  Warning: In symmetry  1, orbital p=   6 has diagonal density matrix element D(p,p) close to zero. D(p,p)=  1.057804E-27
        5   1    4    1   -38.96648783   -1.27E-05*  2.48E-03    3   7 1 -2.47E-03*  0.50   2.50    LS   YES    0:00:00
 ###############################################################################
 ###############################################################################
 ###                                                                         ###
 ###                                                                         ###
 ###    WARNING: Problems in orbital optimization.                           ###
 ###                                                                         ###
 ###                                                                         ###
 ###############################################################################
 ###############################################################################
  Warning: In symmetry  1, orbital p=   6 has diagonal density matrix element D(p,p) close to zero. D(p,p)=  1.057699E-27
        6   1    4    1   -38.96649652   -8.69E-06*  5.56E-04    3  10 1  4.89E-04*  0.50   1.21    QN   YES    0:00:00
 ###############################################################################
 ###############################################################################
 ###                                                                         ###
 ###                                                                         ###
 ###    WARNING: Problems in orbital optimization.                           ###
 ###                                                                         ###
 ###                                                                         ###
 ###############################################################################
 ###############################################################################
  Warning: In symmetry  1, orbital p=   6 has diagonal density matrix element D(p,p) close to zero. D(p,p)=  1.056116E-27
        7   1    4    1   -38.96649707   -5.54E-07* -2.53E-04    3  10 1  2.73E-04*  0.50   1.30    QN   YES    0:00:00
 ###############################################################################
 ###############################################################################
 ###                                                                         ###
 ###                                                                         ###
 ###    WARNING: Problems in orbital optimization.                           ###
 ###                                                                         ###
 ###                                                                         ###
 ###############################################################################
 ###############################################################################
  Warning: In symmetry  1, orbital p=   6 has diagonal density matrix element D(p,p) close to zero. D(p,p)=  1.055458E-27
        8   1    3    1   -38.96649723   -1.57E-07* -3.39E-04    4   8 1 -1.73E-04*  0.50   1.86    QN   YES    0:00:00
 ###############################################################################
 ###############################################################################
 ###                                                                         ###
 ###                                                                         ###
 ###    WARNING: Problems in orbital optimization.                           ###
 ###                                                                         ###
 ###                                                                         ###
 ###############################################################################
 ###############################################################################
  Warning: In symmetry  1, orbital p=   6 has diagonal density matrix element D(p,p) close to zero. D(p,p)=  1.055360E-27
        9   1    3    1   -38.96649734   -1.10E-07*  2.04E-04    3  10 1 -1.29E-04*  0.50   1.40    QN   YES    0:00:00
 ###############################################################################
 ###############################################################################
 ###                                                                         ###
 ###                                                                         ###
 ###    WARNING: Problems in orbital optimization.                           ###
 ###                                                                         ###
 ###                                                                         ###
 ###############################################################################
 ###############################################################################
  Warning: In symmetry  1, orbital p=   6 has diagonal density matrix element D(p,p) close to zero. D(p,p)=  1.055638E-27
       10   1    3    1   -38.96649738   -3.61E-08* -1.38E-04    3  10 1 -1.23E-04*  0.50   1.57    QN   YES    0:00:00
 ###############################################################################
 ###############################################################################
 ###                                                                         ###
 ###                                                                         ###
 ###    WARNING: Problems in orbital optimization.                           ###
 ###                                                                         ###
 ###                                                                         ###
 ###############################################################################
 ###############################################################################
  Warning: In symmetry  1, orbital p=   6 has diagonal density matrix element D(p,p) close to zero. D(p,p)=  1.055800E-27
       11   1    3    1   -38.96649739   -1.43E-08*  4.25E-05    3  10 1 -5.04E-05   0.50   1.31    QN   YES    0:00:00
 ###############################################################################
 ###############################################################################
 ###                                                                         ###
 ###                                                                         ###
 ###    WARNING: Problems in orbital optimization.                           ###
 ###                                                                         ###
 ###                                                                         ###
 ###############################################################################
 ###############################################################################
  Warning: In symmetry  1, orbital p=   6 has diagonal density matrix element D(p,p) close to zero. D(p,p)=  1.055711E-27
       12   1    3    1   -38.96649739   -2.52E-09  -9.90E-06    4   8 1  1.25E-05   0.50   1.29    QN   YES    0:00:00
      Convergence after 12 iterations
       13   1    3    1   -38.96649739   -3.39E-10  -9.90E-06    3   6 1 -5.67E-06   0.50   1.29    QN   YES    0:00:00
 
      ************************************************************************************************************************
                                                      Wave function printout:
                       occupation of active orbitals, and spin coupling of open shells (u,d: Spin up or down)
      ************************************************************************************************************************
 
      Note: transformation to natural orbitals
      has been made, which may change the order of the CSFs.
 
      printout of CI-coefficients larger than  0.05 for root  1
      energy=     -38.966497
      conf/sym  11     Coeff  Weight
             1  u0   1.00000 1.00000
 
      Natural orbitals and occupation numbers for root  1
      sym 1:   1.000000   0.000000
 
      ************************************************************************************************************************
      *                                                                                                                      *
      *                                                    Final results                                                     *
      *                                                                                                                      *
      ************************************************************************************************************************
 
 
++    Wave function specifications:
      -----------------------------
 
      Number of closed shell electrons           8
      Number of electrons in active shells       1
      Max number of holes in RAS1 space          0
      Max nr of electrons in RAS3 space          0
      Number of inactive orbitals                4
      Number of active orbitals                  2
      Number of secondary orbitals               4
      Spin quantum number                      0.5
      State symmetry                             1
--
 
++    Orbital specifications:
      -----------------------
 
      Symmetry species                           1
                                                 a
      Frozen orbitals                            0
      Inactive orbitals                          4
      Active orbitals                            2
      RAS1 orbitals                              0
      RAS2 orbitals                              2
      RAS3 orbitals                              0
      Secondary orbitals                         4
      Deleted orbitals                           0
      Number of basis functions                 10
--
 
++    CI expansion specifications:
      ----------------------------
 
      Number of CSFs                             2
      Number of determinants                     2
      Number of root(s) required                 1
      CI root used                               1
      highest root included in the CI            1
      Root passed to geometry opt.               1
--
 
++    Final optimization conditions:
      ------------------------------
 
      Average CI energy                             -38.96649739
      RASSCF energy for state  1                    -38.96649739
      Super-CI energy                                -0.00000000
      RASSCF energy change                           -0.00000000
      Max change in MO coefficients               1.739E-05
      Max non-diagonal density matrix element    -9.898E-06
      Maximum BLB matrix element                 -5.671E-06
      (orbital pair   3,   6 in symmetry   1)
      Norm of electronic gradient            7.332E-06
--
 
 
      Final state energy(ies):
      ------------------------
 
::    RASSCF root number  1 Total energy:    -38.96649739
 
++    Molecular orbitals:
      -------------------
 
      Pseudonatural active orbitals and approximate occupation numbers
 
 
 
 
      Molecular orbitals for symmetry species 1: a  
 
 
      Orbital                 1         2         3         4         5         6         7         8         9        10
      Energy            -7.6643   -4.7830   -0.5725   -0.2714   -0.1296    0.0000    0.0759    0.2452    0.2561    0.6627
      Occ. No.           2.0000    2.0000    2.0000    2.0000    1.0000    0.0000    0.0000    0.0000    0.0000    0.0000
 
     1 B1     1s         1.0000   -0.0019   -0.0602    0.0000   -0.0000    0.0486    0.0463   -0.0000   -0.0000   -0.3996
     2 B1     2s         0.0164    0.0049    0.6938    0.0000   -0.0000   -0.1121    0.4472    0.0000    0.0000   -2.3235
     3 B1     2px       -0.0000   -0.0000    0.0000    0.5722    0.3191   -0.0000   -0.0000   -0.8419   -0.4250   -0.0000
     4 B1     2py       -0.0000   -0.0000    0.0000   -0.2987    0.6112   -0.0000    0.0000    0.4395   -0.8141   -0.0000
     5 B1     2pz        0.0005    0.0035    0.2012    0.0000    0.0000    0.2229   -0.8881    0.0000    0.0000   -1.1668
     6 BE2    1s         0.0001    0.9988   -0.1174   -0.0000    0.0000   -0.0314    0.1154   -0.0000   -0.0000    0.4669
     7 BE2    2s        -0.0010    0.0010    0.2507   -0.0000    0.0000    0.6048    0.1639    0.0000   -0.0000    2.0849
     8 BE2    2px        0.0000    0.0000   -0.0000    0.4519    0.2132   -0.0000    0.0000    0.9122    0.4868   -0.0000
     9 BE2    2py        0.0000    0.0000   -0.0000   -0.2359    0.4084    0.0000    0.0000   -0.4762    0.9325   -0.0000
    10 BE2    2pz        0.0004    0.0019   -0.1806   -0.0000   -0.0000    0.6897    0.4624    0.0000   -0.0000   -1.6531
--
 
      Von Neumann Entropy (Root   1) =  0.50000
 

      Mulliken population analysis for root number:  1
      -----------------------------------------------
 
 
++    Molecular charges:
      ------------------
 
      Mulliken charges per centre and basis function type
      ---------------------------------------------------
 
                B1      BE2   
      1s       2.0015  1.9988
      2s       1.2964  0.3693
      2px      1.0444  0.7415
      2pz      0.1209  0.2130
      2py      0.7441  0.4701
      Total    5.2073  3.7927
 
      N-E     -0.2073  0.2073
 
      Total electronic charge=    9.000000
 
      Total            charge=   -0.000000
--
 
 

      Expectation values of various properties for root number:  1
      -----------------------------------------------------------
 
 
++    Molecular properties:
      ---------------------
 
      Charge (e):
                      =   -0.0000
      Dipole Moment (Debye):
      Origin of the operator (Ang)=    0.0000    0.0000    0.0000
                   X=  9.5274E-15               Y= -1.1211E-13               Z=  1.8895E+00           Total=  1.8895E+00
      Quadrupole Moment (Debye*Ang):
      Origin of the operator (Ang)=    0.0000    0.0000    0.6302
                  XX= -1.7445E+01              XY=  1.6297E+00              XZ=  1.5579E-13              YY= -1.5174E+01
                  YZ= -1.6646E-13              ZZ= -3.6320E+00
      In traceless form (Debye*Ang)
                  XX= -8.0421E+00              XY=  2.4446E+00              XZ=  2.3368E-13              YY= -4.6356E+00
                  YZ= -2.4969E-13              ZZ=  1.2678E+01
--
 

      Mulliken spin population analysis for root number:  1
      ---------------------------------------------------
 
 
++    Molecular charges:
      ------------------
 
      Mulliken spin population per centre and basis function type
      ---------------------------------------------------
 
                B1      BE2   
      1s      -0.0000 -0.0000
      2s       0.0000  0.0000
      2px      0.1353  0.0789
      2pz      0.0000 -0.0000
      2py      0.4963  0.2895
      Total    0.6316  0.3684
 
      Total electronic spin=    1.000000
--
 
 

      LoProp population analysis for root number:  1
      -----------------------------------------------
 
 
++    LoProp analysis:
      ----------------
 
 
 
      Input file to MOLDEN was generated!
 
 
++    Static properties:
      ------------------
 
 
      LoProp Charges per center
 

                   B1       BE2   
      Nuclear      5.0000   4.0000
      Electronic  -6.0484  -2.9516
 
      Total       -1.0484   1.0484
--
 
 
      Natural Bond Order analysis for root number:  1
 
++    Natural Bond Order analysis
      ---------------------------
      Based on LoProp computed density
      -------------------------------------------------------------------------------------
      Atom A       Atom B       Bond Order
        B1           BE2            0.788
      -------------------------------------------------------------------------------------
      NBO located      1.576 electrons involved in    1 bonds.
      NBO located      0.992 non-bonded electrons on atom B1        
      NBO located      0.992 non-bonded electrons on atom B1        
      The remaining    1.786 electrons are to be considered as diffuse
--
 
--
 
 
      Input file to MOLDEN was generated!
 
 
      Input file to MOLDEN was generated!
 
      Average orbitals are written to the RASORB file
      Natural orbitals for root   1 are written to the RASORB.1 file
      Spin density orbitals for root   1 are written to the SPDORB.1 file
 
--- Stop Module: rasscf at Thu Apr 25 13:32:06 2024 /rc=_RC_ALL_IS_WELL_ ---
*** files: 1.40.LprOrb 1.40.rasscf.molden.1 1.40.rasscf.molden 1.40.LoProp.molden 1.40.RasOrb.1 1.40.RasOrb 1.40.rasscf.h5 1.40.SpdOrb.1 xmldump
    saved to directory /home/grierjones/DDCASPT2/delta_ML/BBe/1.40

*** symbolic link created: INPORB -> 1.40.RasOrb
--- Start Module: caspt2 at Thu Apr 25 13:32:06 2024 ---
 
()()()()()()()()()()()()()()()()()()()()()()()()()()()()()()()()()()()()()()()()()()()()()()()()()()

                                              &CASPT2

                                   only a single process is used
                       available to each process: 2.0 GB of memory, 1 thread?
                                             pid: 93560
()()()()()()()()()()()()()()()()()()()()()()()()()()()()()()()()()()()()()()()()()()()()()()()()()()
 
 ###############################################################################
 ###############################################################################
 ###                                                                         ###
 ###                                                                         ###
 ###    WARNING: User changed nr of frozen orbitals.                         ###
 ###                                                                         ###
 ###                                                                         ###
 ###############################################################################
 ###############################################################################
 
++    Wave function specifications:
      -----------------------------
 
      Number of closed shell electrons           8
      Number of electrons in active shells       1
      Max number of holes in RAS1 space          0
      Max number of electrons in RAS3 space      0
      Number of inactive orbitals                4
      Number of active orbitals                  2
      Number of secondary orbitals               4
      Spin quantum number                      0.5
      State symmetry                             1
      Number of CSFs                             2
      Number of CASSCF root(s) available         1
      CASPT2 state passed to geometry opt.       1
      A file JOBMIX will be created
      This is a CASSCF or RASSCF reference function
--
 
++    Orbital specifications:
      -----------------------
 
      Symmetry species                           1
                                                 a
      Frozen orbitals                            0
      Inactive orbitals                          4
      Active orbitals                            2
      Secondary orbitals                         4
      Deleted orbitals                           0
      Number of basis functions                 10
--
 
++    CASPT2 specifications:
      ----------------------
 
      Type of calculation                        SS-CASPT2
      Fock operator                              state-specific
      IPEA shift                                 0.25
      Real shift                                 0.00
      Imaginary shift                            0.00
      The input orbitals will be transformed to quasi-canonical
--
 
--------------------------------------------------------------------------------
 Estimated memory requirements:
  POLY3 :                   250056
  RHS:                      250492
  SIGMA :                   250512
  PRPCTL:                        0
 Available workspace:    230392719
 
++ CASPT2 computation for group   1
 
********************************************************************************
 Multi-State initialization phase begins for group   1
--------------------------------------------------------------------------------
********************************************************************************
 Compute H0 matrices for state    1
--------------------------------------------------------------------------------
--------------------------------------------------------------------------------
 H0 matrices have been computed.
 
********************************************************************************
  CASPT2 EQUATION SOLUTION
--------------------------------------------------------------------------------
 
  Total nr of CASPT2 parameters:
   Before reduction:         656
   After  reduction:         438
 
 Variance of |WF0>:       0.0573768858
 
 The contributions to the second order correlation energy in atomic units.
-----------------------------------------------------------------------------------------------------------------------------
  IT.      VJTU        VJTI        ATVX        AIVX        VJAI        BVAT        BJAT        BJAI        TOTAL       RNORM  
-----------------------------------------------------------------------------------------------------------------------------
   1    -0.000003   -0.000951   -0.000000   -0.001777   -0.005512    0.000000   -0.011951   -0.021683   -0.041877    0.000310
   2    -0.000003   -0.000957   -0.000000   -0.001776   -0.005509    0.000000   -0.011959   -0.021688   -0.041892    0.000026
   3    -0.000003   -0.000957   -0.000000   -0.001776   -0.005509    0.000000   -0.011959   -0.021687   -0.041890    0.000001
-----------------------------------------------------------------------------------------------------------------------------
 
  FINAL CASPT2 RESULT:
 
      Reference energy:         -38.9664973940
      E2 (Non-variational):      -0.0418900241
      E2 (Variational):          -0.0418900273
      Total energy:             -39.0083874213
      Residual norm:              0.0000000568
      Reference weight:           0.96560
 
      Contributions to the CASPT2 correlation energy
      Active & Virtual Only:         -0.0000000000
      One Inactive Excited:          -0.0137370010
      Two Inactive Excited:          -0.0281530231
 
 
++ Denominators, etc.
--------------------------------------------------------------------------------------------------------------
 Report on small energy denominators, large coefficients, and large energy contributions.
CASE  SYMM ACTIVE-MIX  NON-ACTIVE INDICES          DENOMINATOR     RHS VALUE       COEFFICIENT     CONTRIBUTION
VJTIP    1  Mu1.0001  In1.004 In1.004               0.52378331      0.01760745     -0.03632268     -0.00063955
AIVX     1  Mu1.0003  In1.003 Se1.009               1.19864866      0.03590202     -0.03141895     -0.00112800
VJAIP    1  Mu1.0001  Se1.008 In1.004 In1.003       1.07956017      0.05130814     -0.04981222     -0.00255577
VJAIM    1  Mu1.0001  Se1.008 In1.004 In1.003       1.07956017      0.03480230     -0.03404366     -0.00118480
BJATP    1  Mu1.0001  In1.004 Se1.009 Se1.008       1.02727405      0.05616071     -0.05460814     -0.00306683
BJATP    1  Mu1.0001  In1.003 Se1.010 Se1.009       1.74581692      0.05224594     -0.03071676     -0.00160483
BJATM    1  Mu1.0001  In1.004 Se1.009 Se1.008       1.02727405      0.07386736     -0.07205609     -0.00532259
BJAIP    1  Se1.007 In1.003 Se1.007 In1.003         1.29674016      0.06105534     -0.04738935     -0.00289337
BJAIP    1  Se1.010 In1.003 Se1.010 In1.003         2.47027131      0.06142346     -0.02533672     -0.00155627
BJAIP    1  Se1.007 In1.003 Se1.008 In1.004         1.16496286     -0.03658976      0.03206089     -0.00117310
BJAIP    1  Se1.008 In1.003 Se1.010 In1.004         1.75172844      0.07410800     -0.04359581     -0.00323080
BJAIP    1  Se1.007 In1.004 Se1.007 In1.004         0.69458868      0.01709048     -0.02506092     -0.00042830
BJAIP    1  Se1.008 In1.004 Se1.008 In1.004         1.03318556      0.09024378     -0.08734517     -0.00788236
BJAIM    1  Se1.008 In1.003 Se1.009 In1.004         1.75172844     -0.05970192      0.03496347     -0.00208739
--
 
   (Skipping property calculation,
    use PROP keyword to activate)
--
 
  Total CASPT2 energies:
::    CASPT2 Root  1     Total energy:    -39.00838742
 
  A NEW JOBIPH FILE NAMED 'JOBMIX' IS PREPARED.
********************************************************************************
--- Stop Module: caspt2 at Thu Apr 25 13:32:06 2024 /rc=_RC_ALL_IS_WELL_ ---
*** files: xmldump
    saved to directory /home/grierjones/DDCASPT2/delta_ML/BBe/1.40

.##################.
.# Happy landing! #.
.##################.

    Timing: Wall=2.58 User=1.71 System=0.26
************************************
*** WorkDir at /tmp/1.40 removed ***
************************************
