   This run of MOLCAS is using the pymolcas driver

                             OPE
                             OPE          NMOL  CASOP  ENMOLC A   SO
                 OPE        NMOLC        AS  OP EN  MO LC     AS  OP
                OPENM       OL CA        SO  PE NM  OL CA     SOP EN
                OP EN      MO   LC       AS  OP ENMOL  CASO   PENMOL
                OP  EN     MO   LC       AS  OP EN     MO     LC ASO
               OP   E  NMOL  C  AS       OP  EN MO     LC     AS  OP
               OP  E   NMO   LC AS        OPEN  MO     LCASOP EN   M
               O  PEN   MO  LCA  SO
            OPE   NMO   L   CAS    OP
        OPENMOL  CASOP     ENMOL   CASOPE
     OPENMOLCA   SOPENMOLCASOPEN   MOLCASOPE
    OPENMOLCAS   OP           EN   MOL    CAS
    OPENMOLCAS       OP  ENM        O     LCA
    OPENMOLCAS    OPEN  MOLCASO     P  E  NMO
    OPENMOLCAS     OP               E  N  MOL
    OPENMOLCA   SO           PENM   O  L  CAS    OPEN    MO    LCAS
    OPENMOLCA   SOP           ENM   O  L  CAS   OP  EN  MOLC  AS   O
    OPENMOLCA   SOPE           NM      O  LCA   S      OP  EN MO
    OPENMOLC                AS         O  PEN   M      OL  CA  SOPE
    OPENMO        LCASOPE  NMOL        C  ASO   P      ENMOLC     AS
    OPE     NMO      LCA  SO     P     E   NM   OL  CA SO  PE N   MO
          OPENMOLCA            SOPE   NMO        LCAS  O    P  ENMO
     OPENMOLCASOPENMOLCASOPENMOLCASOPENMOLCA
        OPENMOLCASOPENMOLCASOPENMOLCASOPE
            OPENMOLCASOPENMOLCASOPENM
               OPENMOLCASOPENMOLCA        version: f37762c57
                   OPENMOLCASO
                       OPE                tag:

 OpenMolcas is free software; you can redistribute it and/or modify it
 under the terms of the GNU Lesser General Public License version 2.1.
 OpenMolcas is distributed in the hope that it will be useful, but it
 is provided "as is" and without any express or implied warranties.
 For more details see the full text of the license in the file
 LICENSE or in <http://www.gnu.org/licenses/>.

                 Copyright (C) The OpenMolcas Authors
           For the author list and the recommended citation,
                   consult the file CONTRIBUTORS.md

           *************************************************
           * pymolcas version py2.28                       *
           *   build c4a6d18ded8cb6cad61d2372a9abd97c      *
           *   (after the EMIL interpreter by V. Veryazov) *
           *************************************************

configuration info
------------------
C Compiler ID: Intel
C flags: -std=gnu99 -gcc-sys
Fortran Compiler ID: IntelLLVM
Fortran flags: -standard-semantics -fltconsistency -fpp -i8 -heap-arrays
Definitions: _MOLCAS_;_I8_;_LINUX_
Parallel: OFF (GA=OFF)


   -------------------------------------------------------------------------------------------
  |
  |              Project: ozone_114.25
  |       Submitted from: /home/grierjones/DDCASPT2/ozone/multistate/ANO-RCC-VTZP/ozone_114.25
  |         Scratch area: /tmp/ozone_114.25
  |      Save outputs to: /home/grierjones/DDCASPT2/ozone/multistate/ANO-RCC-VTZP/ozone_114.25
  |               Molcas: /home/grierjones/Test/build
  |
  | Scratch area is empty
  |
  |       MOLCAS_DRIVER = /usr/local/pymolcas
  | MOLCAS_KEEP_WORKDIR = NO
  |  MOLCAS_NEW_WORKDIR = YES
  |       MOLCAS_NPROCS = 1
  |        MOLCAS_PRINT = NORMAL
  |       MOLCAS_SOURCE = /home/grierjones/Test
  |    MOLCAS_STRUCTURE = 0
  |
   -------------------------------------------------------------------------------------------

++ ---------   Input file   ---------

&GATEWAY
coord=ozone_114.25.xyz
Basis = ANO-RCC-VTZP
Group = nosymm
End of Input

&SEWARD
End of Input

&SCF
FileOrb
/home/grierjones/DDCASPT2/ozone/multistate/ANO-RCC-VTZP/ozone_114.00/ozone_114.00.ScfOrb

>>> COPY $WorkDir/ozone_114.25.scf.h5 $CurrDir/

&RASSCF
Title= RASSCF
FileOrb
/home/grierjones/DDCASPT2/ozone/multistate/ANO-RCC-VTZP/ozone_114.00/ozone_114.00.RasOrb
CIROOT
3 3 1
NACTEL
4 0 0
Inactive
10
RAS2
3
Symmetry
1
Spin
1
orblisting
all

>>> COPY $WorkDir/ozone_114.25.rasscf.h5 $CurrDir/

>>> COPY $WorkDir/GMJ_Fock_MO.csv $CurrDir/ozone_114.25.GMJ_Fock_MO.csv

&MOTRA
Frozen=0
LUMORB

>>> COPY $WorkDir/GMJ_one_int_indx.csv $CurrDir/ozone_114.25.GMJ_one_int_indx.csv

>>> COPY $WorkDir/GMJ_one_int.csv $CurrDir/ozone_114.25.GMJ_one_int.csv

>>> COPY $WorkDir/GMJ_two_int_indx.csv $CurrDir/ozone_114.25.GMJ_two_int_indx.csv

>>> COPY $WorkDir/GMJ_two_int.csv $CurrDir/ozone_114.25.GMJ_two_int.csv

&CASPT2
Frozen
0

MAXITER
50

>>> FOREACH k IN (1,2,3)

  >>> FOREACH i IN (B,E,F,G,H)

    >>> FOREACH j IN (P,M)

      >>> IF (-FILE GMJ_e2_${i}_${j}_${k}_.csv)

        >>> COPY $WorkDir/GMJ_RHS_${i}_${j}_${k}_.csv $CurrDir/GMJ_RHS_${i}_${j}_${k}_.csv

        >>> COPY $WorkDir/GMJ_IVECW_${i}_${j}_${k}_.csv $CurrDir/GMJ_IVECW_${i}_${j}_${k}_.csv

        >>> COPY $WorkDir/GMJ_IVECX_${i}_${j}_${k}_.csv $CurrDir/GMJ_IVECX_${i}_${j}_${k}_.csv

        >>> COPY $WorkDir/GMJ_IVECC2_${i}_${j}_${k}_.csv $CurrDir/GMJ_IVECC2_${i}_${j}_${k}_.csv

        >>> COPY $WorkDir/GMJ_e2_${i}_${j}_${k}_.csv $CurrDir/GMJ_e2_${i}_${j}_${k}_.csv

      >>> END IF

    >>> END FOREACH

  >>> END FOREACH

>>> END FOREACH

>>> FOREACH j IN (1,2,3)

  >>> FOREACH i IN (A,C,D)

    >>> IF (-FILE GMJ_e2_${i}_${j}_.csv)

      >>> COPY $WorkDir/GMJ_RHS_${i}_${j}_.csv $CurrDir/GMJ_RHS_${i}_${j}_.csv

      >>> COPY $WorkDir/GMJ_IVECW_${i}_${j}_.csv $CurrDir/GMJ_IVECW_${i}_${j}_.csv

      >>> COPY $WorkDir/GMJ_IVECX_${i}_${j}_.csv $CurrDir/GMJ_IVECX_${i}_${j}_.csv

      >>> COPY $WorkDir/GMJ_IVECC2_${i}_${j}_.csv $CurrDir/GMJ_IVECC2_${i}_${j}_.csv

      >>> COPY $WorkDir/GMJ_e2_${i}_${j}_.csv $CurrDir/GMJ_e2_${i}_${j}_.csv

    >>> END IF

  >>> END FOREACH

>>> END FOREACH

-- ----------------------------------

--- Start Module: gateway at Fri Apr 11 18:34:04 2025 ---
 
()()()()()()()()()()()()()()()()()()()()()()()()()()()()()()()()()()()()()()()()()()()()()()()()()()

                                              &GATEWAY

                                   only a single process is used
                       available to each process: 2.0 GB of memory, 1 thread?
()()()()()()()()()()()()()()()()()()()()()()()()()()()()()()()()()()()()()()()()()()()()()()()()()()
 
 
++    Symmetry information:
      ---------------------
 
                    Character Table for C1 
 
                             E  
                    a        1  x, y, xy, Rz, z, xz, Ry, yz, Rx, I
--
 
 
++    Basis set information:
      ----------------------
 
 
      Basis set label: O.ANO-RCC...4S3P2D1F.
 
      Electronic valence basis set:
      ------------------
      Associated Effective Charge   8.000000 au
      Associated Actual Charge      8.000000 au
      Nuclear Model: Point charge
 
      Shell  nPrim  nBasis  Cartesian Spherical Contaminant
         s      14       4        X                  
         p       9       3        X                  
         d       4       2                 X         
         f       3       1                 X         
--
 
 
++    Molecular structure info:
      -------------------------
 
                    ************************************************ 
                    **** Cartesian Coordinates / Bohr, Angstrom **** 
                    ************************************************ 
 
     Center  Label                x              y              z                     x              y              z
        1      O1               1.310920       2.028313       0.000000              0.693709       1.073337       0.000000
        2      O2               0.000000       0.000000       0.000000              0.000000       0.000000       0.000000
        3      O3               1.310920      -2.028313       0.000000              0.693709      -1.073337       0.000000
 
                    *************************************** 
                    *    InterNuclear Distances / Bohr    * 
                    *************************************** 
 
               1 O1            2 O2            3 O3    
    1 O1       0.000000
    2 O2       2.415070        0.000000
    3 O3       4.056626        2.415070        0.000000
 
                    ******************************************* 
                    *    InterNuclear Distances / Angstrom    * 
                    ******************************************* 
 
               1 O1            2 O2            3 O3    
    1 O1       0.000000
    2 O2       1.278000        0.000000
    3 O3       2.146674        1.278000        0.000000
 
                    ************************************** 
                    *    Valence Bond Angles / Degree    * 
                    ************************************** 
                          Atom centers                 Phi
                      1 O1       2 O2       3 O3       114.25
--
 
 
            Nuclear Potential Energy             68.77718439 au
 
--- Stop Module: gateway at Fri Apr 11 18:34:05 2025 /rc=_RC_ALL_IS_WELL_ ---
*** files: xmldump
    saved to directory /home/grierjones/DDCASPT2/ozone/multistate/ANO-RCC-VTZP/ozone_114.25

--- Start Module: seward at Fri Apr 11 18:34:05 2025 ---
 
()()()()()()()()()()()()()()()()()()()()()()()()()()()()()()()()()()()()()()()()()()()()()()()()()()

                                              &SEWARD

                                   only a single process is used
                       available to each process: 2.0 GB of memory, 1 thread?
()()()()()()()()()()()()()()()()()()()()()()()()()()()()()()()()()()()()()()()()()()()()()()()()()()
 
               SEWARD will generate:
                  Multipole Moment integrals up to order  2
                  Kinetic Energy integrals
                  Nuclear Attraction integrals (point charge)
                  One-Electron Hamiltonian integrals
                  Velocity integrals
                  Relativistic Douglas-Kroll-Hess integrals:
                    - Parametrization         : EXP
                    - DKH order of Hamiltonian: 2
                    - DKH order of Properties : 0
                         - multipole moment operators
                         - electric potential operators
                         - contact operators
                  Atomic mean-field integrals
                  Two-Electron Repulsion integrals
 
                   Integrals are discarded if absolute value <: 0.10E-13
                   Integral cutoff threshold is set to       <: 0.10E-15
 
            Nuclear Potential Energy             68.77718439 au
 
 
      Basis set specifications :
      Symmetry species         a  
      Basis functions           90
 
 
  Input file to MOLDEN was generated!
 
forrtl: warning (525): IEEE_DIVIDE_BY_ZERO is signaling
forrtl: warning (526): IEEE_INVALID is signaling
forrtl: warning (528): IEEE_UNDERFLOW is signaling
--- Stop Module: seward at Fri Apr 11 18:34:07 2025 /rc=_RC_ALL_IS_WELL_ ---
*** files: ozone_114.25.GssOrb ozone_114.25.guessorb.h5 ozone_114.25.guessorb.molden xmldump
    saved to directory /home/grierjones/DDCASPT2/ozone/multistate/ANO-RCC-VTZP/ozone_114.25
--- Module seward spent 2 seconds ---

*** symbolic link created: INPORB -> ozone_114.25.GssOrb
--- Start Module: scf at Fri Apr 11 18:34:07 2025 ---
 
()()()()()()()()()()()()()()()()()()()()()()()()()()()()()()()()()()()()()()()()()()()()()()()()()()

                                                &SCF

                                   only a single process is used
                       available to each process: 2.0 GB of memory, 1 thread?
()()()()()()()()()()()()()()()()()()()()()()()()()()()()()()()()()()()()()()()()()()()()()()()()()()
 
++    Input section:
      --------------
 
      Header of the integral files:
      
       Integrals generated by seward 4.2.0  , Fri Apr 11 18:34:05 2025
 
 
      Cartesian coordinates in Angstrom:
      -----------------------------------------------------
      No.  Label        X            Y            Z        
      -----------------------------------------------------
       1   O1         0.69370900   1.07333700   0.00000000
       2   O2         0.00000000   0.00000000   0.00000000
       3   O3         0.69370900  -1.07333700   0.00000000
      -----------------------------------------------------
      Nuclear repulsion energy =   68.77718439
--
 
++    Orbital specifications:
      -----------------------
 
      Symmetry species               1
                                     a
      Frozen orbitals                0
      Occupied orbitals             12
      Secondary orbitals            78
      Deleted orbitals               0
      Total number of orbitals      90
      Number of basis functions     90
--
 
      Molecular charge                           0.000
 
++    Optimization specifications:
      ----------------------------
 
      SCF Algorithm: Conventional
      Minimized density differences are used
      Number of density matrices in core                5
      Maximum number of NDDO SCF iterations           400
      Maximum number of HF SCF iterations             400
      Threshold for SCF energy change            0.10E-08
      Threshold for density matrix               0.10E-03
      Threshold for Fock matrix                  0.15E-03
      Threshold for linear dependence            0.10E-08
      Threshold at which DIIS is turned on       0.15E+00
      Threshold at which QNR/C2DIIS is turned on 0.75E-01
      Threshold for Norm(delta) (QNR/C2DIIS)     0.20E-04
      DIIS extrapolation of the SCF procedure
      All orbitals punched on: SCFORB
--
 
      Input vectors read from INPORB
      Orbital file label: * SCF orbitals
 
 
++ Convergence information
                                   SCF        iterations: Energy and convergence statistics
 
Iter     Tot. SCF        One-elec.       Two-elec.     Energy      Max Dij or  Max Fij      DNorm      TNorm      AccCon     Time
         Energy          Energy          Energy        Change      Delta Norm                                                in Sec.
   1  -224.512856372  -445.219894295   151.929853533   0.00E+00    0.88E-03*   0.45E-03*    0.75E+01   0.11E+03   None         0.
   2  -224.512861766  -445.219725819   151.929679663  -0.54E-05*   0.55E-03*   0.27E-03*    0.71E-02   0.11E+03   EDIIS        0.
   3  -224.512862864  -445.220385672   151.930338417  -0.11E-05*   0.53E-03*   0.26E-03*    0.14E-02   0.11E+03   c2DIIS       0.
   4  -224.512863148  -445.219336818   151.929289280  -0.28E-06*   0.40E-03*   0.19E-03*    0.14E-02   0.11E+03   QNRc2DIIS    0.
   5  -224.512863157  -445.220899204   151.930851657  -0.92E-08*   0.20E-03*   0.20E-03*    0.45E-03   0.11E+03   QNRc2DIIS    0.
   6  -224.512863359  -445.220117211   151.930069461  -0.20E-06*   0.87E-04*   0.20E-04     0.44E-04   0.11E+03   QNRc2DIIS    0.
   7  -224.512863366  -445.220103936   151.930056180  -0.68E-08*   0.13E-05    0.86E-06     0.22E-04   0.11E+03   QNRc2DIIS    0.
   8  -224.512863366  -445.220104806   151.930057049  -0.74E-11    0.24E-05    0.66E-06     0.12E-03   0.11E+03   QNRc2DIIS    0.
 
       Convergence after  8 Macro Iterations
--
 
 *****************************************************************************************************************************
 *                                                                                                                           *
 *                                             SCF/KS-DFT Program, Final results                                             *
 *                                                                                                                           *
 *                                                                                                                           *
 *                                                                                                                           *
 *                                                       Final Results                                                       *
 *                                                                                                                           *
 *****************************************************************************************************************************
 
::    Total SCF energy                               -224.5128633661
      One-electron energy                            -445.2201048056
      Two-electron energy                             151.9300570488
      Nuclear repulsion energy                         68.7771843907
      Kinetic energy (interpolated)                   225.0610961491
      Virial theorem                                    0.9975640713
      Total spin, S(S+1)                                0.0000000000
      Total spin, S                                     0.0000000000
      Max non-diagonal density matrix element           0.0000033091
      Max non-diagonal Fock matrix element              0.0000005444
 
 
      All orbitals with orbital energies smaller than  E(LUMO)+0.5 are printed
 
++    Molecular orbitals:
      -------------------
 
      Title: SCF orbitals

      Molecular orbitals for symmetry species 1: a  
 
          Orbital            1         2         3         4         5         6         7         8         9        10    
          Energy          -20.9362  -20.7242  -20.7241   -1.7509   -1.4272   -1.1007   -0.8313   -0.7985   -0.7807   -0.5611
          Occ. No.          2.0000    2.0000    2.0000    2.0000    2.0000    2.0000    2.0000    2.0000    2.0000    2.0000
 
        1 O1     1s         0.0022   -0.7011    0.7116   -0.0136    0.0116    0.0092   -0.0132   -0.0231    0.0000    0.0057
        2 O1     2s         0.0038    0.0049   -0.0053    0.3339   -0.5755    0.5821   -0.2795   -0.4275    0.0000    0.0406
        3 O1     3s         0.0022    0.0036   -0.0037   -0.0106    0.0188    0.0156   -0.0273   -0.0519    0.0000    0.0166
        4 O1     4s         0.0004    0.0007   -0.0007   -0.0008    0.0041    0.0025   -0.0053   -0.0111    0.0000    0.0040
        5 O1     2px       -0.0011   -0.0014    0.0013   -0.0569    0.0658    0.1073    0.1218   -0.3363    0.0000   -0.5162
        6 O1     3px       -0.0007   -0.0015    0.0013    0.0123   -0.0091   -0.0177   -0.0041    0.0310    0.0000   -0.0153
        7 O1     4px        0.0001    0.0007   -0.0008    0.0025   -0.0002    0.0009   -0.0001    0.0023    0.0000    0.0029
        8 O1     2py       -0.0021   -0.0020    0.0022   -0.1074    0.0629    0.0747   -0.3605   -0.2419   -0.0000    0.5229
        9 O1     3py       -0.0012   -0.0021    0.0022    0.0157   -0.0135   -0.0126    0.0367    0.0351   -0.0000   -0.0015
       10 O1     4py        0.0005    0.0012   -0.0013    0.0007   -0.0035    0.0011    0.0033    0.0028   -0.0000   -0.0036
       11 O1     2pz        0.0000    0.0000    0.0000    0.0000    0.0000    0.0000    0.0000    0.0000    0.3706   -0.0000
       12 O1     3pz       -0.0000   -0.0000   -0.0000   -0.0000    0.0000    0.0000   -0.0000    0.0000   -0.0191   -0.0000
       13 O1     4pz       -0.0000    0.0000    0.0000    0.0000   -0.0000    0.0000   -0.0000    0.0000   -0.0068    0.0000
       14 O1     3d2-       0.0004    0.0010   -0.0011    0.0179   -0.0152   -0.0119    0.0089    0.0287    0.0000   -0.0033
       15 O1     4d2-       0.0002    0.0005   -0.0006    0.0022   -0.0019   -0.0008    0.0012    0.0025    0.0000    0.0004
       16 O1     3d1-      -0.0000    0.0000    0.0000    0.0000    0.0000   -0.0000   -0.0000   -0.0000   -0.0263    0.0000
       17 O1     4d1-      -0.0000    0.0000    0.0000    0.0000    0.0000   -0.0000   -0.0000   -0.0000   -0.0037    0.0000
       18 O1     3d0       -0.0003   -0.0005    0.0005   -0.0104    0.0089    0.0033   -0.0095   -0.0147    0.0000    0.0039
       19 O1     4d0       -0.0002   -0.0004    0.0004   -0.0002    0.0010   -0.0002   -0.0004   -0.0010    0.0000    0.0001
       20 O1     3d1+      -0.0000    0.0000    0.0000    0.0000    0.0000   -0.0000   -0.0000    0.0000   -0.0181    0.0000
       21 O1     4d1+      -0.0000    0.0000    0.0000    0.0000    0.0000    0.0000   -0.0000   -0.0000   -0.0035    0.0000
       22 O1     3d2+      -0.0005   -0.0005    0.0005   -0.0103    0.0035    0.0001   -0.0242   -0.0032    0.0000    0.0176
       23 O1     4d2+      -0.0003   -0.0002    0.0003   -0.0009    0.0007    0.0004   -0.0018    0.0002    0.0000    0.0031
       24 O1     4f3-       0.0001   -0.0000    0.0000    0.0000    0.0018    0.0021    0.0054   -0.0037    0.0000   -0.0048
       25 O1     4f2-       0.0000   -0.0000   -0.0000   -0.0000   -0.0000    0.0000    0.0000    0.0000    0.0065   -0.0000
       26 O1     4f1-       0.0000    0.0001   -0.0001    0.0030   -0.0025   -0.0005    0.0022    0.0030    0.0000   -0.0006
       27 O1     4f0       -0.0000    0.0000    0.0000    0.0000    0.0000   -0.0000   -0.0000   -0.0000   -0.0038    0.0000
       28 O1     4f1+       0.0000    0.0001   -0.0001    0.0018   -0.0018   -0.0008    0.0008    0.0021    0.0000   -0.0013
       29 O1     4f2+      -0.0000    0.0000    0.0000    0.0000    0.0000   -0.0000    0.0000   -0.0000   -0.0030    0.0000
       30 O1     4f3+       0.0001    0.0002   -0.0002    0.0060   -0.0048   -0.0019    0.0048    0.0060    0.0000   -0.0032
       31 O2     1s         0.9990   -0.0000   -0.0008   -0.0271    0.0000   -0.0171   -0.0080    0.0000    0.0000    0.0000
       32 O2     2s        -0.0073    0.0001    0.0107    0.6164   -0.0000   -0.6751   -0.0860    0.0000    0.0000    0.0000
       33 O2     3s        -0.0051    0.0000    0.0061   -0.0664    0.0000   -0.0138   -0.0130    0.0000    0.0000    0.0000
       34 O2     4s        -0.0012    0.0000    0.0010   -0.0117    0.0000   -0.0037   -0.0038    0.0000    0.0000    0.0000
       35 O2     2px       -0.0019    0.0000    0.0038    0.1095   -0.0000    0.2540    0.6512    0.0000   -0.0000   -0.0000
       36 O2     3px       -0.0025    0.0000    0.0024   -0.0393    0.0000   -0.0351   -0.0668   -0.0000    0.0000    0.0000
       37 O2     4px        0.0017   -0.0000   -0.0008   -0.0023    0.0000    0.0009   -0.0090   -0.0000    0.0000   -0.0000
       38 O2     2py        0.0000   -0.0054    0.0000   -0.0000   -0.3292    0.0000   -0.0000    0.5665   -0.0000   -0.1471
       39 O2     3py        0.0000   -0.0033    0.0000    0.0000    0.0617   -0.0000    0.0000   -0.0566    0.0000   -0.0094
       40 O2     4py       -0.0000    0.0012   -0.0000    0.0000   -0.0015   -0.0000    0.0000   -0.0093    0.0000   -0.0012
       41 O2     2pz       -0.0000   -0.0000    0.0000   -0.0000   -0.0000    0.0000    0.0000    0.0000    0.6913    0.0000
       42 O2     3pz       -0.0000   -0.0000    0.0000   -0.0000   -0.0000   -0.0000   -0.0000   -0.0000   -0.0459    0.0000
       43 O2     4pz        0.0000   -0.0000   -0.0000   -0.0000   -0.0000   -0.0000   -0.0000   -0.0000   -0.0159    0.0000
       44 O2     3d2-       0.0000   -0.0015    0.0000   -0.0000   -0.0423    0.0000   -0.0000    0.0307   -0.0000   -0.0400
       45 O2     4d2-       0.0000   -0.0007    0.0000   -0.0000   -0.0048    0.0000   -0.0000    0.0030    0.0000   -0.0072
       46 O2     3d1-      -0.0000    0.0000    0.0000   -0.0000   -0.0000    0.0000    0.0000    0.0000   -0.0000   -0.0000
       47 O2     4d1-      -0.0000    0.0000    0.0000    0.0000   -0.0000    0.0000    0.0000    0.0000   -0.0000   -0.0000
       48 O2     3d0        0.0006   -0.0000   -0.0010   -0.0155    0.0000   -0.0072   -0.0151   -0.0000   -0.0000    0.0000
       49 O2     4d0        0.0006   -0.0000   -0.0005    0.0007   -0.0000   -0.0005   -0.0010   -0.0000   -0.0000    0.0000
       50 O2     3d1+      -0.0000    0.0000    0.0000    0.0000   -0.0000   -0.0000    0.0000    0.0000    0.0337   -0.0000
       51 O2     4d1+       0.0000    0.0000    0.0000   -0.0000   -0.0000   -0.0000    0.0000    0.0000    0.0052   -0.0000
       52 O2     3d2+       0.0002   -0.0000   -0.0007   -0.0087   -0.0000    0.0015    0.0224    0.0000   -0.0000    0.0000
       53 O2     4d2+       0.0000   -0.0000   -0.0003   -0.0008   -0.0000   -0.0003    0.0026    0.0000   -0.0000    0.0000
       54 O2     4f3-       0.0000   -0.0000    0.0000   -0.0000   -0.0004   -0.0000   -0.0000   -0.0033    0.0000   -0.0095
       55 O2     4f2-      -0.0000    0.0000    0.0000   -0.0000    0.0000    0.0000    0.0000   -0.0000   -0.0000   -0.0000
       56 O2     4f1-      -0.0000    0.0001   -0.0000    0.0000    0.0050   -0.0000    0.0000   -0.0041   -0.0000    0.0010
       57 O2     4f0        0.0000   -0.0000   -0.0000    0.0000   -0.0000    0.0000   -0.0000   -0.0000   -0.0064   -0.0000
       58 O2     4f1+       0.0002   -0.0000   -0.0001   -0.0034    0.0000   -0.0007   -0.0026   -0.0000   -0.0000   -0.0000
       59 O2     4f2+      -0.0000   -0.0000   -0.0000   -0.0000   -0.0000   -0.0000   -0.0000   -0.0000   -0.0045   -0.0000
       60 O2     4f3+       0.0001   -0.0000   -0.0002   -0.0092    0.0000   -0.0007   -0.0030   -0.0000   -0.0000    0.0000
       61 O3     1s         0.0022    0.7116    0.7010   -0.0136   -0.0116    0.0092   -0.0132    0.0231   -0.0000   -0.0057
       62 O3     2s         0.0038   -0.0050   -0.0052    0.3339    0.5755    0.5821   -0.2795    0.4275   -0.0000   -0.0406
       63 O3     3s         0.0022   -0.0036   -0.0036   -0.0106   -0.0188    0.0156   -0.0273    0.0519   -0.0000   -0.0166
       64 O3     4s         0.0004   -0.0007   -0.0007   -0.0008   -0.0041    0.0025   -0.0053    0.0111   -0.0000   -0.0040
       65 O3     2px       -0.0011    0.0014    0.0013   -0.0569   -0.0658    0.1073    0.1218    0.3363   -0.0000    0.5163
       66 O3     3px       -0.0007    0.0015    0.0013    0.0123    0.0091   -0.0177   -0.0041   -0.0310    0.0000    0.0153
       67 O3     4px        0.0001   -0.0007   -0.0008    0.0025    0.0002    0.0009   -0.0001   -0.0023    0.0000   -0.0029
       68 O3     2py        0.0021   -0.0020   -0.0022    0.1074    0.0629   -0.0747    0.3605   -0.2419   -0.0000    0.5230
       69 O3     3py        0.0012   -0.0021   -0.0022   -0.0157   -0.0135    0.0126   -0.0367    0.0351   -0.0000   -0.0015
       70 O3     4py       -0.0005    0.0013    0.0013   -0.0007   -0.0035   -0.0011   -0.0033    0.0028    0.0000   -0.0036
       71 O3     2pz       -0.0000   -0.0000    0.0000   -0.0000    0.0000    0.0000   -0.0000    0.0000    0.3706    0.0000
       72 O3     3pz       -0.0000    0.0000    0.0000    0.0000    0.0000   -0.0000   -0.0000   -0.0000   -0.0191    0.0000
       73 O3     4pz       -0.0000   -0.0000   -0.0000    0.0000    0.0000   -0.0000   -0.0000   -0.0000   -0.0068   -0.0000
       74 O3     3d2-      -0.0004    0.0011    0.0011   -0.0179   -0.0152    0.0119   -0.0089    0.0287   -0.0000   -0.0033
       75 O3     4d2-      -0.0002    0.0005    0.0006   -0.0022   -0.0019    0.0008   -0.0012    0.0025   -0.0000    0.0004
       76 O3     3d1-      -0.0000   -0.0000    0.0000   -0.0000   -0.0000    0.0000   -0.0000    0.0000    0.0263    0.0000
       77 O3     4d1-      -0.0000    0.0000    0.0000   -0.0000   -0.0000    0.0000   -0.0000    0.0000    0.0037    0.0000
       78 O3     3d0       -0.0003    0.0005    0.0005   -0.0104   -0.0089    0.0033   -0.0095    0.0147    0.0000   -0.0039
       79 O3     4d0       -0.0002    0.0004    0.0004   -0.0002   -0.0010   -0.0002   -0.0004    0.0010    0.0000   -0.0001
       80 O3     3d1+       0.0000   -0.0000   -0.0000   -0.0000   -0.0000    0.0000   -0.0000   -0.0000   -0.0181   -0.0000
       81 O3     4d1+      -0.0000   -0.0000   -0.0000   -0.0000   -0.0000    0.0000    0.0000    0.0000   -0.0035   -0.0000
       82 O3     3d2+      -0.0005    0.0005    0.0005   -0.0103   -0.0035    0.0001   -0.0242    0.0032    0.0000   -0.0176
       83 O3     4d2+      -0.0003    0.0003    0.0003   -0.0009   -0.0007    0.0004   -0.0018   -0.0002    0.0000   -0.0031
       84 O3     4f3-      -0.0001   -0.0000   -0.0000   -0.0000    0.0018   -0.0021   -0.0054   -0.0037    0.0000   -0.0048
       85 O3     4f2-      -0.0000   -0.0000   -0.0000   -0.0000   -0.0000   -0.0000   -0.0000   -0.0000   -0.0065   -0.0000
       86 O3     4f1-      -0.0000    0.0002    0.0001   -0.0030   -0.0025    0.0005   -0.0022    0.0030    0.0000   -0.0006
       87 O3     4f0       -0.0000   -0.0000   -0.0000    0.0000    0.0000   -0.0000   -0.0000   -0.0000   -0.0038   -0.0000
       88 O3     4f1+       0.0000   -0.0001   -0.0001    0.0018    0.0018   -0.0008    0.0008   -0.0021    0.0000    0.0013
       89 O3     4f2+      -0.0000    0.0000    0.0000   -0.0000    0.0000   -0.0000   -0.0000   -0.0000   -0.0030   -0.0000
       90 O3     4f3+       0.0001   -0.0002   -0.0002    0.0060    0.0048   -0.0019    0.0048   -0.0060    0.0000    0.0032
 
          Orbital           11        12        13        14        15        16        17        18        19        20    
          Energy           -0.5587   -0.4864   -0.0503    0.1753    0.1760    0.2367    0.2882    0.3431    0.3835    0.3869
          Occ. No.          2.0000    2.0000    0.0000    0.0000    0.0000    0.0000    0.0000    0.0000    0.0000    0.0000
 
        1 O1     1s         0.0051    0.0000    0.0000   -0.1879   -0.1442    0.0000   -0.0017   -0.0186    0.0741   -0.0000
        2 O1     2s         0.0350    0.0000    0.0000   -1.3986   -1.0447   -0.0000    0.0876   -0.0249    0.4067   -0.0000
        3 O1     3s         0.0165   -0.0000    0.0000   -0.8098   -0.6086   -0.0000   -0.0867   -0.0399    0.5423   -0.0000
        4 O1     4s         0.0044   -0.0000    0.0000   -0.1833   -0.1292   -0.0000   -0.0327   -0.0041    0.1614   -0.0000
        5 O1     2px        0.6356    0.0000   -0.0000    0.5026    0.2773    0.0000   -0.2636   -0.2788    0.2246   -0.0000
        6 O1     3px        0.0027   -0.0000    0.0000    0.4364    0.3660    0.0000    0.1354   -0.7380    0.7002   -0.0000
        7 O1     4px       -0.0057   -0.0000    0.0000    0.0380    0.0764   -0.0000    0.1070   -0.2909    0.2612   -0.0000
        8 O1     2py       -0.1500   -0.0000    0.0000    0.5106    0.7509   -0.0000   -0.4527   -0.3048   -0.0796    0.0000
        9 O1     3py       -0.0141    0.0000    0.0000    0.6771    0.6282    0.0000   -0.4673   -0.1869   -0.2605    0.0000
       10 O1     4py        0.0001    0.0000   -0.0000    0.1161    0.0519    0.0000   -0.1725   -0.0371   -0.0232    0.0000
       11 O1     2pz        0.0000   -0.7097    0.6632    0.0000   -0.0000   -0.1680   -0.0000   -0.0000   -0.0000   -0.1862
       12 O1     3pz        0.0000   -0.0374    0.1619   -0.0000    0.0000    0.2938    0.0000   -0.0000   -0.0000   -0.9543
       13 O1     4pz       -0.0000    0.0064    0.0248   -0.0000    0.0000    0.1826   -0.0000   -0.0000   -0.0000   -0.3808
       14 O1     3d2-      -0.0143   -0.0000    0.0000   -0.0800   -0.0560    0.0000   -0.0018   -0.0031   -0.0144    0.0000
       15 O1     4d2-      -0.0015   -0.0000   -0.0000   -0.0501   -0.0379    0.0000    0.0059    0.0143   -0.0169    0.0000
       16 O1     3d1-       0.0000    0.0212    0.0068   -0.0000    0.0000    0.0189    0.0000   -0.0000    0.0000    0.0017
       17 O1     4d1-       0.0000    0.0053   -0.0001   -0.0000    0.0000    0.0089    0.0000    0.0000    0.0000    0.0101
       18 O1     3d0        0.0054    0.0000   -0.0000    0.0542    0.0447    0.0000    0.0139   -0.0037   -0.0104    0.0000
       19 O1     4d0        0.0003    0.0000   -0.0000    0.0357    0.0283    0.0000    0.0039   -0.0100    0.0017   -0.0000
       20 O1     3d1+      -0.0000    0.0142    0.0054   -0.0000    0.0000    0.0053    0.0000    0.0000    0.0000    0.0162
       21 O1     4d1+       0.0000    0.0034   -0.0002   -0.0000   -0.0000    0.0003   -0.0000    0.0000    0.0000    0.0143
       22 O1     3d2+      -0.0017   -0.0000    0.0000    0.0350    0.0491   -0.0000    0.0362   -0.0017   -0.0710    0.0000
       23 O1     4d2+      -0.0013   -0.0000    0.0000    0.0209    0.0330   -0.0000    0.0116   -0.0011   -0.0426    0.0000
       24 O1     4f3-       0.0030    0.0000    0.0000    0.0005   -0.0005    0.0000    0.0008   -0.0049    0.0128   -0.0000
       25 O1     4f2-       0.0000   -0.0049    0.0003   -0.0000   -0.0000    0.0022   -0.0000   -0.0000   -0.0000   -0.0051
       26 O1     4f1-      -0.0015   -0.0000   -0.0000   -0.0062   -0.0037    0.0000    0.0007    0.0048    0.0003   -0.0000
       27 O1     4f0        0.0000    0.0015    0.0014   -0.0000   -0.0000   -0.0011   -0.0000    0.0000    0.0000    0.0062
       28 O1     4f1+      -0.0000    0.0000   -0.0000   -0.0025   -0.0031    0.0000    0.0001    0.0052   -0.0020    0.0000
       29 O1     4f2+       0.0000    0.0021   -0.0005   -0.0000   -0.0000    0.0001    0.0000    0.0000    0.0000    0.0018
       30 O1     4f3+      -0.0026    0.0000    0.0000   -0.0088   -0.0048    0.0000    0.0045    0.0084    0.0006   -0.0000
       31 O2     1s         0.0193    0.0000    0.0000   -0.0000    0.3140   -0.0000   -0.0823   -0.0000   -0.0619    0.0000
       32 O2     2s         0.2370    0.0000    0.0000   -0.0001    2.2746   -0.0000   -0.6813   -0.0000   -0.4128    0.0000
       33 O2     3s         0.0460   -0.0000    0.0000   -0.0000    1.2710   -0.0000   -0.1907   -0.0000   -0.1899    0.0000
       34 O2     4s         0.0114   -0.0000    0.0000   -0.0000    0.2717   -0.0000   -0.0389   -0.0000   -0.0036    0.0000
       35 O2     2px       -0.4727   -0.0000    0.0000   -0.0000    0.8366   -0.0000   -0.3657   -0.0000   -0.6203    0.0000
       36 O2     3px        0.0003   -0.0000    0.0000   -0.0000    0.9298   -0.0000    0.2304   -0.0000   -1.5098    0.0000
       37 O2     4px       -0.0007   -0.0000   -0.0000   -0.0000    0.1475   -0.0000    0.1405   -0.0000   -0.3737    0.0000
       38 O2     2py        0.0000    0.0000   -0.0000    1.3076    0.0000    0.0000   -0.0000   -0.1720   -0.0000    0.0000
       39 O2     3py        0.0000    0.0000   -0.0000    1.2465    0.0000    0.0000   -0.0000    0.5014   -0.0000    0.0000
       40 O2     4py        0.0000    0.0000   -0.0000    0.1300    0.0000    0.0000   -0.0000    0.2361   -0.0000    0.0000
       41 O2     2pz       -0.0000   -0.0000   -0.8529   -0.0000    0.0000    0.0403   -0.0000   -0.0000    0.0000   -0.0000
       42 O2     3pz        0.0000   -0.0000   -0.1828   -0.0000    0.0000    0.4223    0.0000    0.0000    0.0000   -0.0000
       43 O2     4pz        0.0000    0.0000   -0.0217   -0.0000    0.0000    0.2152    0.0000    0.0000    0.0000   -0.0000
       44 O2     3d2-       0.0000    0.0000   -0.0000    0.1415    0.0000    0.0000   -0.0000    0.0876   -0.0000   -0.0000
       45 O2     4d2-       0.0000    0.0000   -0.0000    0.0887    0.0000    0.0000   -0.0000    0.0649   -0.0000   -0.0000
       46 O2     3d1-       0.0000   -0.0569    0.0000    0.0000   -0.0000    0.0000    0.0000    0.0000    0.0000    0.0916
       47 O2     4d1-       0.0000   -0.0135    0.0000    0.0000   -0.0000    0.0000    0.0000    0.0000    0.0000    0.0550
       48 O2     3d0        0.0177    0.0000   -0.0000    0.0000   -0.0866    0.0000   -0.0539    0.0000    0.1122   -0.0000
       49 O2     4d0        0.0020    0.0000   -0.0000    0.0000   -0.0567    0.0000   -0.0288    0.0000    0.0714   -0.0000
       50 O2     3d1+       0.0000   -0.0000    0.0082    0.0000   -0.0000   -0.0276   -0.0000    0.0000    0.0000   -0.0000
       51 O2     4d1+       0.0000   -0.0000    0.0018    0.0000   -0.0000   -0.0098    0.0000    0.0000    0.0000   -0.0000
       52 O2     3d2+       0.0401    0.0000   -0.0000    0.0000   -0.0385    0.0000   -0.0662   -0.0000   -0.0430    0.0000
       53 O2     4d2+       0.0087    0.0000   -0.0000    0.0000   -0.0185    0.0000   -0.0265   -0.0000   -0.0405    0.0000
       54 O2     4f3-       0.0000    0.0000   -0.0000   -0.0036   -0.0000   -0.0000    0.0000    0.0063   -0.0000   -0.0000
       55 O2     4f2-       0.0000   -0.0088    0.0000    0.0000   -0.0000    0.0000   -0.0000    0.0000    0.0000    0.0083
       56 O2     4f1-      -0.0000   -0.0000    0.0000   -0.0075   -0.0000    0.0000    0.0000   -0.0128    0.0000   -0.0000
       57 O2     4f0       -0.0000    0.0000   -0.0019    0.0000    0.0000   -0.0033   -0.0000    0.0000    0.0000    0.0000
       58 O2     4f1+      -0.0002    0.0000    0.0000    0.0000   -0.0080    0.0000   -0.0067    0.0000    0.0155   -0.0000
       59 O2     4f2+       0.0000    0.0000    0.0009    0.0000    0.0000   -0.0014    0.0000    0.0000   -0.0000    0.0000
       60 O2     4f3+       0.0066    0.0000   -0.0000    0.0000   -0.0122    0.0000   -0.0077    0.0000    0.0155   -0.0000
       61 O3     1s         0.0051    0.0000   -0.0000    0.1879   -0.1442    0.0000   -0.0017    0.0186    0.0741   -0.0000
       62 O3     2s         0.0350    0.0000   -0.0000    1.3986   -1.0447    0.0000    0.0876    0.0249    0.4067   -0.0000
       63 O3     3s         0.0165    0.0000   -0.0000    0.8098   -0.6085    0.0000   -0.0867    0.0399    0.5423   -0.0000
       64 O3     4s         0.0044    0.0000   -0.0000    0.1833   -0.1292    0.0000   -0.0327    0.0041    0.1614   -0.0000
       65 O3     2px        0.6355    0.0000    0.0000   -0.5026    0.2773   -0.0000   -0.2636    0.2788    0.2246   -0.0000
       66 O3     3px        0.0027   -0.0000    0.0000   -0.4365    0.3660   -0.0000    0.1354    0.7380    0.7002   -0.0000
       67 O3     4px       -0.0057   -0.0000    0.0000   -0.0380    0.0764   -0.0000    0.1070    0.2909    0.2612   -0.0000
       68 O3     2py        0.1500   -0.0000   -0.0000    0.5106   -0.7509    0.0000    0.4527   -0.3048    0.0796   -0.0000
       69 O3     3py        0.0141    0.0000   -0.0000    0.6772   -0.6282    0.0000    0.4673   -0.1869    0.2605   -0.0000
       70 O3     4py       -0.0001   -0.0000    0.0000    0.1161   -0.0519    0.0000    0.1725   -0.0371    0.0232   -0.0000
       71 O3     2pz       -0.0000    0.7097    0.6632    0.0000   -0.0000   -0.1680    0.0000    0.0000    0.0000    0.1862
       72 O3     3pz       -0.0000    0.0374    0.1619    0.0000   -0.0000    0.2938    0.0000    0.0000    0.0000    0.9543
       73 O3     4pz        0.0000   -0.0064    0.0248   -0.0000   -0.0000    0.1826    0.0000    0.0000    0.0000    0.3808
       74 O3     3d2-       0.0143    0.0000    0.0000   -0.0800    0.0560   -0.0000    0.0018   -0.0031    0.0144   -0.0000
       75 O3     4d2-       0.0015   -0.0000    0.0000   -0.0501    0.0379   -0.0000   -0.0059    0.0143    0.0169   -0.0000
       76 O3     3d1-      -0.0000    0.0212   -0.0068    0.0000   -0.0000   -0.0189    0.0000    0.0000    0.0000    0.0017
       77 O3     4d1-      -0.0000    0.0053    0.0001    0.0000   -0.0000   -0.0089    0.0000    0.0000    0.0000    0.0101
       78 O3     3d0        0.0054   -0.0000    0.0000   -0.0542    0.0447   -0.0000    0.0139    0.0037   -0.0104    0.0000
       79 O3     4d0        0.0003   -0.0000    0.0000   -0.0357    0.0283   -0.0000    0.0039    0.0100    0.0017    0.0000
       80 O3     3d1+       0.0000   -0.0142    0.0054    0.0000   -0.0000    0.0053    0.0000   -0.0000   -0.0000   -0.0162
       81 O3     4d1+       0.0000   -0.0034   -0.0002    0.0000   -0.0000    0.0003   -0.0000   -0.0000   -0.0000   -0.0143
       82 O3     3d2+      -0.0017    0.0000    0.0000   -0.0351    0.0491   -0.0000    0.0362    0.0017   -0.0710    0.0000
       83 O3     4d2+      -0.0013   -0.0000    0.0000   -0.0209    0.0330   -0.0000    0.0116    0.0011   -0.0426    0.0000
       84 O3     4f3-      -0.0030    0.0000    0.0000    0.0005    0.0005    0.0000   -0.0008   -0.0049   -0.0128    0.0000
       85 O3     4f2-       0.0000   -0.0049   -0.0003    0.0000    0.0000   -0.0022    0.0000   -0.0000   -0.0000   -0.0051
       86 O3     4f1-       0.0015    0.0000    0.0000   -0.0062    0.0037   -0.0000   -0.0007    0.0048   -0.0003    0.0000
       87 O3     4f0        0.0000   -0.0015    0.0014    0.0000   -0.0000   -0.0011   -0.0000   -0.0000   -0.0000   -0.0062
       88 O3     4f1+      -0.0000   -0.0000    0.0000    0.0025   -0.0031    0.0000    0.0001   -0.0052   -0.0020    0.0000
       89 O3     4f2+       0.0000   -0.0021   -0.0005   -0.0000    0.0000    0.0001   -0.0000   -0.0000   -0.0000   -0.0018
       90 O3     4f3+      -0.0026   -0.0000   -0.0000    0.0088   -0.0048    0.0000    0.0045   -0.0084    0.0006   -0.0000
 
          Orbital           21        22    
          Energy            0.4223    0.4326
          Occ. No.          0.0000    0.0000
 
        1 O1     1s        -0.0344    0.0039
        2 O1     2s        -0.1632    0.0950
        3 O1     3s        -0.1623   -0.1638
        4 O1     4s        -0.0160   -0.0528
        5 O1     2px        0.1622   -0.3443
        6 O1     3px        0.4342    0.1822
        7 O1     4px        0.0828    0.0879
        8 O1     2py       -0.0718   -0.1235
        9 O1     3py        0.7702    0.5112
       10 O1     4py        0.2448    0.1749
       11 O1     2pz        0.0000   -0.0000
       12 O1     3pz        0.0000   -0.0000
       13 O1     4pz        0.0000   -0.0000
       14 O1     3d2-      -0.1409   -0.0910
       15 O1     4d2-      -0.0905   -0.0499
       16 O1     3d1-       0.0000    0.0000
       17 O1     4d1-       0.0000    0.0000
       18 O1     3d0        0.0448    0.0726
       19 O1     4d0        0.0274    0.0442
       20 O1     3d1+       0.0000    0.0000
       21 O1     4d1+       0.0000    0.0000
       22 O1     3d2+       0.0611    0.0109
       23 O1     4d2+       0.0330    0.0144
       24 O1     4f3-       0.0008    0.0027
       25 O1     4f2-       0.0000    0.0000
       26 O1     4f1-      -0.0085   -0.0094
       27 O1     4f0       -0.0000    0.0000
       28 O1     4f1+      -0.0061   -0.0060
       29 O1     4f2+       0.0000    0.0000
       30 O1     4f3+      -0.0175   -0.0080
       31 O2     1s         0.1850    0.0000
       32 O2     2s         0.9737    0.0000
       33 O2     3s         0.9506    0.0000
       34 O2     4s         0.2119    0.0000
       35 O2     2px       -0.3269   -0.0000
       36 O2     3px       -0.2321   -0.0000
       37 O2     4px       -0.1779   -0.0000
       38 O2     2py        0.0000   -0.7984
       39 O2     3py        0.0000   -0.2383
       40 O2     4py        0.0000   -0.1153
       41 O2     2pz        0.0000   -0.0000
       42 O2     3pz       -0.0000   -0.0000
       43 O2     4pz       -0.0000   -0.0000
       44 O2     3d2-      -0.0000    0.1648
       45 O2     4d2-      -0.0000    0.0598
       46 O2     3d1-      -0.0000    0.0000
       47 O2     4d1-      -0.0000    0.0000
       48 O2     3d0       -0.1447   -0.0000
       49 O2     4d0       -0.0599   -0.0000
       50 O2     3d1+      -0.0000   -0.0000
       51 O2     4d1+      -0.0000   -0.0000
       52 O2     3d2+      -0.0773   -0.0000
       53 O2     4d2+      -0.0279   -0.0000
       54 O2     4f3-      -0.0000    0.0026
       55 O2     4f2-      -0.0000    0.0000
       56 O2     4f1-      -0.0000    0.0014
       57 O2     4f0       -0.0000    0.0000
       58 O2     4f1+      -0.0022   -0.0000
       59 O2     4f2+      -0.0000    0.0000
       60 O2     4f3+      -0.0072   -0.0000
       61 O3     1s        -0.0344   -0.0039
       62 O3     2s        -0.1632   -0.0950
       63 O3     3s        -0.1623    0.1638
       64 O3     4s        -0.0160    0.0528
       65 O3     2px        0.1622    0.3443
       66 O3     3px        0.4342   -0.1822
       67 O3     4px        0.0828   -0.0879
       68 O3     2py        0.0718   -0.1235
       69 O3     3py       -0.7702    0.5112
       70 O3     4py       -0.2448    0.1749
       71 O3     2pz       -0.0000    0.0000
       72 O3     3pz       -0.0000    0.0000
       73 O3     4pz       -0.0000    0.0000
       74 O3     3d2-       0.1409   -0.0910
       75 O3     4d2-       0.0905   -0.0499
       76 O3     3d1-       0.0000    0.0000
       77 O3     4d1-       0.0000    0.0000
       78 O3     3d0        0.0448   -0.0726
       79 O3     4d0        0.0274   -0.0442
       80 O3     3d1+      -0.0000   -0.0000
       81 O3     4d1+      -0.0000   -0.0000
       82 O3     3d2+       0.0611   -0.0109
       83 O3     4d2+       0.0330   -0.0144
       84 O3     4f3-      -0.0008    0.0027
       85 O3     4f2-      -0.0000   -0.0000
       86 O3     4f1-       0.0085   -0.0094
       87 O3     4f0        0.0000   -0.0000
       88 O3     4f1+      -0.0061    0.0060
       89 O3     4f2+       0.0000   -0.0000
       90 O3     4f3+      -0.0175    0.0080
--
 
 
++    Molecular charges:
      ------------------
 
      Mulliken charges per centre and basis function type
      ---------------------------------------------------
 
                O1      O2      O3    
      1s       1.9979  1.9980  1.9979
      2s       1.9431  1.7230  1.9431
      2px      1.6618  1.5038  1.6618
      2pz      1.3653  1.1896  1.3653
      2py      1.1719  1.0598  1.1719
      3s      -0.0009 -0.0214 -0.0009
      3px     -0.0109 -0.0118 -0.0109
      3pz     -0.0123 -0.0131 -0.0123
      3py      0.0039  0.0005  0.0039
      4s       0.0045  0.0023  0.0045
      3d2+     0.0095  0.0386  0.0095
      3d1+     0.0049  0.0100  0.0049
      3d0      0.0055  0.0075  0.0055
      3d1-     0.0102  0.0439  0.0102
      3d2-     0.0183  0.0416  0.0183
      4px      0.0009  0.0020  0.0009
      4pz      0.0012  0.0016  0.0012
      4py      0.0022  0.0030  0.0022
      4d2+    -0.0000  0.0079 -0.0000
      4d1+     0.0009  0.0014  0.0009
      4d0     -0.0001 -0.0001 -0.0001
      4d1-     0.0009  0.0113  0.0009
      4d2-     0.0007  0.0039  0.0007
      4f3+     0.0030  0.0034  0.0030
      4f2+     0.0004  0.0006  0.0004
      4f1+     0.0004  0.0006  0.0004
      4f0      0.0009  0.0016  0.0009
      4f1-     0.0008  0.0011  0.0008
      4f2-     0.0018  0.0046  0.0018
      4f3-     0.0020  0.0072  0.0020
      Total    8.1888  7.6225  8.1888
 
      N-E     -0.1888  0.3775 -0.1888
 
      Total electronic charge=   24.000000
 
      Total            charge=   -0.000000
--
 
 
  Input file to MOLDEN was generated!
 
 
++    Static properties:
      ------------------
 
 
      LoProp Charges per center
 

                   O1       O2       O3    
      Nuclear      8.0000   8.0000   8.0000
      Electronic  -8.2091  -7.5818  -8.2091
 
      Total       -0.2091   0.4182  -0.2091
--
 
 
++    Natural Bond Order analysis
      ---------------------------
      Based on LoProp computed density
      -------------------------------------------------------------------------------------
      Atom A       Atom B       Bond Order | Atom A       Atom B       Bond Order
        O1           O2             1.998  |   O2           O3             1.998
      -------------------------------------------------------------------------------------
      NBO located      9.999 core electrons.
      NBO located      5.939 lone pair electrons.
      NBO located      7.990 electrons involved in    2 bonds.
      The remaining    0.071 electrons are to be considered as diffuse
--
 
 
++    Molecular properties:
      ---------------------
 
      Charge (e):
                      =   -0.0000
      Dipole Moment (Debye):
      Origin of the operator (Ang)=    0.0000    0.0000    0.0000
                   X= -8.4796E-01               Y=  9.9686E-06               Z= -5.5282E-14           Total=  8.4796E-01
      Quadrupole Moment (Debye*Ang):
      Origin of the operator (Ang)=    0.4625    0.0000    0.0000
                  XX= -1.5672E+01              XY=  2.5936E-06              XZ= -2.2981E-13              YY= -1.7380E+01
                  YZ= -1.1067E-13              ZZ= -1.4896E+01
      In traceless form (Debye*Ang)
                  XX=  4.6611E-01              XY=  3.8904E-06              XZ= -3.4471E-13              YY= -2.0959E+00
                  YZ= -1.6600E-13              ZZ=  1.6298E+00
--
 
 
  Input file to MOLDEN was generated!
 
 ###############################################################################
 ###############################################################################
 ###                                                                         ###
 ###                                                                         ###
 ###    RunFile label nBas                                                   ###
 ###    was used       78 times                                              ###
 ###                                                                         ###
 ###                                                                         ###
 ###############################################################################
 ###############################################################################
forrtl: warning (528): IEEE_UNDERFLOW is signaling
--- Stop Module: scf at Fri Apr 11 18:34:08 2025 /rc=_RC_ALL_IS_WELL_ ---
*** files: ozone_114.25.LprOrb ozone_114.25.LoProp.molden ozone_114.25.scf.molden ozone_114.25.ScfOrb ozone_114.25.scf.h5 xmldump
    saved to directory /home/grierjones/DDCASPT2/ozone/multistate/ANO-RCC-VTZP/ozone_114.25

>>> COPY /tmp/ozone_114.25/ozone_114.25.scf.h5 /home/grierjones/DDCASPT2/ozone/multistate/ANO-RCC-VTZP/ozone_114.25/

*** symbolic link created: INPORB -> ozone_114.25.ScfOrb
--- Start Module: rasscf at Fri Apr 11 18:34:08 2025 ---
 
()()()()()()()()()()()()()()()()()()()()()()()()()()()()()()()()()()()()()()()()()()()()()()()()()()

                                              &RASSCF

                                   only a single process is used
                       available to each process: 2.0 GB of memory, 1 thread?
()()()()()()()()()()()()()()()()()()()()()()()()()()()()()()()()()()()()()()()()()()()()()()()()()()
 
 
      Header of the ONEINT file:
      --------------------------
      
      Integrals generated by seward 4.2.0  , Fri Apr 11 18:34:05 2025
 
 
      OrdInt status: non-squared
 
 
      Cartesian coordinates in Angstrom:
      -----------------------------------------------------
      No.  Label        X            Y            Z        
      -----------------------------------------------------
       1   O1         0.69370900   1.07333700   0.00000000
       2   O2         0.00000000   0.00000000   0.00000000
       3   O3         0.69370900  -1.07333700   0.00000000
      -----------------------------------------------------
      Nuclear repulsion energy =   68.77718439
 
++    Wave function specifications:
      -----------------------------
 
      Number of closed shell electrons          20
      Number of electrons in active shells       4
      Max number of holes in RAS1 space          0
      Max nr of electrons in RAS3 space          0
      Number of inactive orbitals               10
      Number of active orbitals                  3
      Number of secondary orbitals              77
      Spin quantum number                      0.0
      State symmetry                             1
--
 
++    Orbital specifications:
      -----------------------
 
      Symmetry species                           1
                                                 a
      Frozen orbitals                            0
      Inactive orbitals                         10
      Active orbitals                            3
      RAS1 orbitals                              0
      RAS2 orbitals                              3
      RAS3 orbitals                              0
      Secondary orbitals                        77
      Deleted orbitals                           0
      Number of basis functions                 90
--
 
++    CI expansion specifications:
      ----------------------------
 
      Number of CSFs                             6
      Number of determinants                     6
      Number of root(s) required                 3
      Root chosen for geometry opt.              3
      CI roots used                              1     2     3
      weights                                0.333 0.333 0.333
      highest root included in the CI            3
      max. size of the explicit Hamiltonian      6
--
 
++    Optimization specifications:
      ----------------------------
 
      RASSCF algorithm: Conventional
      Maximum number of macro iterations       200
      Maximum number of SX iterations          100
      Threshold for RASSCF energy            0.100E-07
      Threshold for max MO rotation          0.100E+00
      Threshold for max BLB element          0.100E-03
      Level shift parameter                  0.500E+00
      Make Quasi-Newton update
--
 
      The MO-coefficients are taken from the file:
      /home/grierjones/DDCASPT2/ozone/multistate/ANO-RCC-VTZP/ozone_114.00/ozone_114.00.RasOrb                                        
      Title: RASSCF average (pseudo-natural) orbitals                                      
 
      Total molecular charge    0.00
 
      ************************************************************************************************************************
      *                                                                                                                      *
      *                                            Wave function control section                                             *
      *                                                                                                                      *
      ************************************************************************************************************************
 
 
                                         RASSCF iterations: Energy and convergence statistics
                                         ----------------------------------------------------
 
      Iter CI   SX   CI       RASSCF       Energy    max ROT     max BLB   max BLB  Level Ln srch  Step   QN   Walltime
          iter iter root      energy       change     param      element    value   shift minimum  type update hh:mm:ss
 Nr of preliminary CI iterations:   1
        1   1    4    0  -224.47837938    0.00E+00   0.71E-03    8  79 1 -0.79E-03*  0.29   0.00    SX    NO    0:00:00
        2   1    4    0  -224.47838460   -0.52E-05*  0.48E-03    9  21 1  0.41E-03*  0.29   0.00    SX    NO    0:00:00
        3   1    4    0  -224.47838597   -0.14E-05*  0.32E-03    9  21 1  0.20E-03*  0.29   0.00    SX    NO    0:00:00
        4   1    4    0  -224.47838646   -0.49E-06*  0.22E-03    9  21 1  0.12E-03*  0.29   0.00    SX    NO    0:00:00
        5   1    4    0  -224.47838665   -0.19E-06*  0.32E-03    8  11 1  0.69E-04   0.29   2.50    LS   YES    0:00:00
        6   1    4    0  -224.47838678   -0.13E-06*  0.14E-03    9  21 1 -0.40E-04   0.29   1.18    QN   YES    0:00:00
        7   1    3    0  -224.47838680   -0.20E-07* -0.14E-03    8  22 1  0.52E-04   0.29   1.12    QN   YES    0:00:00
        8   1    3    0  -224.47838682   -0.14E-07*  0.13E-03   12  22 1 -0.23E-04   0.29   1.48    QN   YES    0:00:00
        9   1    3    0  -224.47838682   -0.72E-08   0.40E-04   12  22 1 -0.94E-05   0.29   1.19    QN   YES    0:00:00
      Convergence after  9 iterations
 
  Dmat in MO in SXCTL bf call to SXHAM                                                                                    
  mat. size =     3x    3
 
        1.4039826361952961
       -0.0033775446582379      1.6650981349940996
        0.0002480309926548     -0.0009956936185618      0.9309192288106047
       10   1    3    0  -224.47838683   -0.13E-08   0.40E-04   10  11 1 -0.61E-05   0.29   1.19    QN   YES    0:00:00
 
      ************************************************************************************************************************
                                                      Wave function printout:
                       occupation of active orbitals, and spin coupling of open shells (u,d: Spin up or down)
      ************************************************************************************************************************
 
      Note: transformation to natural orbitals
      has been made, which may change the order of the CSFs.
 
      printout of CI-coefficients larger than  0.05 for root  1
      energy=    -224.508641
      conf/sym  111     Coeff  Weight
             1  220   0.83700 0.70057
             2  2ud  -0.21740 0.04726
             4  u2d  -0.35823 0.12833
             5  ud2   0.28038 0.07862
             6  022  -0.21190 0.04490
 
      printout of CI-coefficients larger than  0.05 for root  2
      energy=    -224.499442
      conf/sym  111     Coeff  Weight
             1  220   0.33512 0.11231
             2  2ud   0.53432 0.28550
             4  u2d  -0.10807 0.01168
             5  ud2  -0.76641 0.58738
             6  022  -0.05499 0.00302
 
      printout of CI-coefficients larger than  0.05 for root  3
      energy=    -224.427077
      conf/sym  111     Coeff  Weight
             1  220  -0.42060 0.17690
             4  u2d  -0.86877 0.75477
             6  022  -0.25527 0.06516
 
      Natural orbitals and occupation numbers for root  1
      sym 1:   1.751056   1.998788   0.250157
 
      Natural orbitals and occupation numbers for root  2
      sym 1:   0.809627   1.220409   1.969965
 
      Natural orbitals and occupation numbers for root  3
      sym 1:   1.838259   1.996823   0.164917
 
      ************************************************************************************************************************
      *                                                                                                                      *
      *                                                    Final results                                                     *
      *                                                                                                                      *
      ************************************************************************************************************************
 
 
++    Wave function specifications:
      -----------------------------
 
      Number of closed shell electrons          20
      Number of electrons in active shells       4
      Max number of holes in RAS1 space          0
      Max nr of electrons in RAS3 space          0
      Number of inactive orbitals               10
      Number of active orbitals                  3
      Number of secondary orbitals              77
      Spin quantum number                      0.0
      State symmetry                             1
--
 
++    Orbital specifications:
      -----------------------
 
      Symmetry species                           1
                                                 a
      Frozen orbitals                            0
      Inactive orbitals                         10
      Active orbitals                            3
      RAS1 orbitals                              0
      RAS2 orbitals                              3
      RAS3 orbitals                              0
      Secondary orbitals                        77
      Deleted orbitals                           0
      Number of basis functions                 90
--
 
++    CI expansion specifications:
      ----------------------------
 
      Number of CSFs                             6
      Number of determinants                     6
      Number of root(s) required                 3
      CI roots used                              1     2     3
      weights                                0.333 0.333 0.333
      highest root included in the CI            3
      Root passed to geometry opt.               3
--
 
++    Final optimization conditions:
      ------------------------------
 
      Average CI energy                            -224.47838683
      RASSCF energy for state  3                   -224.42707743
      Super-CI energy                                -0.00000000
      RASSCF energy change                           -0.00000000
      Max change in MO coefficients              -0.366E-04
      Max non-diagonal density matrix element     0.395E-04
      Maximum BLB matrix element                 -0.609E-05
      (orbital pair  10,  11 in symmetry   1)
      Norm of electronic gradient            0.186E+00
--
 
 
      Final state energy(ies):
      ------------------------
 
::    RASSCF root number  1 Total energy:   -224.50864104
::    RASSCF root number  2 Total energy:   -224.49944201
::    RASSCF root number  3 Total energy:   -224.42707743
 
++    Molecular orbitals:
      -------------------
 
      Pseudonatural active orbitals and approximate occupation numbers
 
 
 
 
      Molecular orbitals for symmetry species 1: a  
 
 
      Orbital                1         2         3         4         5         6         7         8         9        10
      Energy          -20.8329  -20.7349  -20.7323   -1.7211   -1.4168   -1.0837   -0.7896   -0.7764   -0.7735   -0.5473
      Occ. No.          2.0000    2.0000    2.0000    2.0000    2.0000    2.0000    2.0000    2.0000    2.0000    2.0000
 
    1 O1     1s         0.0039    0.9989    0.0083   -0.0138    0.0103    0.0118    0.0002   -0.0244   -0.0081   -0.0001
    2 O1     2s         0.0043   -0.0071   -0.0003    0.3551   -0.5955    0.5991   -0.0008   -0.4182   -0.1468   -0.0026
    3 O1     3s         0.0025   -0.0051   -0.0001   -0.0133    0.0186    0.0201    0.0007   -0.0552   -0.0179    0.0017
    4 O1     4s         0.0004   -0.0010    0.0000   -0.0014    0.0042    0.0030    0.0002   -0.0120   -0.0039    0.0007
    5 O1     2px       -0.0012    0.0019   -0.0001   -0.0553    0.0609    0.1043    0.1307   -0.2655    0.0277    0.3158
    6 O1     3px       -0.0008    0.0019   -0.0001    0.0132   -0.0085   -0.0188   -0.0099    0.0280   -0.0070    0.0068
    7 O1     4px        0.0001   -0.0011   -0.0001    0.0022   -0.0003    0.0004   -0.0010    0.0027   -0.0003   -0.0026
    8 O1     2py       -0.0025    0.0029    0.0002   -0.1126    0.0640    0.1117   -0.0982   -0.4064   -0.2759   -0.1704
    9 O1     3py       -0.0014    0.0030    0.0001    0.0172   -0.0131   -0.0183    0.0065    0.0410    0.0263   -0.0056
   10 O1     4py        0.0006   -0.0018   -0.0001    0.0006   -0.0036    0.0014    0.0013    0.0049    0.0043    0.0010
   11 O1     2pz        0.0000    0.0000   -0.0000    0.0007   -0.0028   -0.0058   -0.3511   -0.0345    0.1061   -0.6959
   12 O1     3pz        0.0000    0.0000   -0.0000   -0.0001    0.0002    0.0004    0.0263    0.0048   -0.0124   -0.0134
   13 O1     4pz        0.0000   -0.0000   -0.0000   -0.0000   -0.0000   -0.0000    0.0049    0.0007   -0.0021    0.0062
   14 O1     3d2-       0.0005   -0.0013   -0.0000    0.0177   -0.0151   -0.0130   -0.0035    0.0303    0.0047   -0.0037
   15 O1     4d2-       0.0002   -0.0008   -0.0000    0.0020   -0.0019   -0.0009   -0.0002    0.0028    0.0004   -0.0007
   16 O1     3d1-      -0.0000    0.0000   -0.0000    0.0001   -0.0004    0.0003    0.0211    0.0034   -0.0099    0.0130
   17 O1     4d1-       0.0000   -0.0000   -0.0000    0.0000   -0.0001    0.0001    0.0024    0.0004   -0.0012    0.0025
   18 O1     3d0       -0.0004    0.0009   -0.0000   -0.0110    0.0084    0.0062   -0.0005   -0.0181   -0.0081    0.0002
   19 O1     4d0       -0.0002    0.0005   -0.0000   -0.0004    0.0011    0.0002    0.0000   -0.0014   -0.0006   -0.0002
   20 O1     3d1+      -0.0000   -0.0001   -0.0000   -0.0004    0.0007   -0.0005    0.0134    0.0025   -0.0061    0.0082
   21 O1     4d1+       0.0000    0.0000   -0.0000   -0.0000    0.0002   -0.0002    0.0019    0.0004   -0.0009    0.0013
   22 O1     3d2+      -0.0005    0.0006    0.0000   -0.0109    0.0039    0.0014   -0.0098   -0.0108   -0.0224   -0.0051
   23 O1     4d2+      -0.0003    0.0004    0.0000   -0.0010    0.0007    0.0001   -0.0010   -0.0007   -0.0022   -0.0012
   24 O1     4f3-       0.0001    0.0000   -0.0000    0.0002    0.0016    0.0017    0.0027   -0.0016    0.0045    0.0013
   25 O1     4f2-      -0.0000    0.0000   -0.0000   -0.0001    0.0000    0.0001   -0.0049   -0.0011    0.0018   -0.0030
   26 O1     4f1-       0.0001   -0.0002    0.0000    0.0036   -0.0028   -0.0010    0.0008    0.0042    0.0025    0.0008
   27 O1     4f0       -0.0000   -0.0000   -0.0000   -0.0000   -0.0000   -0.0001    0.0043    0.0008   -0.0022    0.0025
   28 O1     4f1+       0.0000   -0.0001   -0.0000    0.0021   -0.0021   -0.0012   -0.0012    0.0028    0.0001   -0.0016
   29 O1     4f2+      -0.0000    0.0000    0.0000   -0.0002    0.0001    0.0003    0.0024   -0.0002   -0.0012    0.0013
   30 O1     4f3+       0.0001   -0.0003    0.0000    0.0055   -0.0044   -0.0021    0.0005    0.0061    0.0031   -0.0000
   31 O2     1s         0.9988   -0.0021   -0.0020   -0.0278    0.0001   -0.0157   -0.0056   -0.0039   -0.0150    0.0067
   32 O2     2s        -0.0080    0.0074    0.0076    0.5905    0.0058   -0.6873   -0.0764   -0.0540   -0.2037    0.0866
   33 O2     3s        -0.0058    0.0043    0.0044   -0.0570    0.0003   -0.0245   -0.0107   -0.0079   -0.0307    0.0167
   34 O2     4s        -0.0011    0.0007    0.0007   -0.0112    0.0001   -0.0046   -0.0028   -0.0020   -0.0077    0.0040
   35 O2     2px       -0.0022    0.0027    0.0027    0.1107   -0.0014    0.1831    0.2645    0.1428    0.6468   -0.1315
   36 O2     3px       -0.0027    0.0017    0.0017   -0.0373   -0.0001   -0.0235   -0.0212   -0.0092   -0.0445   -0.0028
   37 O2     4px        0.0020   -0.0006   -0.0006   -0.0035   -0.0001    0.0017   -0.0045   -0.0020   -0.0099    0.0000
   38 O2     2py       -0.0001    0.0038   -0.0038    0.0013   -0.2954   -0.0031   -0.1146    0.5354   -0.0629    0.0278
   39 O2     3py       -0.0001    0.0023   -0.0023   -0.0003    0.0568    0.0002    0.0118   -0.0461    0.0047    0.0037
   40 O2     4py        0.0000   -0.0008    0.0008   -0.0001   -0.0008    0.0001    0.0023   -0.0097    0.0012    0.0006
   41 O2     2pz        0.0000   -0.0000    0.0000    0.0011    0.0031   -0.0003   -0.6297   -0.1255    0.3346    0.1010
   42 O2     3pz        0.0000   -0.0000    0.0000    0.0000   -0.0001   -0.0001    0.0400    0.0065   -0.0184    0.0035
   43 O2     4pz       -0.0000    0.0000   -0.0000    0.0000   -0.0000    0.0000    0.0110    0.0020   -0.0056   -0.0009
   44 O2     3d2-      -0.0000    0.0011   -0.0010    0.0002   -0.0406    0.0000   -0.0072    0.0390   -0.0026    0.0105
   45 O2     4d2-      -0.0000    0.0005   -0.0005   -0.0000   -0.0042    0.0001   -0.0007    0.0045   -0.0001    0.0019
   46 O2     3d1-      -0.0000   -0.0000   -0.0000   -0.0002    0.0002    0.0005   -0.0008    0.0005   -0.0015   -0.0394
   47 O2     4d1-       0.0000   -0.0000   -0.0000   -0.0001    0.0000    0.0002    0.0000    0.0001   -0.0002   -0.0075
   48 O2     3d0        0.0010   -0.0007   -0.0007   -0.0170    0.0005   -0.0062   -0.0075   -0.0048   -0.0193    0.0059
   49 O2     4d0        0.0006   -0.0004   -0.0004   -0.0002    0.0001   -0.0004   -0.0007   -0.0005   -0.0018    0.0007
   50 O2     3d1+       0.0000    0.0000    0.0000    0.0004   -0.0001   -0.0003   -0.0263   -0.0045    0.0131    0.0017
   51 O2     4d1+      -0.0000    0.0000    0.0000    0.0001   -0.0000   -0.0001   -0.0032   -0.0005    0.0017    0.0003
   52 O2     3d2+       0.0003   -0.0005   -0.0005   -0.0081    0.0005    0.0032    0.0098    0.0022    0.0172    0.0097
   53 O2     4d2+       0.0001   -0.0002   -0.0002   -0.0005    0.0001    0.0007    0.0014    0.0002    0.0027    0.0019
   54 O2     4f3-      -0.0000    0.0000   -0.0000    0.0000   -0.0007    0.0000    0.0008   -0.0013    0.0004    0.0026
   55 O2     4f2-       0.0000   -0.0000   -0.0000    0.0000    0.0000   -0.0000   -0.0002    0.0001   -0.0003   -0.0071
   56 O2     4f1-       0.0000   -0.0001    0.0001   -0.0002    0.0063    0.0001    0.0014   -0.0059    0.0006   -0.0003
   57 O2     4f0       -0.0000   -0.0000   -0.0000   -0.0000    0.0000    0.0000    0.0074    0.0013   -0.0037   -0.0003
   58 O2     4f1+       0.0002   -0.0001   -0.0001   -0.0044    0.0000   -0.0009   -0.0020   -0.0010   -0.0044    0.0004
   59 O2     4f2+       0.0000    0.0000   -0.0000    0.0001    0.0000   -0.0001    0.0035    0.0006   -0.0017   -0.0002
   60 O2     4f3+       0.0002   -0.0002   -0.0002   -0.0088    0.0000   -0.0001   -0.0013   -0.0010   -0.0037    0.0020
   61 O3     1s         0.0038   -0.0084    0.9989   -0.0137   -0.0105    0.0115   -0.0093    0.0200   -0.0133    0.0020
   62 O3     2s         0.0042   -0.0002   -0.0072    0.3509    0.5944    0.5983   -0.1732    0.3440   -0.2362    0.0057
   63 O3     3s         0.0024   -0.0000   -0.0051   -0.0130   -0.0184    0.0197   -0.0206    0.0449   -0.0293    0.0082
   64 O3     4s         0.0004    0.0001   -0.0010   -0.0013   -0.0041    0.0030   -0.0044    0.0097   -0.0063    0.0024
   65 O3     2px       -0.0011   -0.0001    0.0019   -0.0571   -0.0521    0.1028   -0.0458    0.2391   -0.0434    0.0357
   66 O3     3px       -0.0008   -0.0001    0.0019    0.0130    0.0087   -0.0186    0.0036   -0.0317   -0.0032   -0.0017
   67 O3     4px        0.0001   -0.0001   -0.0011    0.0023    0.0001    0.0004    0.0005   -0.0021    0.0007   -0.0007
   68 O3     2py        0.0024   -0.0002   -0.0029    0.1088    0.0674   -0.1078    0.2072   -0.2799    0.3297   -0.1138
   69 O3     3py        0.0013   -0.0000   -0.0030   -0.0168   -0.0130    0.0176   -0.0219    0.0265   -0.0346    0.0052
   70 O3     4py       -0.0006    0.0000    0.0018   -0.0006   -0.0037   -0.0014   -0.0028    0.0031   -0.0046    0.0012
   71 O3     2pz       -0.0000    0.0000   -0.0000   -0.0025   -0.0030    0.0053   -0.2853   -0.0510    0.1612    0.6111
   72 O3     3pz        0.0000   -0.0000   -0.0000    0.0002    0.0002   -0.0001    0.0237    0.0038   -0.0109    0.0105
   73 O3     4pz        0.0000    0.0000    0.0000   -0.0000    0.0001   -0.0000    0.0047    0.0010   -0.0028   -0.0069
   74 O3     3d2-      -0.0005    0.0000    0.0014   -0.0174   -0.0147    0.0130   -0.0093    0.0263   -0.0113    0.0043
   75 O3     4d2-      -0.0002    0.0000    0.0008   -0.0020   -0.0018    0.0009   -0.0009    0.0024   -0.0012    0.0003
   76 O3     3d1-      -0.0000    0.0000   -0.0000   -0.0001   -0.0002    0.0000   -0.0206   -0.0041    0.0115    0.0170
   77 O3     4d1-      -0.0000    0.0000    0.0000    0.0000   -0.0000    0.0000   -0.0025   -0.0006    0.0016    0.0034
   78 O3     3d0       -0.0004   -0.0000    0.0008   -0.0109   -0.0088    0.0054   -0.0075    0.0136   -0.0114    0.0022
   79 O3     4d0       -0.0002   -0.0001    0.0005   -0.0004   -0.0012    0.0000   -0.0005    0.0011   -0.0009   -0.0001
   80 O3     3d1+       0.0000    0.0000    0.0000    0.0001    0.0001    0.0001    0.0132    0.0026   -0.0070   -0.0104
   81 O3     4d1+       0.0000    0.0000    0.0000    0.0000    0.0000    0.0001    0.0020    0.0004   -0.0010   -0.0016
   82 O3     3d2+      -0.0005    0.0000    0.0007   -0.0106   -0.0041    0.0016   -0.0108    0.0019   -0.0226    0.0044
   83 O3     4d2+      -0.0003    0.0000    0.0004   -0.0010   -0.0008    0.0002   -0.0008    0.0001   -0.0020    0.0004
   84 O3     4f3-      -0.0001    0.0000   -0.0000   -0.0001    0.0015   -0.0017   -0.0013   -0.0033   -0.0039    0.0006
   85 O3     4f2-       0.0000    0.0000    0.0000    0.0000    0.0000    0.0001    0.0047    0.0010   -0.0025   -0.0036
   86 O3     4f1-      -0.0001   -0.0000    0.0002   -0.0034   -0.0028    0.0008   -0.0020    0.0027   -0.0029    0.0009
   87 O3     4f0        0.0000   -0.0000    0.0000   -0.0000   -0.0000    0.0000    0.0038    0.0008   -0.0022   -0.0027
   88 O3     4f1+       0.0000   -0.0000   -0.0001    0.0020    0.0020   -0.0010    0.0007   -0.0024    0.0006   -0.0003
   89 O3     4f2+       0.0000   -0.0000    0.0000   -0.0000   -0.0000    0.0000    0.0023    0.0005   -0.0014   -0.0016
   90 O3     4f3+       0.0001    0.0000   -0.0003    0.0055    0.0045   -0.0022    0.0028   -0.0048    0.0044   -0.0014
 
 
      Orbital               11        12        13        14        15        16        17        18        19        20
      Energy            0.0000    0.0000    0.0000    0.1763    0.1814    0.2378    0.2904    0.3474    0.3834    0.3930
      Occ. No.          1.4039    1.6651    0.9309    0.0000    0.0000    0.0000    0.0000    0.0000    0.0000    0.0000
 
    1 O1     1s        -0.0002   -0.0016    0.0000   -0.1923   -0.1392   -0.0008   -0.0096   -0.0130    0.0005   -0.0766
    2 O1     2s        -0.0049    0.0419   -0.0014   -1.4265   -1.0096   -0.0064   -0.1513    0.0012    0.0029   -0.4325
    3 O1     3s        -0.0037   -0.0108    0.0004   -0.8288   -0.5808   -0.0025    0.0239   -0.0091    0.0069   -0.5744
    4 O1     4s        -0.0013   -0.0036    0.0002   -0.1873   -0.1214   -0.0004    0.0162    0.0032    0.0026   -0.1747
    5 O1     2px       -0.7889   -0.0587    0.0578    0.4992    0.2697    0.0041    0.2313   -0.2677    0.0040   -0.2444
    6 O1     3px       -0.0074    0.0041   -0.0016    0.4595    0.3805    0.0005   -0.1979   -0.7834    0.0129   -0.7197
    7 O1     4px        0.0087    0.0013   -0.0020    0.0446    0.0850   -0.0018   -0.1333   -0.3064    0.0026   -0.2574
    8 O1     2py        0.4415   -0.1822   -0.0234    0.5243    0.7339    0.0049    0.4561   -0.2702    0.0015    0.0898
    9 O1     3py        0.0075   -0.0004    0.0003    0.7110    0.6162    0.0073    0.5211   -0.1866    0.0078    0.1283
   10 O1     4py       -0.0041    0.0020    0.0008    0.1234    0.0499    0.0028    0.1824   -0.0341    0.0039   -0.0293
   11 O1     2pz       -0.2779    0.0071    0.6017   -0.0010    0.0024    0.0769    0.0011    0.0009   -0.2101   -0.0087
   12 O1     3pz        0.0003    0.0023    0.0388    0.0027   -0.0002   -0.3677    0.0085    0.0033   -0.9620   -0.0227
   13 O1     4pz        0.0045    0.0001    0.0016    0.0008    0.0004   -0.1999    0.0033    0.0006   -0.3778   -0.0092
   14 O1     3d2-       0.0105    0.0069   -0.0015   -0.0839   -0.0553   -0.0005    0.0006    0.0030   -0.0016    0.0324
   15 O1     4d2-       0.0019    0.0004   -0.0003   -0.0530   -0.0380   -0.0003   -0.0060    0.0176   -0.0012    0.0297
   16 O1     3d1-       0.0085    0.0005    0.0069   -0.0002    0.0001   -0.0134    0.0004    0.0000    0.0038    0.0009
   17 O1     4d1-       0.0017    0.0000    0.0010   -0.0002    0.0001   -0.0051    0.0002   -0.0001    0.0109    0.0009
   18 O1     3d0       -0.0007   -0.0030    0.0004    0.0561    0.0444    0.0003   -0.0112   -0.0089    0.0004    0.0113
   19 O1     4d0        0.0002    0.0001    0.0001    0.0369    0.0283    0.0002   -0.0026   -0.0128    0.0004   -0.0011
   20 O1     3d1+       0.0053   -0.0001    0.0083    0.0003   -0.0000   -0.0039    0.0001    0.0001    0.0170   -0.0002
   21 O1     4d1+       0.0009   -0.0000    0.0021    0.0004    0.0000    0.0008   -0.0000    0.0001    0.0144   -0.0004
   22 O1     3d2+       0.0157   -0.0075   -0.0019    0.0377    0.0469   -0.0004   -0.0290   -0.0018   -0.0004    0.0682
   23 O1     4d2+       0.0033   -0.0011   -0.0004    0.0230    0.0316   -0.0001   -0.0069   -0.0010   -0.0002    0.0397
   24 O1     4f3-      -0.0034    0.0010   -0.0005    0.0004    0.0001    0.0000   -0.0022   -0.0057    0.0001   -0.0131
   25 O1     4f2-       0.0004   -0.0000   -0.0019   -0.0001    0.0002   -0.0031    0.0002   -0.0002   -0.0058   -0.0003
   26 O1     4f1-      -0.0005    0.0010   -0.0000   -0.0066   -0.0041   -0.0001   -0.0014    0.0055   -0.0002    0.0008
   27 O1     4f0        0.0034    0.0001    0.0001   -0.0001    0.0001    0.0013   -0.0001   -0.0001    0.0059    0.0001
   28 O1     4f1+       0.0012    0.0006   -0.0002   -0.0029   -0.0032    0.0002   -0.0006    0.0056    0.0002    0.0024
   29 O1     4f2+      -0.0006    0.0002    0.0002    0.0001    0.0001    0.0005    0.0004   -0.0000    0.0021    0.0001
   30 O1     4f3+      -0.0002    0.0023   -0.0000   -0.0091   -0.0042   -0.0001   -0.0040    0.0084   -0.0002    0.0018
   31 O2     1s        -0.0128   -0.0133    0.0005    0.0098    0.3176    0.0003    0.0950    0.0005    0.0016    0.0457
   32 O2     2s        -0.1516   -0.1632    0.0076    0.0710    2.3043    0.0040    0.7650    0.0036    0.0079    0.3455
   33 O2     3s        -0.0343   -0.0357    0.0019    0.0405    1.3046   -0.0005    0.2592    0.0046    0.0094    0.1176
   34 O2     4s        -0.0082   -0.0085    0.0005    0.0088    0.2798   -0.0001    0.0500    0.0015    0.0028   -0.0126
   35 O2     2px        0.2269    0.2228   -0.0040    0.0253    0.8273    0.0044    0.4563   -0.0002   -0.0080    0.6541
   36 O2     3px        0.0110    0.0139   -0.0004    0.0245    0.8948   -0.0051   -0.0611   -0.0010   -0.0233    1.5664
   37 O2     4px        0.0010    0.0013   -0.0000    0.0032    0.1347   -0.0021   -0.1087   -0.0002   -0.0075    0.4128
   38 O2     2py       -0.0343    0.0174   -0.0065    1.2866   -0.0385    0.0023   -0.0028   -0.1670   -0.0001   -0.0068
   39 O2     3py       -0.0106    0.0152    0.0017    1.2393   -0.0419    0.0078   -0.0034    0.4256    0.0001    0.0013
   40 O2     4py       -0.0015    0.0021    0.0000    0.1249   -0.0051    0.0011   -0.0001    0.2269    0.0002    0.0001
   41 O2     2pz       -0.0598   -0.0271   -0.7570    0.0020   -0.0015    0.0764   -0.0016   -0.0017    0.0089    0.0078
   42 O2     3pz       -0.0019   -0.0004   -0.0802    0.0002    0.0018   -0.3056    0.0039   -0.0021    0.0184    0.0104
   43 O2     4pz        0.0003    0.0002   -0.0016    0.0003    0.0006   -0.1840    0.0023   -0.0003    0.0061    0.0026
   44 O2     3d2-      -0.0225    0.0221   -0.0001    0.1479   -0.0051    0.0018    0.0002    0.0720    0.0003    0.0023
   45 O2     4d2-      -0.0041    0.0042    0.0001    0.0906   -0.0031    0.0010    0.0000    0.0585    0.0002    0.0012
   46 O2     3d1-      -0.0162    0.0005   -0.0048   -0.0000   -0.0001   -0.0002   -0.0002    0.0001    0.0860    0.0014
   47 O2     4d1-      -0.0031    0.0002   -0.0012   -0.0000   -0.0000    0.0000   -0.0002    0.0000    0.0535    0.0009
   48 O2     3d0       -0.0095   -0.0104    0.0004   -0.0026   -0.0871    0.0011    0.0376   -0.0002    0.0005   -0.0983
   49 O2     4d0       -0.0010   -0.0011   -0.0000   -0.0016   -0.0557    0.0006    0.0205   -0.0001    0.0006   -0.0671
   50 O2     3d1+      -0.0019    0.0000    0.0014    0.0001   -0.0000    0.0268    0.0001    0.0001   -0.0003    0.0003
   51 O2     4d1+      -0.0003    0.0000    0.0007    0.0000   -0.0000    0.0107    0.0001    0.0001    0.0001    0.0002
   52 O2     3d2+      -0.0254   -0.0277    0.0021   -0.0012   -0.0419    0.0012    0.0682   -0.0000   -0.0009    0.0454
   53 O2     4d2+      -0.0047   -0.0050    0.0003   -0.0006   -0.0205    0.0004    0.0299   -0.0002   -0.0006    0.0409
   54 O2     4f3-      -0.0064    0.0069    0.0003   -0.0036    0.0001    0.0000    0.0001    0.0064    0.0000    0.0000
   55 O2     4f2-      -0.0030    0.0000   -0.0006    0.0000   -0.0000    0.0000   -0.0000    0.0000    0.0075    0.0001
   56 O2     4f1-       0.0003   -0.0000    0.0003   -0.0081    0.0003   -0.0000    0.0000   -0.0115   -0.0000   -0.0000
   57 O2     4f0        0.0006    0.0002    0.0002    0.0000   -0.0000    0.0024   -0.0001    0.0000   -0.0002   -0.0001
   58 O2     4f1+      -0.0003    0.0000   -0.0003   -0.0002   -0.0081    0.0001    0.0040   -0.0000    0.0002   -0.0153
   59 O2     4f2+       0.0003   -0.0000    0.0014    0.0000    0.0000    0.0010    0.0000    0.0000   -0.0001   -0.0001
   60 O2     4f3+      -0.0041   -0.0043    0.0003   -0.0003   -0.0125    0.0002    0.0055   -0.0000    0.0001   -0.0158
   61 O3     1s        -0.0025   -0.0005   -0.0004    0.1835   -0.1512    0.0013   -0.0104    0.0124    0.0006   -0.0758
   62 O3     2s         0.0263   -0.0038   -0.0089    1.3625   -1.0967    0.0069   -0.1569   -0.0057    0.0030   -0.4282
[...]

>>> COPY /tmp/ozone_114.25/GMJ_IVECC2_E_P_2_.csv /home/grierjones/DDCASPT2/ozone/multistate/ANO-RCC-VTZP/ozone_114.25/GMJ_IVECC2_E_P_2_.csv

>>> COPY /tmp/ozone_114.25/GMJ_e2_E_P_2_.csv /home/grierjones/DDCASPT2/ozone/multistate/ANO-RCC-VTZP/ozone_114.25/GMJ_e2_E_P_2_.csv

>>> END FOREACH

>>> EXPORT j = M

>>> IF (-FILE GMJ_e2_${i}_${j}_${k}_.csv)

>>> COPY /tmp/ozone_114.25/GMJ_RHS_E_M_2_.csv /home/grierjones/DDCASPT2/ozone/multistate/ANO-RCC-VTZP/ozone_114.25/GMJ_RHS_E_M_2_.csv

>>> COPY /tmp/ozone_114.25/GMJ_IVECW_E_M_2_.csv /home/grierjones/DDCASPT2/ozone/multistate/ANO-RCC-VTZP/ozone_114.25/GMJ_IVECW_E_M_2_.csv

>>> COPY /tmp/ozone_114.25/GMJ_IVECX_E_M_2_.csv /home/grierjones/DDCASPT2/ozone/multistate/ANO-RCC-VTZP/ozone_114.25/GMJ_IVECX_E_M_2_.csv

>>> COPY /tmp/ozone_114.25/GMJ_IVECC2_E_M_2_.csv /home/grierjones/DDCASPT2/ozone/multistate/ANO-RCC-VTZP/ozone_114.25/GMJ_IVECC2_E_M_2_.csv

>>> COPY /tmp/ozone_114.25/GMJ_e2_E_M_2_.csv /home/grierjones/DDCASPT2/ozone/multistate/ANO-RCC-VTZP/ozone_114.25/GMJ_e2_E_M_2_.csv

>>> END FOREACH

>>> END FOREACH

>>> EXPORT i = F

>>> EXPORT j = P

>>> IF (-FILE GMJ_e2_${i}_${j}_${k}_.csv)

>>> COPY /tmp/ozone_114.25/GMJ_RHS_F_P_2_.csv /home/grierjones/DDCASPT2/ozone/multistate/ANO-RCC-VTZP/ozone_114.25/GMJ_RHS_F_P_2_.csv

>>> COPY /tmp/ozone_114.25/GMJ_IVECW_F_P_2_.csv /home/grierjones/DDCASPT2/ozone/multistate/ANO-RCC-VTZP/ozone_114.25/GMJ_IVECW_F_P_2_.csv

>>> COPY /tmp/ozone_114.25/GMJ_IVECX_F_P_2_.csv /home/grierjones/DDCASPT2/ozone/multistate/ANO-RCC-VTZP/ozone_114.25/GMJ_IVECX_F_P_2_.csv

>>> COPY /tmp/ozone_114.25/GMJ_IVECC2_F_P_2_.csv /home/grierjones/DDCASPT2/ozone/multistate/ANO-RCC-VTZP/ozone_114.25/GMJ_IVECC2_F_P_2_.csv

>>> COPY /tmp/ozone_114.25/GMJ_e2_F_P_2_.csv /home/grierjones/DDCASPT2/ozone/multistate/ANO-RCC-VTZP/ozone_114.25/GMJ_e2_F_P_2_.csv

>>> END FOREACH

>>> EXPORT j = M

>>> IF (-FILE GMJ_e2_${i}_${j}_${k}_.csv)

>>> COPY /tmp/ozone_114.25/GMJ_RHS_F_M_2_.csv /home/grierjones/DDCASPT2/ozone/multistate/ANO-RCC-VTZP/ozone_114.25/GMJ_RHS_F_M_2_.csv

>>> COPY /tmp/ozone_114.25/GMJ_IVECW_F_M_2_.csv /home/grierjones/DDCASPT2/ozone/multistate/ANO-RCC-VTZP/ozone_114.25/GMJ_IVECW_F_M_2_.csv

>>> COPY /tmp/ozone_114.25/GMJ_IVECX_F_M_2_.csv /home/grierjones/DDCASPT2/ozone/multistate/ANO-RCC-VTZP/ozone_114.25/GMJ_IVECX_F_M_2_.csv

>>> COPY /tmp/ozone_114.25/GMJ_IVECC2_F_M_2_.csv /home/grierjones/DDCASPT2/ozone/multistate/ANO-RCC-VTZP/ozone_114.25/GMJ_IVECC2_F_M_2_.csv

>>> COPY /tmp/ozone_114.25/GMJ_e2_F_M_2_.csv /home/grierjones/DDCASPT2/ozone/multistate/ANO-RCC-VTZP/ozone_114.25/GMJ_e2_F_M_2_.csv

>>> END FOREACH

>>> END FOREACH

>>> EXPORT i = G

>>> EXPORT j = P

>>> IF (-FILE GMJ_e2_${i}_${j}_${k}_.csv)

>>> COPY /tmp/ozone_114.25/GMJ_RHS_G_P_2_.csv /home/grierjones/DDCASPT2/ozone/multistate/ANO-RCC-VTZP/ozone_114.25/GMJ_RHS_G_P_2_.csv

>>> COPY /tmp/ozone_114.25/GMJ_IVECW_G_P_2_.csv /home/grierjones/DDCASPT2/ozone/multistate/ANO-RCC-VTZP/ozone_114.25/GMJ_IVECW_G_P_2_.csv

>>> COPY /tmp/ozone_114.25/GMJ_IVECX_G_P_2_.csv /home/grierjones/DDCASPT2/ozone/multistate/ANO-RCC-VTZP/ozone_114.25/GMJ_IVECX_G_P_2_.csv

>>> COPY /tmp/ozone_114.25/GMJ_IVECC2_G_P_2_.csv /home/grierjones/DDCASPT2/ozone/multistate/ANO-RCC-VTZP/ozone_114.25/GMJ_IVECC2_G_P_2_.csv

>>> COPY /tmp/ozone_114.25/GMJ_e2_G_P_2_.csv /home/grierjones/DDCASPT2/ozone/multistate/ANO-RCC-VTZP/ozone_114.25/GMJ_e2_G_P_2_.csv

>>> END FOREACH

>>> EXPORT j = M

>>> IF (-FILE GMJ_e2_${i}_${j}_${k}_.csv)

>>> COPY /tmp/ozone_114.25/GMJ_RHS_G_M_2_.csv /home/grierjones/DDCASPT2/ozone/multistate/ANO-RCC-VTZP/ozone_114.25/GMJ_RHS_G_M_2_.csv

>>> COPY /tmp/ozone_114.25/GMJ_IVECW_G_M_2_.csv /home/grierjones/DDCASPT2/ozone/multistate/ANO-RCC-VTZP/ozone_114.25/GMJ_IVECW_G_M_2_.csv

>>> COPY /tmp/ozone_114.25/GMJ_IVECX_G_M_2_.csv /home/grierjones/DDCASPT2/ozone/multistate/ANO-RCC-VTZP/ozone_114.25/GMJ_IVECX_G_M_2_.csv

>>> COPY /tmp/ozone_114.25/GMJ_IVECC2_G_M_2_.csv /home/grierjones/DDCASPT2/ozone/multistate/ANO-RCC-VTZP/ozone_114.25/GMJ_IVECC2_G_M_2_.csv

>>> COPY /tmp/ozone_114.25/GMJ_e2_G_M_2_.csv /home/grierjones/DDCASPT2/ozone/multistate/ANO-RCC-VTZP/ozone_114.25/GMJ_e2_G_M_2_.csv

>>> END FOREACH

>>> END FOREACH

>>> EXPORT i = H

>>> EXPORT j = P

>>> IF (-FILE GMJ_e2_${i}_${j}_${k}_.csv)

>>> COPY /tmp/ozone_114.25/GMJ_RHS_H_P_2_.csv /home/grierjones/DDCASPT2/ozone/multistate/ANO-RCC-VTZP/ozone_114.25/GMJ_RHS_H_P_2_.csv

>>> COPY /tmp/ozone_114.25/GMJ_IVECW_H_P_2_.csv /home/grierjones/DDCASPT2/ozone/multistate/ANO-RCC-VTZP/ozone_114.25/GMJ_IVECW_H_P_2_.csv

>>> COPY /tmp/ozone_114.25/GMJ_IVECX_H_P_2_.csv /home/grierjones/DDCASPT2/ozone/multistate/ANO-RCC-VTZP/ozone_114.25/GMJ_IVECX_H_P_2_.csv

>>> COPY /tmp/ozone_114.25/GMJ_IVECC2_H_P_2_.csv /home/grierjones/DDCASPT2/ozone/multistate/ANO-RCC-VTZP/ozone_114.25/GMJ_IVECC2_H_P_2_.csv

>>> COPY /tmp/ozone_114.25/GMJ_e2_H_P_2_.csv /home/grierjones/DDCASPT2/ozone/multistate/ANO-RCC-VTZP/ozone_114.25/GMJ_e2_H_P_2_.csv

>>> END FOREACH

>>> EXPORT j = M

>>> IF (-FILE GMJ_e2_${i}_${j}_${k}_.csv)

>>> COPY /tmp/ozone_114.25/GMJ_RHS_H_M_2_.csv /home/grierjones/DDCASPT2/ozone/multistate/ANO-RCC-VTZP/ozone_114.25/GMJ_RHS_H_M_2_.csv

>>> COPY /tmp/ozone_114.25/GMJ_IVECW_H_M_2_.csv /home/grierjones/DDCASPT2/ozone/multistate/ANO-RCC-VTZP/ozone_114.25/GMJ_IVECW_H_M_2_.csv

>>> COPY /tmp/ozone_114.25/GMJ_IVECX_H_M_2_.csv /home/grierjones/DDCASPT2/ozone/multistate/ANO-RCC-VTZP/ozone_114.25/GMJ_IVECX_H_M_2_.csv

>>> COPY /tmp/ozone_114.25/GMJ_IVECC2_H_M_2_.csv /home/grierjones/DDCASPT2/ozone/multistate/ANO-RCC-VTZP/ozone_114.25/GMJ_IVECC2_H_M_2_.csv

>>> COPY /tmp/ozone_114.25/GMJ_e2_H_M_2_.csv /home/grierjones/DDCASPT2/ozone/multistate/ANO-RCC-VTZP/ozone_114.25/GMJ_e2_H_M_2_.csv

>>> END FOREACH

>>> END FOREACH

>>> END FOREACH

>>> EXPORT k = 3

>>> EXPORT i = B

>>> EXPORT j = P

>>> IF (-FILE GMJ_e2_${i}_${j}_${k}_.csv)

>>> COPY /tmp/ozone_114.25/GMJ_RHS_B_P_3_.csv /home/grierjones/DDCASPT2/ozone/multistate/ANO-RCC-VTZP/ozone_114.25/GMJ_RHS_B_P_3_.csv

>>> COPY /tmp/ozone_114.25/GMJ_IVECW_B_P_3_.csv /home/grierjones/DDCASPT2/ozone/multistate/ANO-RCC-VTZP/ozone_114.25/GMJ_IVECW_B_P_3_.csv

>>> COPY /tmp/ozone_114.25/GMJ_IVECX_B_P_3_.csv /home/grierjones/DDCASPT2/ozone/multistate/ANO-RCC-VTZP/ozone_114.25/GMJ_IVECX_B_P_3_.csv

>>> COPY /tmp/ozone_114.25/GMJ_IVECC2_B_P_3_.csv /home/grierjones/DDCASPT2/ozone/multistate/ANO-RCC-VTZP/ozone_114.25/GMJ_IVECC2_B_P_3_.csv

>>> COPY /tmp/ozone_114.25/GMJ_e2_B_P_3_.csv /home/grierjones/DDCASPT2/ozone/multistate/ANO-RCC-VTZP/ozone_114.25/GMJ_e2_B_P_3_.csv

>>> END FOREACH

>>> EXPORT j = M

>>> IF (-FILE GMJ_e2_${i}_${j}_${k}_.csv)
(Skipped)

>>> END FOREACH

>>> END FOREACH

>>> EXPORT i = E

>>> EXPORT j = P

>>> IF (-FILE GMJ_e2_${i}_${j}_${k}_.csv)

>>> COPY /tmp/ozone_114.25/GMJ_RHS_E_P_3_.csv /home/grierjones/DDCASPT2/ozone/multistate/ANO-RCC-VTZP/ozone_114.25/GMJ_RHS_E_P_3_.csv

>>> COPY /tmp/ozone_114.25/GMJ_IVECW_E_P_3_.csv /home/grierjones/DDCASPT2/ozone/multistate/ANO-RCC-VTZP/ozone_114.25/GMJ_IVECW_E_P_3_.csv

>>> COPY /tmp/ozone_114.25/GMJ_IVECX_E_P_3_.csv /home/grierjones/DDCASPT2/ozone/multistate/ANO-RCC-VTZP/ozone_114.25/GMJ_IVECX_E_P_3_.csv

>>> COPY /tmp/ozone_114.25/GMJ_IVECC2_E_P_3_.csv /home/grierjones/DDCASPT2/ozone/multistate/ANO-RCC-VTZP/ozone_114.25/GMJ_IVECC2_E_P_3_.csv

>>> COPY /tmp/ozone_114.25/GMJ_e2_E_P_3_.csv /home/grierjones/DDCASPT2/ozone/multistate/ANO-RCC-VTZP/ozone_114.25/GMJ_e2_E_P_3_.csv

>>> END FOREACH

>>> EXPORT j = M

>>> IF (-FILE GMJ_e2_${i}_${j}_${k}_.csv)

>>> COPY /tmp/ozone_114.25/GMJ_RHS_E_M_3_.csv /home/grierjones/DDCASPT2/ozone/multistate/ANO-RCC-VTZP/ozone_114.25/GMJ_RHS_E_M_3_.csv

>>> COPY /tmp/ozone_114.25/GMJ_IVECW_E_M_3_.csv /home/grierjones/DDCASPT2/ozone/multistate/ANO-RCC-VTZP/ozone_114.25/GMJ_IVECW_E_M_3_.csv

>>> COPY /tmp/ozone_114.25/GMJ_IVECX_E_M_3_.csv /home/grierjones/DDCASPT2/ozone/multistate/ANO-RCC-VTZP/ozone_114.25/GMJ_IVECX_E_M_3_.csv

>>> COPY /tmp/ozone_114.25/GMJ_IVECC2_E_M_3_.csv /home/grierjones/DDCASPT2/ozone/multistate/ANO-RCC-VTZP/ozone_114.25/GMJ_IVECC2_E_M_3_.csv

>>> COPY /tmp/ozone_114.25/GMJ_e2_E_M_3_.csv /home/grierjones/DDCASPT2/ozone/multistate/ANO-RCC-VTZP/ozone_114.25/GMJ_e2_E_M_3_.csv

>>> END FOREACH

>>> END FOREACH

>>> EXPORT i = F

>>> EXPORT j = P

>>> IF (-FILE GMJ_e2_${i}_${j}_${k}_.csv)

>>> COPY /tmp/ozone_114.25/GMJ_RHS_F_P_3_.csv /home/grierjones/DDCASPT2/ozone/multistate/ANO-RCC-VTZP/ozone_114.25/GMJ_RHS_F_P_3_.csv

>>> COPY /tmp/ozone_114.25/GMJ_IVECW_F_P_3_.csv /home/grierjones/DDCASPT2/ozone/multistate/ANO-RCC-VTZP/ozone_114.25/GMJ_IVECW_F_P_3_.csv

>>> COPY /tmp/ozone_114.25/GMJ_IVECX_F_P_3_.csv /home/grierjones/DDCASPT2/ozone/multistate/ANO-RCC-VTZP/ozone_114.25/GMJ_IVECX_F_P_3_.csv

>>> COPY /tmp/ozone_114.25/GMJ_IVECC2_F_P_3_.csv /home/grierjones/DDCASPT2/ozone/multistate/ANO-RCC-VTZP/ozone_114.25/GMJ_IVECC2_F_P_3_.csv

>>> COPY /tmp/ozone_114.25/GMJ_e2_F_P_3_.csv /home/grierjones/DDCASPT2/ozone/multistate/ANO-RCC-VTZP/ozone_114.25/GMJ_e2_F_P_3_.csv

>>> END FOREACH

>>> EXPORT j = M

>>> IF (-FILE GMJ_e2_${i}_${j}_${k}_.csv)

>>> COPY /tmp/ozone_114.25/GMJ_RHS_F_M_3_.csv /home/grierjones/DDCASPT2/ozone/multistate/ANO-RCC-VTZP/ozone_114.25/GMJ_RHS_F_M_3_.csv

>>> COPY /tmp/ozone_114.25/GMJ_IVECW_F_M_3_.csv /home/grierjones/DDCASPT2/ozone/multistate/ANO-RCC-VTZP/ozone_114.25/GMJ_IVECW_F_M_3_.csv

>>> COPY /tmp/ozone_114.25/GMJ_IVECX_F_M_3_.csv /home/grierjones/DDCASPT2/ozone/multistate/ANO-RCC-VTZP/ozone_114.25/GMJ_IVECX_F_M_3_.csv

>>> COPY /tmp/ozone_114.25/GMJ_IVECC2_F_M_3_.csv /home/grierjones/DDCASPT2/ozone/multistate/ANO-RCC-VTZP/ozone_114.25/GMJ_IVECC2_F_M_3_.csv

>>> COPY /tmp/ozone_114.25/GMJ_e2_F_M_3_.csv /home/grierjones/DDCASPT2/ozone/multistate/ANO-RCC-VTZP/ozone_114.25/GMJ_e2_F_M_3_.csv

>>> END FOREACH

>>> END FOREACH

>>> EXPORT i = G

>>> EXPORT j = P

>>> IF (-FILE GMJ_e2_${i}_${j}_${k}_.csv)

>>> COPY /tmp/ozone_114.25/GMJ_RHS_G_P_3_.csv /home/grierjones/DDCASPT2/ozone/multistate/ANO-RCC-VTZP/ozone_114.25/GMJ_RHS_G_P_3_.csv

>>> COPY /tmp/ozone_114.25/GMJ_IVECW_G_P_3_.csv /home/grierjones/DDCASPT2/ozone/multistate/ANO-RCC-VTZP/ozone_114.25/GMJ_IVECW_G_P_3_.csv

>>> COPY /tmp/ozone_114.25/GMJ_IVECX_G_P_3_.csv /home/grierjones/DDCASPT2/ozone/multistate/ANO-RCC-VTZP/ozone_114.25/GMJ_IVECX_G_P_3_.csv

>>> COPY /tmp/ozone_114.25/GMJ_IVECC2_G_P_3_.csv /home/grierjones/DDCASPT2/ozone/multistate/ANO-RCC-VTZP/ozone_114.25/GMJ_IVECC2_G_P_3_.csv

>>> COPY /tmp/ozone_114.25/GMJ_e2_G_P_3_.csv /home/grierjones/DDCASPT2/ozone/multistate/ANO-RCC-VTZP/ozone_114.25/GMJ_e2_G_P_3_.csv

>>> END FOREACH

>>> EXPORT j = M

>>> IF (-FILE GMJ_e2_${i}_${j}_${k}_.csv)

>>> COPY /tmp/ozone_114.25/GMJ_RHS_G_M_3_.csv /home/grierjones/DDCASPT2/ozone/multistate/ANO-RCC-VTZP/ozone_114.25/GMJ_RHS_G_M_3_.csv

>>> COPY /tmp/ozone_114.25/GMJ_IVECW_G_M_3_.csv /home/grierjones/DDCASPT2/ozone/multistate/ANO-RCC-VTZP/ozone_114.25/GMJ_IVECW_G_M_3_.csv

>>> COPY /tmp/ozone_114.25/GMJ_IVECX_G_M_3_.csv /home/grierjones/DDCASPT2/ozone/multistate/ANO-RCC-VTZP/ozone_114.25/GMJ_IVECX_G_M_3_.csv

>>> COPY /tmp/ozone_114.25/GMJ_IVECC2_G_M_3_.csv /home/grierjones/DDCASPT2/ozone/multistate/ANO-RCC-VTZP/ozone_114.25/GMJ_IVECC2_G_M_3_.csv

>>> COPY /tmp/ozone_114.25/GMJ_e2_G_M_3_.csv /home/grierjones/DDCASPT2/ozone/multistate/ANO-RCC-VTZP/ozone_114.25/GMJ_e2_G_M_3_.csv

>>> END FOREACH

>>> END FOREACH

>>> EXPORT i = H

>>> EXPORT j = P

>>> IF (-FILE GMJ_e2_${i}_${j}_${k}_.csv)

>>> COPY /tmp/ozone_114.25/GMJ_RHS_H_P_3_.csv /home/grierjones/DDCASPT2/ozone/multistate/ANO-RCC-VTZP/ozone_114.25/GMJ_RHS_H_P_3_.csv

>>> COPY /tmp/ozone_114.25/GMJ_IVECW_H_P_3_.csv /home/grierjones/DDCASPT2/ozone/multistate/ANO-RCC-VTZP/ozone_114.25/GMJ_IVECW_H_P_3_.csv

>>> COPY /tmp/ozone_114.25/GMJ_IVECX_H_P_3_.csv /home/grierjones/DDCASPT2/ozone/multistate/ANO-RCC-VTZP/ozone_114.25/GMJ_IVECX_H_P_3_.csv

>>> COPY /tmp/ozone_114.25/GMJ_IVECC2_H_P_3_.csv /home/grierjones/DDCASPT2/ozone/multistate/ANO-RCC-VTZP/ozone_114.25/GMJ_IVECC2_H_P_3_.csv

>>> COPY /tmp/ozone_114.25/GMJ_e2_H_P_3_.csv /home/grierjones/DDCASPT2/ozone/multistate/ANO-RCC-VTZP/ozone_114.25/GMJ_e2_H_P_3_.csv

>>> END FOREACH

>>> EXPORT j = M

>>> IF (-FILE GMJ_e2_${i}_${j}_${k}_.csv)

>>> COPY /tmp/ozone_114.25/GMJ_RHS_H_M_3_.csv /home/grierjones/DDCASPT2/ozone/multistate/ANO-RCC-VTZP/ozone_114.25/GMJ_RHS_H_M_3_.csv

>>> COPY /tmp/ozone_114.25/GMJ_IVECW_H_M_3_.csv /home/grierjones/DDCASPT2/ozone/multistate/ANO-RCC-VTZP/ozone_114.25/GMJ_IVECW_H_M_3_.csv

>>> COPY /tmp/ozone_114.25/GMJ_IVECX_H_M_3_.csv /home/grierjones/DDCASPT2/ozone/multistate/ANO-RCC-VTZP/ozone_114.25/GMJ_IVECX_H_M_3_.csv

>>> COPY /tmp/ozone_114.25/GMJ_IVECC2_H_M_3_.csv /home/grierjones/DDCASPT2/ozone/multistate/ANO-RCC-VTZP/ozone_114.25/GMJ_IVECC2_H_M_3_.csv

>>> COPY /tmp/ozone_114.25/GMJ_e2_H_M_3_.csv /home/grierjones/DDCASPT2/ozone/multistate/ANO-RCC-VTZP/ozone_114.25/GMJ_e2_H_M_3_.csv

>>> END FOREACH

>>> END FOREACH

>>> END FOREACH

>>> EXPORT j = 1

>>> EXPORT i = A

>>> IF (-FILE GMJ_e2_${i}_${j}_.csv)

>>> COPY /tmp/ozone_114.25/GMJ_RHS_A_1_.csv /home/grierjones/DDCASPT2/ozone/multistate/ANO-RCC-VTZP/ozone_114.25/GMJ_RHS_A_1_.csv

>>> COPY /tmp/ozone_114.25/GMJ_IVECW_A_1_.csv /home/grierjones/DDCASPT2/ozone/multistate/ANO-RCC-VTZP/ozone_114.25/GMJ_IVECW_A_1_.csv

>>> COPY /tmp/ozone_114.25/GMJ_IVECX_A_1_.csv /home/grierjones/DDCASPT2/ozone/multistate/ANO-RCC-VTZP/ozone_114.25/GMJ_IVECX_A_1_.csv

>>> COPY /tmp/ozone_114.25/GMJ_IVECC2_A_1_.csv /home/grierjones/DDCASPT2/ozone/multistate/ANO-RCC-VTZP/ozone_114.25/GMJ_IVECC2_A_1_.csv

>>> COPY /tmp/ozone_114.25/GMJ_e2_A_1_.csv /home/grierjones/DDCASPT2/ozone/multistate/ANO-RCC-VTZP/ozone_114.25/GMJ_e2_A_1_.csv

>>> END FOREACH

>>> EXPORT i = C

>>> IF (-FILE GMJ_e2_${i}_${j}_.csv)

>>> COPY /tmp/ozone_114.25/GMJ_RHS_C_1_.csv /home/grierjones/DDCASPT2/ozone/multistate/ANO-RCC-VTZP/ozone_114.25/GMJ_RHS_C_1_.csv

>>> COPY /tmp/ozone_114.25/GMJ_IVECW_C_1_.csv /home/grierjones/DDCASPT2/ozone/multistate/ANO-RCC-VTZP/ozone_114.25/GMJ_IVECW_C_1_.csv

>>> COPY /tmp/ozone_114.25/GMJ_IVECX_C_1_.csv /home/grierjones/DDCASPT2/ozone/multistate/ANO-RCC-VTZP/ozone_114.25/GMJ_IVECX_C_1_.csv

>>> COPY /tmp/ozone_114.25/GMJ_IVECC2_C_1_.csv /home/grierjones/DDCASPT2/ozone/multistate/ANO-RCC-VTZP/ozone_114.25/GMJ_IVECC2_C_1_.csv

>>> COPY /tmp/ozone_114.25/GMJ_e2_C_1_.csv /home/grierjones/DDCASPT2/ozone/multistate/ANO-RCC-VTZP/ozone_114.25/GMJ_e2_C_1_.csv

>>> END FOREACH

>>> EXPORT i = D

>>> IF (-FILE GMJ_e2_${i}_${j}_.csv)

>>> COPY /tmp/ozone_114.25/GMJ_RHS_D_1_.csv /home/grierjones/DDCASPT2/ozone/multistate/ANO-RCC-VTZP/ozone_114.25/GMJ_RHS_D_1_.csv

>>> COPY /tmp/ozone_114.25/GMJ_IVECW_D_1_.csv /home/grierjones/DDCASPT2/ozone/multistate/ANO-RCC-VTZP/ozone_114.25/GMJ_IVECW_D_1_.csv

>>> COPY /tmp/ozone_114.25/GMJ_IVECX_D_1_.csv /home/grierjones/DDCASPT2/ozone/multistate/ANO-RCC-VTZP/ozone_114.25/GMJ_IVECX_D_1_.csv

>>> COPY /tmp/ozone_114.25/GMJ_IVECC2_D_1_.csv /home/grierjones/DDCASPT2/ozone/multistate/ANO-RCC-VTZP/ozone_114.25/GMJ_IVECC2_D_1_.csv

>>> COPY /tmp/ozone_114.25/GMJ_e2_D_1_.csv /home/grierjones/DDCASPT2/ozone/multistate/ANO-RCC-VTZP/ozone_114.25/GMJ_e2_D_1_.csv

>>> END FOREACH

>>> END FOREACH

>>> EXPORT j = 2

>>> EXPORT i = A

>>> IF (-FILE GMJ_e2_${i}_${j}_.csv)

>>> COPY /tmp/ozone_114.25/GMJ_RHS_A_2_.csv /home/grierjones/DDCASPT2/ozone/multistate/ANO-RCC-VTZP/ozone_114.25/GMJ_RHS_A_2_.csv

>>> COPY /tmp/ozone_114.25/GMJ_IVECW_A_2_.csv /home/grierjones/DDCASPT2/ozone/multistate/ANO-RCC-VTZP/ozone_114.25/GMJ_IVECW_A_2_.csv

>>> COPY /tmp/ozone_114.25/GMJ_IVECX_A_2_.csv /home/grierjones/DDCASPT2/ozone/multistate/ANO-RCC-VTZP/ozone_114.25/GMJ_IVECX_A_2_.csv

>>> COPY /tmp/ozone_114.25/GMJ_IVECC2_A_2_.csv /home/grierjones/DDCASPT2/ozone/multistate/ANO-RCC-VTZP/ozone_114.25/GMJ_IVECC2_A_2_.csv

>>> COPY /tmp/ozone_114.25/GMJ_e2_A_2_.csv /home/grierjones/DDCASPT2/ozone/multistate/ANO-RCC-VTZP/ozone_114.25/GMJ_e2_A_2_.csv

>>> END FOREACH

>>> EXPORT i = C

>>> IF (-FILE GMJ_e2_${i}_${j}_.csv)

>>> COPY /tmp/ozone_114.25/GMJ_RHS_C_2_.csv /home/grierjones/DDCASPT2/ozone/multistate/ANO-RCC-VTZP/ozone_114.25/GMJ_RHS_C_2_.csv

>>> COPY /tmp/ozone_114.25/GMJ_IVECW_C_2_.csv /home/grierjones/DDCASPT2/ozone/multistate/ANO-RCC-VTZP/ozone_114.25/GMJ_IVECW_C_2_.csv

>>> COPY /tmp/ozone_114.25/GMJ_IVECX_C_2_.csv /home/grierjones/DDCASPT2/ozone/multistate/ANO-RCC-VTZP/ozone_114.25/GMJ_IVECX_C_2_.csv

>>> COPY /tmp/ozone_114.25/GMJ_IVECC2_C_2_.csv /home/grierjones/DDCASPT2/ozone/multistate/ANO-RCC-VTZP/ozone_114.25/GMJ_IVECC2_C_2_.csv

>>> COPY /tmp/ozone_114.25/GMJ_e2_C_2_.csv /home/grierjones/DDCASPT2/ozone/multistate/ANO-RCC-VTZP/ozone_114.25/GMJ_e2_C_2_.csv

>>> END FOREACH

>>> EXPORT i = D

>>> IF (-FILE GMJ_e2_${i}_${j}_.csv)

>>> COPY /tmp/ozone_114.25/GMJ_RHS_D_2_.csv /home/grierjones/DDCASPT2/ozone/multistate/ANO-RCC-VTZP/ozone_114.25/GMJ_RHS_D_2_.csv

>>> COPY /tmp/ozone_114.25/GMJ_IVECW_D_2_.csv /home/grierjones/DDCASPT2/ozone/multistate/ANO-RCC-VTZP/ozone_114.25/GMJ_IVECW_D_2_.csv

>>> COPY /tmp/ozone_114.25/GMJ_IVECX_D_2_.csv /home/grierjones/DDCASPT2/ozone/multistate/ANO-RCC-VTZP/ozone_114.25/GMJ_IVECX_D_2_.csv

>>> COPY /tmp/ozone_114.25/GMJ_IVECC2_D_2_.csv /home/grierjones/DDCASPT2/ozone/multistate/ANO-RCC-VTZP/ozone_114.25/GMJ_IVECC2_D_2_.csv

>>> COPY /tmp/ozone_114.25/GMJ_e2_D_2_.csv /home/grierjones/DDCASPT2/ozone/multistate/ANO-RCC-VTZP/ozone_114.25/GMJ_e2_D_2_.csv

>>> END FOREACH

>>> END FOREACH

>>> EXPORT j = 3

>>> EXPORT i = A

>>> IF (-FILE GMJ_e2_${i}_${j}_.csv)

>>> COPY /tmp/ozone_114.25/GMJ_RHS_A_3_.csv /home/grierjones/DDCASPT2/ozone/multistate/ANO-RCC-VTZP/ozone_114.25/GMJ_RHS_A_3_.csv

>>> COPY /tmp/ozone_114.25/GMJ_IVECW_A_3_.csv /home/grierjones/DDCASPT2/ozone/multistate/ANO-RCC-VTZP/ozone_114.25/GMJ_IVECW_A_3_.csv

>>> COPY /tmp/ozone_114.25/GMJ_IVECX_A_3_.csv /home/grierjones/DDCASPT2/ozone/multistate/ANO-RCC-VTZP/ozone_114.25/GMJ_IVECX_A_3_.csv

>>> COPY /tmp/ozone_114.25/GMJ_IVECC2_A_3_.csv /home/grierjones/DDCASPT2/ozone/multistate/ANO-RCC-VTZP/ozone_114.25/GMJ_IVECC2_A_3_.csv

>>> COPY /tmp/ozone_114.25/GMJ_e2_A_3_.csv /home/grierjones/DDCASPT2/ozone/multistate/ANO-RCC-VTZP/ozone_114.25/GMJ_e2_A_3_.csv

>>> END FOREACH

>>> EXPORT i = C

>>> IF (-FILE GMJ_e2_${i}_${j}_.csv)

>>> COPY /tmp/ozone_114.25/GMJ_RHS_C_3_.csv /home/grierjones/DDCASPT2/ozone/multistate/ANO-RCC-VTZP/ozone_114.25/GMJ_RHS_C_3_.csv

>>> COPY /tmp/ozone_114.25/GMJ_IVECW_C_3_.csv /home/grierjones/DDCASPT2/ozone/multistate/ANO-RCC-VTZP/ozone_114.25/GMJ_IVECW_C_3_.csv

>>> COPY /tmp/ozone_114.25/GMJ_IVECX_C_3_.csv /home/grierjones/DDCASPT2/ozone/multistate/ANO-RCC-VTZP/ozone_114.25/GMJ_IVECX_C_3_.csv

>>> COPY /tmp/ozone_114.25/GMJ_IVECC2_C_3_.csv /home/grierjones/DDCASPT2/ozone/multistate/ANO-RCC-VTZP/ozone_114.25/GMJ_IVECC2_C_3_.csv

>>> COPY /tmp/ozone_114.25/GMJ_e2_C_3_.csv /home/grierjones/DDCASPT2/ozone/multistate/ANO-RCC-VTZP/ozone_114.25/GMJ_e2_C_3_.csv

>>> END FOREACH

>>> EXPORT i = D

>>> IF (-FILE GMJ_e2_${i}_${j}_.csv)

>>> COPY /tmp/ozone_114.25/GMJ_RHS_D_3_.csv /home/grierjones/DDCASPT2/ozone/multistate/ANO-RCC-VTZP/ozone_114.25/GMJ_RHS_D_3_.csv

>>> COPY /tmp/ozone_114.25/GMJ_IVECW_D_3_.csv /home/grierjones/DDCASPT2/ozone/multistate/ANO-RCC-VTZP/ozone_114.25/GMJ_IVECW_D_3_.csv

>>> COPY /tmp/ozone_114.25/GMJ_IVECX_D_3_.csv /home/grierjones/DDCASPT2/ozone/multistate/ANO-RCC-VTZP/ozone_114.25/GMJ_IVECX_D_3_.csv

>>> COPY /tmp/ozone_114.25/GMJ_IVECC2_D_3_.csv /home/grierjones/DDCASPT2/ozone/multistate/ANO-RCC-VTZP/ozone_114.25/GMJ_IVECC2_D_3_.csv

>>> COPY /tmp/ozone_114.25/GMJ_e2_D_3_.csv /home/grierjones/DDCASPT2/ozone/multistate/ANO-RCC-VTZP/ozone_114.25/GMJ_e2_D_3_.csv

>>> END FOREACH

>>> END FOREACH

.########################.
.# Non-zero return code #.
.########################.

    Timing: Wall=23.45 User=15.00 System=8.44
********************************************
*** WorkDir at /tmp/ozone_114.25 cleaned ***
********************************************
