[Molden Format]
[N_Atoms]
                     2
[Atoms] (AU)
O1          1      8           0.00000000      0.00000000      0.00000000
O2          2      8           0.00000000      0.00000000      4.91328792
[Charge] (Mulliken)
 -1.412470140849109E-010
  1.412354677654548E-010
[GTO] (AU)
   1
   s  14
  1.053749500E+05  1.238600013E-04
  1.567924000E+04  5.120100053E-04
  3.534544700E+03  2.152910022E-03
  9.873651600E+02  8.528440089E-03
  3.159787500E+02  3.018049031E-02
  1.116542800E+02  9.099702095E-02
  4.269945100E+01  2.177936423E-01
  1.739559600E+01  3.686245738E-01
  7.438309000E+00  3.366707335E-01
  3.222862000E+00  9.657630101E-02
  1.253877000E+00  2.144520022E-03
  4.951550000E-01  1.194350012E-03
  1.916650000E-01  5.390200056E-04
  6.708300000E-02  2.103400022E-04
   s  14
  1.053749500E+05 -2.815000008E-05
  1.567924000E+04 -1.163000003E-04
  3.534544700E+03 -4.909200013E-04
  9.873651600E+02 -1.946160005E-03
  3.159787500E+02 -7.005300019E-03
  1.116542800E+02 -2.167814006E-02
  4.269945100E+01 -5.641213015E-02
  1.739559600E+01 -1.127053003E-01
  7.438309000E+00 -1.589119704E-01
  3.222862000E+00 -3.355083009E-02
  1.253877000E+00  3.531902810E-01
  4.951550000E-01  5.534199315E-01
  1.916650000E-01  2.301839106E-01
  6.708300000E-02  1.127267003E-02
   p   9
  2.000000000E+02  9.173000030E-04
  4.653336700E+01  7.377140024E-03
  1.462180900E+01  3.483515011E-02
  5.313064000E+00  1.144397004E-01
  2.102525000E+00  2.554966408E-01
  8.502230000E-01  3.722557412E-01
  3.375970000E-01  3.323314911E-01
  1.288920000E-01  1.400847905E-01
  4.511200000E-02  2.395784008E-02
 
   2
   s  14
  1.053749500E+05  1.238600013E-04
  1.567924000E+04  5.120100053E-04
  3.534544700E+03  2.152910022E-03
  9.873651600E+02  8.528440089E-03
  3.159787500E+02  3.018049031E-02
  1.116542800E+02  9.099702095E-02
  4.269945100E+01  2.177936423E-01
  1.739559600E+01  3.686245738E-01
  7.438309000E+00  3.366707335E-01
  3.222862000E+00  9.657630101E-02
  1.253877000E+00  2.144520022E-03
  4.951550000E-01  1.194350012E-03
  1.916650000E-01  5.390200056E-04
  6.708300000E-02  2.103400022E-04
   s  14
  1.053749500E+05 -2.815000008E-05
  1.567924000E+04 -1.163000003E-04
  3.534544700E+03 -4.909200013E-04
  9.873651600E+02 -1.946160005E-03
  3.159787500E+02 -7.005300019E-03
  1.116542800E+02 -2.167814006E-02
  4.269945100E+01 -5.641213015E-02
  1.739559600E+01 -1.127053003E-01
  7.438309000E+00 -1.589119704E-01
  3.222862000E+00 -3.355083009E-02
  1.253877000E+00  3.531902810E-01
  4.951550000E-01  5.534199315E-01
  1.916650000E-01  2.301839106E-01
  6.708300000E-02  1.127267003E-02
   p   9
  2.000000000E+02  9.173000030E-04
  4.653336700E+01  7.377140024E-03
  1.462180900E+01  3.483515011E-02
  5.313064000E+00  1.144397004E-01
  2.102525000E+00  2.554966408E-01
  8.502230000E-01  3.722557412E-01
  3.375970000E-01  3.323314911E-01
  1.288920000E-01  1.400847905E-01
  4.511200000E-02  2.395784008E-02
 
[MO]
Sym=     1a  
Ene=   -20.7710
Spin= Alpha
Occup=    1.00000
   1         0.70710411
   2        -0.00031527
   3         0.00000000
   4        -0.00000000
   5         0.00011004
   6         0.70710369
   7        -0.00031527
   8         0.00000000
   9        -0.00000000
  10        -0.00011004
Sym=     1a  
Ene=   -20.7710
Spin= Beta
Occup=    1.00000
   1         0.70710411
   2        -0.00031527
   3         0.00000000
   4        -0.00000000
   5         0.00011004
   6         0.70710369
   7        -0.00031527
   8         0.00000000
   9        -0.00000000
  10        -0.00011004
Sym=     2a  
Ene=   -20.7710
Spin= Alpha
Occup=    1.00000
   1        -0.70710937
   2         0.00027194
   3         0.00000000
   4        -0.00000000
   5        -0.00011855
   6         0.70710979
   7        -0.00027194
   8         0.00000000
   9         0.00000000
  10        -0.00011855
Sym=     2a  
Ene=   -20.7710
Spin= Beta
Occup=    1.00000
   1        -0.70710937
   2         0.00027194
   3         0.00000000
   4        -0.00000000
   5        -0.00011855
   6         0.70710979
   7        -0.00027194
   8         0.00000000
   9         0.00000000
  10        -0.00011855
Sym=     3a  
Ene=    -1.3002
Spin= Alpha
Occup=    1.00000
   1        -0.00013175
   2         0.69994440
   3         0.00000000
   4        -0.00000000
   5         0.01204900
   6        -0.00013175
   7         0.69994440
   8         0.00000000
   9         0.00000000
  10        -0.01204900
Sym=     3a  
Ene=    -1.3002
Spin= Beta
Occup=    1.00000
   1        -0.00013175
   2         0.69994440
   3         0.00000000
   4        -0.00000000
   5         0.01204900
   6        -0.00013175
   7         0.69994440
   8         0.00000000
   9         0.00000000
  10        -0.01204900
Sym=     4a  
Ene=    -1.2755
Spin= Alpha
Occup=    1.00000
   1        -0.00062292
   2        -0.71255024
   3         0.00000000
   4        -0.00000000
   5         0.01796648
   6         0.00062292
   7         0.71255024
   8        -0.00000000
   9         0.00000000
  10         0.01796648
Sym=     4a  
Ene=    -1.2755
Spin= Beta
Occup=    1.00000
   1        -0.00062292
   2        -0.71255024
   3         0.00000000
   4        -0.00000000
   5         0.01796648
   6         0.00062292
   7         0.71255024
   8        -0.00000000
   9         0.00000000
  10         0.01796648
Sym=     5a  
Ene=    -0.6163
Spin= Alpha
Occup=    1.00000
   1        -0.00000000
   2        -0.00000000
   3        -0.12267425
   4         0.68830653
   5         0.00000000
   6         0.00000000
   7         0.00000000
   8        -0.12267425
   9         0.68830653
  10        -0.00000000
Sym=     5a  
Ene=    -0.6163
Spin= Beta
Occup=    1.00000
   1        -0.00000000
   2        -0.00000000
   3        -0.12267425
   4         0.68830653
   5         0.00000000
   6         0.00000000
   7         0.00000000
   8        -0.12267425
   9         0.68830653
  10        -0.00000000
Sym=     6a  
Ene=    -0.6047
Spin= Alpha
Occup=    1.00000
   1        -0.00000000
   2        -0.00000000
   3         0.12551417
   4        -0.70424087
   5        -0.00000000
   6        -0.00000000
   7        -0.00000000
   8        -0.12551417
   9         0.70424087
  10        -0.00000000
Sym=     6a  
Ene=    -0.6047
Spin= Beta
Occup=    1.00000
   1        -0.00000000
   2        -0.00000000
   3         0.12551417
   4        -0.70424087
   5        -0.00000000
   6        -0.00000000
   7        -0.00000000
   8        -0.12551417
   9         0.70424087
  10        -0.00000000
Sym=     7a  
Ene=    -0.4460
Spin= Alpha
Occup=    1.00000
   1         0.00247722
   2         0.04747264
   3         0.00000000
   4         0.00000000
   5        -0.68301274
   6         0.00247722
   7         0.04747264
   8        -0.00000000
   9        -0.00000000
  10         0.68301274
Sym=     7a  
Ene=    -0.4460
Spin= Beta
Occup=    1.00000
   1         0.00247722
   2         0.04747264
   3         0.00000000
   4         0.00000000
   5        -0.68301274
   6         0.00247722
   7         0.04747264
   8        -0.00000000
   9        -0.00000000
  10         0.68301274
Sym=     8a  
Ene=    -0.4149
Spin= Alpha
Occup=    1.00000
   1        -0.00000000
   2        -0.00000000
   3         0.68830653
   4         0.12267425
   5        -0.00000000
   6         0.00000000
   7         0.00000000
   8         0.68830653
   9         0.12267425
  10        -0.00000000
Sym=     8a  
Ene=    -0.4149
Spin= Beta
Occup=    1.00000
   1        -0.00000000
   2        -0.00000000
   3         0.68830653
   4         0.12267425
   5        -0.00000000
   6         0.00000000
   7         0.00000000
   8         0.68830653
   9         0.12267425
  10        -0.00000000
Sym=     9a  
Ene=    -0.2022
Spin= Alpha
Occup=    0.00000
   1         0.00000000
   2         0.00000000
   3        -0.70424087
   4        -0.12551417
   5        -0.00000000
   6         0.00000000
   7         0.00000000
   8         0.70424087
   9         0.12551417
  10         0.00000000
Sym=     9a  
Ene=    -0.2022
Spin= Beta
Occup=    0.00000
   1         0.00000000
   2         0.00000000
   3        -0.70424087
   4        -0.12551417
   5        -0.00000000
   6         0.00000000
   7         0.00000000
   8         0.70424087
   9         0.12551417
  10         0.00000000
Sym=    10a  
Ene=    -0.1628
Spin= Alpha
Occup=    0.00000
   1         0.00249452
   2         0.05667458
   3         0.00000000
   4         0.00000000
   5         0.73578056
   6        -0.00249452
   7        -0.05667458
   8         0.00000000
   9         0.00000000
  10         0.73578056
Sym=    10a  
Ene=    -0.1628
Spin= Beta
Occup=    0.00000
   1         0.00249452
   2         0.05667458
   3         0.00000000
   4         0.00000000
   5         0.73578056
   6        -0.00249452
   7        -0.05667458
   8         0.00000000
   9         0.00000000
  10         0.73578056
