[Molden Format]
[N_Atoms]
                     2
[Atoms] (AU)
O1          1      8           0.00000000      0.00000000      0.00000000
O2          2      8           0.00000000      0.00000000      4.91328792
[Charge] (Mulliken)
   1.00052115253531     
  0.999478847464654     
[GTO] (AU)
   1
   s  14
  1.053749500E+05  1.238600013E-04
  1.567924000E+04  5.120100053E-04
  3.534544700E+03  2.152910022E-03
  9.873651600E+02  8.528440089E-03
  3.159787500E+02  3.018049031E-02
  1.116542800E+02  9.099702095E-02
  4.269945100E+01  2.177936423E-01
  1.739559600E+01  3.686245738E-01
  7.438309000E+00  3.366707335E-01
  3.222862000E+00  9.657630101E-02
  1.253877000E+00  2.144520022E-03
  4.951550000E-01  1.194350012E-03
  1.916650000E-01  5.390200056E-04
  6.708300000E-02  2.103400022E-04
   s  14
  1.053749500E+05 -2.815000008E-05
  1.567924000E+04 -1.163000003E-04
  3.534544700E+03 -4.909200013E-04
  9.873651600E+02 -1.946160005E-03
  3.159787500E+02 -7.005300019E-03
  1.116542800E+02 -2.167814006E-02
  4.269945100E+01 -5.641213015E-02
  1.739559600E+01 -1.127053003E-01
  7.438309000E+00 -1.589119704E-01
  3.222862000E+00 -3.355083009E-02
  1.253877000E+00  3.531902810E-01
  4.951550000E-01  5.534199315E-01
  1.916650000E-01  2.301839106E-01
  6.708300000E-02  1.127267003E-02
   p   9
  2.000000000E+02  9.173000030E-04
  4.653336700E+01  7.377140024E-03
  1.462180900E+01  3.483515011E-02
  5.313064000E+00  1.144397004E-01
  2.102525000E+00  2.554966408E-01
  8.502230000E-01  3.722557412E-01
  3.375970000E-01  3.323314911E-01
  1.288920000E-01  1.400847905E-01
  4.511200000E-02  2.395784008E-02
 
   2
   s  14
  1.053749500E+05  1.238600013E-04
  1.567924000E+04  5.120100053E-04
  3.534544700E+03  2.152910022E-03
  9.873651600E+02  8.528440089E-03
  3.159787500E+02  3.018049031E-02
  1.116542800E+02  9.099702095E-02
  4.269945100E+01  2.177936423E-01
  1.739559600E+01  3.686245738E-01
  7.438309000E+00  3.366707335E-01
  3.222862000E+00  9.657630101E-02
  1.253877000E+00  2.144520022E-03
  4.951550000E-01  1.194350012E-03
  1.916650000E-01  5.390200056E-04
  6.708300000E-02  2.103400022E-04
   s  14
  1.053749500E+05 -2.815000008E-05
  1.567924000E+04 -1.163000003E-04
  3.534544700E+03 -4.909200013E-04
  9.873651600E+02 -1.946160005E-03
  3.159787500E+02 -7.005300019E-03
  1.116542800E+02 -2.167814006E-02
  4.269945100E+01 -5.641213015E-02
  1.739559600E+01 -1.127053003E-01
  7.438309000E+00 -1.589119704E-01
  3.222862000E+00 -3.355083009E-02
  1.253877000E+00  3.531902810E-01
  4.951550000E-01  5.534199315E-01
  1.916650000E-01  2.301839106E-01
  6.708300000E-02  1.127267003E-02
   p   9
  2.000000000E+02  9.173000030E-04
  4.653336700E+01  7.377140024E-03
  1.462180900E+01  3.483515011E-02
  5.313064000E+00  1.144397004E-01
  2.102525000E+00  2.554966408E-01
  8.502230000E-01  3.722557412E-01
  3.375970000E-01  3.323314911E-01
  1.288920000E-01  1.400847905E-01
  4.511200000E-02  2.395784008E-02
 
[MO]
Sym=     1a  
Ene=   -22.0280
Spin= Alpha
Occup=    2.00000
   1         0.01267012
   2        -0.00020541
   3         0.00000000
   4         0.00000000
   5         0.00005023
   6         0.99991754
   7        -0.00200442
   8         0.00000000
   9         0.00000000
  10        -0.00015088
Sym=     2a  
Ene=   -22.0250
Spin= Alpha
Occup=    2.00000
   1        -0.99979811
   2         0.01541524
   3        -0.00000000
   4        -0.00000000
   5        -0.00064013
   6         0.01267210
   7        -0.00020266
   8        -0.00000000
   9        -0.00000000
  10         0.00079474
Sym=     3a  
Ene=    -2.1698
Spin= Alpha
Occup=    2.00000
   1         0.00062649
   2         0.00087630
   3        -0.00000000
   4        -0.00000000
   5        -0.01181176
   6        -0.00195795
   7        -0.99883826
   8         0.00000000
   9         0.00000000
  10         0.03040738
Sym=     4a  
Ene=    -1.4985
Spin= Alpha
Occup=    2.00000
   1         0.00000000
   2        -0.00000000
   3         0.84580488
   4        -0.53370871
   5        -0.00000000
   6         0.00000000
   7         0.00000000
   8        -0.00488168
   9         0.00308040
  10         0.00000000
Sym=     5a  
Ene=    -1.4983
Spin= Alpha
Occup=    2.00000
   1         0.00000000
   2         0.00000000
   3        -0.00304937
   4        -0.00483251
   5        -0.00000001
   6         0.00000000
   7         0.00000001
   8         0.53370820
   9         0.84580402
  10         0.00000026
Sym=     6a  
Ene=    -1.3368
Spin= Alpha
Occup=    2.00000
   1         0.00227045
   2        -0.03771583
   3        -0.00000003
   4        -0.00000005
   5        -0.68176296
   6         0.00259722
   7         0.06725235
   8        -0.00000011
   9        -0.00000017
  10         0.68020938
Sym=     7a  
Ene=    -2.1574
Spin= Alpha
Occup=    1.97501
   1        -0.01562339
   2        -1.00037800
   3         0.00000000
   4         0.00000000
   5         0.04022798
   6         0.00041470
   7         0.01464635
   8         0.00000000
   9         0.00000001
  10        -0.05903453
Sym=     8a  
Ene=    -0.0000
Spin= Alpha
Occup=    0.02499
   1         0.00000000
   2        -0.00000000
   3        -0.53377816
   4        -0.84591494
   5         0.00000009
   6        -0.00000000
   7        -0.00000000
   8         0.00916545
   9         0.01452512
  10         0.00000001
Sym=     9a  
Ene=    -1.0757
Spin= Alpha
Occup=    0.00000
   1         0.00249363
   2         0.02643435
   3         0.00000004
   4         0.00000006
   5         0.73606283
   6        -0.00249305
   7        -0.02639166
   8        -0.00000009
   9        -0.00000014
  10         0.73569851
Sym=    10a  
Ene=    -0.8975
Spin= Alpha
Occup=    0.00000
   1         0.00000000
   2         0.00000000
   3        -0.01447595
   4         0.00913442
   5         0.00000000
   6        -0.00000000
   7         0.00000000
   8         0.84591465
   9        -0.53377800
  10         0.00000000
