[Molden Format]
[N_Atoms]
                     2
[Atoms] (AU)
B1          1      5           0.00000000      0.00000000      0.00000000
O2          2      8           0.00000000      0.00000000      2.26767135
[Charge] (Mulliken)
  0.590825416791139     
 -0.590825416791166     
[GTO] (AU)
   1
   s  14
  3.336021700E+04  1.039699991E-04
  4.972095200E+03  5.254399956E-04
  1.125641700E+03  2.509059979E-03
  3.164913600E+02  1.031887991E-02
  1.020072600E+02  3.636632969E-02
  3.629587300E+01  1.064607991E-01
  1.397141000E+01  2.403999880E-01
  5.741156000E+00  3.748581168E-01
  2.494268000E+00  3.100066974E-01
  1.114202000E+00  7.922455933E-02
  4.215490000E-01 -4.947589958E-03
  1.696330000E-01 -7.737119935E-03
  6.853500000E-02 -1.501079987E-03
  2.398700000E-02 -1.333299989E-04
   s  14
  3.336021700E+04 -2.030000008E-05
  4.972095200E+03 -1.025700004E-04
  1.125641700E+03 -4.911300020E-04
  3.164913600E+02 -2.026570008E-03
  1.020072600E+02 -7.261010030E-03
  3.629587300E+01 -2.197722009E-02
  1.397141000E+01 -5.408428022E-02
  5.741156000E+00 -1.022402604E-01
  2.494268000E+00 -1.423595206E-01
  1.114202000E+00 -4.658690019E-02
  4.215490000E-01  3.799402916E-01
  1.696330000E-01  5.890463624E-01
  6.853500000E-02  1.749075107E-01
  2.398700000E-02 -1.142030005E-03
   p   9
  5.500000000E+01  1.229800005E-03
  1.336610100E+01  8.827380035E-03
  4.135394000E+00  3.843340015E-02
  1.481256000E+00  1.150031805E-01
  6.021360000E-01  2.733674011E-01
  2.556360000E-01  4.061972116E-01
  1.111510000E-01  3.014967912E-01
  4.764800000E-02  7.684809030E-02
  1.667700000E-02 -8.170000032E-06
 
   2
   s  14
  1.053749500E+05  1.238600013E-04
  1.567924000E+04  5.120100053E-04
  3.534544700E+03  2.152910022E-03
  9.873651600E+02  8.528440089E-03
  3.159787500E+02  3.018049031E-02
  1.116542800E+02  9.099702095E-02
  4.269945100E+01  2.177936423E-01
  1.739559600E+01  3.686245738E-01
  7.438309000E+00  3.366707335E-01
  3.222862000E+00  9.657630101E-02
  1.253877000E+00  2.144520022E-03
  4.951550000E-01  1.194350012E-03
  1.916650000E-01  5.390200056E-04
  6.708300000E-02  2.103400022E-04
   s  14
  1.053749500E+05 -2.815000008E-05
  1.567924000E+04 -1.163000003E-04
  3.534544700E+03 -4.909200013E-04
  9.873651600E+02 -1.946160005E-03
  3.159787500E+02 -7.005300019E-03
  1.116542800E+02 -2.167814006E-02
  4.269945100E+01 -5.641213015E-02
  1.739559600E+01 -1.127053003E-01
  7.438309000E+00 -1.589119704E-01
  3.222862000E+00 -3.355083009E-02
  1.253877000E+00  3.531902810E-01
  4.951550000E-01  5.534199315E-01
  1.916650000E-01  2.301839106E-01
  6.708300000E-02  1.127267003E-02
   p   9
  2.000000000E+02  9.173000030E-04
  4.653336700E+01  7.377140024E-03
  1.462180900E+01  3.483515011E-02
  5.313064000E+00  1.144397004E-01
  2.102525000E+00  2.554966408E-01
  8.502230000E-01  3.722557412E-01
  3.375970000E-01  3.323314911E-01
  1.288920000E-01  1.400847905E-01
  4.511200000E-02  2.395784008E-02
 
[MO]
Sym=     1a  
Ene=   -20.6270
Spin= Alpha
Occup=    1.00000
   1        -0.00035224
   2        -0.00127224
   3        -0.00000000
   4         0.00000000
   5        -0.00077040
   6         1.00013182
   7         0.00100919
   8        -0.00000000
   9        -0.00000000
  10        -0.00210899
Sym=     1a  
Ene=   -20.6440
Spin= Beta
Occup=    1.00000
   1        -0.00045703
   2        -0.00163548
   3        -0.00000000
   4         0.00000000
   5        -0.00115483
   6         1.00018349
   7         0.00217199
   8         0.00000000
   9        -0.00000000
  10        -0.00229655
Sym=     2a  
Ene=    -7.8555
Spin= Alpha
Occup=    1.00000
   1         0.99942247
   2         0.01481008
   3         0.00000000
   4        -0.00000000
   5         0.00057787
   6        -0.00055631
   7         0.00194257
   8        -0.00000000
   9         0.00000000
  10        -0.00289572
Sym=     2a  
Ene=    -7.8212
Spin= Beta
Occup=    1.00000
   1         0.99951671
   2         0.01350304
   3         0.00000000
   4        -0.00000000
   5         0.00148279
   6        -0.00054984
   7         0.00153027
   8        -0.00000000
   9         0.00000000
  10        -0.00248452
Sym=     3a  
Ene=    -1.3871
Spin= Alpha
Occup=    1.00000
   1        -0.08299648
   2         0.13640647
   3        -0.00000000
   4         0.00000000
   5         0.13924303
   6        -0.01962414
   7         0.81126560
   8        -0.00000000
   9        -0.00000000
  10        -0.24065107
Sym=     3a  
Ene=    -1.4277
Spin= Beta
Occup=    1.00000
   1        -0.08179149
   2         0.08650678
   3        -0.00000000
   4         0.00000000
   5         0.12069014
   6        -0.01609808
   7         0.85917258
   8        -0.00000000
   9        -0.00000000
  10        -0.21831258
Sym=     4a  
Ene=    -0.6808
Spin= Alpha
Occup=    1.00000
   1         0.06337202
   2        -0.45365265
   3        -0.00000000
   4        -0.00000000
   5         0.02654158
   6         0.02255978
   7         0.49205279
   8        -0.00000000
   9        -0.00000000
  10         0.71720516
Sym=     4a  
Ene=    -0.6642
Spin= Beta
Occup=    1.00000
   1         0.07623949
   2        -0.21406545
   3         0.00000000
   4        -0.00000000
   5        -0.17849991
   6         0.02768453
   7         0.46425889
   8         0.00000000
   9        -0.00000000
  10         0.84333035
Sym=     5a  
Ene=    -0.5512
Spin= Alpha
Occup=    1.00000
   1         0.04226651
   2         0.72866062
   3         0.00000000
   4         0.00000000
   5        -0.60946182
   6         0.01539019
   7         0.10633390
   8         0.00000000
   9         0.00000000
  10         0.49385080
Sym=     5a  
Ene=    -0.6026
Spin= Beta
Occup=    1.00000
   1         0.00000000
   2        -0.00000000
   3         0.03394555
   4         0.24844839
   5        -0.00000000
   6         0.00000000
   7         0.00000000
   8         0.11987859
   9         0.87739469
  10         0.00000000
Sym=     6a  
Ene=    -0.5412
Spin= Alpha
Occup=    1.00000
   1        -0.00000000
   2        -0.00000000
   3         0.04791748
   4         0.48493248
   5         0.00000000
   6         0.00000000
   7         0.00000000
   8         0.07093952
   9         0.71791915
  10        -0.00000000
Sym=     6a  
Ene=    -0.6026
Spin= Beta
Occup=    1.00000
   1        -0.00000000
   2         0.00000000
   3         0.24844839
   4        -0.03394555
   5         0.00000000
   6        -0.00000000
   7        -0.00000000
   8         0.87739469
   9        -0.11987859
  10        -0.00000000
Sym=     7a  
Ene=    -0.5412
Spin= Alpha
Occup=    1.00000
   1        -0.00000000
   2        -0.00000000
   3         0.48493248
   4        -0.04791748
   5         0.00000000
   6        -0.00000000
   7        -0.00000000
   8         0.71791915
   9        -0.07093952
  10        -0.00000000
Sym=     7a  
Ene=     0.0034
Spin= Beta
Occup=    0.00000
   1         0.02899292
   2         0.90003957
   3        -0.00000000
   4         0.00000000
   5        -0.50809346
   6        -0.00267039
   7        -0.10532888
   8        -0.00000000
   9        -0.00000000
  10         0.28672340
Sym=     8a  
Ene=     0.1464
Spin= Alpha
Occup=    0.00000
   1         0.00000000
   2         0.00000000
   3        -0.28644829
   4        -0.90278319
   5         0.00000000
   6        -0.00000000
   7        -0.00000000
   8         0.23699949
   9         0.74693816
  10        -0.00000000
Sym=     8a  
Ene=     0.1969
Spin= Beta
Occup=    0.00000
   1         0.00000000
   2         0.00000000
   3        -0.21357709
   4        -1.01293219
   5         0.00000000
   6        -0.00000000
   7        -0.00000000
   8         0.12211516
   9         0.57915565
  10         0.00000000
Sym=     9a  
Ene=     0.1464
Spin= Alpha
Occup=    0.00000
   1        -0.00000000
   2        -0.00000000
   3        -0.90278319
   4         0.28644829
   5         0.00000000
   6         0.00000000
   7         0.00000000
   8         0.74693816
   9        -0.23699949
  10        -0.00000000
Sym=     9a  
Ene=     0.1969
Spin= Beta
Occup=    0.00000
   1        -0.00000000
   2        -0.00000000
   3        -1.01293219
   4         0.21357709
   5        -0.00000000
   6         0.00000000
   7         0.00000000
   8         0.57915565
   9        -0.12211516
  10        -0.00000000
Sym=    10a  
Ene=     0.6466
Spin= Alpha
Occup=    0.00000
   1         0.14628405
   2         1.03812280
   3        -0.00000000
   4         0.00000000
   5         1.19497458
   6        -0.15682146
   7        -1.16120849
   8         0.00000000
   9        -0.00000000
  10         0.76389840
Sym=    10a  
Ene=     0.6851
Spin= Beta
Occup=    0.00000
   1         0.14338253
   2         0.98473853
   3        -0.00000000
   4         0.00000000
   5         1.23081726
   6        -0.15680504
   7        -1.13805518
   8         0.00000000
   9        -0.00000000
  10         0.74742905
