[Molden Format]
[N_Atoms]
                     2
[Atoms] (AU)
B1          1      5           0.00000000      0.00000000      0.00000000
B2          2      5           0.00000000      0.00000000      2.07869874
[Charge] (Mulliken)
  0.999999999999757     
   1.00000000000025     
[GTO] (AU)
   1
   s  14
  3.336021700E+04  1.039699991E-04
  4.972095200E+03  5.254399956E-04
  1.125641700E+03  2.509059979E-03
  3.164913600E+02  1.031887991E-02
  1.020072600E+02  3.636632969E-02
  3.629587300E+01  1.064607991E-01
  1.397141000E+01  2.403999880E-01
  5.741156000E+00  3.748581168E-01
  2.494268000E+00  3.100066974E-01
  1.114202000E+00  7.922455933E-02
  4.215490000E-01 -4.947589958E-03
  1.696330000E-01 -7.737119935E-03
  6.853500000E-02 -1.501079987E-03
  2.398700000E-02 -1.333299989E-04
   s  14
  3.336021700E+04 -2.030000008E-05
  4.972095200E+03 -1.025700004E-04
  1.125641700E+03 -4.911300020E-04
  3.164913600E+02 -2.026570008E-03
  1.020072600E+02 -7.261010030E-03
  3.629587300E+01 -2.197722009E-02
  1.397141000E+01 -5.408428022E-02
  5.741156000E+00 -1.022402604E-01
  2.494268000E+00 -1.423595206E-01
  1.114202000E+00 -4.658690019E-02
  4.215490000E-01  3.799402916E-01
  1.696330000E-01  5.890463624E-01
  6.853500000E-02  1.749075107E-01
  2.398700000E-02 -1.142030005E-03
   p   9
  5.500000000E+01  1.229800005E-03
  1.336610100E+01  8.827380035E-03
  4.135394000E+00  3.843340015E-02
  1.481256000E+00  1.150031805E-01
  6.021360000E-01  2.733674011E-01
  2.556360000E-01  4.061972116E-01
  1.111510000E-01  3.014967912E-01
  4.764800000E-02  7.684809030E-02
  1.667700000E-02 -8.170000032E-06
 
   2
   s  14
  3.336021700E+04  1.039699991E-04
  4.972095200E+03  5.254399956E-04
  1.125641700E+03  2.509059979E-03
  3.164913600E+02  1.031887991E-02
  1.020072600E+02  3.636632969E-02
  3.629587300E+01  1.064607991E-01
  1.397141000E+01  2.403999880E-01
  5.741156000E+00  3.748581168E-01
  2.494268000E+00  3.100066974E-01
  1.114202000E+00  7.922455933E-02
  4.215490000E-01 -4.947589958E-03
  1.696330000E-01 -7.737119935E-03
  6.853500000E-02 -1.501079987E-03
  2.398700000E-02 -1.333299989E-04
   s  14
  3.336021700E+04 -2.030000008E-05
  4.972095200E+03 -1.025700004E-04
  1.125641700E+03 -4.911300020E-04
  3.164913600E+02 -2.026570008E-03
  1.020072600E+02 -7.261010030E-03
  3.629587300E+01 -2.197722009E-02
  1.397141000E+01 -5.408428022E-02
  5.741156000E+00 -1.022402604E-01
  2.494268000E+00 -1.423595206E-01
  1.114202000E+00 -4.658690019E-02
  4.215490000E-01  3.799402916E-01
  1.696330000E-01  5.890463624E-01
  6.853500000E-02  1.749075107E-01
  2.398700000E-02 -1.142030005E-03
   p   9
  5.500000000E+01  1.229800005E-03
  1.336610100E+01  8.827380035E-03
  4.135394000E+00  3.843340015E-02
  1.481256000E+00  1.150031805E-01
  6.021360000E-01  2.733674011E-01
  2.556360000E-01  4.061972116E-01
  1.111510000E-01  3.014967912E-01
  4.764800000E-02  7.684809030E-02
  1.667700000E-02 -8.170000032E-06
 
[MO]
Sym=     1a  
Ene=    -8.7377
Spin= Alpha
Occup=    2.00000
   1         0.70503264
   2         0.00982443
   3         0.00000000
   4         0.00000000
   5         0.00324638
   6         0.70503264
   7         0.00982443
   8        -0.00000000
   9        -0.00000000
  10        -0.00324638
Sym=     2a  
Ene=    -8.7173
Spin= Alpha
Occup=    2.00000
   1        -0.70827727
   2        -0.00878181
   3         0.00000000
   4        -0.00000000
   5         0.00005266
   6         0.70827727
   7         0.00878181
   8        -0.00000000
   9         0.00000000
  10         0.00005266
Sym=     3a  
Ene=    -1.5522
Spin= Alpha
Occup=    2.00000
   1        -0.12731477
   2         0.37749382
   3         0.00000000
   4         0.00000000
   5         0.36899032
   6        -0.12731477
   7         0.37749382
   8        -0.00000000
   9         0.00000000
  10        -0.36899032
Sym=     4a  
Ene=    -0.9405
Spin= Alpha
Occup=    1.00000
   1         0.00000000
   2        -0.00000000
   3        -0.56082173
   4        -0.07113084
   5         0.00000000
   6        -0.00000000
   7         0.00000000
   8        -0.56082173
   9        -0.07113084
  10         0.00000000
Sym=     5a  
Ene=     0.0000
Spin= Alpha
Occup=    1.00000
   1         0.00000000
   2        -0.00000000
   3        -0.07113084
   4         0.56082173
   5         0.00000000
   6        -0.00000000
   7         0.00000000
   8        -0.07113084
   9         0.56082173
  10         0.00000000
Sym=     6a  
Ene=    -0.7213
Spin= Alpha
Occup=    0.00000
   1        -0.00095138
   2        -0.63240337
   3         0.00000000
   4        -0.00000000
   5         0.35807011
   6         0.00095138
   7         0.63240337
   8         0.00000000
   9        -0.00000000
  10         0.35807011
Sym=     7a  
Ene=    -0.6806
Spin= Alpha
Occup=    0.00000
   1         0.07324848
   2         0.46644072
   3        -0.00000000
   4        -0.00000000
   5        -0.69553905
   6         0.07324848
   7         0.46644072
   8         0.00000000
   9        -0.00000000
  10         0.69553905
Sym=     8a  
Ene=    -0.4052
Spin= Alpha
Occup=    0.00000
   1        -0.00000000
   2         0.00000000
   3        -0.77090180
   4         0.74427760
   5         0.00000000
   6        -0.00000000
   7        -0.00000000
   8         0.77090180
   9        -0.74427760
  10        -0.00000000
Sym=     9a  
Ene=    -0.4052
Spin= Alpha
Occup=    0.00000
   1        -0.00000000
   2        -0.00000000
   3        -0.74427760
   4        -0.77090180
   5         0.00000000
   6         0.00000000
   7         0.00000000
   8         0.74427760
   9         0.77090180
  10        -0.00000000
Sym=    10a  
Ene=     0.5386
Spin= Alpha
Occup=    0.00000
   1        -0.78027508
   2        -3.43696103
   3        -0.00000000
   4         0.00000000
   5        -2.00968634
   6         0.78027508
   7         3.43696103
   8        -0.00000000
   9         0.00000000
  10        -2.00968634
