[Molden Format]
[N_Atoms]
                     2
[Atoms] (AU)
B1          1      5           0.00000000      0.00000000      0.00000000
B2          2      5           0.00000000      0.00000000      2.07869874
[Charge] (Mulliken)
 -2.957634137601417E-013
  2.904343432419410E-013
[GTO] (AU)
   1
   s  14
  3.336021700E+04  1.039699991E-04
  4.972095200E+03  5.254399956E-04
  1.125641700E+03  2.509059979E-03
  3.164913600E+02  1.031887991E-02
  1.020072600E+02  3.636632969E-02
  3.629587300E+01  1.064607991E-01
  1.397141000E+01  2.403999880E-01
  5.741156000E+00  3.748581168E-01
  2.494268000E+00  3.100066974E-01
  1.114202000E+00  7.922455933E-02
  4.215490000E-01 -4.947589958E-03
  1.696330000E-01 -7.737119935E-03
  6.853500000E-02 -1.501079987E-03
  2.398700000E-02 -1.333299989E-04
   s  14
  3.336021700E+04 -2.030000008E-05
  4.972095200E+03 -1.025700004E-04
  1.125641700E+03 -4.911300020E-04
  3.164913600E+02 -2.026570008E-03
  1.020072600E+02 -7.261010030E-03
  3.629587300E+01 -2.197722009E-02
  1.397141000E+01 -5.408428022E-02
  5.741156000E+00 -1.022402604E-01
  2.494268000E+00 -1.423595206E-01
  1.114202000E+00 -4.658690019E-02
  4.215490000E-01  3.799402916E-01
  1.696330000E-01  5.890463624E-01
  6.853500000E-02  1.749075107E-01
  2.398700000E-02 -1.142030005E-03
   p   9
  5.500000000E+01  1.229800005E-03
  1.336610100E+01  8.827380035E-03
  4.135394000E+00  3.843340015E-02
  1.481256000E+00  1.150031805E-01
  6.021360000E-01  2.733674011E-01
  2.556360000E-01  4.061972116E-01
  1.111510000E-01  3.014967912E-01
  4.764800000E-02  7.684809030E-02
  1.667700000E-02 -8.170000032E-06
 
   2
   s  14
  3.336021700E+04  1.039699991E-04
  4.972095200E+03  5.254399956E-04
  1.125641700E+03  2.509059979E-03
  3.164913600E+02  1.031887991E-02
  1.020072600E+02  3.636632969E-02
  3.629587300E+01  1.064607991E-01
  1.397141000E+01  2.403999880E-01
  5.741156000E+00  3.748581168E-01
  2.494268000E+00  3.100066974E-01
  1.114202000E+00  7.922455933E-02
  4.215490000E-01 -4.947589958E-03
  1.696330000E-01 -7.737119935E-03
  6.853500000E-02 -1.501079987E-03
  2.398700000E-02 -1.333299989E-04
   s  14
  3.336021700E+04 -2.030000008E-05
  4.972095200E+03 -1.025700004E-04
  1.125641700E+03 -4.911300020E-04
  3.164913600E+02 -2.026570008E-03
  1.020072600E+02 -7.261010030E-03
  3.629587300E+01 -2.197722009E-02
  1.397141000E+01 -5.408428022E-02
  5.741156000E+00 -1.022402604E-01
  2.494268000E+00 -1.423595206E-01
  1.114202000E+00 -4.658690019E-02
  4.215490000E-01  3.799402916E-01
  1.696330000E-01  5.890463624E-01
  6.853500000E-02  1.749075107E-01
  2.398700000E-02 -1.142030005E-03
   p   9
  5.500000000E+01  1.229800005E-03
  1.336610100E+01  8.827380035E-03
  4.135394000E+00  3.843340015E-02
  1.481256000E+00  1.150031805E-01
  6.021360000E-01  2.733674011E-01
  2.556360000E-01  4.061972116E-01
  1.111510000E-01  3.014967912E-01
  4.764800000E-02  7.684809030E-02
  1.667700000E-02 -8.170000032E-06
 
[MO]
Sym=     1a  
Ene=    -7.7992
Spin= Alpha
Occup=    1.00000
   1         0.70496237
   2         0.01110267
   3         0.00000000
   4        -0.00000000
   5         0.00268574
   6         0.70496237
   7         0.01110267
   8        -0.00000000
   9         0.00000000
  10        -0.00268574
Sym=     1a  
Ene=    -7.7992
Spin= Beta
Occup=    1.00000
   1         0.70496237
   2         0.01110267
   3         0.00000000
   4        -0.00000000
   5         0.00268574
   6         0.70496237
   7         0.01110267
   8        -0.00000000
   9         0.00000000
  10        -0.00268574
Sym=     2a  
Ene=    -7.7781
Spin= Alpha
Occup=    1.00000
   1        -0.70839981
   2        -0.01033666
   3         0.00000000
   4        -0.00000000
   5         0.00031489
   6         0.70839981
   7         0.01033666
   8        -0.00000000
   9         0.00000000
  10         0.00031489
Sym=     2a  
Ene=    -7.7781
Spin= Beta
Occup=    1.00000
   1        -0.70839981
   2        -0.01033666
   3         0.00000000
   4        -0.00000000
   5         0.00031489
   6         0.70839981
   7         0.01033666
   8        -0.00000000
   9         0.00000000
  10         0.00031489
Sym=     3a  
Ene=    -0.7587
Spin= Alpha
Occup=    1.00000
   1        -0.11640265
   2         0.44163269
   3         0.00000000
   4        -0.00000000
   5         0.26329858
   6        -0.11640265
   7         0.44163269
   8        -0.00000000
   9        -0.00000000
  10        -0.26329858
Sym=     3a  
Ene=    -0.7587
Spin= Beta
Occup=    1.00000
   1        -0.11640265
   2         0.44163269
   3         0.00000000
   4        -0.00000000
   5         0.26329858
   6        -0.11640265
   7         0.44163269
   8        -0.00000000
   9        -0.00000000
  10        -0.26329858
Sym=     4a  
Ene=    -0.3912
Spin= Alpha
Occup=    1.00000
   1        -0.00000000
   2        -0.00000000
   3        -0.42484078
   4         0.37294896
   5         0.00000000
   6        -0.00000000
   7         0.00000000
   8        -0.42484078
   9         0.37294896
  10        -0.00000000
Sym=     4a  
Ene=    -0.3912
Spin= Beta
Occup=    1.00000
   1        -0.00000000
   2        -0.00000000
   3        -0.42484078
   4         0.37294896
   5         0.00000000
   6        -0.00000000
   7         0.00000000
   8        -0.42484078
   9         0.37294896
  10        -0.00000000
Sym=     5a  
Ene=    -0.3912
Spin= Alpha
Occup=    1.00000
   1         0.00000000
   2         0.00000000
   3         0.37294896
   4         0.42484078
   5        -0.00000000
   6         0.00000000
   7         0.00000000
   8         0.37294896
   9         0.42484078
  10         0.00000000
Sym=     5a  
Ene=    -0.3912
Spin= Beta
Occup=    1.00000
   1         0.00000000
   2         0.00000000
   3         0.37294896
   4         0.42484078
   5        -0.00000000
   6         0.00000000
   7         0.00000000
   8         0.37294896
   9         0.42484078
  10         0.00000000
Sym=     6a  
Ene=    -0.0572
Spin= Alpha
Occup=    0.00000
   1         0.03069763
   2        -0.49749831
   3         0.00000000
   4         0.00000000
   5         0.43638683
   6        -0.03069763
   7         0.49749831
   8        -0.00000000
   9        -0.00000000
  10         0.43638683
Sym=     6a  
Ene=    -0.0572
Spin= Beta
Occup=    0.00000
   1         0.03069763
   2        -0.49749831
   3         0.00000000
   4         0.00000000
   5         0.43638683
   6        -0.03069763
   7         0.49749831
   8        -0.00000000
   9        -0.00000000
  10         0.43638683
Sym=     7a  
Ene=     0.0253
Spin= Alpha
Occup=    0.00000
   1         0.09013269
   2         0.40620480
   3        -0.00000000
   4        -0.00000000
   5        -0.74202804
   6         0.09013269
   7         0.40620480
   8         0.00000000
   9        -0.00000000
  10         0.74202804
Sym=     7a  
Ene=     0.0253
Spin= Beta
Occup=    0.00000
   1         0.09013269
   2         0.40620480
   3        -0.00000000
   4        -0.00000000
   5        -0.74202804
   6         0.09013269
   7         0.40620480
   8         0.00000000
   9        -0.00000000
  10         0.74202804
Sym=     8a  
Ene=     0.3143
Spin= Alpha
Occup=    0.00000
   1         0.00000000
   2        -0.00000000
   3         0.71315493
   4        -0.79978046
   5        -0.00000000
   6         0.00000000
   7         0.00000000
   8        -0.71315493
   9         0.79978046
  10         0.00000000
Sym=     8a  
Ene=     0.3143
Spin= Beta
Occup=    0.00000
   1         0.00000000
   2        -0.00000000
   3         0.71315493
   4        -0.79978046
   5        -0.00000000
   6         0.00000000
   7         0.00000000
   8        -0.71315493
   9         0.79978046
  10         0.00000000
Sym=     9a  
Ene=     0.3143
Spin= Alpha
Occup=    0.00000
   1        -0.00000000
   2        -0.00000000
   3        -0.79978046
   4        -0.71315493
   5         0.00000000
   6        -0.00000000
   7         0.00000000
   8         0.79978046
   9         0.71315493
  10        -0.00000000
Sym=     9a  
Ene=     0.3143
Spin= Beta
Occup=    0.00000
   1        -0.00000000
   2        -0.00000000
   3        -0.79978046
   4        -0.71315493
   5         0.00000000
   6        -0.00000000
   7         0.00000000
   8         0.79978046
   9         0.71315493
  10        -0.00000000
Sym=    10a  
Ene=     1.3271
Spin= Alpha
Occup=    0.00000
   1         0.77956024
   2         3.45906069
   3        -0.00000000
   4        -0.00000000
   5         1.99414640
   6        -0.77956024
   7        -3.45906069
   8        -0.00000000
   9         0.00000000
  10         1.99414640
Sym=    10a  
Ene=     1.3271
Spin= Beta
Occup=    0.00000
   1         0.77956024
   2         3.45906069
   3        -0.00000000
   4        -0.00000000
   5         1.99414640
   6        -0.77956024
   7        -3.45906069
   8        -0.00000000
   9         0.00000000
  10         1.99414640
