[Molden Format]
[N_Atoms]
                     2
[Atoms] (AU)
B1          1      5           0.00000000      0.00000000      0.00000000
B2          2      5           0.00000000      0.00000000      2.07869874
[Charge] (Mulliken)
 -5.284661597215745E-013
  5.355715870791755E-013
[GTO] (AU)
   1
   s  14
  3.336021700E+04  1.039699991E-04
  4.972095200E+03  5.254399956E-04
  1.125641700E+03  2.509059979E-03
  3.164913600E+02  1.031887991E-02
  1.020072600E+02  3.636632969E-02
  3.629587300E+01  1.064607991E-01
  1.397141000E+01  2.403999880E-01
  5.741156000E+00  3.748581168E-01
  2.494268000E+00  3.100066974E-01
  1.114202000E+00  7.922455933E-02
  4.215490000E-01 -4.947589958E-03
  1.696330000E-01 -7.737119935E-03
  6.853500000E-02 -1.501079987E-03
  2.398700000E-02 -1.333299989E-04
   s  14
  3.336021700E+04 -2.030000008E-05
  4.972095200E+03 -1.025700004E-04
  1.125641700E+03 -4.911300020E-04
  3.164913600E+02 -2.026570008E-03
  1.020072600E+02 -7.261010030E-03
  3.629587300E+01 -2.197722009E-02
  1.397141000E+01 -5.408428022E-02
  5.741156000E+00 -1.022402604E-01
  2.494268000E+00 -1.423595206E-01
  1.114202000E+00 -4.658690019E-02
  4.215490000E-01  3.799402916E-01
  1.696330000E-01  5.890463624E-01
  6.853500000E-02  1.749075107E-01
  2.398700000E-02 -1.142030005E-03
   p   9
  5.500000000E+01  1.229800005E-03
  1.336610100E+01  8.827380035E-03
  4.135394000E+00  3.843340015E-02
  1.481256000E+00  1.150031805E-01
  6.021360000E-01  2.733674011E-01
  2.556360000E-01  4.061972116E-01
  1.111510000E-01  3.014967912E-01
  4.764800000E-02  7.684809030E-02
  1.667700000E-02 -8.170000032E-06
 
   2
   s  14
  3.336021700E+04  1.039699991E-04
  4.972095200E+03  5.254399956E-04
  1.125641700E+03  2.509059979E-03
  3.164913600E+02  1.031887991E-02
  1.020072600E+02  3.636632969E-02
  3.629587300E+01  1.064607991E-01
  1.397141000E+01  2.403999880E-01
  5.741156000E+00  3.748581168E-01
  2.494268000E+00  3.100066974E-01
  1.114202000E+00  7.922455933E-02
  4.215490000E-01 -4.947589958E-03
  1.696330000E-01 -7.737119935E-03
  6.853500000E-02 -1.501079987E-03
  2.398700000E-02 -1.333299989E-04
   s  14
  3.336021700E+04 -2.030000008E-05
  4.972095200E+03 -1.025700004E-04
  1.125641700E+03 -4.911300020E-04
  3.164913600E+02 -2.026570008E-03
  1.020072600E+02 -7.261010030E-03
  3.629587300E+01 -2.197722009E-02
  1.397141000E+01 -5.408428022E-02
  5.741156000E+00 -1.022402604E-01
  2.494268000E+00 -1.423595206E-01
  1.114202000E+00 -4.658690019E-02
  4.215490000E-01  3.799402916E-01
  1.696330000E-01  5.890463624E-01
  6.853500000E-02  1.749075107E-01
  2.398700000E-02 -1.142030005E-03
   p   9
  5.500000000E+01  1.229800005E-03
  1.336610100E+01  8.827380035E-03
  4.135394000E+00  3.843340015E-02
  1.481256000E+00  1.150031805E-01
  6.021360000E-01  2.733674011E-01
  2.556360000E-01  4.061972116E-01
  1.111510000E-01  3.014967912E-01
  4.764800000E-02  7.684809030E-02
  1.667700000E-02 -8.170000032E-06
 
[MO]
Sym=     1a  
Ene=    -7.8005
Spin= Alpha
Occup=    2.00000
   1         0.70494589
   2         0.01104768
   3         0.00000000
   4        -0.00000000
   5         0.00280749
   6         0.70494589
   7         0.01104768
   8        -0.00000000
   9        -0.00000000
  10        -0.00280749
Sym=     2a  
Ene=    -7.7794
Spin= Alpha
Occup=    2.00000
   1        -0.70849751
   2        -0.01063980
   3         0.00000000
   4        -0.00000000
   5        -0.00000878
   6         0.70849751
   7         0.01063980
   8        -0.00000000
   9         0.00000000
  10        -0.00000878
Sym=     3a  
Ene=    -0.7623
Spin= Alpha
Occup=    2.00000
   1        -0.11651378
   2         0.44119488
   3         0.00000000
   4        -0.00000000
   5         0.26409725
   6        -0.11651378
   7         0.44119488
   8        -0.00000000
   9        -0.00000000
  10        -0.26409725
Sym=     4a  
Ene=    -0.3930
Spin= Alpha
Occup=    2.00000
   1         0.00000000
   2        -0.00000000
   3        -0.07113084
   4         0.56082173
   5         0.00000000
   6        -0.00000000
   7         0.00000000
   8        -0.07113084
   9         0.56082173
  10         0.00000000
Sym=     5a  
Ene=    -0.3761
Spin= Alpha
Occup=    1.89406
   1        -0.00000000
   2        -0.00000000
   3         0.56082173
   4         0.07113084
   5        -0.00000000
   6         0.00000000
   7         0.00000000
   8         0.56082173
   9         0.07113084
  10         0.00000000
Sym=     6a  
Ene=    -0.0006
Spin= Alpha
Occup=    0.10594
   1        -0.04447718
   2        -0.82752533
   3        -0.00000000
   4        -0.00000000
   5         0.24278228
   6         0.04447718
   7         0.82752533
   8        -0.00000000
   9        -0.00000000
  10         0.24278228
Sym=     7a  
Ene=     0.0224
Spin= Alpha
Occup=    0.00000
   1         0.09011799
   2         0.40668178
   3        -0.00000000
   4        -0.00000000
   5        -0.74174371
   6         0.09011799
   7         0.40668178
   8        -0.00000000
   9        -0.00000000
  10         0.74174371
Sym=     8a  
Ene=     0.3130
Spin= Alpha
Occup=    0.00000
   1        -0.00000000
   2        -0.00000000
   3         0.13482916
   4        -1.06304273
   5        -0.00000000
   6         0.00000000
   7         0.00000000
   8        -0.13482916
   9         1.06304273
  10        -0.00000000
Sym=     9a  
Ene=     0.3143
Spin= Alpha
Occup=    0.00000
   1        -0.00000000
   2         0.00000000
   3        -1.06304273
   4        -0.13482916
   5        -0.00000000
   6         0.00000000
   7        -0.00000000
   8         1.06304273
   9         0.13482916
  10        -0.00000000
Sym=    10a  
Ene=     1.3120
Spin= Alpha
Occup=    0.00000
   1        -0.77880669
   2        -3.39526153
   3         0.00000000
   4         0.00000000
   5        -2.02684735
   6         0.77880669
   7         3.39526153
   8        -0.00000000
   9         0.00000000
  10        -2.02684735
