[Molden Format]
[N_Atoms]
                     2
[Atoms] (AU)
B1          1      5           0.00000000      0.00000000      0.00000000
B2          2      5           0.00000000      0.00000000      2.07869874
[Charge] (Mulliken)
  0.000000000000000E+000
  0.000000000000000E+000
[GTO] (AU)
   1
   s  14
  3.336021700E+04  1.039699991E-04
  4.972095200E+03  5.254399956E-04
  1.125641700E+03  2.509059979E-03
  3.164913600E+02  1.031887991E-02
  1.020072600E+02  3.636632969E-02
  3.629587300E+01  1.064607991E-01
  1.397141000E+01  2.403999880E-01
  5.741156000E+00  3.748581168E-01
  2.494268000E+00  3.100066974E-01
  1.114202000E+00  7.922455933E-02
  4.215490000E-01 -4.947589958E-03
  1.696330000E-01 -7.737119935E-03
  6.853500000E-02 -1.501079987E-03
  2.398700000E-02 -1.333299989E-04
   s  14
  3.336021700E+04 -2.030000008E-05
  4.972095200E+03 -1.025700004E-04
  1.125641700E+03 -4.911300020E-04
  3.164913600E+02 -2.026570008E-03
  1.020072600E+02 -7.261010030E-03
  3.629587300E+01 -2.197722009E-02
  1.397141000E+01 -5.408428022E-02
  5.741156000E+00 -1.022402604E-01
  2.494268000E+00 -1.423595206E-01
  1.114202000E+00 -4.658690019E-02
  4.215490000E-01  3.799402916E-01
  1.696330000E-01  5.890463624E-01
  6.853500000E-02  1.749075107E-01
  2.398700000E-02 -1.142030005E-03
   p   9
  5.500000000E+01  1.229800005E-03
  1.336610100E+01  8.827380035E-03
  4.135394000E+00  3.843340015E-02
  1.481256000E+00  1.150031805E-01
  6.021360000E-01  2.733674011E-01
  2.556360000E-01  4.061972116E-01
  1.111510000E-01  3.014967912E-01
  4.764800000E-02  7.684809030E-02
  1.667700000E-02 -8.170000032E-06
 
   2
   s  14
  3.336021700E+04  1.039699991E-04
  4.972095200E+03  5.254399956E-04
  1.125641700E+03  2.509059979E-03
  3.164913600E+02  1.031887991E-02
  1.020072600E+02  3.636632969E-02
  3.629587300E+01  1.064607991E-01
  1.397141000E+01  2.403999880E-01
  5.741156000E+00  3.748581168E-01
  2.494268000E+00  3.100066974E-01
  1.114202000E+00  7.922455933E-02
  4.215490000E-01 -4.947589958E-03
  1.696330000E-01 -7.737119935E-03
  6.853500000E-02 -1.501079987E-03
  2.398700000E-02 -1.333299989E-04
   s  14
  3.336021700E+04 -2.030000008E-05
  4.972095200E+03 -1.025700004E-04
  1.125641700E+03 -4.911300020E-04
  3.164913600E+02 -2.026570008E-03
  1.020072600E+02 -7.261010030E-03
  3.629587300E+01 -2.197722009E-02
  1.397141000E+01 -5.408428022E-02
  5.741156000E+00 -1.022402604E-01
  2.494268000E+00 -1.423595206E-01
  1.114202000E+00 -4.658690019E-02
  4.215490000E-01  3.799402916E-01
  1.696330000E-01  5.890463624E-01
  6.853500000E-02  1.749075107E-01
  2.398700000E-02 -1.142030005E-03
   p   9
  5.500000000E+01  1.229800005E-03
  1.336610100E+01  8.827380035E-03
  4.135394000E+00  3.843340015E-02
  1.481256000E+00  1.150031805E-01
  6.021360000E-01  2.733674011E-01
  2.556360000E-01  4.061972116E-01
  1.111510000E-01  3.014967912E-01
  4.764800000E-02  7.684809030E-02
  1.667700000E-02 -8.170000032E-06
 
[MO]
Sym=     1a  
Ene=    -7.7197
Spin= Alpha
Occup=    2.00000
   1         0.70505004
   2         0.00609813
   3        -0.00000000
   4         0.00000000
   5         0.00572443
   6         0.70505004
   7         0.00609813
   8         0.00000000
   9        -0.00000000
  10        -0.00572443
Sym=     2a  
Ene=    -7.7105
Spin= Alpha
Occup=    2.00000
   1        -0.70562772
   2         0.00521057
   3         0.00000000
   4        -0.00000000
   5         0.00549845
   6         0.70562772
   7        -0.00521057
   8        -0.00000000
   9         0.00000000
  10         0.00549845
Sym=     3a  
Ene=    -0.8731
Spin= Alpha
Occup=    2.00000
   1        -0.09451337
   2         0.50482809
   3        -0.00000000
   4         0.00000000
   5         0.13212689
   6        -0.09451337
   7         0.50482809
   8        -0.00000000
   9         0.00000000
  10        -0.13212689
Sym=     4a  
Ene=    -0.4864
Spin= Alpha
Occup=    2.00000
   1        -0.00000000
   2        -0.00000000
   3         0.26547174
   4         0.49910457
   5        -0.00000000
   6         0.00000000
   7         0.00000000
   8         0.26547174
   9         0.49910457
  10        -0.00000000
Sym=     5a  
Ene=    -0.4864
Spin= Alpha
Occup=    2.00000
   1        -0.00000000
   2        -0.00000000
   3         0.49910457
   4        -0.26547174
   5        -0.00000000
   6         0.00000000
   7         0.00000000
   8         0.49910457
   9        -0.26547174
  10        -0.00000000
Sym=     6a  
Ene=    -0.4544
Spin= Alpha
Occup=    0.00000
   1         0.04174694
   2        -0.43220089
   3         0.00000000
   4         0.00000000
   5         0.47392478
   6        -0.04174694
   7         0.43220089
   8         0.00000000
   9        -0.00000000
  10         0.47392478
Sym=     7a  
Ene=    -0.2323
Spin= Alpha
Occup=    0.00000
   1         0.11232579
   2         0.32446333
   3        -0.00000000
   4         0.00000000
   5        -0.77617568
   6         0.11232579
   7         0.32446333
   8         0.00000000
   9        -0.00000000
  10         0.77617568
Sym=     8a  
Ene=    -0.1354
Spin= Alpha
Occup=    0.00000
   1        -0.00000000
   2        -0.00000000
   3        -0.16347647
   4        -1.05901567
   5        -0.00000000
   6         0.00000000
   7         0.00000000
   8         0.16347647
   9         1.05901567
  10        -0.00000000
Sym=     9a  
Ene=    -0.1354
Spin= Alpha
Occup=    0.00000
   1        -0.00000000
   2        -0.00000000
   3        -1.05901567
   4         0.16347647
   5        -0.00000000
   6         0.00000000
   7         0.00000000
   8         1.05901567
   9        -0.16347647
  10        -0.00000000
Sym=    10a  
Ene=    -0.0135
Spin= Alpha
Occup=    0.00000
   1         0.78155839
   2         3.46783614
   3        -0.00000000
   4        -0.00000000
   5         1.98555244
   6        -0.78155839
   7        -3.46783614
   8         0.00000000
   9         0.00000000
  10         1.98555244
