   This run of MOLCAS is using the pymolcas driver

                             OPE
                             OPE          NMOL  CASOP  ENMOLC A   SO
                 OPE        NMOLC        AS  OP EN  MO LC     AS  OP
                OPENM       OL CA        SO  PE NM  OL CA     SOP EN
                OP EN      MO   LC       AS  OP ENMOL  CASO   PENMOL
                OP  EN     MO   LC       AS  OP EN     MO     LC ASO
               OP   E  NMOL  C  AS       OP  EN MO     LC     AS  OP
               OP  E   NMO   LC AS        OPEN  MO     LCASOP EN   M
               O  PEN   MO  LCA  SO
            OPE   NMO   L   CAS    OP
        OPENMOL  CASOP     ENMOL   CASOPE
     OPENMOLCA   SOPENMOLCASOPEN   MOLCASOPE
    OPENMOLCAS   OP           EN   MOL    CAS
    OPENMOLCAS       OP  ENM        O     LCA
    OPENMOLCAS    OPEN  MOLCASO     P  E  NMO
    OPENMOLCAS     OP               E  N  MOL
    OPENMOLCA   SO           PENM   O  L  CAS    OPEN    MO    LCAS
    OPENMOLCA   SOP           ENM   O  L  CAS   OP  EN  MOLC  AS   O
    OPENMOLCA   SOPE           NM      O  LCA   S      OP  EN MO
    OPENMOLC                AS         O  PEN   M      OL  CA  SOPE
    OPENMO        LCASOPE  NMOL        C  ASO   P      ENMOLC     AS
    OPE     NMO      LCA  SO     P     E   NM   OL  CA SO  PE N   MO
          OPENMOLCA            SOPE   NMO        LCAS  O    P  ENMO
     OPENMOLCASOPENMOLCASOPENMOLCASOPENMOLCA
        OPENMOLCASOPENMOLCASOPENMOLCASOPE
            OPENMOLCASOPENMOLCASOPENM
               OPENMOLCASOPENMOLCA        version: 1d1d16313-dirty
                   OPENMOLCASO
                       OPE                tag:

 OpenMolcas is free software; you can redistribute it and/or modify it
 under the terms of the GNU Lesser General Public License version 2.1.
 OpenMolcas is distributed in the hope that it will be useful, but it
 is provided "as is" and without any express or implied warranties.
 For more details see the full text of the license in the file
 LICENSE or in <http://www.gnu.org/licenses/>.

                 Copyright (C) The OpenMolcas Authors
           For the author list and the recommended citation,
                   consult the file CONTRIBUTORS.md

           *************************************************
           * pymolcas version py2.28                       *
           *   build c4a6d18ded8cb6cad61d2372a9abd97c      *
           *   (after the EMIL interpreter by V. Veryazov) *
           *************************************************

configuration info
------------------
C Compiler ID: IntelLLVM
C flags: -std=gnu99
Fortran Compiler ID: IntelLLVM
Fortran flags: -standard-semantics -fltconsistency -fpp -i8 -heap-arrays
Definitions: _MOLCAS_;_I8_;_LINUX_
Parallel: OFF (GA=OFF)


   ------------------------------------------------------------------------------
  |
  |              Project: ozone_174.75
  |       Submitted from: /home/grierjones/DDCASPT2/ozone/ANO-RCC-MB/ozone_174.75
  |         Scratch area: /tmp/ozone_174.75
  |      Save outputs to: /home/grierjones/DDCASPT2/ozone/ANO-RCC-MB/ozone_174.75
  |               Molcas: /home/grierjones/Test/build
  |
  | Scratch area is empty
  |
  |       MOLCAS_DRIVER = /usr/local/pymolcas
  | MOLCAS_KEEP_WORKDIR = NO
  |  MOLCAS_NEW_WORKDIR = YES
  |       MOLCAS_NPROCS = 1
  |        MOLCAS_PRINT = NORMAL
  |       MOLCAS_SOURCE = /home/grierjones/Test
  |    MOLCAS_STRUCTURE = 0
  |
   ------------------------------------------------------------------------------

++ ---------   Input file   ---------

&GATEWAY
coord=ozone_174.75.xyz
Basis = ANO-RCC-MB
Group = nosymm
Expert
End of Input

&SEWARD
End of Input

&SCF

>>> COPY $WorkDir/ozone_174.75.scf.h5 $CurrDir/

&RASSCF
Title= RASSCF
FileOrb
/home/grierjones/DDCASPT2/ozone/ANO-RCC-MB/ozone_174.50/ozone_174.50.RasOrb
NACTEL
4 0 0
Inactive
10
RAS2
3
Symmetry
1
Spin
1
orblisting
all
ITERation
300 200

>>> COPY $WorkDir/ozone_174.75.rasscf.h5 $CurrDir/

>>> COPY $WorkDir/GMJ_Fock_MO.csv $CurrDir/ozone_174.75.GMJ_Fock_MO.csv

>>> COPY $WorkDir/GMJ_PT2_Fock_MO.csv $CurrDir/ozone_174.75.GMJ_PT2_Fock_MO.csv

&MOTRA
Frozen=0
LUMORB

>>> COPY $WorkDir/GMJ_one_int_indx.csv $CurrDir/ozone_174.75.GMJ_one_int_indx.csv

>>> COPY $WorkDir/GMJ_one_int.csv $CurrDir/ozone_174.75.GMJ_one_int.csv

>>> COPY $WorkDir/GMJ_two_int_indx.csv $CurrDir/ozone_174.75.GMJ_two_int_indx.csv

>>> COPY $WorkDir/GMJ_two_int.csv $CurrDir/ozone_174.75.GMJ_two_int.csv

&CASPT2
Frozen
0
MAXITER
50

>>> FOREACH i IN (B,E,F,G,H)

  >>> FOREACH j IN (P,M)

    >>> IF (-FILE GMJ_e2_${i}_${j}.csv)

      >>> COPY $WorkDir/GMJ_RHS_${i}_${j}.csv $CurrDir/GMJ_RHS_${i}_${j}.csv

      >>> COPY $WorkDir/GMJ_IVECW_${i}_${j}.csv $CurrDir/GMJ_IVECW_${i}_${j}.csv

      >>> COPY $WorkDir/GMJ_IVECX_${i}_${j}.csv $CurrDir/GMJ_IVECX_${i}_${j}.csv

      >>> COPY $WorkDir/GMJ_IVECC2_${i}_${j}.csv $CurrDir/GMJ_IVECC2_${i}_${j}.csv

      >>> COPY $WorkDir/GMJ_e2_${i}_${j}.csv $CurrDir/GMJ_e2_${i}_${j}.csv

    >>> END IF

  >>> END FOREACH

>>> END FOREACH

>>> FOREACH i IN (A,C,D)

  >>> IF (-FILE GMJ_e2_$i.csv)

    >>> COPY $WorkDir/GMJ_RHS_$i.csv $CurrDir/GMJ_RHS_$i.csv

    >>> COPY $WorkDir/GMJ_IVECW_$i.csv $CurrDir/GMJ_IVECW_$i.csv

    >>> COPY $WorkDir/GMJ_IVECX_$i.csv $CurrDir/GMJ_IVECX_$i.csv

    >>> COPY $WorkDir/GMJ_IVECC2_$i.csv $CurrDir/GMJ_IVECC2_$i.csv

    >>> COPY $WorkDir/GMJ_e2_$i.csv $CurrDir/GMJ_e2_$i.csv

  >>> END IF

>>> END FOREACH

-- ----------------------------------

--- Start Module: gateway at Sat Jan 25 14:10:52 2025 ---
 
()()()()()()()()()()()()()()()()()()()()()()()()()()()()()()()()()()()()()()()()()()()()()()()()()()

                                              &GATEWAY

                                   only a single process is used
                       available to each process: 2.0 GB of memory, 1 thread?
()()()()()()()()()()()()()()()()()()()()()()()()()()()()()()()()()()()()()()()()()()()()()()()()()()
 
 ###############################################################################
 ###############################################################################
 ###                                                                         ###
 ###                                                                         ###
 ###                                                                         ###
 ###    WARNING: EXPERT option is ON!                                        ###
 ###                                                                         ###
 ###                                                                         ###
 ###############################################################################
 ###############################################################################
 
++    Symmetry information:
      ---------------------
 
                    Character Table for C1 
 
                             E  
                    a        1  x, y, xy, Rz, z, xz, Ry, yz, Rx, I
--
 
 
++    Basis set information:
      ----------------------
 
 
      Basis set label: O.ANO-RCC...2S1P.
 
      Electronic valence basis set:
      ------------------
      Associated Effective Charge   8.000000 au
      Associated Actual Charge      8.000000 au
      Nuclear Model: Point charge
 
      Shell  nPrim  nBasis  Cartesian Spherical Contaminant
         s      14       2        X                  
         p       9       1        X                  
--
 
 
++    Molecular structure info:
      -------------------------
 
                    ************************************************ 
                    **** Cartesian Coordinates / Bohr, Angstrom **** 
                    ************************************************ 
 
     Center  Label                x              y              z                     x              y              z
        1      O1               0.110608       2.412536       0.000000              0.058531       1.276659       0.000000
        2      O2               0.000000       0.000000       0.000000              0.000000       0.000000       0.000000
        3      O3               0.110608      -2.412536       0.000000              0.058531      -1.276659       0.000000
 
                    *************************************** 
                    *    InterNuclear Distances / Bohr    * 
                    *************************************** 
 
               1 O1            2 O2            3 O3    
    1 O1       0.000000
    2 O2       2.415070        0.000000
    3 O3       4.825072        2.415070        0.000000
 
                    ******************************************* 
                    *    InterNuclear Distances / Angstrom    * 
                    ******************************************* 
 
               1 O1            2 O2            3 O3    
    1 O1       0.000000
    2 O2       1.278000        0.000000
    3 O3       2.553318        1.278000        0.000000
 
                    ************************************** 
                    *    Valence Bond Angles / Degree    * 
                    ************************************** 
                          Atom centers                 Phi
                      1 O1       2 O2       3 O3       174.75
--
 
 
            Nuclear Potential Energy             66.26458461 au
 
 ###############################################################################
 ###############################################################################
 ###                                                                         ###
 ###                                                                         ###
 ###    There were warnings during the execution                             ###
 ###    Please, check the output with care!                                  ###
 ###                                                                         ###
 ###                                                                         ###
 ###############################################################################
 ###############################################################################
--- Stop Module: gateway at Sat Jan 25 14:10:53 2025 /rc=_RC_ALL_IS_WELL_ ---
*** files: xmldump
    saved to directory /home/grierjones/DDCASPT2/ozone/ANO-RCC-MB/ozone_174.75

--- Start Module: seward at Sat Jan 25 14:10:53 2025 ---
 
()()()()()()()()()()()()()()()()()()()()()()()()()()()()()()()()()()()()()()()()()()()()()()()()()()

                                              &SEWARD

                                   only a single process is used
                       available to each process: 2.0 GB of memory, 1 thread?
()()()()()()()()()()()()()()()()()()()()()()()()()()()()()()()()()()()()()()()()()()()()()()()()()()
 
 ###############################################################################
 ###############################################################################
 ###                                                                         ###
 ###                                                                         ###
 ###                                                                         ###
 ###    WARNING: EXPERT option is ON!                                        ###
 ###                                                                         ###
 ###                                                                         ###
 ###############################################################################
 ###############################################################################
               SEWARD will generate:
                  Multipole Moment integrals up to order  2
                  Kinetic Energy integrals
                  Nuclear Attraction integrals (point charge)
                  One-Electron Hamiltonian integrals
                  Velocity integrals
                  Relativistic Douglas-Kroll-Hess integrals:
                    - Parametrization         : EXP
                    - DKH order of Hamiltonian: 2
                    - DKH order of Properties : 0
                         - multipole moment operators
                         - electric potential operators
                         - contact operators
                  Atomic mean-field integrals
                  Two-Electron Repulsion integrals
 
                   Integrals are discarded if absolute value <: 0.10E-13
                   Integral cutoff threshold is set to       <: 0.10E-15
 
            Nuclear Potential Energy             66.26458461 au
 
 
      Basis set specifications :
      Symmetry species         a  
      Basis functions           15
 
 
  Input file to MOLDEN was generated!
 
 ###############################################################################
 ###############################################################################
 ###                                                                         ###
 ###                                                                         ###
 ###    There were warnings during the execution                             ###
 ###    Please, check the output with care!                                  ###
 ###                                                                         ###
 ###                                                                         ###
 ###############################################################################
 ###############################################################################
forrtl: warning (525): IEEE_DIVIDE_BY_ZERO is signaling
forrtl: warning (526): IEEE_INVALID is signaling
forrtl: warning (528): IEEE_UNDERFLOW is signaling
--- Stop Module: seward at Sat Jan 25 14:10:53 2025 /rc=_RC_ALL_IS_WELL_ ---
*** files: ozone_174.75.GssOrb ozone_174.75.guessorb.h5 ozone_174.75.guessorb.molden xmldump
    saved to directory /home/grierjones/DDCASPT2/ozone/ANO-RCC-MB/ozone_174.75

*** symbolic link created: INPORB -> ozone_174.75.GssOrb
--- Start Module: scf at Sat Jan 25 14:10:53 2025 ---
 
()()()()()()()()()()()()()()()()()()()()()()()()()()()()()()()()()()()()()()()()()()()()()()()()()()

                                                &SCF

                                   only a single process is used
                       available to each process: 2.0 GB of memory, 1 thread?
()()()()()()()()()()()()()()()()()()()()()()()()()()()()()()()()()()()()()()()()()()()()()()()()()()
 
++    Input section:
      --------------
 
      Header of the integral files:
      
       Integrals generated by seward 4.2.0  , Sat Jan 25 14:10:53 2025
 
 
      Cartesian coordinates in Angstrom:
      -----------------------------------------------------
      No.  Label        X            Y            Z        
      -----------------------------------------------------
       1   O1         0.05853100   1.27665900   0.00000000
       2   O2         0.00000000   0.00000000   0.00000000
       3   O3         0.05853100  -1.27665900   0.00000000
      -----------------------------------------------------
      Nuclear repulsion energy =   66.26458461
--
 
++    Orbital specifications:
      -----------------------
 
      Symmetry species               1
                                     a
      Frozen orbitals                0
      Aufbau                        12
      Start temperature = 0.500
      End temperature   = 0.010
      Temperature Factor= 0.460
      Deleted orbitals               0
      Total number of orbitals      15
      Number of basis functions     15
--
 
      Molecular charge                           0.000
 
++    Optimization specifications:
      ----------------------------
 
      SCF Algorithm: Conventional
      Minimized density differences are used
      Number of density matrices in core                5
      Maximum number of NDDO SCF iterations           400
      Maximum number of HF SCF iterations             400
      Threshold for SCF energy change            0.10E-08
      Threshold for density matrix               0.10E-03
      Threshold for Fock matrix                  0.15E-03
      Threshold for linear dependence            0.10E-08
      Threshold at which DIIS is turned on       0.15E+00
      Threshold at which QNR/C2DIIS is turned on 0.75E-01
      Threshold for Norm(delta) (QNR/C2DIIS)     0.20E-04
      DIIS extrapolation of the SCF procedure
      All orbitals punched on: SCFORB
--
 
      Input vectors read from INPORB
      Orbital file label: *Guess orbitals
 
 
++ Convergence information
                                   SCF        iterations: Energy and convergence statistics
 
Iter     Tot. SCF        One-elec.       Two-elec.     Energy      Max Dij or  Max Fij      DNorm      TNorm      AccCon     Time
         Energy          Energy          Energy        Change      Delta Norm                                                in Sec.
   1  -221.452605556  -440.181775574   152.464585404   0.00E+00    0.68E-01*   0.13E+00*    0.77E+01   0.50E+02   None         0.
   2  -222.905034621  -439.325384991   150.155765757  -0.15E+01*   0.57E-01*   0.45E-01*    0.30E+01   0.50E+02   EDIIS        0.
   3  -223.681823668  -438.949278283   149.002870001  -0.78E+00*   0.38E-01*   0.26E-01*    0.15E+01   0.49E+02   EDIIS        0.
   4  -223.950492709  -438.359685668   148.144608345  -0.27E+00*   0.83E-01*   0.57E-01*    0.30E+00   0.49E+02   EDIIS        0.
   5  -223.962480422  -438.706436486   148.479371450  -0.12E-01*   0.62E-01*   0.31E-01*    0.31E+00   0.49E+02   EDIIS        0.
   6  -224.077923649  -438.421370270   148.078862007  -0.12E+00*   0.35E-01*   0.34E-01*    0.14E+01   0.49E+02   EDIIS        0.
   7  -224.184189599  -438.570278699   148.121504486  -0.11E+00*   0.51E-01*   0.18E-01*    0.56E-01   0.49E+02   EDIIS        0.
   8  -224.185129566  -438.468280330   148.018566150  -0.94E-03*   0.15E-01*   0.13E-01*    0.77E-01   0.49E+02   EDIIS        0.
 
       Fermi aufbau procedure completed!
      nOcc=   12
 
   9  -224.185428921  -438.526505958   148.076492422  -0.30E-03*   0.16E-01*   0.57E-02*    0.14E-01   0.49E+02   EDIIS        0.
  10  -224.185526883  -438.499264107   148.049152610  -0.98E-04*   0.47E-02*   0.35E-02*    0.36E-02   0.49E+02   EDIIS        0.
  11  -224.185559534  -438.515852462   148.065708315  -0.33E-04*   0.50E-02*   0.18E-02*    0.91E-03   0.49E+02   EDIIS        0.
  12  -224.185570657  -438.508461949   148.058306677  -0.11E-04*   0.15E-02*   0.10E-02*    0.33E-03   0.49E+02   EDIIS        0.
  13  -224.185574537  -438.513182018   148.063022867  -0.39E-05*   0.18E-02*   0.69E-03*    0.58E-04   0.49E+02   c2DIIS       0.
  14  -224.185576050  -438.510704171   148.060543508  -0.15E-05*   0.42E-03*   0.37E-03*    0.35E-04   0.49E+02   QNRc2DIIS    0.
  15  -224.185576502  -438.512838267   148.062677151  -0.45E-06*   0.40E-03*   0.20E-03*    0.14E-01   0.49E+02   QNRc2DIIS    0.
  16  -224.185576731  -438.512596024   148.062434679  -0.23E-06*   0.28E-03*   0.76E-04     0.38E-02   0.49E+02   QNRc2DIIS    0.
  17  -224.185576781  -438.512340914   148.062179519  -0.51E-07*   0.95E-04*   0.15E-04     0.15E-03   0.49E+02   QNRc2DIIS    0.
  18  -224.185576786  -438.512326096   148.062164696  -0.44E-08*   0.93E-06    0.43E-06     0.11E-02   0.49E+02   QNRc2DIIS    0.
  19  -224.185576786  -438.512325787   148.062164388  -0.11E-11    0.79E-07    0.34E-07     0.27E-02   0.49E+02   QNRc2DIIS    0.
 
       Convergence after 19 Macro Iterations
--
 
 *****************************************************************************************************************************
 *                                                                                                                           *
 *                                             SCF/KS-DFT Program, Final results                                             *
 *                                                                                                                           *
 *                                                                                                                           *
 *                                                                                                                           *
 *                                                       Final Results                                                       *
 *                                                                                                                           *
 *****************************************************************************************************************************
 
::    Total SCF energy                               -224.1855767855
      One-electron energy                            -438.5123257874
      Two-electron energy                             148.0621643881
      Nuclear repulsion energy                         66.2645846138
      Kinetic energy (interpolated)                   224.7804633834
      Virial theorem                                    0.9973534773
      Total spin, S(S+1)                                0.0000000000
      Total spin, S                                     0.0000000000
      Max non-diagonal density matrix element           0.0000001225
      Max non-diagonal Fock matrix element              0.0000000267
 
 
      All orbitals with orbital energies smaller than  E(LUMO)+0.5 are printed
 
++    Molecular orbitals:
      -------------------
 
      Title: SCF orbitals

      Molecular orbitals for symmetry species 1: a  
 
          Orbital            1         2         3         4         5         6         7         8         9        10    
          Energy          -20.9892  -20.8141  -20.8140   -1.7470   -1.5117   -1.1007   -0.8784   -0.8026   -0.8017   -0.6612
          Occ. No.          2.0000    2.0000    2.0000    2.0000    2.0000    2.0000    2.0000    2.0000    2.0000    2.0000
 
        1 O1     1s         0.0012   -0.7071    0.7071   -0.0152    0.0167    0.0141   -0.0017   -0.0000   -0.0283    0.0016
        2 O1     2s        -0.0003   -0.0002    0.0000    0.3187   -0.5315    0.6612   -0.0297   -0.0000   -0.4683    0.0234
        3 O1     2px       -0.0000    0.0000   -0.0000   -0.0054    0.0040    0.0113    0.3043   -0.0000   -0.0543   -0.7133
        4 O1     2py        0.0000    0.0013   -0.0011   -0.1050    0.1047    0.1593   -0.0315   -0.0000   -0.4144    0.0575
        5 O1     2pz       -0.0000   -0.0000   -0.0000    0.0000   -0.0000   -0.0000    0.0000    0.3926   -0.0000   -0.0000
        6 O2     1s         1.0000   -0.0000   -0.0020   -0.0241    0.0000   -0.0136   -0.0005    0.0000    0.0000    0.0000
        7 O2     2s         0.0002   -0.0000   -0.0010    0.6593   -0.0000   -0.6171   -0.0089    0.0000    0.0000    0.0000
        8 O2     2px        0.0002   -0.0000   -0.0000    0.0174   -0.0000    0.0221    0.7790   -0.0000   -0.0000   -0.0000
        9 O2     2py       -0.0000    0.0007   -0.0000   -0.0000   -0.3620    0.0000   -0.0000    0.0000    0.6021   -0.0365
       10 O2     2pz        0.0000    0.0000    0.0000    0.0000   -0.0000    0.0000    0.0000    0.6780   -0.0000    0.0000
       11 O3     1s         0.0012    0.7071    0.7071   -0.0152   -0.0167    0.0141   -0.0017    0.0000    0.0283   -0.0016
       12 O3     2s        -0.0003    0.0002    0.0000    0.3187    0.5315    0.6612   -0.0297    0.0000    0.4683   -0.0234
       13 O3     2px       -0.0000   -0.0000   -0.0000   -0.0054   -0.0040    0.0113    0.3043   -0.0000    0.0543    0.7133
       14 O3     2py       -0.0000    0.0013    0.0011    0.1050    0.1047   -0.1593    0.0315   -0.0000   -0.4144    0.0575
       15 O3     2pz       -0.0000   -0.0000   -0.0000   -0.0000   -0.0000    0.0000    0.0000    0.3926   -0.0000    0.0000
 
          Orbital           11        12        13        14    
          Energy           -0.5448   -0.5287   -0.0875    0.1130
          Occ. No.          2.0000    2.0000    0.0000    0.0000
 
        1 O1     1s         0.0000    0.0006   -0.0000    0.0153
        2 O1     2s         0.0000    0.0039   -0.0000    0.2254
        3 O1     2px        0.0000    0.6643   -0.0000   -0.0043
        4 O1     2py       -0.0000    0.0092   -0.0000   -0.7661
        5 O1     2pz       -0.7160    0.0000    0.6165   -0.0000
        6 O2     1s         0.0000    0.0038   -0.0000   -0.0835
        7 O2     2s         0.0000    0.0442   -0.0000   -0.8656
        8 O2     2px        0.0000   -0.6947    0.0000   -0.0749
        9 O2     2py       -0.0000    0.0000   -0.0000    0.0000
       10 O2     2pz       -0.0000   -0.0000   -0.7970    0.0000
       11 O3     1s        -0.0000    0.0006   -0.0000    0.0153
       12 O3     2s        -0.0000    0.0039   -0.0000    0.2254
       13 O3     2px       -0.0000    0.6643   -0.0000   -0.0043
       14 O3     2py       -0.0000   -0.0092    0.0000    0.7661
       15 O3     2pz        0.7160    0.0000    0.6165   -0.0000
--
 
 
++    Molecular charges:
      ------------------
 
      Mulliken charges per centre and basis function type
      ---------------------------------------------------
 
                O1      O2      O3    
      1s       2.0001  2.0000  2.0001
      2s       1.9204  1.6531  1.9204
      2px      1.9986  1.9944  1.9986
      2pz      1.4281  1.1439  1.4281
      2py      0.6893  1.1357  0.6893
      Total    8.0365  7.9270  8.0365
 
      N-E     -0.0365  0.0730 -0.0365
 
      Total electronic charge=   24.000000
 
      Total            charge=   -0.000000
--
 
 
  Input file to MOLDEN was generated!
 
 
++    Static properties:
      ------------------
 
 
      LoProp Charges per center
 

                   O1       O2       O3    
      Nuclear      8.0000   8.0000   8.0000
      Electronic  -8.0856  -7.8288  -8.0856
 
      Total       -0.0856   0.1712  -0.0856
--
 
 
++    Natural Bond Order analysis
      ---------------------------
      Based on LoProp computed density
      -------------------------------------------------------------------------------------
      Atom A       Atom B       Bond Order | Atom A       Atom B       Bond Order
        O1           O2             2.000  |   O2           O3             2.000
      -------------------------------------------------------------------------------------
      NBO located     12.000 core electrons.
      NBO located      3.971 lone pair electrons.
      NBO located      8.000 electrons involved in    2 bonds.
      The remaining    0.029 electrons are to be considered as diffuse
--
 
 
++    Molecular properties:
      ---------------------
 
      Charge (e):
                      =   -0.0000
      Dipole Moment (Debye):
      Origin of the operator (Ang)=    0.0000    0.0000    0.0000
                   X=  5.4559E-02               Y=  3.6004E-10               Z=  3.2764E-13           Total=  5.4559E-02
      Quadrupole Moment (Debye*Ang):
      Origin of the operator (Ang)=    0.0390    0.0000    0.0000
                  XX= -1.7468E+01              XY=  6.5938E-12              XZ= -1.1085E-11              YY= -1.7637E+01
                  YZ=  1.0992E-13              ZZ= -1.5872E+01
      In traceless form (Debye*Ang)
                  XX= -7.1276E-01              XY=  9.8906E-12              XZ= -1.6627E-11              YY= -9.6754E-01
                  YZ=  1.6488E-13              ZZ=  1.6803E+00
--
 
 
  Input file to MOLDEN was generated!
 
 ###############################################################################
 ###############################################################################
 ###                                                                         ###
 ###                                                                         ###
 ###    RunFile label nBas                                                   ###
 ###    was used       78 times                                              ###
 ###                                                                         ###
 ###                                                                         ###
 ###############################################################################
 ###############################################################################
forrtl: warning (528): IEEE_UNDERFLOW is signaling
--- Stop Module: scf at Sat Jan 25 14:10:53 2025 /rc=_RC_ALL_IS_WELL_ ---
*** files: ozone_174.75.LprOrb ozone_174.75.LoProp.molden ozone_174.75.scf.molden ozone_174.75.ScfOrb ozone_174.75.scf.h5 xmldump
    saved to directory /home/grierjones/DDCASPT2/ozone/ANO-RCC-MB/ozone_174.75

>>> COPY /tmp/ozone_174.75/ozone_174.75.scf.h5 /home/grierjones/DDCASPT2/ozone/ANO-RCC-MB/ozone_174.75/

*** symbolic link created: INPORB -> ozone_174.75.ScfOrb
--- Start Module: rasscf at Sat Jan 25 14:10:53 2025 ---
 
()()()()()()()()()()()()()()()()()()()()()()()()()()()()()()()()()()()()()()()()()()()()()()()()()()

                                              &RASSCF

                                   only a single process is used
                       available to each process: 2.0 GB of memory, 1 thread?
()()()()()()()()()()()()()()()()()()()()()()()()()()()()()()()()()()()()()()()()()()()()()()()()()()
 
 
 *************** WARNING ****************
 ###############################################################################
 ###############################################################################
 ###                                                                         ###
 ###                                                                         ###
 ###    Too many macro-iterations.                                           ###
 ###                                                                         ###
 ###                                                                         ###
 ###############################################################################
 ###############################################################################
 Too many macro-iterations requested.
 Reset to maximum, new MAXIT=     200
 ****************************************
 
 *************** WARNING ****************
 ###############################################################################
 ###############################################################################
 ###                                                                         ###
 ###                                                                         ###
 ###    Too many SX-iterations.                                              ###
 ###                                                                         ###
 ###                                                                         ###
 ###############################################################################
 ###############################################################################
 Too many SX-iterations requested.
 Reset to maximum, new ITMAX=     100
 ****************************************
 
      Header of the ONEINT file:
      --------------------------
      
      Integrals generated by seward 4.2.0  , Sat Jan 25 14:10:53 2025
 
 
      OrdInt status: non-squared
 
 
      Cartesian coordinates in Angstrom:
      -----------------------------------------------------
      No.  Label        X            Y            Z        
      -----------------------------------------------------
       1   O1         0.05853100   1.27665900   0.00000000
       2   O2         0.00000000   0.00000000   0.00000000
       3   O3         0.05853100  -1.27665900   0.00000000
      -----------------------------------------------------
      Nuclear repulsion energy =   66.26458461
 
++    Wave function specifications:
      -----------------------------
 
      Number of closed shell electrons          20
      Number of electrons in active shells       4
      Max number of holes in RAS1 space          0
      Max nr of electrons in RAS3 space          0
      Number of inactive orbitals               10
      Number of active orbitals                  3
      Number of secondary orbitals               2
      Spin quantum number                      0.0
      State symmetry                             1
--
 
++    Orbital specifications:
      -----------------------
 
      Symmetry species                           1
                                                 a
      Frozen orbitals                            0
      Inactive orbitals                         10
      Active orbitals                            3
      RAS1 orbitals                              0
      RAS2 orbitals                              3
      RAS3 orbitals                              0
      Secondary orbitals                         2
      Deleted orbitals                           0
      Number of basis functions                 15
--
 
++    CI expansion specifications:
      ----------------------------
 
      Number of CSFs                             6
      Number of determinants                     6
      Number of root(s) required                 1
      Root chosen for geometry opt.              1
      CI root used                               1
         
      highest root included in the CI            1
      max. size of the explicit Hamiltonian      6
--
 
++    Optimization specifications:
      ----------------------------
 
      RASSCF algorithm: Conventional
      Maximum number of macro iterations       200
      Maximum number of SX iterations          100
      Threshold for RASSCF energy            0.100E-07
      Threshold for max MO rotation          0.100E+00
      Threshold for max BLB element          0.100E-03
      Level shift parameter                  0.500E+00
      Make Quasi-Newton update
--
 
      The MO-coefficients are taken from the file:
      /home/grierjones/DDCASPT2/ozone/ANO-RCC-MB/ozone_174.50/ozone_174.50.RasOrb                                                     
      Title: RASSCF average (pseudo-natural) orbitals                                      
 
      Total molecular charge    0.00
 
      ************************************************************************************************************************
      *                                                                                                                      *
      *                                            Wave function control section                                             *
      *                                                                                                                      *
      ************************************************************************************************************************
 
 
                                         RASSCF iterations: Energy and convergence statistics
                                         ----------------------------------------------------
 
      Iter CI   SX   CI       RASSCF       Energy    max ROT     max BLB   max BLB  Level Ln srch  Step   QN   Walltime
          iter iter root      energy       change     param      element    value   shift minimum  type update hh:mm:ss
 Nr of preliminary CI iterations:   1
        1   1    3    1  -224.27412849    0.00E+00   0.71E-03    9  15 1  0.18E-02*  0.24   0.00    SX    NO    0:00:00
        2   1    3    1  -224.27413278   -0.43E-05*  0.42E-03    7  14 1 -0.10E-02*  0.24   0.00    SX    NO    0:00:00
        3   1    3    1  -224.27413404   -0.13E-05* -0.25E-03    7  14 1 -0.58E-03*  0.24   0.00    SX    NO    0:00:00
        4   1    3    1  -224.27413445   -0.41E-06* -0.14E-03    7  14 1 -0.33E-03*  0.24   0.00    SX    NO    0:00:00
        5   1    3    1  -224.27413459   -0.14E-06*  0.18E-03    7  14 1 -0.18E-03*  0.24   2.26    LS   YES    0:00:00
        6   1    2    1  -224.27413466   -0.75E-07* -0.73E-04   10  14 1  0.75E-04   0.24   1.17    QN   YES    0:00:00
        7   1    2    1  -224.27413467   -0.10E-07* -0.11E-03   10  14 1  0.46E-04   0.24   1.65    QN   YES    0:00:00
        8   1    2    1  -224.27413468   -0.90E-08  -0.22E-04    7  14 1  0.37E-04   0.24   1.11    QN   YES    0:00:00
      Convergence after  8 iterations
 
  Dmat in MO in SXCTL bf call to SXHAM                                                                                    
  mat. size =     3x    3
 
        1.9805491884472339
       -0.0000000000005803      1.7134417207893300
        0.0004041856217163     -0.0000000000009333      0.3060090907634355
        9   1    2    1  -224.27413468   -0.14E-08  -0.22E-04    7  14 1  0.14E-04   0.24   1.11    QN   YES    0:00:00
 
      ************************************************************************************************************************
                                                      Wave function printout:
                       occupation of active orbitals, and spin coupling of open shells (u,d: Spin up or down)
      ************************************************************************************************************************
 
      Note: transformation to natural orbitals
      has been made, which may change the order of the CSFs.
 
      printout of CI-coefficients larger than  0.05 for root  1
      energy=    -224.274135
      conf/sym  111     Coeff  Weight
             1  220  -0.92032 0.84700
             3  202   0.37852 0.14328
             6  022   0.09862 0.00973
 
      Natural orbitals and occupation numbers for root  1
      sym 1:   1.980549   1.713442   0.306009
 
      ************************************************************************************************************************
      *                                                                                                                      *
      *                                                    Final results                                                     *
      *                                                                                                                      *
      ************************************************************************************************************************
 
 
++    Wave function specifications:
      -----------------------------
 
      Number of closed shell electrons          20
      Number of electrons in active shells       4
      Max number of holes in RAS1 space          0
      Max nr of electrons in RAS3 space          0
      Number of inactive orbitals               10
      Number of active orbitals                  3
      Number of secondary orbitals               2
      Spin quantum number                      0.0
      State symmetry                             1
--
 
++    Orbital specifications:
      -----------------------
 
      Symmetry species                           1
                                                 a
      Frozen orbitals                            0
      Inactive orbitals                         10
      Active orbitals                            3
      RAS1 orbitals                              0
      RAS2 orbitals                              3
      RAS3 orbitals                              0
      Secondary orbitals                         2
      Deleted orbitals                           0
      Number of basis functions                 15
--
 
++    CI expansion specifications:
      ----------------------------
 
      Number of CSFs                             6
      Number of determinants                     6
      Number of root(s) required                 1
      CI root used                               1
      highest root included in the CI            1
      Root passed to geometry opt.               1
--
 
++    Final optimization conditions:
      ------------------------------
 
      Average CI energy                            -224.27413468
      RASSCF energy for state  1                   -224.27413468
      Super-CI energy                                -0.00000000
      RASSCF energy change                           -0.00000000
      Max change in MO coefficients              -0.201E-04
      Max non-diagonal density matrix element    -0.224E-04
      Maximum BLB matrix element                  0.143E-04
      (orbital pair   7,  14 in symmetry   1)
      Norm of electronic gradient            0.190E-04
--
 
 
      Final state energy(ies):
      ------------------------
 
::    RASSCF root number  1 Total energy:   -224.27413468
 
++    Molecular orbitals:
      -------------------
 
      Pseudonatural active orbitals and approximate occupation numbers
 
 
 
 
      Molecular orbitals for symmetry species 1: a  
 
 
      Orbital                1         2         3         4         5         6         7         8         9        10
      Energy          -20.8545  -20.8544  -20.8539   -1.7107   -1.5023   -1.0945   -0.8414   -0.7939   -0.6769   -0.5118
      Occ. No.          2.0000    2.0000    2.0000    2.0000    2.0000    2.0000    2.0000    2.0000    2.0000    2.0000
 
    1 O1     1s         0.6067   -0.7071    0.3633   -0.0141    0.0146    0.0144   -0.0013   -0.0261    0.0019    0.0005
    2 O1     2s        -0.0003   -0.0001    0.0003    0.3555   -0.5576    0.6367   -0.0224   -0.4218    0.0276    0.0009
    3 O1     2px       -0.0001    0.0000    0.0000   -0.0053    0.0034    0.0125    0.3835   -0.0663   -0.7124    0.6220
    4 O1     2py       -0.0009    0.0012   -0.0007   -0.1104    0.1007    0.1906   -0.0332   -0.4522    0.0653    0.0208
    5 O1     2pz        0.0000   -0.0000    0.0000   -0.0000    0.0000   -0.0000   -0.0000   -0.0000    0.0000   -0.0000
    6 O2     1s         0.5135    0.0000   -0.8581   -0.0265   -0.0000   -0.0093   -0.0007   -0.0000    0.0000    0.0049
    7 O2     2s        -0.0005   -0.0000   -0.0011    0.6118    0.0000   -0.6191   -0.0148    0.0000    0.0000    0.0603
    8 O2     2px        0.0001    0.0000   -0.0003    0.0185    0.0000    0.0128    0.6877   -0.0000    0.0000   -0.7840
    9 O2     2py       -0.0000    0.0006    0.0000    0.0000   -0.3198    0.0000   -0.0000    0.5586   -0.0423   -0.0000
   10 O2     2pz        0.0000   -0.0000    0.0000   -0.0000   -0.0000   -0.0000   -0.0000   -0.0000    0.0000    0.0000
   11 O3     1s         0.6067    0.7071    0.3633   -0.0141   -0.0146    0.0144   -0.0013    0.0261   -0.0019    0.0005
   12 O3     2s        -0.0003    0.0001    0.0003    0.3555    0.5576    0.6367   -0.0224    0.4218   -0.0276    0.0009
   13 O3     2px       -0.0001   -0.0000    0.0000   -0.0053   -0.0034    0.0125    0.3835    0.0663    0.7124    0.6220
   14 O3     2py        0.0009    0.0012    0.0007    0.1104    0.1007   -0.1906    0.0332   -0.4522    0.0653   -0.0208
   15 O3     2pz        0.0000   -0.0000   -0.0000    0.0000   -0.0000   -0.0000   -0.0000    0.0000   -0.0000   -0.0000
 
 
      Orbital               11        12        13        14        15
      Energy            0.0000    0.0000    0.0000    0.1055    0.5839
      Occ. No.          1.9805    1.7134    0.3060    0.0000    0.0000
 
    1 O1     1s        -0.0000    0.0000   -0.0000   -0.0161   -0.0563
    2 O1     2s        -0.0000   -0.0000    0.0000   -0.2410   -0.5130
    3 O1     2px        0.0000   -0.0000    0.0000   -0.0013    0.0388
    4 O1     2py        0.0000    0.0000   -0.0000    0.7579    0.6792
    5 O1     2pz        0.3043   -0.7160    0.6646    0.0000    0.0000
    6 O2     1s         0.0000   -0.0000   -0.0000    0.0831    0.0000
    7 O2     2s         0.0000    0.0000   -0.0000    0.8973    0.0000
    8 O2     2px        0.0000   -0.0000   -0.0000    0.0882    0.0000
    9 O2     2py        0.0000    0.0000   -0.0000   -0.0000    1.1286
   10 O2     2pz        0.7809   -0.0000   -0.6964   -0.0000    0.0000
   11 O3     1s         0.0000    0.0000    0.0000   -0.0161    0.0563
   12 O3     2s         0.0000    0.0000    0.0000   -0.2410    0.5130
   13 O3     2px        0.0000    0.0000    0.0000   -0.0013   -0.0388
   14 O3     2py       -0.0000    0.0000    0.0000   -0.7579    0.6792
   15 O3     2pz        0.3043    0.7160    0.6646    0.0000   -0.0000
--
 
      Von Neumann Entropy (Root  1) =  0.61949
 

      Mulliken population analysis for root number:  1
      -----------------------------------------------
 
 
++    Molecular charges:
      ------------------
 
      Mulliken charges per centre and basis function type
      ---------------------------------------------------
 
                O1      O2      O3    
      1s       2.0001  2.0001  2.0001
      2s       1.9134  1.5879  1.9134
      2px      1.9989  1.9914  1.9989
      2pz      1.2525  1.4950  1.2525
      2py      0.7869  1.0221  0.7869
      Total    7.9517  8.0965  7.9517
 
      N-E      0.0483 -0.0965  0.0483
 
      Total electronic charge=   24.000000
 
      Total            charge=   -0.000000
--
 
 

      Expectation values of various properties for root number:  1
      -----------------------------------------------------------
 
 
++    Molecular properties:
      ---------------------
 
      Charge (e):
                      =   -0.0000
      Dipole Moment (Debye):
      Origin of the operator (Ang)=    0.0000    0.0000    0.0000
                   X=  1.3762E-01               Y= -2.2226E-11               Z=  4.6568E-14           Total=  1.3762E-01
      Quadrupole Moment (Debye*Ang):
      Origin of the operator (Ang)=    0.0390    0.0000    0.0000
                  XX= -1.7418E+01              XY= -1.1469E-12              XZ=  1.5800E-13              YY= -1.6617E+01
                  YZ=  1.6297E-13              ZZ= -1.5683E+01
      In traceless form (Debye*Ang)
                  XX= -1.2678E+00              XY= -1.7204E-12              XZ=  2.3700E-13              YY= -6.7193E-02
                  YZ=  2.4445E-13              ZZ=  1.3350E+00
--
 

      LoProp population analysis for root number:  1
      -----------------------------------------------
 
 
++    LoProp analysis:
      ----------------
 
 
 
  Input file to MOLDEN was generated!
 
 
++    Static properties:
      ------------------
 
 
      LoProp Charges per center
 

                   O1       O2       O3    
      Nuclear      8.0000   8.0000   8.0000
      Electronic  -7.9906  -8.0188  -7.9906
 
      Total        0.0094  -0.0188   0.0094
--
 
 
      Natural Bond Order analysis for root number:  1
 
++    Natural Bond Order analysis
      ---------------------------
      Based on LoProp computed density
      -------------------------------------------------------------------------------------
      Atom A       Atom B       Bond Order | Atom A       Atom B       Bond Order
        O1           O2             1.962  |   O2           O3             1.962
      -------------------------------------------------------------------------------------
      NBO located     12.000 core electrons.
      NBO located      3.971 lone pair electrons.
      NBO located      7.849 electrons involved in    2 bonds.
      The remaining    0.180 electrons are to be considered as diffuse
--
 
--
 
 
  Input file to MOLDEN was generated!
 
      Average orbitals are written to the RASORB file
      Natural orbitals for root   1 are written to the RASORB.1 file
      Spin density orbitals for root   1 are written to the SPDORB.1 file
 
forrtl: warning (525): IEEE_DIVIDE_BY_ZERO is signaling
forrtl: warning (526): IEEE_INVALID is signaling
forrtl: warning (528): IEEE_UNDERFLOW is signaling
--- Stop Module: rasscf at Sat Jan 25 14:10:53 2025 /rc=_RC_ALL_IS_WELL_ ---
*** files: ozone_174.75.LprOrb ozone_174.75.rasscf.molden ozone_174.75.LoProp.molden ozone_174.75.RasOrb ozone_174.75.RasOrb.1 ozone_174.75.rasscf.h5 ozone_174.75.SpdOrb.1 xmldump
    saved to directory /home/grierjones/DDCASPT2/ozone/ANO-RCC-MB/ozone_174.75

>>> COPY /tmp/ozone_174.75/ozone_174.75.rasscf.h5 /home/grierjones/DDCASPT2/ozone/ANO-RCC-MB/ozone_174.75/

>>> COPY /tmp/ozone_174.75/GMJ_Fock_MO.csv /home/grierjones/DDCASPT2/ozone/ANO-RCC-MB/ozone_174.75/ozone_174.75.GMJ_Fock_MO.csv

>>> COPY /tmp/ozone_174.75/GMJ_PT2_Fock_MO.csv /home/grierjones/DDCASPT2/ozone/ANO-RCC-MB/ozone_174.75/ozone_174.75.GMJ_PT2_Fock_MO.csv

*** symbolic link created: INPORB -> ozone_174.75.RasOrb
--- Start Module: motra at Sat Jan 25 14:10:53 2025 ---
 
()()()()()()()()()()()()()()()()()()()()()()()()()()()()()()()()()()()()()()()()()()()()()()()()()()

                                               &MOTRA

                                   only a single process is used
                       available to each process: 2.0 GB of memory, 1 thread?
()()()()()()()()()()()()()()()()()()()()()()()()()()()()()()()()()()()()()()()()()()()()()()()()()()
 
 
      *** WARNING: Default frozen orbitals is overwritten by user input.
      *** Default values:   3
 
      Header of the integral files:
      
       Integrals generated by seward 4.2.0  , Sat Jan 25 14:10:53 2025
 
 
      Header of MO coefficients source file:
      * RASSCF average (pseudo-natural) orbitals                                      
 
 
      Cartesian coordinates in Angstrom:
      -----------------------------------------------------
      No.  Label        X            Y            Z        
      -----------------------------------------------------
       1   O1         0.05853100   1.27665900   0.00000000
       2   O2         0.00000000   0.00000000   0.00000000
       3   O3         0.05853100  -1.27665900   0.00000000
      -----------------------------------------------------
      Nuclear repulsion energy =   66.26458461
 
      Orbital specifications:
      -----------------------
 
      Symmetry species:              1
      Number of basis functions:    15
      Frozen orbitals:               0
      Deleted orbitals:              0
      Number of orbitals used:      15

       SYMMETRY  BASIS FUNCTIONS       ORBITALS      INTEGRALS   CPU(SEC)  I/O(SEC)
 
        1 1 1 1   15  15  15  15    15  15  15  15        7260       0.00      0.00

       TOTAL CPU TIME(SEC)    0.00TOTAL I/O TIME(SEC)    0.00
 
--- Stop Module: motra at Sat Jan 25 14:10:53 2025 /rc=_RC_ALL_IS_WELL_ ---
*** files: xmldump
    saved to directory /home/grierjones/DDCASPT2/ozone/ANO-RCC-MB/ozone_174.75

>>> COPY /tmp/ozone_174.75/GMJ_one_int_indx.csv /home/grierjones/DDCASPT2/ozone/ANO-RCC-MB/ozone_174.75/ozone_174.75.GMJ_one_int_indx.csv

>>> COPY /tmp/ozone_174.75/GMJ_one_int.csv /home/grierjones/DDCASPT2/ozone/ANO-RCC-MB/ozone_174.75/ozone_174.75.GMJ_one_int.csv

>>> COPY /tmp/ozone_174.75/GMJ_two_int_indx.csv /home/grierjones/DDCASPT2/ozone/ANO-RCC-MB/ozone_174.75/ozone_174.75.GMJ_two_int_indx.csv

>>> COPY /tmp/ozone_174.75/GMJ_two_int.csv /home/grierjones/DDCASPT2/ozone/ANO-RCC-MB/ozone_174.75/ozone_174.75.GMJ_two_int.csv

*** symbolic link created: INPORB -> ozone_174.75.RasOrb
--- Start Module: caspt2 at Sat Jan 25 14:10:53 2025 ---
 
()()()()()()()()()()()()()()()()()()()()()()()()()()()()()()()()()()()()()()()()()()()()()()()()()()

                                              &CASPT2

                                   only a single process is used
                       available to each process: 2.0 GB of memory, 1 thread?
()()()()()()()()()()()()()()()()()()()()()()()()()()()()()()()()()()()()()()()()()()()()()()()()()()
 
 Cholesky algorithm in CASPT2 =    1
 
 ###############################################################################
 ###############################################################################
 ###                                                                         ###
 ###                                                                         ###
 ###    User changed nr of frozen orbitals.                                  ###
 ###                                                                         ###
 ###                                                                         ###
 ###############################################################################
 ###############################################################################
 
++    Wave function specifications:
      -----------------------------
 
      Number of closed shell electrons          20
      Number of electrons in active shells       4
      Max number of holes in RAS1 space          0
      Max number of electrons in RAS3 space      0
      Number of inactive orbitals               10
      Number of active orbitals                  3
      Number of secondary orbitals               2
      Spin quantum number                      0.0
      State symmetry                             1
      Number of CSFs                             6
      Number of root(s) available                1
      Root passed to geometry opt.               1
      A file JOBMIX will be created.
      This is a CASSCF or RASSCF reference function
--
 
++    Orbital specifications:
      -----------------------
 
      Symmetry species                           1
                                                 a
      Frozen orbitals                            0
      Inactive orbitals                         10
      Active orbitals                            3
      Secondary orbitals                         2
      Deleted orbitals                           0
      Number of basis functions                 15
--
 
      Type of Fock operator: STANDARD
      Type of 0-order Hamiltonian: STANDARD WITH DEFAULT IPEA
        "IP-EA" denominator shift =      0.25
      The input orbitals and the CI vector will be transformed.
 
--------------------------------------------------------------------------------
 Estimated memory requirements:
  POLY3 :                   250202
  RHS:                      251368
  SIGMA :                   251440
  PRPCTL:                        0
 Available workspace:    230399382
 
++ CASPT2 computation for group   1
 
********************************************************************************
 Multi-State initialization phase begins for group   1
--------------------------------------------------------------------------------
********************************************************************************
 Compute H0 matrices for state    1
--------------------------------------------------------------------------------
--------------------------------------------------------------------------------
 H0 matrices have been computed.
 
********************************************************************************
  CASPT2 EQUATION SOLUTION
--------------------------------------------------------------------------------
 
  Total nr of CASPT2 parameters:
   Before reduction:        2100
   After  reduction:        1232
-------------------------------------------------------------------------------------------------------------------
 
  FINAL CASPT2 RESULT:
 
  Correlation energy /Case, /Symm, and sums:
 VJTU     -0.00000000 -0.00000000
 VJTIP    -0.00123713 -0.00123713
 VJTIM     0.00000000  0.00000000
 ATVX     -0.00000000 -0.00000000
 AIVX     -0.05254186 -0.05254186
 VJAIP    -0.00000000 -0.00000000
 VJAIM    -0.00000000 -0.00000000
 BVATP    -0.00061532 -0.00061532
 BVATM    -0.00000453 -0.00000453
 BJATP    -0.00000000 -0.00000000
 BJATM    -0.00000000 -0.00000000
 BJAIP    -0.03497831 -0.03497831
 BJAIM    -0.00644319 -0.00644319
 Summed:  -0.09582033 -0.09582033
 
      Reference energy:        -224.2741346832
      E2 (Non-variational):      -0.0958203311
      E2 (Variational):          -0.0958203132
      Total energy:            -224.3699549964
      Residual norm:              0.0000007798
      Reference weight:           0.95369
 
      Contributions to the CASPT2 correlation energy
      Active & Virtual Only:         -0.0006198531
      One Inactive Excited:          -0.0525418599
      Two Inactive Excited:          -0.0426586180
 
 
++ Denominators, etc.
----------------------------------------------------------------------------------------------------
 Report on small energy denominators, large coefficients, and large energy contributions.
CASE  SYMM ACTIVE-MIX  NON-ACTIVE INDICES          DENOMINATOR     RHS VALUE       COEFFICIENT     CONTRIBUTION
AIVX     1  Mu1.0005  In1.004 Se1.014               2.54902314     -0.08489692      0.03330567     -0.00282755
AIVX     1  Mu1.0003  In1.005 Se1.014               2.01478374     -0.05491017      0.02725363     -0.00149650
AIVX     1  Mu1.0004  In1.006 Se1.014               1.77964550     -0.07743246      0.04351005     -0.00336909
AIVX     1  Mu1.0005  In1.006 Se1.014               1.93286555      0.07510101     -0.03885475     -0.00291803
AIVX     1  Mu1.0002  In1.008 Se1.014               1.21233411      0.12329102     -0.10169723     -0.01253836
AIVX     1  Mu1.0003  In1.008 Se1.014               1.30641513      0.07363867     -0.05636698     -0.00415079
AIVX     1  Mu1.0007  In1.008 Se1.014               1.90871658     -0.05482124      0.02872152     -0.00157455
AIVX     1  Mu1.0004  In1.005 Se1.015               2.66571085     -0.07243158      0.02717158     -0.00196808
AIVX     1  Mu1.0001  In1.008 Se1.015               1.31801516      0.03572135     -0.02710238     -0.00096813
AIVX     1  Mu1.0004  In1.008 Se1.015               1.95734224      0.12795631     -0.06537248     -0.00836482
AIVX     1  Mu1.0005  In1.008 Se1.015               2.11056229     -0.08542621      0.04047557     -0.00345767
BJAIP    1  Se1.014 In1.004 Se1.015 In1.005         3.90235917     -0.10102696      0.02588869     -0.00261546
BJAIP    1  Se1.014 In1.006 Se1.014 In1.006         2.40013623      0.08388143     -0.03494861     -0.00293154
BJAIP    1  Se1.014 In1.004 Se1.015 In1.008         3.19399056      0.08225829     -0.02575408     -0.00211849
BJAIP    1  Se1.014 In1.006 Se1.015 In1.008         2.57783298     -0.10008580      0.03882556     -0.00388589
BJAIP    1  Se1.014 In1.008 Se1.014 In1.008         1.79888181      0.11391840     -0.06332734     -0.00721415
BJAIP    1  Se1.015 In1.008 Se1.015 In1.008         2.75552972      0.11334905     -0.04113512     -0.00466263
BJAIP    1  Se1.014 In1.010 Se1.014 In1.010         1.23467812      0.03219153     -0.02607281     -0.00083932
BJAIM    1  Se1.014 In1.006 Se1.014 In1.008         2.57783298     -0.10258868      0.03979648     -0.00408267
--
 
   (Skipping property calculation,
    use PROP keyword to activate)
--
 
  Total CASPT2 energies:
::    CASPT2 Root  1     Total energy:   -224.36995500
 
  A NEW JOBIPH FILE NAMED 'JOBMIX' IS PREPARED.
********************************************************************************
forrtl: warning (528): IEEE_UNDERFLOW is signaling
--- Stop Module: caspt2 at Sat Jan 25 14:10:54 2025 /rc=_RC_ALL_IS_WELL_ ---
*** files: xmldump
    saved to directory /home/grierjones/DDCASPT2/ozone/ANO-RCC-MB/ozone_174.75

>>> EXPORT i = B

>>> EXPORT j = P

>>> IF (-FILE GMJ_e2_${i}_${j}.csv)

>>> COPY /tmp/ozone_174.75/GMJ_RHS_B_P.csv /home/grierjones/DDCASPT2/ozone/ANO-RCC-MB/ozone_174.75/GMJ_RHS_B_P.csv

>>> COPY /tmp/ozone_174.75/GMJ_IVECW_B_P.csv /home/grierjones/DDCASPT2/ozone/ANO-RCC-MB/ozone_174.75/GMJ_IVECW_B_P.csv

>>> COPY /tmp/ozone_174.75/GMJ_IVECX_B_P.csv /home/grierjones/DDCASPT2/ozone/ANO-RCC-MB/ozone_174.75/GMJ_IVECX_B_P.csv

>>> COPY /tmp/ozone_174.75/GMJ_IVECC2_B_P.csv /home/grierjones/DDCASPT2/ozone/ANO-RCC-MB/ozone_174.75/GMJ_IVECC2_B_P.csv

>>> COPY /tmp/ozone_174.75/GMJ_e2_B_P.csv /home/grierjones/DDCASPT2/ozone/ANO-RCC-MB/ozone_174.75/GMJ_e2_B_P.csv

>>> END FOREACH

>>> EXPORT j = M

>>> IF (-FILE GMJ_e2_${i}_${j}.csv)
(Skipped)

>>> END FOREACH

>>> END FOREACH

>>> EXPORT i = E

>>> EXPORT j = P

>>> IF (-FILE GMJ_e2_${i}_${j}.csv)

>>> COPY /tmp/ozone_174.75/GMJ_RHS_E_P.csv /home/grierjones/DDCASPT2/ozone/ANO-RCC-MB/ozone_174.75/GMJ_RHS_E_P.csv

>>> COPY /tmp/ozone_174.75/GMJ_IVECW_E_P.csv /home/grierjones/DDCASPT2/ozone/ANO-RCC-MB/ozone_174.75/GMJ_IVECW_E_P.csv

>>> COPY /tmp/ozone_174.75/GMJ_IVECX_E_P.csv /home/grierjones/DDCASPT2/ozone/ANO-RCC-MB/ozone_174.75/GMJ_IVECX_E_P.csv

>>> COPY /tmp/ozone_174.75/GMJ_IVECC2_E_P.csv /home/grierjones/DDCASPT2/ozone/ANO-RCC-MB/ozone_174.75/GMJ_IVECC2_E_P.csv

>>> COPY /tmp/ozone_174.75/GMJ_e2_E_P.csv /home/grierjones/DDCASPT2/ozone/ANO-RCC-MB/ozone_174.75/GMJ_e2_E_P.csv

>>> END FOREACH

>>> EXPORT j = M

>>> IF (-FILE GMJ_e2_${i}_${j}.csv)

>>> COPY /tmp/ozone_174.75/GMJ_RHS_E_M.csv /home/grierjones/DDCASPT2/ozone/ANO-RCC-MB/ozone_174.75/GMJ_RHS_E_M.csv

>>> COPY /tmp/ozone_174.75/GMJ_IVECW_E_M.csv /home/grierjones/DDCASPT2/ozone/ANO-RCC-MB/ozone_174.75/GMJ_IVECW_E_M.csv

>>> COPY /tmp/ozone_174.75/GMJ_IVECX_E_M.csv /home/grierjones/DDCASPT2/ozone/ANO-RCC-MB/ozone_174.75/GMJ_IVECX_E_M.csv

>>> COPY /tmp/ozone_174.75/GMJ_IVECC2_E_M.csv /home/grierjones/DDCASPT2/ozone/ANO-RCC-MB/ozone_174.75/GMJ_IVECC2_E_M.csv

>>> COPY /tmp/ozone_174.75/GMJ_e2_E_M.csv /home/grierjones/DDCASPT2/ozone/ANO-RCC-MB/ozone_174.75/GMJ_e2_E_M.csv

>>> END FOREACH

>>> END FOREACH

>>> EXPORT i = F

>>> EXPORT j = P

>>> IF (-FILE GMJ_e2_${i}_${j}.csv)

>>> COPY /tmp/ozone_174.75/GMJ_RHS_F_P.csv /home/grierjones/DDCASPT2/ozone/ANO-RCC-MB/ozone_174.75/GMJ_RHS_F_P.csv

>>> COPY /tmp/ozone_174.75/GMJ_IVECW_F_P.csv /home/grierjones/DDCASPT2/ozone/ANO-RCC-MB/ozone_174.75/GMJ_IVECW_F_P.csv

>>> COPY /tmp/ozone_174.75/GMJ_IVECX_F_P.csv /home/grierjones/DDCASPT2/ozone/ANO-RCC-MB/ozone_174.75/GMJ_IVECX_F_P.csv

>>> COPY /tmp/ozone_174.75/GMJ_IVECC2_F_P.csv /home/grierjones/DDCASPT2/ozone/ANO-RCC-MB/ozone_174.75/GMJ_IVECC2_F_P.csv

>>> COPY /tmp/ozone_174.75/GMJ_e2_F_P.csv /home/grierjones/DDCASPT2/ozone/ANO-RCC-MB/ozone_174.75/GMJ_e2_F_P.csv

>>> END FOREACH

>>> EXPORT j = M

>>> IF (-FILE GMJ_e2_${i}_${j}.csv)

>>> COPY /tmp/ozone_174.75/GMJ_RHS_F_M.csv /home/grierjones/DDCASPT2/ozone/ANO-RCC-MB/ozone_174.75/GMJ_RHS_F_M.csv

>>> COPY /tmp/ozone_174.75/GMJ_IVECW_F_M.csv /home/grierjones/DDCASPT2/ozone/ANO-RCC-MB/ozone_174.75/GMJ_IVECW_F_M.csv

>>> COPY /tmp/ozone_174.75/GMJ_IVECX_F_M.csv /home/grierjones/DDCASPT2/ozone/ANO-RCC-MB/ozone_174.75/GMJ_IVECX_F_M.csv

>>> COPY /tmp/ozone_174.75/GMJ_IVECC2_F_M.csv /home/grierjones/DDCASPT2/ozone/ANO-RCC-MB/ozone_174.75/GMJ_IVECC2_F_M.csv

>>> COPY /tmp/ozone_174.75/GMJ_e2_F_M.csv /home/grierjones/DDCASPT2/ozone/ANO-RCC-MB/ozone_174.75/GMJ_e2_F_M.csv

>>> END FOREACH

>>> END FOREACH

>>> EXPORT i = G

>>> EXPORT j = P

>>> IF (-FILE GMJ_e2_${i}_${j}.csv)

>>> COPY /tmp/ozone_174.75/GMJ_RHS_G_P.csv /home/grierjones/DDCASPT2/ozone/ANO-RCC-MB/ozone_174.75/GMJ_RHS_G_P.csv

>>> COPY /tmp/ozone_174.75/GMJ_IVECW_G_P.csv /home/grierjones/DDCASPT2/ozone/ANO-RCC-MB/ozone_174.75/GMJ_IVECW_G_P.csv

>>> COPY /tmp/ozone_174.75/GMJ_IVECX_G_P.csv /home/grierjones/DDCASPT2/ozone/ANO-RCC-MB/ozone_174.75/GMJ_IVECX_G_P.csv

>>> COPY /tmp/ozone_174.75/GMJ_IVECC2_G_P.csv /home/grierjones/DDCASPT2/ozone/ANO-RCC-MB/ozone_174.75/GMJ_IVECC2_G_P.csv

>>> COPY /tmp/ozone_174.75/GMJ_e2_G_P.csv /home/grierjones/DDCASPT2/ozone/ANO-RCC-MB/ozone_174.75/GMJ_e2_G_P.csv

>>> END FOREACH

>>> EXPORT j = M

>>> IF (-FILE GMJ_e2_${i}_${j}.csv)

>>> COPY /tmp/ozone_174.75/GMJ_RHS_G_M.csv /home/grierjones/DDCASPT2/ozone/ANO-RCC-MB/ozone_174.75/GMJ_RHS_G_M.csv

>>> COPY /tmp/ozone_174.75/GMJ_IVECW_G_M.csv /home/grierjones/DDCASPT2/ozone/ANO-RCC-MB/ozone_174.75/GMJ_IVECW_G_M.csv

>>> COPY /tmp/ozone_174.75/GMJ_IVECX_G_M.csv /home/grierjones/DDCASPT2/ozone/ANO-RCC-MB/ozone_174.75/GMJ_IVECX_G_M.csv

>>> COPY /tmp/ozone_174.75/GMJ_IVECC2_G_M.csv /home/grierjones/DDCASPT2/ozone/ANO-RCC-MB/ozone_174.75/GMJ_IVECC2_G_M.csv

>>> COPY /tmp/ozone_174.75/GMJ_e2_G_M.csv /home/grierjones/DDCASPT2/ozone/ANO-RCC-MB/ozone_174.75/GMJ_e2_G_M.csv

>>> END FOREACH

>>> END FOREACH

>>> EXPORT i = H

>>> EXPORT j = P

>>> IF (-FILE GMJ_e2_${i}_${j}.csv)

>>> COPY /tmp/ozone_174.75/GMJ_RHS_H_P.csv /home/grierjones/DDCASPT2/ozone/ANO-RCC-MB/ozone_174.75/GMJ_RHS_H_P.csv

>>> COPY /tmp/ozone_174.75/GMJ_IVECW_H_P.csv /home/grierjones/DDCASPT2/ozone/ANO-RCC-MB/ozone_174.75/GMJ_IVECW_H_P.csv

>>> COPY /tmp/ozone_174.75/GMJ_IVECX_H_P.csv /home/grierjones/DDCASPT2/ozone/ANO-RCC-MB/ozone_174.75/GMJ_IVECX_H_P.csv

>>> COPY /tmp/ozone_174.75/GMJ_IVECC2_H_P.csv /home/grierjones/DDCASPT2/ozone/ANO-RCC-MB/ozone_174.75/GMJ_IVECC2_H_P.csv

>>> COPY /tmp/ozone_174.75/GMJ_e2_H_P.csv /home/grierjones/DDCASPT2/ozone/ANO-RCC-MB/ozone_174.75/GMJ_e2_H_P.csv

>>> END FOREACH

>>> EXPORT j = M

>>> IF (-FILE GMJ_e2_${i}_${j}.csv)

>>> COPY /tmp/ozone_174.75/GMJ_RHS_H_M.csv /home/grierjones/DDCASPT2/ozone/ANO-RCC-MB/ozone_174.75/GMJ_RHS_H_M.csv

>>> COPY /tmp/ozone_174.75/GMJ_IVECW_H_M.csv /home/grierjones/DDCASPT2/ozone/ANO-RCC-MB/ozone_174.75/GMJ_IVECW_H_M.csv

>>> COPY /tmp/ozone_174.75/GMJ_IVECX_H_M.csv /home/grierjones/DDCASPT2/ozone/ANO-RCC-MB/ozone_174.75/GMJ_IVECX_H_M.csv

>>> COPY /tmp/ozone_174.75/GMJ_IVECC2_H_M.csv /home/grierjones/DDCASPT2/ozone/ANO-RCC-MB/ozone_174.75/GMJ_IVECC2_H_M.csv

>>> COPY /tmp/ozone_174.75/GMJ_e2_H_M.csv /home/grierjones/DDCASPT2/ozone/ANO-RCC-MB/ozone_174.75/GMJ_e2_H_M.csv

>>> END FOREACH

>>> END FOREACH

>>> EXPORT i = A

>>> IF (-FILE GMJ_e2_$i.csv)

>>> COPY /tmp/ozone_174.75/GMJ_RHS_A.csv /home/grierjones/DDCASPT2/ozone/ANO-RCC-MB/ozone_174.75/GMJ_RHS_A.csv

>>> COPY /tmp/ozone_174.75/GMJ_IVECW_A.csv /home/grierjones/DDCASPT2/ozone/ANO-RCC-MB/ozone_174.75/GMJ_IVECW_A.csv

>>> COPY /tmp/ozone_174.75/GMJ_IVECX_A.csv /home/grierjones/DDCASPT2/ozone/ANO-RCC-MB/ozone_174.75/GMJ_IVECX_A.csv

>>> COPY /tmp/ozone_174.75/GMJ_IVECC2_A.csv /home/grierjones/DDCASPT2/ozone/ANO-RCC-MB/ozone_174.75/GMJ_IVECC2_A.csv

>>> COPY /tmp/ozone_174.75/GMJ_e2_A.csv /home/grierjones/DDCASPT2/ozone/ANO-RCC-MB/ozone_174.75/GMJ_e2_A.csv

>>> END FOREACH

>>> EXPORT i = C

>>> IF (-FILE GMJ_e2_$i.csv)

>>> COPY /tmp/ozone_174.75/GMJ_RHS_C.csv /home/grierjones/DDCASPT2/ozone/ANO-RCC-MB/ozone_174.75/GMJ_RHS_C.csv

>>> COPY /tmp/ozone_174.75/GMJ_IVECW_C.csv /home/grierjones/DDCASPT2/ozone/ANO-RCC-MB/ozone_174.75/GMJ_IVECW_C.csv

>>> COPY /tmp/ozone_174.75/GMJ_IVECX_C.csv /home/grierjones/DDCASPT2/ozone/ANO-RCC-MB/ozone_174.75/GMJ_IVECX_C.csv

>>> COPY /tmp/ozone_174.75/GMJ_IVECC2_C.csv /home/grierjones/DDCASPT2/ozone/ANO-RCC-MB/ozone_174.75/GMJ_IVECC2_C.csv

>>> COPY /tmp/ozone_174.75/GMJ_e2_C.csv /home/grierjones/DDCASPT2/ozone/ANO-RCC-MB/ozone_174.75/GMJ_e2_C.csv

>>> END FOREACH

>>> EXPORT i = D

>>> IF (-FILE GMJ_e2_$i.csv)

>>> COPY /tmp/ozone_174.75/GMJ_RHS_D.csv /home/grierjones/DDCASPT2/ozone/ANO-RCC-MB/ozone_174.75/GMJ_RHS_D.csv

>>> COPY /tmp/ozone_174.75/GMJ_IVECW_D.csv /home/grierjones/DDCASPT2/ozone/ANO-RCC-MB/ozone_174.75/GMJ_IVECW_D.csv

>>> COPY /tmp/ozone_174.75/GMJ_IVECX_D.csv /home/grierjones/DDCASPT2/ozone/ANO-RCC-MB/ozone_174.75/GMJ_IVECX_D.csv

>>> COPY /tmp/ozone_174.75/GMJ_IVECC2_D.csv /home/grierjones/DDCASPT2/ozone/ANO-RCC-MB/ozone_174.75/GMJ_IVECC2_D.csv

>>> COPY /tmp/ozone_174.75/GMJ_e2_D.csv /home/grierjones/DDCASPT2/ozone/ANO-RCC-MB/ozone_174.75/GMJ_e2_D.csv

>>> END FOREACH

.########################.
.# Non-zero return code #.
.########################.

    Timing: Wall=1.09 User=0.81 System=0.27
********************************************
*** WorkDir at /tmp/ozone_174.75 cleaned ***
********************************************
