[Molden Format]
[N_Atoms]
                     2
[Atoms] (AU)
BE1         1      4           0.00000000      0.00000000      0.00000000
C2          2      6           0.00000000      0.00000000      1.51178090
[Charge] (Mulliken)
  0.625532116653937     
 -0.625532116653954     
[GTO] (AU)
   1
   s  14
  2.262859900E+04  8.443999941E-05
  3.372318100E+03  4.601499968E-04
  7.603504000E+02  2.285389984E-03
  2.117404800E+02  9.648129932E-03
  6.722346800E+01  3.494469975E-02
  2.337217700E+01  1.061099893E-01
  8.721373000E+00  2.458240383E-01
  3.468091000E+00  3.862428773E-01
  1.452144000E+00  3.105526078E-01
  6.086150000E-01  6.415933955E-02
  2.576860000E-01 -2.265049984E-03
  1.041760000E-01 -5.217499963E-04
  4.242700000E-02 -8.757499938E-04
  1.484900000E-02  1.242199991E-04
   s  14
  2.262859900E+04 -1.586999994E-05
  3.372318100E+03 -8.656999968E-05
  7.603504000E+02 -4.302199984E-04
  2.117404800E+02 -1.825079993E-03
  6.722346800E+01 -6.682749976E-03
  2.337217700E+01 -2.095119992E-02
  8.721373000E+00 -5.200308981E-02
  3.468091000E+00 -9.849176964E-02
  1.452144000E+00 -1.355800695E-01
  6.086150000E-01 -6.429875976E-02
  2.576860000E-01  3.125414989E-01
  1.041760000E-01  6.270468577E-01
  4.242700000E-02  2.110231492E-01
  1.484900000E-02 -4.104669985E-03
   p   9
  3.371018400E+01  1.069960000E-03
  8.057649500E+00  6.828550001E-03
  2.836471400E+00  2.119065000E-02
  1.099965700E+00  5.843696001E-02
  4.433964000E-01  2.020920800E-01
  1.822264000E-01  4.582953101E-01
  7.572410000E-02  3.691239601E-01
  3.168540000E-02  6.611471001E-02
  1.108990000E-02  1.405160000E-03
 
   2
   s  14
  5.055750100E+04  1.128874000E-04
  7.524785600E+03  5.295373000E-04
  1.694327600E+03  2.450038300E-03
  4.728227900E+02  1.005398470E-02
  1.517107500E+02  3.545398060E-02
  5.391874600E+01  1.044071086E-01
  2.065931100E+01  2.412894918E-01
  8.383976000E+00  3.834225483E-01
  3.577015000E+00  3.078514393E-01
  1.547118000E+00  6.872442990E-02
  6.130130000E-01  2.224445000E-04
  2.460680000E-01  1.976748900E-03
  9.908700000E-02  2.057859400E-03
  3.468000000E-02  4.182020000E-04
   s  14
  5.055750100E+04 -2.507420000E-05
  7.524785600E+03 -1.175945000E-04
  1.694327600E+03 -5.456275000E-04
  4.728227900E+02 -2.245077100E-03
  1.517107500E+02 -8.043471800E-03
  5.391874600E+01 -2.442588710E-02
  2.065931100E+01 -6.136791180E-02
  8.383976000E+00 -1.177767835E-01
  3.577015000E+00 -1.550487783E-01
  1.547118000E+00 -1.933316860E-02
  6.130130000E-01  3.996930678E-01
  2.460680000E-01  5.589420949E-01
  9.908700000E-02  1.711195023E-01
  3.468000000E-02  7.456244600E-03
   p   9
  8.333315500E+01  1.344656000E-03
  1.955761100E+01  1.023555500E-02
  6.080365000E+00  4.520067100E-02
  2.179317000E+00  1.410756198E-01
  8.651500000E-01  3.047388085E-01
  3.619440000E-01  3.995281011E-01
  1.547400000E-01  2.719163432E-01
  6.542900000E-02  5.857669330E-02
  2.290000000E-02 -1.263813000E-04
 
[MO]
Sym=     1a  
Ene=   -11.5110
Spin= Alpha
Occup=    1.00000
   1         0.00192360
   2        -0.00577063
   3         0.00000000
   4         0.00000000
   5         0.00047527
   6         1.00048214
   7         0.00332853
   8        -0.00000000
   9         0.00000000
  10        -0.00728356
Sym=     1a  
Ene=   -11.5110
Spin= Beta
Occup=    1.00000
   1         0.00192360
   2        -0.00577063
   3         0.00000000
   4         0.00000000
   5         0.00047527
   6         1.00048214
   7         0.00332853
   8        -0.00000000
   9         0.00000000
  10        -0.00728356
Sym=     2a  
Ene=    -5.1825
Spin= Alpha
Occup=    1.00000
   1         0.98531278
   2        -0.01357661
   3         0.00000000
   4         0.00000000
   5         0.01091524
   6        -0.03722696
   7         0.01965611
   8        -0.00000000
   9        -0.00000000
  10        -0.02612334
Sym=     2a  
Ene=    -5.1825
Spin= Beta
Occup=    1.00000
   1         0.98531278
   2        -0.01357661
   3         0.00000000
   4         0.00000000
   5         0.01091524
   6        -0.03722696
   7         0.01965611
   8        -0.00000000
   9        -0.00000000
  10        -0.02612334
Sym=     3a  
Ene=    -0.7758
Spin= Alpha
Occup=    1.00000
   1        -0.28445325
   2         0.11980189
   3         0.00000000
   4        -0.00000000
   5         0.15335475
   6        -0.03067995
   7         0.86372507
   8         0.00000000
   9        -0.00000000
  10        -0.12140292
Sym=     3a  
Ene=    -0.7758
Spin= Beta
Occup=    1.00000
   1        -0.28445325
   2         0.11980189
   3         0.00000000
   4        -0.00000000
   5         0.15335475
   6        -0.03067995
   7         0.86372507
   8         0.00000000
   9        -0.00000000
  10        -0.12140292
Sym=     4a  
Ene=    -0.4984
Spin= Alpha
Occup=    1.00000
   1         0.00000000
   2         0.00000000
   3         0.08100444
   4         0.31217794
   5        -0.00000000
   6        -0.00000000
   7        -0.00000000
   8         0.19114436
   9         0.73663930
  10         0.00000000
Sym=     4a  
Ene=    -0.4984
Spin= Beta
Occup=    1.00000
   1         0.00000000
   2         0.00000000
   3         0.08100444
   4         0.31217794
   5        -0.00000000
   6        -0.00000000
   7        -0.00000000
   8         0.19114436
   9         0.73663930
  10         0.00000000
Sym=     5a  
Ene=    -0.4984
Spin= Alpha
Occup=    1.00000
   1         0.00000000
   2        -0.00000000
   3         0.31217794
   4        -0.08100444
   5        -0.00000000
   6         0.00000000
   7         0.00000000
   8         0.73663930
   9        -0.19114436
  10         0.00000000
Sym=     5a  
Ene=    -0.4984
Spin= Beta
Occup=    1.00000
   1         0.00000000
   2        -0.00000000
   3         0.31217794
   4        -0.08100444
   5        -0.00000000
   6         0.00000000
   7         0.00000000
   8         0.73663930
   9        -0.19114436
  10         0.00000000
Sym=     6a  
Ene=    -0.0393
Spin= Alpha
Occup=    0.00000
   1        -0.05601023
   2        -0.77007253
   3         0.00000000
   4        -0.00000000
   5         0.66171327
   6        -0.02686359
   7         0.19606656
   8        -0.00000000
   9         0.00000000
  10         0.00440099
Sym=     6a  
Ene=    -0.0393
Spin= Beta
Occup=    0.00000
   1        -0.05601023
   2        -0.77007253
   3         0.00000000
   4        -0.00000000
   5         0.66171327
   6        -0.02686359
   7         0.19606656
   8        -0.00000000
   9         0.00000000
  10         0.00440099
Sym=     7a  
Ene=     0.2083
Spin= Alpha
Occup=    0.00000
   1         0.36841417
   2         0.05357413
   3         0.00000000
   4        -0.00000000
   5        -0.51702068
   6         0.07820259
   7         0.26658304
   8        -0.00000000
   9         0.00000000
  10         1.13265502
Sym=     7a  
Ene=     0.2083
Spin= Beta
Occup=    0.00000
   1         0.36841417
   2         0.05357413
   3         0.00000000
   4        -0.00000000
   5        -0.51702068
   6         0.07820259
   7         0.26658304
   8        -0.00000000
   9         0.00000000
  10         1.13265502
Sym=     8a  
Ene=     0.3424
Spin= Alpha
Occup=    0.00000
   1        -0.00000000
   2        -0.00000000
   3        -0.19444033
   4        -1.25379373
   5        -0.00000000
   6         0.00000000
   7         0.00000000
   8         0.16324142
   9         1.05261634
  10        -0.00000000
Sym=     8a  
Ene=     0.3424
Spin= Beta
Occup=    0.00000
   1        -0.00000000
   2        -0.00000000
   3        -0.19444033
   4        -1.25379373
   5        -0.00000000
   6         0.00000000
   7         0.00000000
   8         0.16324142
   9         1.05261634
  10        -0.00000000
Sym=     9a  
Ene=     0.3424
Spin= Alpha
Occup=    0.00000
   1        -0.00000000
   2        -0.00000000
   3        -1.25379373
   4         0.19444033
   5        -0.00000000
   6         0.00000000
   7         0.00000000
   8         1.05261634
   9        -0.16324142
  10         0.00000000
Sym=     9a  
Ene=     0.3424
Spin= Beta
Occup=    0.00000
   1        -0.00000000
   2        -0.00000000
   3        -1.25379373
   4         0.19444033
   5        -0.00000000
   6         0.00000000
   7         0.00000000
   8         1.05261634
   9        -0.16324142
  10         0.00000000
Sym=    10a  
Ene=     0.5517
Spin= Alpha
Occup=    0.00000
   1        -0.79204877
   2        -1.99373056
   3         0.00000000
   4         0.00000000
   5        -1.50856818
   6         0.51520051
   7         2.41522598
   8        -0.00000000
   9        -0.00000000
  10        -0.38047925
Sym=    10a  
Ene=     0.5517
Spin= Beta
Occup=    0.00000
   1        -0.79204877
   2        -1.99373056
   3         0.00000000
   4         0.00000000
   5        -1.50856818
   6         0.51520051
   7         2.41522598
   8        -0.00000000
   9        -0.00000000
  10        -0.38047925
