[Molden Format]
[N_Atoms]
                     2
[Atoms] (AU)
LI1         1      3           0.00000000      0.00000000      0.00000000
N2          2      7           0.00000000      0.00000000      5.29123315
[Charge] (Mulliken)
  0.430320124090013     
 -0.430320124090019     
[GTO] (AU)
   1
   s  14
  9.497934400E+03  9.668999974E-05
  1.416811200E+03  6.087099984E-04
  3.214599400E+02  3.101519992E-03
  9.112416300E+01  1.266904997E-02
  2.999989100E+01  4.248012989E-02
  1.101763100E+01  1.150183297E-01
  4.372801000E+00  2.398650094E-01
  1.831256000E+00  3.584300090E-01
  8.022610000E-01  3.048527792E-01
  3.626480000E-01  8.824261976E-02
  1.139950000E-01 -8.445899977E-04
  5.123700000E-02 -7.943959979E-03
  2.246800000E-02 -3.764419990E-03
  7.860000000E-03 -8.868999976E-05
   s  14
  9.497934400E+03 -1.244999993E-05
  1.416811200E+03 -7.838999954E-05
  3.214599400E+02 -4.007099976E-04
  9.112416300E+01 -1.645249990E-03
  2.999989100E+01 -5.634599967E-03
  1.101763100E+01 -1.590780991E-02
  4.372801000E+00 -3.612581979E-02
  1.831256000E+00 -6.459927962E-02
  8.022610000E-01 -1.008321794E-01
  3.626480000E-01 -9.757613942E-02
  1.139950000E-01  2.301215886E-01
  5.123700000E-02  6.102389764E-01
  2.246800000E-02  2.849406083E-01
  7.860000000E-03  4.026899976E-03
   p   9
  1.311950400E+01  1.524940000E-03
  3.077424200E+00  8.314830000E-03
  1.098800500E+00  1.933203000E-02
  4.357784000E-01  4.934293000E-02
  1.802432000E-01  1.623554000E-01
  7.613330000E-02  3.847505400E-01
  3.254650000E-02  4.336100400E-01
  1.401820000E-02  1.287005900E-01
  4.906400000E-03 -1.018520000E-03
 
   2
   s  14
  7.476171500E+04  1.182599996E-04
  1.112365400E+04  5.172899983E-04
  2.512685700E+03  2.266659992E-03
  7.037772900E+02  9.145289970E-03
  2.254787900E+02  3.239342989E-02
  7.961581000E+01  9.770792967E-02
  3.023728300E+01  2.317036792E-01
  1.226362200E+01  3.768898887E-01
  5.265086000E+00  3.177420689E-01
  2.333471000E+00  8.211308973E-02
  9.018560000E-01  3.312089989E-03
  3.583360000E-01  3.720819988E-03
  1.410930000E-01  3.165419989E-03
  4.938300000E-02  4.595799985E-04
   s  14
  7.476171500E+04 -2.707000010E-05
  1.112365400E+04 -1.183700004E-04
  2.512685700E+03 -5.203800020E-04
  7.037772900E+02 -2.102930008E-03
  2.254787900E+02 -7.568200028E-03
  7.961581000E+01 -2.346767009E-02
  3.023728300E+01 -6.042901023E-02
  1.226362200E+01 -1.170549104E-01
  5.265086000E+00 -1.555321506E-01
  2.333471000E+00 -2.468935009E-02
  9.018560000E-01  3.625054514E-01
  3.583360000E-01  5.550845021E-01
  1.410930000E-01  2.148376908E-01
  4.938300000E-02  8.983850034E-03
   p   9
  1.266665700E+02  1.233630000E-03
  2.983738900E+01  9.493409996E-03
  9.394038000E+00  4.293961998E-02
  3.405104000E+00  1.362925399E-01
  1.350000000E+00  2.921362499E-01
  5.576960000E-01  3.887887598E-01
  2.324490000E-01  2.946801399E-01
  9.426400000E-02  8.012875997E-02
  3.299200000E-02  5.405199998E-04
 
[MO]
Sym=     1a  
Ene=   -15.2570
Spin= Alpha
Occup=    2.00000
   1         0.00001629
   2        -0.00133541
   3        -0.00000001
   4         0.00000000
   5        -0.00173822
   6         0.99989214
   7        -0.01865376
   8        -0.00000003
   9         0.00000000
  10         0.00002201
Sym=     2a  
Ene=    -2.5703
Spin= Alpha
Occup=    2.00000
   1        -0.99991861
   2        -0.01261928
   3        -0.00000001
   4         0.00000000
   5         0.00080255
   6        -0.00001885
   7        -0.00003833
   8         0.00000001
   9        -0.00000000
  10         0.00010250
Sym=     3a  
Ene=    -0.1939
Spin= Alpha
Occup=    2.00000
   1        -0.00000000
   2         0.00000001
   3         0.00999756
   4         0.32008010
   5         0.00000000
   6        -0.00000000
   7        -0.00000000
   8         0.02862579
   9         0.91647792
  10        -0.00000001
Sym=     4a  
Ene=    -0.1939
Spin= Alpha
Occup=    2.00000
   1         0.00000012
   2        -0.00000392
   3         0.32008010
   4        -0.00999756
   5        -0.00000186
   6         0.00000013
   7         0.00000007
   8         0.91647792
   9        -0.02862579
  10         0.00000538
Sym=     5a  
Ene=    -0.7427
Spin= Alpha
Occup=    1.96906
   1         0.00482652
   2        -0.03808059
   3        -0.00000038
   4         0.00000001
   5        -0.04395727
   6        -0.01733514
   7        -0.97765588
   8        -0.00000149
   9         0.00000005
  10         0.01477350
Sym=     6a  
Ene=    -0.0000
Spin= Alpha
Occup=    0.03094
   1         0.01222633
   2         0.02562456
   3        -0.00000012
   4         0.00000000
   5         0.01967624
   6        -0.00102006
   7         0.01273652
   8        -0.00000622
   9         0.00000020
  10         1.00494430
Sym=     7a  
Ene=    -0.0225
Spin= Alpha
Occup=    0.00000
   1        -0.01108464
   2         0.91148058
   3         0.00000307
   4        -0.00000010
   5        -0.41627879
   6        -0.00227990
   7        -0.05413722
   8         0.00000161
   9        -0.00000005
  10         0.04211126
Sym=     8a  
Ene=     0.0542
Spin= Alpha
Occup=    0.00000
   1         0.00000002
   2         0.00000013
   3        -0.94869846
   4         0.08263572
   5        -0.00000505
   6         0.00000017
   7         0.00000162
   8         0.40913011
   9        -0.03563699
  10         0.00000132
Sym=     9a  
Ene=     0.0542
Spin= Alpha
Occup=    0.00000
   1         0.00000000
   2         0.00000001
   3        -0.08263572
   4        -0.94869846
   5        -0.00000027
   6         0.00000001
   7         0.00000009
   8         0.03563699
   9         0.40913011
  10         0.00000007
Sym=    10a  
Ene=     0.1189
Spin= Alpha
Occup=    0.00000
   1        -0.00136584
   2         0.47314643
   3        -0.00000302
   4         0.00000010
   5         0.97815345
   6        -0.04071306
   7        -0.43788396
   8         0.00000461
   9        -0.00000015
  10         0.15752622
