   This run of MOLCAS is using the pymolcas driver

                             OPE
                             OPE          NMOL  CASOP  ENMOLC A   SO
                 OPE        NMOLC        AS  OP EN  MO LC     AS  OP
                OPENM       OL CA        SO  PE NM  OL CA     SOP EN
                OP EN      MO   LC       AS  OP ENMOL  CASO   PENMOL
                OP  EN     MO   LC       AS  OP EN     MO     LC ASO
               OP   E  NMOL  C  AS       OP  EN MO     LC     AS  OP
               OP  E   NMO   LC AS        OPEN  MO     LCASOP EN   M
               O  PEN   MO  LCA  SO
            OPE   NMO   L   CAS    OP
        OPENMOL  CASOP     ENMOL   CASOPE
     OPENMOLCA   SOPENMOLCASOPEN   MOLCASOPE
    OPENMOLCAS   OP           EN   MOL    CAS
    OPENMOLCAS       OP  ENM        O     LCA
    OPENMOLCAS    OPEN  MOLCASO     P  E  NMO
    OPENMOLCAS     OP               E  N  MOL
    OPENMOLCA   SO           PENM   O  L  CAS    OPEN    MO    LCAS
    OPENMOLCA   SOP           ENM   O  L  CAS   OP  EN  MOLC  AS   O
    OPENMOLCA   SOPE           NM      O  LCA   S      OP  EN MO
    OPENMOLC                AS         O  PEN   M      OL  CA  SOPE
    OPENMO        LCASOPE  NMOL        C  ASO   P      ENMOLC     AS
    OPE     NMO      LCA  SO     P     E   NM   OL  CA SO  PE N   MO
          OPENMOLCA            SOPE   NMO        LCAS  O    P  ENMO
     OPENMOLCASOPENMOLCASOPENMOLCASOPENMOLCA
        OPENMOLCASOPENMOLCASOPENMOLCASOPE
            OPENMOLCASOPENMOLCASOPENM
               OPENMOLCASOPENMOLCA        version: 1d1d16313-dirty
                   OPENMOLCASO
                       OPE                tag:

 OpenMolcas is free software; you can redistribute it and/or modify it
 under the terms of the GNU Lesser General Public License version 2.1.
 OpenMolcas is distributed in the hope that it will be useful, but it
 is provided "as is" and without any express or implied warranties.
 For more details see the full text of the license in the file
 LICENSE or in <http://www.gnu.org/licenses/>.

                 Copyright (C) The OpenMolcas Authors
           For the author list and the recommended citation,
                   consult the file CONTRIBUTORS.md

           *************************************************
           * pymolcas version py2.28                       *
           *   build c4a6d18ded8cb6cad61d2372a9abd97c      *
           *   (after the EMIL interpreter by V. Veryazov) *
           *************************************************

configuration info
------------------
C Compiler ID: IntelLLVM
C flags: -std=gnu99
Fortran Compiler ID: IntelLLVM
Fortran flags: -standard-semantics -fltconsistency -fpp -i8 -heap-arrays
Definitions: _MOLCAS_;_I8_;_LINUX_
Parallel: OFF (GA=OFF)


   ------------------------------------------------------------------------------
  |
  |              Project: ozone_156.75
  |       Submitted from: /home/grierjones/DDCASPT2/ozone/ANO-RCC-MB/ozone_156.75
  |         Scratch area: /tmp/ozone_156.75
  |      Save outputs to: /home/grierjones/DDCASPT2/ozone/ANO-RCC-MB/ozone_156.75
  |               Molcas: /home/grierjones/Test/build
  |
  | Scratch area is empty
  |
  |       MOLCAS_DRIVER = /usr/local/pymolcas
  | MOLCAS_KEEP_WORKDIR = NO
  |  MOLCAS_NEW_WORKDIR = YES
  |       MOLCAS_NPROCS = 1
  |        MOLCAS_PRINT = NORMAL
  |       MOLCAS_SOURCE = /home/grierjones/Test
  |    MOLCAS_STRUCTURE = 0
  |
   ------------------------------------------------------------------------------

++ ---------   Input file   ---------

&GATEWAY
coord=ozone_156.75.xyz
Basis = ANO-RCC-MB
Group = nosymm
Expert
End of Input

&SEWARD
End of Input

&SCF

>>> COPY $WorkDir/ozone_156.75.scf.h5 $CurrDir/

&RASSCF
Title= RASSCF
FileOrb
/home/grierjones/DDCASPT2/ozone/ANO-RCC-MB/ozone_156.50/ozone_156.50.RasOrb
NACTEL
4 0 0
Inactive
10
RAS2
3
Symmetry
1
Spin
1
orblisting
all
ITERation
300 200

>>> COPY $WorkDir/ozone_156.75.rasscf.h5 $CurrDir/

>>> COPY $WorkDir/GMJ_Fock_MO.csv $CurrDir/ozone_156.75.GMJ_Fock_MO.csv

>>> COPY $WorkDir/GMJ_PT2_Fock_MO.csv $CurrDir/ozone_156.75.GMJ_PT2_Fock_MO.csv

&MOTRA
Frozen=0
LUMORB

>>> COPY $WorkDir/GMJ_one_int_indx.csv $CurrDir/ozone_156.75.GMJ_one_int_indx.csv

>>> COPY $WorkDir/GMJ_one_int.csv $CurrDir/ozone_156.75.GMJ_one_int.csv

>>> COPY $WorkDir/GMJ_two_int_indx.csv $CurrDir/ozone_156.75.GMJ_two_int_indx.csv

>>> COPY $WorkDir/GMJ_two_int.csv $CurrDir/ozone_156.75.GMJ_two_int.csv

&CASPT2
Frozen
0
MAXITER
50

>>> FOREACH i IN (B,E,F,G,H)

  >>> FOREACH j IN (P,M)

    >>> IF (-FILE GMJ_e2_${i}_${j}.csv)

      >>> COPY $WorkDir/GMJ_RHS_${i}_${j}.csv $CurrDir/GMJ_RHS_${i}_${j}.csv

      >>> COPY $WorkDir/GMJ_IVECW_${i}_${j}.csv $CurrDir/GMJ_IVECW_${i}_${j}.csv

      >>> COPY $WorkDir/GMJ_IVECX_${i}_${j}.csv $CurrDir/GMJ_IVECX_${i}_${j}.csv

      >>> COPY $WorkDir/GMJ_IVECC2_${i}_${j}.csv $CurrDir/GMJ_IVECC2_${i}_${j}.csv

      >>> COPY $WorkDir/GMJ_e2_${i}_${j}.csv $CurrDir/GMJ_e2_${i}_${j}.csv

    >>> END IF

  >>> END FOREACH

>>> END FOREACH

>>> FOREACH i IN (A,C,D)

  >>> IF (-FILE GMJ_e2_$i.csv)

    >>> COPY $WorkDir/GMJ_RHS_$i.csv $CurrDir/GMJ_RHS_$i.csv

    >>> COPY $WorkDir/GMJ_IVECW_$i.csv $CurrDir/GMJ_IVECW_$i.csv

    >>> COPY $WorkDir/GMJ_IVECX_$i.csv $CurrDir/GMJ_IVECX_$i.csv

    >>> COPY $WorkDir/GMJ_IVECC2_$i.csv $CurrDir/GMJ_IVECC2_$i.csv

    >>> COPY $WorkDir/GMJ_e2_$i.csv $CurrDir/GMJ_e2_$i.csv

  >>> END IF

>>> END FOREACH

-- ----------------------------------

--- Start Module: gateway at Sat Jan 25 14:08:10 2025 ---
 
()()()()()()()()()()()()()()()()()()()()()()()()()()()()()()()()()()()()()()()()()()()()()()()()()()

                                              &GATEWAY

                                   only a single process is used
                       available to each process: 2.0 GB of memory, 1 thread?
()()()()()()()()()()()()()()()()()()()()()()()()()()()()()()()()()()()()()()()()()()()()()()()()()()
 
 ###############################################################################
 ###############################################################################
 ###                                                                         ###
 ###                                                                         ###
 ###                                                                         ###
 ###    WARNING: EXPERT option is ON!                                        ###
 ###                                                                         ###
 ###                                                                         ###
 ###############################################################################
 ###############################################################################
 
++    Symmetry information:
      ---------------------
 
                    Character Table for C1 
 
                             E  
                    a        1  x, y, xy, Rz, z, xz, Ry, yz, Rx, I
--
 
 
++    Basis set information:
      ----------------------
 
 
      Basis set label: O.ANO-RCC...2S1P.
 
      Electronic valence basis set:
      ------------------
      Associated Effective Charge   8.000000 au
      Associated Actual Charge      8.000000 au
      Nuclear Model: Point charge
 
      Shell  nPrim  nBasis  Cartesian Spherical Contaminant
         s      14       2        X                  
         p       9       1        X                  
--
 
 
++    Molecular structure info:
      -------------------------
 
                    ************************************************ 
                    **** Cartesian Coordinates / Bohr, Angstrom **** 
                    ************************************************ 
 
     Center  Label                x              y              z                     x              y              z
        1      O1               0.486650       2.365531       0.000000              0.257524       1.251785       0.000000
        2      O2               0.000000       0.000000       0.000000              0.000000       0.000000       0.000000
        3      O3               0.486650      -2.365531       0.000000              0.257524      -1.251785       0.000000
 
                    *************************************** 
                    *    InterNuclear Distances / Bohr    * 
                    *************************************** 
 
               1 O1            2 O2            3 O3    
    1 O1       0.000000
    2 O2       2.415070        0.000000
    3 O3       4.731062        2.415070        0.000000
 
                    ******************************************* 
                    *    InterNuclear Distances / Angstrom    * 
                    ******************************************* 
 
               1 O1            2 O2            3 O3    
    1 O1       0.000000
    2 O2       1.278000        0.000000
    3 O3       2.503570        1.278000        0.000000
 
                    ************************************** 
                    *    Valence Bond Angles / Degree    * 
                    ************************************** 
                          Atom centers                 Phi
                      1 O1       2 O2       3 O3       156.75
--
 
 
            Nuclear Potential Energy             66.52814874 au
 
 ###############################################################################
 ###############################################################################
 ###                                                                         ###
 ###                                                                         ###
 ###    There were warnings during the execution                             ###
 ###    Please, check the output with care!                                  ###
 ###                                                                         ###
 ###                                                                         ###
 ###############################################################################
 ###############################################################################
--- Stop Module: gateway at Sat Jan 25 14:08:10 2025 /rc=_RC_ALL_IS_WELL_ ---
*** files: xmldump
    saved to directory /home/grierjones/DDCASPT2/ozone/ANO-RCC-MB/ozone_156.75

--- Start Module: seward at Sat Jan 25 14:08:10 2025 ---
 
()()()()()()()()()()()()()()()()()()()()()()()()()()()()()()()()()()()()()()()()()()()()()()()()()()

                                              &SEWARD

                                   only a single process is used
                       available to each process: 2.0 GB of memory, 1 thread?
()()()()()()()()()()()()()()()()()()()()()()()()()()()()()()()()()()()()()()()()()()()()()()()()()()
 
 ###############################################################################
 ###############################################################################
 ###                                                                         ###
 ###                                                                         ###
 ###                                                                         ###
 ###    WARNING: EXPERT option is ON!                                        ###
 ###                                                                         ###
 ###                                                                         ###
 ###############################################################################
 ###############################################################################
               SEWARD will generate:
                  Multipole Moment integrals up to order  2
                  Kinetic Energy integrals
                  Nuclear Attraction integrals (point charge)
                  One-Electron Hamiltonian integrals
                  Velocity integrals
                  Relativistic Douglas-Kroll-Hess integrals:
                    - Parametrization         : EXP
                    - DKH order of Hamiltonian: 2
                    - DKH order of Properties : 0
                         - multipole moment operators
                         - electric potential operators
                         - contact operators
                  Atomic mean-field integrals
                  Two-Electron Repulsion integrals
 
                   Integrals are discarded if absolute value <: 0.10E-13
                   Integral cutoff threshold is set to       <: 0.10E-15
 
            Nuclear Potential Energy             66.52814874 au
 
 
      Basis set specifications :
      Symmetry species         a  
      Basis functions           15
 
 
  Input file to MOLDEN was generated!
 
 ###############################################################################
 ###############################################################################
 ###                                                                         ###
 ###                                                                         ###
 ###    There were warnings during the execution                             ###
 ###    Please, check the output with care!                                  ###
 ###                                                                         ###
 ###                                                                         ###
 ###############################################################################
 ###############################################################################
forrtl: warning (525): IEEE_DIVIDE_BY_ZERO is signaling
forrtl: warning (526): IEEE_INVALID is signaling
forrtl: warning (528): IEEE_UNDERFLOW is signaling
--- Stop Module: seward at Sat Jan 25 14:08:10 2025 /rc=_RC_ALL_IS_WELL_ ---
*** files: ozone_156.75.GssOrb ozone_156.75.guessorb.h5 ozone_156.75.guessorb.molden xmldump
    saved to directory /home/grierjones/DDCASPT2/ozone/ANO-RCC-MB/ozone_156.75

*** symbolic link created: INPORB -> ozone_156.75.GssOrb
--- Start Module: scf at Sat Jan 25 14:08:10 2025 ---
 
()()()()()()()()()()()()()()()()()()()()()()()()()()()()()()()()()()()()()()()()()()()()()()()()()()

                                                &SCF

                                   only a single process is used
                       available to each process: 2.0 GB of memory, 1 thread?
()()()()()()()()()()()()()()()()()()()()()()()()()()()()()()()()()()()()()()()()()()()()()()()()()()
 
++    Input section:
      --------------
 
      Header of the integral files:
      
       Integrals generated by seward 4.2.0  , Sat Jan 25 14:08:10 2025
 
 
      Cartesian coordinates in Angstrom:
      -----------------------------------------------------
      No.  Label        X            Y            Z        
      -----------------------------------------------------
       1   O1         0.25752400   1.25178500   0.00000000
       2   O2         0.00000000   0.00000000   0.00000000
       3   O3         0.25752400  -1.25178500   0.00000000
      -----------------------------------------------------
      Nuclear repulsion energy =   66.52814874
--
 
++    Orbital specifications:
      -----------------------
 
      Symmetry species               1
                                     a
      Frozen orbitals                0
      Occupied orbitals             12
      Secondary orbitals             3
      Deleted orbitals               0
      Total number of orbitals      15
      Number of basis functions     15
--
 
      Molecular charge                           0.000
 
++    Optimization specifications:
      ----------------------------
 
      SCF Algorithm: Conventional
      Minimized density differences are used
      Number of density matrices in core                5
      Maximum number of NDDO SCF iterations           400
      Maximum number of HF SCF iterations             400
      Threshold for SCF energy change            0.10E-08
      Threshold for density matrix               0.10E-03
      Threshold for Fock matrix                  0.15E-03
      Threshold for linear dependence            0.10E-08
      Threshold at which DIIS is turned on       0.15E+00
      Threshold at which QNR/C2DIIS is turned on 0.75E-01
      Threshold for Norm(delta) (QNR/C2DIIS)     0.20E-04
      DIIS extrapolation of the SCF procedure
      All orbitals punched on: SCFORB
--
 
      Input vectors read from INPORB
      Orbital file label: *Guess orbitals
 
 
++ Convergence information
                                   SCF        iterations: Energy and convergence statistics
 
Iter     Tot. SCF        One-elec.       Two-elec.     Energy      Max Dij or  Max Fij      DNorm      TNorm      AccCon     Time
         Energy          Energy          Energy        Change      Delta Norm                                                in Sec.
   1  -223.922286192  -436.883689172   146.433254240   0.00E+00    0.53E+00*   0.26E+00*    0.73E+01   0.49E+02   None         0.
   2  -224.139168386  -439.707491372   149.040174247  -0.22E+00*   0.37E+00*   0.13E+00*    0.21E+01   0.49E+02   EDIIS        0.
   3  -224.184604256  -438.478885978   147.766132982  -0.45E-01*   0.14E+00*   0.74E-01*    0.49E+00   0.49E+02   EDIIS        0.
   4  -224.199742704  -439.213522029   148.485630586  -0.15E-01*   0.26E-01*   0.27E-01*    0.11E+00   0.49E+02   c2DIIS       0.
   5  -224.204979415  -438.967013294   148.233885139  -0.52E-02*   0.11E-01*   0.59E-02*    0.28E-01   0.49E+02   QNRc2DIIS    0.
   6  -224.205303445  -438.982681004   148.249228820  -0.32E-03*   0.24E-01*   0.38E-02*    0.72E-02   0.49E+02   QNRc2DIIS    0.
   7  -224.205550319  -438.976137852   148.242438794  -0.25E-03*   0.21E-02*   0.17E-02*    0.42E-02   0.49E+02   QNRc2DIIS    0.
   8  -224.205559938  -438.983107759   148.249399082  -0.96E-05*   0.14E-02*   0.43E-03*    0.17E-02   0.49E+02   QNRc2DIIS    0.
   9  -224.205561865  -438.982659886   148.248949282  -0.19E-05*   0.35E-03*   0.81E-04     0.12E-02   0.49E+02   QNRc2DIIS    0.
  10  -224.205561947  -438.982708388   148.248997701  -0.82E-07*   0.24E-04*   0.16E-04     0.18E-03   0.49E+02   QNRc2DIIS    0.
  11  -224.205561948  -438.982712271   148.249001583  -0.10E-08*   0.11E-04    0.51E-05     0.46E-04   0.49E+02   QNRc2DIIS    0.
  12  -224.205561949  -438.982701476   148.248990788  -0.13E-09    0.59E-06    0.43E-06     0.69E-05   0.49E+02   QNRc2DIIS    0.
 
       Convergence after 12 Macro Iterations
--
 
 *****************************************************************************************************************************
 *                                                                                                                           *
 *                                             SCF/KS-DFT Program, Final results                                             *
 *                                                                                                                           *
 *                                                                                                                           *
 *                                                                                                                           *
 *                                                       Final Results                                                       *
 *                                                                                                                           *
 *****************************************************************************************************************************
 
::    Total SCF energy                               -224.2055619486
      One-electron energy                            -438.9827014763
      Two-electron energy                             148.2489907883
      Nuclear repulsion energy                         66.5281487394
      Kinetic energy (interpolated)                   224.7395659704
      Virial theorem                                    0.9976238985
      Total spin, S(S+1)                                0.0000000000
      Total spin, S                                     0.0000000000
      Max non-diagonal density matrix element           0.0000010479
      Max non-diagonal Fock matrix element              0.0000001225
 
 
      All orbitals with orbital energies smaller than  E(LUMO)+0.5 are printed
 
++    Molecular orbitals:
      -------------------
 
      Title: SCF orbitals

      Molecular orbitals for symmetry species 1: a  
 
          Orbital            1         2         3         4         5         6         7         8         9        10    
          Energy          -21.0114  -20.8108  -20.8107   -1.7617   -1.5099   -1.1075   -0.8759   -0.8110   -0.8106   -0.6505
          Occ. No.          2.0000    2.0000    2.0000    2.0000    2.0000    2.0000    2.0000    2.0000    2.0000    2.0000
 
        1 O1     1s         0.0012   -0.7071    0.7071   -0.0159    0.0162    0.0133   -0.0072    0.0000   -0.0271    0.0052
        2 O1     2s        -0.0003   -0.0002    0.0000    0.3105   -0.5360    0.6518   -0.1277    0.0000   -0.4572    0.0756
        3 O1     2px       -0.0001    0.0002   -0.0002   -0.0239    0.0185    0.0462    0.2817    0.0000   -0.2013   -0.6745
        4 O1     2py        0.0001    0.0013   -0.0011   -0.1038    0.1059    0.1442   -0.1381    0.0000   -0.3767    0.2343
        5 O1     2pz       -0.0000   -0.0000   -0.0000   -0.0000   -0.0000    0.0000   -0.0000    0.3789    0.0000    0.0000
        6 O2     1s         1.0000    0.0000   -0.0019   -0.0239   -0.0000   -0.0142   -0.0025    0.0000    0.0000   -0.0000
        7 O2     2s         0.0001    0.0000   -0.0010    0.6602    0.0000   -0.6239   -0.0382    0.0000    0.0000   -0.0000
        8 O2     2px        0.0008    0.0000   -0.0001    0.0718    0.0000    0.0965    0.7669    0.0000   -0.0000   -0.0000
        9 O2     2py        0.0000    0.0007    0.0000    0.0000   -0.3589   -0.0000    0.0000   -0.0000    0.5876   -0.1243
       10 O2     2pz       -0.0000    0.0000    0.0000   -0.0000   -0.0000    0.0000   -0.0000    0.6951    0.0000   -0.0000
       11 O3     1s         0.0012    0.7071    0.7071   -0.0159   -0.0162    0.0133   -0.0072   -0.0000    0.0271   -0.0052
       12 O3     2s        -0.0003    0.0002    0.0000    0.3105    0.5360    0.6518   -0.1277   -0.0000    0.4572   -0.0756
       13 O3     2px       -0.0001   -0.0002   -0.0002   -0.0239   -0.0185    0.0462    0.2817   -0.0000    0.2013    0.6745
       14 O3     2py       -0.0001    0.0013    0.0011    0.1038    0.1059   -0.1442    0.1381    0.0000   -0.3767    0.2343
       15 O3     2pz       -0.0000   -0.0000    0.0000   -0.0000    0.0000   -0.0000   -0.0000    0.3789    0.0000   -0.0000
 
          Orbital           11        12        13        14    
          Energy           -0.5419   -0.5406   -0.0939    0.1358
          Occ. No.          2.0000    2.0000    0.0000    0.0000
 
        1 O1     1s         0.0029   -0.0000   -0.0000    0.0174
        2 O1     2s         0.0207   -0.0000   -0.0000    0.2420
        3 O1     2px        0.6687   -0.0000    0.0000   -0.0404
        4 O1     2py        0.0166   -0.0000    0.0000   -0.7584
        5 O1     2pz       -0.0000   -0.7168    0.6241    0.0000
        6 O2     1s         0.0141   -0.0000    0.0000   -0.0827
        7 O2     2s         0.1647   -0.0000    0.0000   -0.8480
        8 O2     2px       -0.6460    0.0000   -0.0000   -0.3060
        9 O2     2py        0.0000   -0.0000    0.0000    0.0000
       10 O2     2pz        0.0000    0.0000   -0.7820   -0.0000
       11 O3     1s         0.0029   -0.0000    0.0000    0.0174
       12 O3     2s         0.0207   -0.0000    0.0000    0.2420
       13 O3     2px        0.6687   -0.0000    0.0000   -0.0404
       14 O3     2py       -0.0166    0.0000   -0.0000    0.7584
       15 O3     2pz        0.0000    0.7168    0.6241   -0.0000
--
 
 
++    Molecular charges:
      ------------------
 
      Mulliken charges per centre and basis function type
      ---------------------------------------------------
 
                O1      O2      O3    
      1s       2.0001  2.0000  2.0001
      2s       1.9190  1.6880  1.9190
      2px      1.9692  1.9073  1.9692
      2pz      1.4058  1.1884  1.4058
      2py      0.7503  1.1273  0.7503
      Total    8.0445  7.9110  8.0445
 
      N-E     -0.0445  0.0890 -0.0445
 
      Total electronic charge=   24.000000
 
      Total            charge=   -0.000000
--
 
 
  Input file to MOLDEN was generated!
 
 
++    Static properties:
      ------------------
 
 
      LoProp Charges per center
 

                   O1       O2       O3    
      Nuclear      8.0000   8.0000   8.0000
      Electronic  -8.0924  -7.8151  -8.0924
 
      Total       -0.0924   0.1849  -0.0924
--
 
 
++    Natural Bond Order analysis
      ---------------------------
      Based on LoProp computed density
      -------------------------------------------------------------------------------------
      Atom A       Atom B       Bond Order | Atom A       Atom B       Bond Order
        O1           O2             2.000  |   O2           O3             2.000
      -------------------------------------------------------------------------------------
      NBO located     12.000 core electrons.
      NBO located      3.960 lone pair electrons.
      NBO located      8.000 electrons involved in    2 bonds.
      The remaining    0.040 electrons are to be considered as diffuse
--
 
 
++    Molecular properties:
      ---------------------
 
      Charge (e):
                      =   -0.0000
      Dipole Moment (Debye):
      Origin of the operator (Ang)=    0.0000    0.0000    0.0000
                   X=  1.4192E-01               Y=  1.2841E-11               Z= -9.4209E-14           Total=  1.4192E-01
      Quadrupole Moment (Debye*Ang):
      Origin of the operator (Ang)=    0.1717    0.0000    0.0000
                  XX= -1.7517E+01              XY=  2.8910E-12              XZ=  1.9991E-13              YY= -1.7894E+01
                  YZ= -3.1045E-13              ZZ= -1.5862E+01
      In traceless form (Debye*Ang)
                  XX= -6.3850E-01              XY=  4.3365E-12              XZ=  2.9987E-13              YY= -1.2049E+00
                  YZ= -4.6568E-13              ZZ=  1.8434E+00
--
 
 
  Input file to MOLDEN was generated!
 
 ###############################################################################
 ###############################################################################
 ###                                                                         ###
 ###                                                                         ###
 ###    RunFile label nBas                                                   ###
 ###    was used       78 times                                              ###
 ###                                                                         ###
 ###                                                                         ###
 ###############################################################################
 ###############################################################################
forrtl: warning (528): IEEE_UNDERFLOW is signaling
--- Stop Module: scf at Sat Jan 25 14:08:11 2025 /rc=_RC_ALL_IS_WELL_ ---
*** files: ozone_156.75.LprOrb ozone_156.75.LoProp.molden ozone_156.75.scf.molden ozone_156.75.ScfOrb ozone_156.75.scf.h5 xmldump
    saved to directory /home/grierjones/DDCASPT2/ozone/ANO-RCC-MB/ozone_156.75

>>> COPY /tmp/ozone_156.75/ozone_156.75.scf.h5 /home/grierjones/DDCASPT2/ozone/ANO-RCC-MB/ozone_156.75/

*** symbolic link created: INPORB -> ozone_156.75.ScfOrb
--- Start Module: rasscf at Sat Jan 25 14:08:11 2025 ---
 
()()()()()()()()()()()()()()()()()()()()()()()()()()()()()()()()()()()()()()()()()()()()()()()()()()

                                              &RASSCF

                                   only a single process is used
                       available to each process: 2.0 GB of memory, 1 thread?
()()()()()()()()()()()()()()()()()()()()()()()()()()()()()()()()()()()()()()()()()()()()()()()()()()
 
 
 *************** WARNING ****************
 ###############################################################################
 ###############################################################################
 ###                                                                         ###
 ###                                                                         ###
 ###    Too many macro-iterations.                                           ###
 ###                                                                         ###
 ###                                                                         ###
 ###############################################################################
 ###############################################################################
 Too many macro-iterations requested.
 Reset to maximum, new MAXIT=     200
 ****************************************
 
 *************** WARNING ****************
 ###############################################################################
 ###############################################################################
 ###                                                                         ###
 ###                                                                         ###
 ###    Too many SX-iterations.                                              ###
 ###                                                                         ###
 ###                                                                         ###
 ###############################################################################
 ###############################################################################
 Too many SX-iterations requested.
 Reset to maximum, new ITMAX=     100
 ****************************************
 
      Header of the ONEINT file:
      --------------------------
      
      Integrals generated by seward 4.2.0  , Sat Jan 25 14:08:10 2025
 
 
      OrdInt status: non-squared
 
 
      Cartesian coordinates in Angstrom:
      -----------------------------------------------------
      No.  Label        X            Y            Z        
      -----------------------------------------------------
       1   O1         0.25752400   1.25178500   0.00000000
       2   O2         0.00000000   0.00000000   0.00000000
       3   O3         0.25752400  -1.25178500   0.00000000
      -----------------------------------------------------
      Nuclear repulsion energy =   66.52814874
 
++    Wave function specifications:
      -----------------------------
 
      Number of closed shell electrons          20
      Number of electrons in active shells       4
      Max number of holes in RAS1 space          0
      Max nr of electrons in RAS3 space          0
      Number of inactive orbitals               10
      Number of active orbitals                  3
      Number of secondary orbitals               2
      Spin quantum number                      0.0
      State symmetry                             1
--
 
++    Orbital specifications:
      -----------------------
 
      Symmetry species                           1
                                                 a
      Frozen orbitals                            0
      Inactive orbitals                         10
      Active orbitals                            3
      RAS1 orbitals                              0
      RAS2 orbitals                              3
      RAS3 orbitals                              0
      Secondary orbitals                         2
      Deleted orbitals                           0
      Number of basis functions                 15
--
 
++    CI expansion specifications:
      ----------------------------
 
      Number of CSFs                             6
      Number of determinants                     6
      Number of root(s) required                 1
      Root chosen for geometry opt.              1
      CI root used                               1
         
      highest root included in the CI            1
      max. size of the explicit Hamiltonian      6
--
 
++    Optimization specifications:
      ----------------------------
 
      RASSCF algorithm: Conventional
      Maximum number of macro iterations       200
      Maximum number of SX iterations          100
      Threshold for RASSCF energy            0.100E-07
      Threshold for max MO rotation          0.100E+00
      Threshold for max BLB element          0.100E-03
      Level shift parameter                  0.500E+00
      Make Quasi-Newton update
--
 
      The MO-coefficients are taken from the file:
      /home/grierjones/DDCASPT2/ozone/ANO-RCC-MB/ozone_156.50/ozone_156.50.RasOrb                                                     
      Title: RASSCF average (pseudo-natural) orbitals                                      
 
      Total molecular charge    0.00
 
      ************************************************************************************************************************
      *                                                                                                                      *
      *                                            Wave function control section                                             *
      *                                                                                                                      *
      ************************************************************************************************************************
 
 
                                         RASSCF iterations: Energy and convergence statistics
                                         ----------------------------------------------------
 
      Iter CI   SX   CI       RASSCF       Energy    max ROT     max BLB   max BLB  Level Ln srch  Step   QN   Walltime
          iter iter root      energy       change     param      element    value   shift minimum  type update hh:mm:ss
 Nr of preliminary CI iterations:   1
        1   1    3    1  -224.30203943    0.00E+00   0.69E-03    9  15 1  0.18E-02*  0.25   0.00    SX    NO    0:00:00
        2   1    3    1  -224.30204323   -0.38E-05*  0.38E-03    7  14 1 -0.93E-03*  0.25   0.00    SX    NO    0:00:00
        3   1    3    1  -224.30204430   -0.11E-05*  0.26E-03    7  14 1 -0.62E-03*  0.25   0.00    SX    NO    0:00:00
        4   1    3    1  -224.30204470   -0.39E-06* -0.14E-03    7  14 1 -0.34E-03*  0.25   0.00    SX    NO    0:00:00
        5   1    2    1  -224.30204482   -0.12E-06*  0.27E-03    7  14 1 -0.22E-03*  0.25   1.67    QN   YES    0:00:00
        6   1    2    1  -224.30204489   -0.74E-07*  0.75E-04    8  15 1  0.89E-04   0.25   0.80    QN   YES    0:00:00
        7   1    2    1  -224.30204489    0.17E-08   0.16E-04    8  15 1 -0.99E-04   0.25   0.41    QN   YES    0:00:00
      Convergence after  7 iterations
 
  Dmat in MO in SXCTL bf call to SXHAM                                                                                    
  mat. size =     3x    3
 
        1.9853679122868593
       -0.0000000000001543      1.6594900028907960
        0.0011256004013792     -0.0000000000003668      0.3551420848223444
        8   1    2    1  -224.30204489   -0.30E-08   0.16E-04    8  15 1 -0.24E-04   0.25   0.41    QN   YES    0:00:00
 
      ************************************************************************************************************************
                                                      Wave function printout:
                       occupation of active orbitals, and spin coupling of open shells (u,d: Spin up or down)
      ************************************************************************************************************************
 
      Note: transformation to natural orbitals
      has been made, which may change the order of the CSFs.
 
      printout of CI-coefficients larger than  0.05 for root  1
      energy=    -224.302045
      conf/sym  111     Coeff  Weight
             1  220  -0.90688 0.82243
             3  202   0.41262 0.17025
             6  022   0.08553 0.00732
 
      Natural orbitals and occupation numbers for root  1
      sym 1:   1.985369   1.659490   0.355141
 
      ************************************************************************************************************************
      *                                                                                                                      *
      *                                                    Final results                                                     *
      *                                                                                                                      *
      ************************************************************************************************************************
 
 
++    Wave function specifications:
      -----------------------------
 
      Number of closed shell electrons          20
      Number of electrons in active shells       4
      Max number of holes in RAS1 space          0
      Max nr of electrons in RAS3 space          0
      Number of inactive orbitals               10
      Number of active orbitals                  3
      Number of secondary orbitals               2
      Spin quantum number                      0.0
      State symmetry                             1
--
 
++    Orbital specifications:
      -----------------------
 
      Symmetry species                           1
                                                 a
      Frozen orbitals                            0
      Inactive orbitals                         10
      Active orbitals                            3
      RAS1 orbitals                              0
      RAS2 orbitals                              3
      RAS3 orbitals                              0
      Secondary orbitals                         2
      Deleted orbitals                           0
      Number of basis functions                 15
--
 
++    CI expansion specifications:
      ----------------------------
 
      Number of CSFs                             6
      Number of determinants                     6
      Number of root(s) required                 1
      CI root used                               1
      highest root included in the CI            1
      Root passed to geometry opt.               1
--
 
++    Final optimization conditions:
      ------------------------------
 
      Average CI energy                            -224.30204489
      RASSCF energy for state  1                   -224.30204489
      Super-CI energy                                -0.00000001
      RASSCF energy change                           -0.00000000
      Max change in MO coefficients               0.143E-04
      Max non-diagonal density matrix element     0.165E-04
      Maximum BLB matrix element                 -0.241E-04
      (orbital pair   8,  15 in symmetry   1)
      Norm of electronic gradient            0.586E-04
--
 
 
      Final state energy(ies):
      ------------------------
 
::    RASSCF root number  1 Total energy:   -224.30204489
 
++    Molecular orbitals:
      -------------------
 
      Pseudonatural active orbitals and approximate occupation numbers
 
 
 
 
      Molecular orbitals for symmetry species 1: a  
 
 
      Orbital                1         2         3         4         5         6         7         8         9        10
      Energy          -20.8749  -20.8484  -20.8483   -1.7259   -1.5003   -1.1006   -0.8369   -0.8040   -0.6641   -0.5261
      Occ. No.          2.0000    2.0000    2.0000    2.0000    2.0000    2.0000    2.0000    2.0000    2.0000    2.0000
 
    1 O1     1s         0.0081   -0.7071    0.7071   -0.0149    0.0140    0.0139   -0.0058   -0.0246    0.0056    0.0025
    2 O1     2s        -0.0004   -0.0001   -0.0000    0.3458   -0.5625    0.6338   -0.0944   -0.4065    0.0830    0.0096
    3 O1     2px       -0.0002    0.0002   -0.0002   -0.0236    0.0165    0.0512    0.3655   -0.2343   -0.6653    0.6275
    4 O1     2py        0.0001    0.0012   -0.0011   -0.1104    0.1032    0.1766   -0.1483   -0.4086    0.2545    0.0636
    5 O1     2pz       -0.0000   -0.0000   -0.0000   -0.0000   -0.0000   -0.0000   -0.0000   -0.0000    0.0000   -0.0000
    6 O2     1s         1.0000    0.0000   -0.0117   -0.0263   -0.0000   -0.0100   -0.0034    0.0000   -0.0000    0.0183
    7 O2     2s         0.0006    0.0000   -0.0010    0.6134    0.0000   -0.6244   -0.0645   -0.0000   -0.0000    0.2265
    8 O2     2px        0.0011    0.0000   -0.0001    0.0742    0.0000    0.0574    0.6725   -0.0000    0.0000   -0.7249
    9 O2     2py       -0.0000    0.0006    0.0000    0.0000   -0.3153   -0.0000    0.0000    0.5358   -0.1338   -0.0000
   10 O2     2pz       -0.0000    0.0000    0.0000    0.0000   -0.0000    0.0000   -0.0000   -0.0000    0.0000    0.0000
   11 O3     1s         0.0081    0.7071    0.7071   -0.0149   -0.0140    0.0139   -0.0058    0.0246   -0.0056    0.0025
   12 O3     2s        -0.0004    0.0001   -0.0000    0.3458    0.5625    0.6338   -0.0944    0.4065   -0.0830    0.0096
   13 O3     2px       -0.0002   -0.0002   -0.0002   -0.0236   -0.0165    0.0512    0.3655    0.2343    0.6653    0.6275
   14 O3     2py       -0.0001    0.0012    0.0011    0.1104    0.1032   -0.1766    0.1483   -0.4086    0.2545   -0.0636
   15 O3     2pz        0.0000    0.0000    0.0000   -0.0000   -0.0000    0.0000   -0.0000   -0.0000   -0.0000   -0.0000
 
 
      Orbital               11        12        13        14        15
      Energy            0.0000    0.0000    0.0000    0.1310    0.5492
      Occ. No.          1.9854    1.6595    0.3551    0.0000    0.0000
 
    1 O1     1s         0.0000   -0.0000   -0.0000   -0.0184   -0.0550
    2 O1     2s        -0.0000   -0.0000   -0.0000   -0.2575   -0.5041
    3 O1     2px        0.0000   -0.0000    0.0000    0.0196    0.1728
    4 O1     2py       -0.0000    0.0000   -0.0000    0.7461    0.6512
    5 O1     2pz        0.2788   -0.7168    0.6748    0.0000   -0.0000
    6 O2     1s         0.0000    0.0000   -0.0000    0.0815   -0.0000
    7 O2     2s         0.0000    0.0000   -0.0000    0.8667   -0.0000
    8 O2     2px        0.0000   -0.0000   -0.0000    0.3564   -0.0000
    9 O2     2py        0.0000    0.0000    0.0000    0.0000    1.1202
   10 O2     2pz        0.8067    0.0000   -0.6663   -0.0000   -0.0000
   11 O3     1s        -0.0000   -0.0000    0.0000   -0.0184    0.0550
   12 O3     2s         0.0000    0.0000    0.0000   -0.2575    0.5041
   13 O3     2px        0.0000    0.0000    0.0000    0.0196   -0.1728
   14 O3     2py       -0.0000    0.0000    0.0000   -0.7461    0.6512
   15 O3     2pz        0.2788    0.7168    0.6748    0.0000   -0.0000
--
 
      Von Neumann Entropy (Root  1) =  0.67671
 

      Mulliken population analysis for root number:  1
      -----------------------------------------------
 
 
++    Molecular charges:
      ------------------
 
      Mulliken charges per centre and basis function type
      ---------------------------------------------------
 
                O1      O2      O3    
      1s       2.0001  2.0001  2.0001
      2s       1.9114  1.6435  1.9114
      2px      1.9753  1.8618  1.9753
      2pz      1.2147  1.5706  1.2147
      2py      0.8591  1.0028  0.8591
      Total    7.9606  8.0787  7.9606
 
      N-E      0.0394 -0.0787  0.0394
 
      Total electronic charge=   24.000000
 
      Total            charge=   -0.000000
--
 
 

      Expectation values of various properties for root number:  1
      -----------------------------------------------------------
 
 
++    Molecular properties:
      ---------------------
 
      Charge (e):
                      =   -0.0000
      Dipole Moment (Debye):
      Origin of the operator (Ang)=    0.0000    0.0000    0.0000
                   X=  4.5931E-01               Y=  9.1362E-12               Z= -3.4153E-14           Total=  4.5931E-01
      Quadrupole Moment (Debye*Ang):
      Origin of the operator (Ang)=    0.1717    0.0000    0.0000
                  XX= -1.7500E+01              XY=  2.8077E-12              XZ=  4.0727E-13              YY= -1.6972E+01
                  YZ= -2.1985E-13              ZZ= -1.5644E+01
      In traceless form (Debye*Ang)
                  XX= -1.1920E+00              XY=  4.2115E-12              XZ=  6.1091E-13              YY= -3.9989E-01
                  YZ= -3.2977E-13              ZZ=  1.5919E+00
--
 

      LoProp population analysis for root number:  1
      -----------------------------------------------
 
 
++    LoProp analysis:
      ----------------
 
 
 
  Input file to MOLDEN was generated!
 
 
++    Static properties:
      ------------------
 
 
      LoProp Charges per center
 

                   O1       O2       O3    
      Nuclear      8.0000   8.0000   8.0000
      Electronic  -7.9962  -8.0075  -7.9962
 
      Total        0.0038  -0.0075   0.0038
--
 
 
      Natural Bond Order analysis for root number:  1
 
++    Natural Bond Order analysis
      ---------------------------
      Based on LoProp computed density
      -------------------------------------------------------------------------------------
      Atom A       Atom B       Bond Order | Atom A       Atom B       Bond Order
        O1           O2             1.963  |   O2           O3             1.963
      -------------------------------------------------------------------------------------
      NBO located     12.000 core electrons.
      NBO located      3.958 lone pair electrons.
      NBO located      7.851 electrons involved in    2 bonds.
      The remaining    0.192 electrons are to be considered as diffuse
--
 
--
 
 
  Input file to MOLDEN was generated!
 
      Average orbitals are written to the RASORB file
      Natural orbitals for root   1 are written to the RASORB.1 file
      Spin density orbitals for root   1 are written to the SPDORB.1 file
 
forrtl: warning (525): IEEE_DIVIDE_BY_ZERO is signaling
forrtl: warning (526): IEEE_INVALID is signaling
forrtl: warning (528): IEEE_UNDERFLOW is signaling
--- Stop Module: rasscf at Sat Jan 25 14:08:11 2025 /rc=_RC_ALL_IS_WELL_ ---
*** files: ozone_156.75.LprOrb ozone_156.75.rasscf.molden ozone_156.75.LoProp.molden ozone_156.75.RasOrb ozone_156.75.RasOrb.1 ozone_156.75.rasscf.h5 ozone_156.75.SpdOrb.1 xmldump
    saved to directory /home/grierjones/DDCASPT2/ozone/ANO-RCC-MB/ozone_156.75

>>> COPY /tmp/ozone_156.75/ozone_156.75.rasscf.h5 /home/grierjones/DDCASPT2/ozone/ANO-RCC-MB/ozone_156.75/

>>> COPY /tmp/ozone_156.75/GMJ_Fock_MO.csv /home/grierjones/DDCASPT2/ozone/ANO-RCC-MB/ozone_156.75/ozone_156.75.GMJ_Fock_MO.csv

>>> COPY /tmp/ozone_156.75/GMJ_PT2_Fock_MO.csv /home/grierjones/DDCASPT2/ozone/ANO-RCC-MB/ozone_156.75/ozone_156.75.GMJ_PT2_Fock_MO.csv

*** symbolic link created: INPORB -> ozone_156.75.RasOrb
--- Start Module: motra at Sat Jan 25 14:08:11 2025 ---
 
()()()()()()()()()()()()()()()()()()()()()()()()()()()()()()()()()()()()()()()()()()()()()()()()()()

                                               &MOTRA

                                   only a single process is used
                       available to each process: 2.0 GB of memory, 1 thread?
()()()()()()()()()()()()()()()()()()()()()()()()()()()()()()()()()()()()()()()()()()()()()()()()()()
 
 
      *** WARNING: Default frozen orbitals is overwritten by user input.
      *** Default values:   3
 
      Header of the integral files:
      
       Integrals generated by seward 4.2.0  , Sat Jan 25 14:08:10 2025
 
 
      Header of MO coefficients source file:
      * RASSCF average (pseudo-natural) orbitals                                      
 
 
      Cartesian coordinates in Angstrom:
      -----------------------------------------------------
      No.  Label        X            Y            Z        
      -----------------------------------------------------
       1   O1         0.25752400   1.25178500   0.00000000
       2   O2         0.00000000   0.00000000   0.00000000
       3   O3         0.25752400  -1.25178500   0.00000000
      -----------------------------------------------------
      Nuclear repulsion energy =   66.52814874
 
      Orbital specifications:
      -----------------------
 
      Symmetry species:              1
      Number of basis functions:    15
      Frozen orbitals:               0
      Deleted orbitals:              0
      Number of orbitals used:      15

       SYMMETRY  BASIS FUNCTIONS       ORBITALS      INTEGRALS   CPU(SEC)  I/O(SEC)
 
        1 1 1 1   15  15  15  15    15  15  15  15        7260       0.00      0.00

       TOTAL CPU TIME(SEC)    0.01TOTAL I/O TIME(SEC)    0.01
 
--- Stop Module: motra at Sat Jan 25 14:08:11 2025 /rc=_RC_ALL_IS_WELL_ ---
*** files: xmldump
    saved to directory /home/grierjones/DDCASPT2/ozone/ANO-RCC-MB/ozone_156.75

>>> COPY /tmp/ozone_156.75/GMJ_one_int_indx.csv /home/grierjones/DDCASPT2/ozone/ANO-RCC-MB/ozone_156.75/ozone_156.75.GMJ_one_int_indx.csv

>>> COPY /tmp/ozone_156.75/GMJ_one_int.csv /home/grierjones/DDCASPT2/ozone/ANO-RCC-MB/ozone_156.75/ozone_156.75.GMJ_one_int.csv

>>> COPY /tmp/ozone_156.75/GMJ_two_int_indx.csv /home/grierjones/DDCASPT2/ozone/ANO-RCC-MB/ozone_156.75/ozone_156.75.GMJ_two_int_indx.csv

>>> COPY /tmp/ozone_156.75/GMJ_two_int.csv /home/grierjones/DDCASPT2/ozone/ANO-RCC-MB/ozone_156.75/ozone_156.75.GMJ_two_int.csv

*** symbolic link created: INPORB -> ozone_156.75.RasOrb
--- Start Module: caspt2 at Sat Jan 25 14:08:11 2025 ---
 
()()()()()()()()()()()()()()()()()()()()()()()()()()()()()()()()()()()()()()()()()()()()()()()()()()

                                              &CASPT2

                                   only a single process is used
                       available to each process: 2.0 GB of memory, 1 thread?
()()()()()()()()()()()()()()()()()()()()()()()()()()()()()()()()()()()()()()()()()()()()()()()()()()
 
 Cholesky algorithm in CASPT2 =    1
 
 ###############################################################################
 ###############################################################################
 ###                                                                         ###
 ###                                                                         ###
 ###    User changed nr of frozen orbitals.                                  ###
 ###                                                                         ###
 ###                                                                         ###
 ###############################################################################
 ###############################################################################
 
++    Wave function specifications:
      -----------------------------
 
      Number of closed shell electrons          20
      Number of electrons in active shells       4
      Max number of holes in RAS1 space          0
      Max number of electrons in RAS3 space      0
      Number of inactive orbitals               10
      Number of active orbitals                  3
      Number of secondary orbitals               2
      Spin quantum number                      0.0
      State symmetry                             1
      Number of CSFs                             6
      Number of root(s) available                1
      Root passed to geometry opt.               1
      A file JOBMIX will be created.
      This is a CASSCF or RASSCF reference function
--
 
++    Orbital specifications:
      -----------------------
 
      Symmetry species                           1
                                                 a
      Frozen orbitals                            0
      Inactive orbitals                         10
      Active orbitals                            3
      Secondary orbitals                         2
      Deleted orbitals                           0
      Number of basis functions                 15
--
 
      Type of Fock operator: STANDARD
      Type of 0-order Hamiltonian: STANDARD WITH DEFAULT IPEA
        "IP-EA" denominator shift =      0.25
      The input orbitals and the CI vector will be transformed.
 
--------------------------------------------------------------------------------
 Estimated memory requirements:
  POLY3 :                   250202
  RHS:                      251368
  SIGMA :                   251440
  PRPCTL:                        0
 Available workspace:    230399382
 
++ CASPT2 computation for group   1
 
********************************************************************************
 Multi-State initialization phase begins for group   1
--------------------------------------------------------------------------------
********************************************************************************
 Compute H0 matrices for state    1
--------------------------------------------------------------------------------
--------------------------------------------------------------------------------
 H0 matrices have been computed.
 
********************************************************************************
  CASPT2 EQUATION SOLUTION
--------------------------------------------------------------------------------
 
  Total nr of CASPT2 parameters:
   Before reduction:        2100
   After  reduction:        1232
 
 The contributions to the second order correlation energy in atomic units.
-----------------------------------------------------------------------------------------------------------------------------
  IT.      VJTU        VJTI        ATVX        AIVX        VJAI        BVAT        BJAT        BJAI        TOTAL       RNORM  
-----------------------------------------------------------------------------------------------------------------------------
-------------------------------------------------------------------------------------------------------------------
 
  FINAL CASPT2 RESULT:
 
  Correlation energy /Case, /Symm, and sums:
 VJTU     -0.00000000 -0.00000000
 VJTIP    -0.00112784 -0.00112784
 VJTIM     0.00000000  0.00000000
 ATVX     -0.00000000 -0.00000000
 AIVX     -0.05281106 -0.05281106
 VJAIP    -0.00000000 -0.00000000
 VJAIM    -0.00000000 -0.00000000
 BVATP    -0.00059003 -0.00059003
 BVATM    -0.00000340 -0.00000340
 BJATP    -0.00000000 -0.00000000
 BJATM    -0.00000000 -0.00000000
 BJAIP    -0.03916070 -0.03916070
 BJAIM    -0.00670745 -0.00670745
 Summed:  -0.10040047 -0.10040047
 
      Reference energy:        -224.3020448927
      E2 (Non-variational):      -0.1004004735
      E2 (Variational):          -0.1004004735
      Total energy:            -224.4024453662
      Residual norm:              0.0000000002
      Reference weight:           0.95072
 
      Contributions to the CASPT2 correlation energy
      Active & Virtual Only:         -0.0005934297
      One Inactive Excited:          -0.0528110617
      Two Inactive Excited:          -0.0469959821
 
 
++ Denominators, etc.
----------------------------------------------------------------------------------------------------
 Report on small energy denominators, large coefficients, and large energy contributions.
CASE  SYMM ACTIVE-MIX  NON-ACTIVE INDICES          DENOMINATOR     RHS VALUE       COEFFICIENT     CONTRIBUTION
VJTU     1  Mu1.0001  In1.010                       0.29988722      0.00000000     -0.00000000     -0.00000000
AIVX     1  Mu1.0006  In1.004 Se1.014               2.58134131      0.07690442     -0.02979244     -0.00229117
AIVX     1  Mu1.0003  In1.005 Se1.014               1.99761685     -0.05515098      0.02760839     -0.00152263
AIVX     1  Mu1.0004  In1.006 Se1.014               1.79726458      0.06476724     -0.03603675     -0.00233400
AIVX     1  Mu1.0006  In1.006 Se1.014               1.95604560     -0.06038435      0.03087066     -0.00186411
AIVX     1  Mu1.0004  In1.007 Se1.014               1.53355039     -0.05210377      0.03397606     -0.00177028
AIVX     1  Mu1.0002  In1.008 Se1.014               1.21259564     -0.10146517      0.08367601     -0.00849020
AIVX     1  Mu1.0003  In1.008 Se1.014               1.30134654      0.05851537     -0.04496525     -0.00263116
AIVX     1  Mu1.0002  In1.009 Se1.014               1.07271144      0.05461291     -0.05091109     -0.00278040
AIVX     1  Mu1.0003  In1.009 Se1.014               1.16146234     -0.03599246      0.03098892     -0.00111537
AIVX     1  Mu1.0004  In1.005 Se1.015               2.61512894      0.07151009     -0.02734484     -0.00195543
AIVX     1  Mu1.0001  In1.008 Se1.015               1.28573469      0.03645402     -0.02835069     -0.00103350
AIVX     1  Mu1.0004  In1.008 Se1.015               1.91885863     -0.12283042      0.06401244     -0.00786268
AIVX     1  Mu1.0006  In1.008 Se1.015               2.07763966      0.07549805     -0.03633842     -0.00274348
AIVX     1  Mu1.0002  In1.010 Se1.015               1.35286177      0.04260717     -0.03149410     -0.00134187
BJAIP    1  Se1.014 In1.006 Se1.014 In1.006         2.46317698      0.07402001     -0.03005059     -0.00222434
BJAIP    1  Se1.014 In1.006 Se1.015 In1.008         2.58477104     -0.08608311      0.03330390     -0.00286690
BJAIP    1  Se1.014 In1.008 Se1.014 In1.008         1.87001603      0.09165106     -0.04901084     -0.00449190
BJAIP    1  Se1.015 In1.008 Se1.015 In1.008         2.70636509      0.10925109     -0.04036811     -0.00441026
BJAIP    1  Se1.014 In1.008 Se1.014 In1.009         1.73013183     -0.05480339      0.03167585     -0.00173594
BJAIP    1  Se1.014 In1.009 Se1.014 In1.009         1.59024763      0.04101573     -0.02579204     -0.00105788
BJAIP    1  Se1.014 In1.008 Se1.015 In1.010         2.01028216     -0.05909606      0.02939683     -0.00173724
BJAIM    1  Se1.014 In1.006 Se1.014 In1.008         2.58477104     -0.08918077      0.03450229     -0.00307694
--
 
   (Skipping property calculation,
    use PROP keyword to activate)
--
 
  Total CASPT2 energies:
::    CASPT2 Root  1     Total energy:   -224.40244537
 
  A NEW JOBIPH FILE NAMED 'JOBMIX' IS PREPARED.
********************************************************************************
forrtl: warning (528): IEEE_UNDERFLOW is signaling
--- Stop Module: caspt2 at Sat Jan 25 14:08:11 2025 /rc=_RC_ALL_IS_WELL_ ---
*** files: xmldump
    saved to directory /home/grierjones/DDCASPT2/ozone/ANO-RCC-MB/ozone_156.75

>>> EXPORT i = B

>>> EXPORT j = P

>>> IF (-FILE GMJ_e2_${i}_${j}.csv)

>>> COPY /tmp/ozone_156.75/GMJ_RHS_B_P.csv /home/grierjones/DDCASPT2/ozone/ANO-RCC-MB/ozone_156.75/GMJ_RHS_B_P.csv

>>> COPY /tmp/ozone_156.75/GMJ_IVECW_B_P.csv /home/grierjones/DDCASPT2/ozone/ANO-RCC-MB/ozone_156.75/GMJ_IVECW_B_P.csv

>>> COPY /tmp/ozone_156.75/GMJ_IVECX_B_P.csv /home/grierjones/DDCASPT2/ozone/ANO-RCC-MB/ozone_156.75/GMJ_IVECX_B_P.csv

>>> COPY /tmp/ozone_156.75/GMJ_IVECC2_B_P.csv /home/grierjones/DDCASPT2/ozone/ANO-RCC-MB/ozone_156.75/GMJ_IVECC2_B_P.csv

>>> COPY /tmp/ozone_156.75/GMJ_e2_B_P.csv /home/grierjones/DDCASPT2/ozone/ANO-RCC-MB/ozone_156.75/GMJ_e2_B_P.csv

>>> END FOREACH

>>> EXPORT j = M

>>> IF (-FILE GMJ_e2_${i}_${j}.csv)
(Skipped)

>>> END FOREACH

>>> END FOREACH

>>> EXPORT i = E

>>> EXPORT j = P

>>> IF (-FILE GMJ_e2_${i}_${j}.csv)

>>> COPY /tmp/ozone_156.75/GMJ_RHS_E_P.csv /home/grierjones/DDCASPT2/ozone/ANO-RCC-MB/ozone_156.75/GMJ_RHS_E_P.csv

>>> COPY /tmp/ozone_156.75/GMJ_IVECW_E_P.csv /home/grierjones/DDCASPT2/ozone/ANO-RCC-MB/ozone_156.75/GMJ_IVECW_E_P.csv

>>> COPY /tmp/ozone_156.75/GMJ_IVECX_E_P.csv /home/grierjones/DDCASPT2/ozone/ANO-RCC-MB/ozone_156.75/GMJ_IVECX_E_P.csv

>>> COPY /tmp/ozone_156.75/GMJ_IVECC2_E_P.csv /home/grierjones/DDCASPT2/ozone/ANO-RCC-MB/ozone_156.75/GMJ_IVECC2_E_P.csv

>>> COPY /tmp/ozone_156.75/GMJ_e2_E_P.csv /home/grierjones/DDCASPT2/ozone/ANO-RCC-MB/ozone_156.75/GMJ_e2_E_P.csv

>>> END FOREACH

>>> EXPORT j = M

>>> IF (-FILE GMJ_e2_${i}_${j}.csv)

>>> COPY /tmp/ozone_156.75/GMJ_RHS_E_M.csv /home/grierjones/DDCASPT2/ozone/ANO-RCC-MB/ozone_156.75/GMJ_RHS_E_M.csv

>>> COPY /tmp/ozone_156.75/GMJ_IVECW_E_M.csv /home/grierjones/DDCASPT2/ozone/ANO-RCC-MB/ozone_156.75/GMJ_IVECW_E_M.csv

>>> COPY /tmp/ozone_156.75/GMJ_IVECX_E_M.csv /home/grierjones/DDCASPT2/ozone/ANO-RCC-MB/ozone_156.75/GMJ_IVECX_E_M.csv

>>> COPY /tmp/ozone_156.75/GMJ_IVECC2_E_M.csv /home/grierjones/DDCASPT2/ozone/ANO-RCC-MB/ozone_156.75/GMJ_IVECC2_E_M.csv

>>> COPY /tmp/ozone_156.75/GMJ_e2_E_M.csv /home/grierjones/DDCASPT2/ozone/ANO-RCC-MB/ozone_156.75/GMJ_e2_E_M.csv

>>> END FOREACH

>>> END FOREACH

>>> EXPORT i = F

>>> EXPORT j = P

>>> IF (-FILE GMJ_e2_${i}_${j}.csv)

>>> COPY /tmp/ozone_156.75/GMJ_RHS_F_P.csv /home/grierjones/DDCASPT2/ozone/ANO-RCC-MB/ozone_156.75/GMJ_RHS_F_P.csv

>>> COPY /tmp/ozone_156.75/GMJ_IVECW_F_P.csv /home/grierjones/DDCASPT2/ozone/ANO-RCC-MB/ozone_156.75/GMJ_IVECW_F_P.csv

>>> COPY /tmp/ozone_156.75/GMJ_IVECX_F_P.csv /home/grierjones/DDCASPT2/ozone/ANO-RCC-MB/ozone_156.75/GMJ_IVECX_F_P.csv

>>> COPY /tmp/ozone_156.75/GMJ_IVECC2_F_P.csv /home/grierjones/DDCASPT2/ozone/ANO-RCC-MB/ozone_156.75/GMJ_IVECC2_F_P.csv

>>> COPY /tmp/ozone_156.75/GMJ_e2_F_P.csv /home/grierjones/DDCASPT2/ozone/ANO-RCC-MB/ozone_156.75/GMJ_e2_F_P.csv

>>> END FOREACH

>>> EXPORT j = M

>>> IF (-FILE GMJ_e2_${i}_${j}.csv)

>>> COPY /tmp/ozone_156.75/GMJ_RHS_F_M.csv /home/grierjones/DDCASPT2/ozone/ANO-RCC-MB/ozone_156.75/GMJ_RHS_F_M.csv

>>> COPY /tmp/ozone_156.75/GMJ_IVECW_F_M.csv /home/grierjones/DDCASPT2/ozone/ANO-RCC-MB/ozone_156.75/GMJ_IVECW_F_M.csv

>>> COPY /tmp/ozone_156.75/GMJ_IVECX_F_M.csv /home/grierjones/DDCASPT2/ozone/ANO-RCC-MB/ozone_156.75/GMJ_IVECX_F_M.csv

>>> COPY /tmp/ozone_156.75/GMJ_IVECC2_F_M.csv /home/grierjones/DDCASPT2/ozone/ANO-RCC-MB/ozone_156.75/GMJ_IVECC2_F_M.csv

>>> COPY /tmp/ozone_156.75/GMJ_e2_F_M.csv /home/grierjones/DDCASPT2/ozone/ANO-RCC-MB/ozone_156.75/GMJ_e2_F_M.csv

>>> END FOREACH

>>> END FOREACH

>>> EXPORT i = G

>>> EXPORT j = P

>>> IF (-FILE GMJ_e2_${i}_${j}.csv)

>>> COPY /tmp/ozone_156.75/GMJ_RHS_G_P.csv /home/grierjones/DDCASPT2/ozone/ANO-RCC-MB/ozone_156.75/GMJ_RHS_G_P.csv

>>> COPY /tmp/ozone_156.75/GMJ_IVECW_G_P.csv /home/grierjones/DDCASPT2/ozone/ANO-RCC-MB/ozone_156.75/GMJ_IVECW_G_P.csv

>>> COPY /tmp/ozone_156.75/GMJ_IVECX_G_P.csv /home/grierjones/DDCASPT2/ozone/ANO-RCC-MB/ozone_156.75/GMJ_IVECX_G_P.csv

>>> COPY /tmp/ozone_156.75/GMJ_IVECC2_G_P.csv /home/grierjones/DDCASPT2/ozone/ANO-RCC-MB/ozone_156.75/GMJ_IVECC2_G_P.csv

>>> COPY /tmp/ozone_156.75/GMJ_e2_G_P.csv /home/grierjones/DDCASPT2/ozone/ANO-RCC-MB/ozone_156.75/GMJ_e2_G_P.csv

>>> END FOREACH

>>> EXPORT j = M

>>> IF (-FILE GMJ_e2_${i}_${j}.csv)

>>> COPY /tmp/ozone_156.75/GMJ_RHS_G_M.csv /home/grierjones/DDCASPT2/ozone/ANO-RCC-MB/ozone_156.75/GMJ_RHS_G_M.csv

>>> COPY /tmp/ozone_156.75/GMJ_IVECW_G_M.csv /home/grierjones/DDCASPT2/ozone/ANO-RCC-MB/ozone_156.75/GMJ_IVECW_G_M.csv

>>> COPY /tmp/ozone_156.75/GMJ_IVECX_G_M.csv /home/grierjones/DDCASPT2/ozone/ANO-RCC-MB/ozone_156.75/GMJ_IVECX_G_M.csv

>>> COPY /tmp/ozone_156.75/GMJ_IVECC2_G_M.csv /home/grierjones/DDCASPT2/ozone/ANO-RCC-MB/ozone_156.75/GMJ_IVECC2_G_M.csv

>>> COPY /tmp/ozone_156.75/GMJ_e2_G_M.csv /home/grierjones/DDCASPT2/ozone/ANO-RCC-MB/ozone_156.75/GMJ_e2_G_M.csv

>>> END FOREACH

>>> END FOREACH

>>> EXPORT i = H

>>> EXPORT j = P

>>> IF (-FILE GMJ_e2_${i}_${j}.csv)

>>> COPY /tmp/ozone_156.75/GMJ_RHS_H_P.csv /home/grierjones/DDCASPT2/ozone/ANO-RCC-MB/ozone_156.75/GMJ_RHS_H_P.csv

>>> COPY /tmp/ozone_156.75/GMJ_IVECW_H_P.csv /home/grierjones/DDCASPT2/ozone/ANO-RCC-MB/ozone_156.75/GMJ_IVECW_H_P.csv

>>> COPY /tmp/ozone_156.75/GMJ_IVECX_H_P.csv /home/grierjones/DDCASPT2/ozone/ANO-RCC-MB/ozone_156.75/GMJ_IVECX_H_P.csv

>>> COPY /tmp/ozone_156.75/GMJ_IVECC2_H_P.csv /home/grierjones/DDCASPT2/ozone/ANO-RCC-MB/ozone_156.75/GMJ_IVECC2_H_P.csv

>>> COPY /tmp/ozone_156.75/GMJ_e2_H_P.csv /home/grierjones/DDCASPT2/ozone/ANO-RCC-MB/ozone_156.75/GMJ_e2_H_P.csv

>>> END FOREACH

>>> EXPORT j = M

>>> IF (-FILE GMJ_e2_${i}_${j}.csv)

>>> COPY /tmp/ozone_156.75/GMJ_RHS_H_M.csv /home/grierjones/DDCASPT2/ozone/ANO-RCC-MB/ozone_156.75/GMJ_RHS_H_M.csv

>>> COPY /tmp/ozone_156.75/GMJ_IVECW_H_M.csv /home/grierjones/DDCASPT2/ozone/ANO-RCC-MB/ozone_156.75/GMJ_IVECW_H_M.csv

>>> COPY /tmp/ozone_156.75/GMJ_IVECX_H_M.csv /home/grierjones/DDCASPT2/ozone/ANO-RCC-MB/ozone_156.75/GMJ_IVECX_H_M.csv

>>> COPY /tmp/ozone_156.75/GMJ_IVECC2_H_M.csv /home/grierjones/DDCASPT2/ozone/ANO-RCC-MB/ozone_156.75/GMJ_IVECC2_H_M.csv

>>> COPY /tmp/ozone_156.75/GMJ_e2_H_M.csv /home/grierjones/DDCASPT2/ozone/ANO-RCC-MB/ozone_156.75/GMJ_e2_H_M.csv

>>> END FOREACH

>>> END FOREACH

>>> EXPORT i = A

>>> IF (-FILE GMJ_e2_$i.csv)

>>> COPY /tmp/ozone_156.75/GMJ_RHS_A.csv /home/grierjones/DDCASPT2/ozone/ANO-RCC-MB/ozone_156.75/GMJ_RHS_A.csv

>>> COPY /tmp/ozone_156.75/GMJ_IVECW_A.csv /home/grierjones/DDCASPT2/ozone/ANO-RCC-MB/ozone_156.75/GMJ_IVECW_A.csv

>>> COPY /tmp/ozone_156.75/GMJ_IVECX_A.csv /home/grierjones/DDCASPT2/ozone/ANO-RCC-MB/ozone_156.75/GMJ_IVECX_A.csv

>>> COPY /tmp/ozone_156.75/GMJ_IVECC2_A.csv /home/grierjones/DDCASPT2/ozone/ANO-RCC-MB/ozone_156.75/GMJ_IVECC2_A.csv

>>> COPY /tmp/ozone_156.75/GMJ_e2_A.csv /home/grierjones/DDCASPT2/ozone/ANO-RCC-MB/ozone_156.75/GMJ_e2_A.csv

>>> END FOREACH

>>> EXPORT i = C

>>> IF (-FILE GMJ_e2_$i.csv)

>>> COPY /tmp/ozone_156.75/GMJ_RHS_C.csv /home/grierjones/DDCASPT2/ozone/ANO-RCC-MB/ozone_156.75/GMJ_RHS_C.csv

>>> COPY /tmp/ozone_156.75/GMJ_IVECW_C.csv /home/grierjones/DDCASPT2/ozone/ANO-RCC-MB/ozone_156.75/GMJ_IVECW_C.csv

>>> COPY /tmp/ozone_156.75/GMJ_IVECX_C.csv /home/grierjones/DDCASPT2/ozone/ANO-RCC-MB/ozone_156.75/GMJ_IVECX_C.csv

>>> COPY /tmp/ozone_156.75/GMJ_IVECC2_C.csv /home/grierjones/DDCASPT2/ozone/ANO-RCC-MB/ozone_156.75/GMJ_IVECC2_C.csv

>>> COPY /tmp/ozone_156.75/GMJ_e2_C.csv /home/grierjones/DDCASPT2/ozone/ANO-RCC-MB/ozone_156.75/GMJ_e2_C.csv

>>> END FOREACH

>>> EXPORT i = D

>>> IF (-FILE GMJ_e2_$i.csv)

>>> COPY /tmp/ozone_156.75/GMJ_RHS_D.csv /home/grierjones/DDCASPT2/ozone/ANO-RCC-MB/ozone_156.75/GMJ_RHS_D.csv

>>> COPY /tmp/ozone_156.75/GMJ_IVECW_D.csv /home/grierjones/DDCASPT2/ozone/ANO-RCC-MB/ozone_156.75/GMJ_IVECW_D.csv

>>> COPY /tmp/ozone_156.75/GMJ_IVECX_D.csv /home/grierjones/DDCASPT2/ozone/ANO-RCC-MB/ozone_156.75/GMJ_IVECX_D.csv

>>> COPY /tmp/ozone_156.75/GMJ_IVECC2_D.csv /home/grierjones/DDCASPT2/ozone/ANO-RCC-MB/ozone_156.75/GMJ_IVECC2_D.csv

>>> COPY /tmp/ozone_156.75/GMJ_e2_D.csv /home/grierjones/DDCASPT2/ozone/ANO-RCC-MB/ozone_156.75/GMJ_e2_D.csv

>>> END FOREACH

.########################.
.# Non-zero return code #.
.########################.

    Timing: Wall=1.04 User=0.73 System=0.30
********************************************
*** WorkDir at /tmp/ozone_156.75 cleaned ***
********************************************
