[Molden Format]
[N_Atoms]
                     2
[Atoms] (AU)
F1          1      9           0.00000000      0.00000000      0.00000000
O2          2      8           0.00000000      0.00000000      3.59047964
[Charge] (Mulliken)
 -1.749898336411349E-002
  1.749898336405131E-002
[GTO] (AU)
   1
   s  14
  1.031094600E+05  1.713099991E-04
  1.528100700E+04  7.123999962E-04
  3.441539200E+03  2.990479984E-03
  9.670948300E+02  1.164036994E-02
  3.140353400E+02  3.968642979E-02
  1.134423000E+02  1.128546094E-01
  4.464472700E+01  2.473650687E-01
  1.894287400E+01  3.672702681E-01
  8.532743000E+00  2.896286985E-01
  3.919401000E+00  7.786681959E-02
  1.568157000E+00  4.562139976E-03
  6.232900000E-01  2.468879987E-03
  2.408610000E-01  1.106309994E-03
  8.430100000E-02  1.739699991E-04
   s  14
  1.031094600E+05 -4.044999995E-05
  1.528100700E+04 -1.682299998E-04
  3.441539200E+03 -7.084299991E-04
  9.670948300E+02 -2.767999996E-03
  3.140353400E+02 -9.611379987E-03
  1.134423000E+02 -2.833957996E-02
  4.464472700E+01 -6.839343991E-02
  1.894287400E+01 -1.237379298E-01
  8.532743000E+00 -1.512859698E-01
  3.919401000E+00 -9.099909988E-03
  1.568157000E+00  3.716257695E-01
  6.232900000E-01  5.500214393E-01
  2.408610000E-01  2.092318697E-01
  8.430100000E-02  8.074639989E-03
   p   9
  2.453302900E+02  1.024860004E-03
  5.691900500E+01  8.344290032E-03
  1.760456800E+01  4.078927016E-02
  6.274995000E+00  1.351370605E-01
  2.447030000E+00  2.798830811E-01
  9.950600000E-01  3.597966414E-01
  4.039730000E-01  3.055347412E-01
  1.548100000E-01  1.354703905E-01
  5.418400000E-02  2.804449011E-02
 
   2
   s  14
  1.053749500E+05  1.238600013E-04
  1.567924000E+04  5.120100053E-04
  3.534544700E+03  2.152910022E-03
  9.873651600E+02  8.528440089E-03
  3.159787500E+02  3.018049031E-02
  1.116542800E+02  9.099702095E-02
  4.269945100E+01  2.177936423E-01
  1.739559600E+01  3.686245738E-01
  7.438309000E+00  3.366707335E-01
  3.222862000E+00  9.657630101E-02
  1.253877000E+00  2.144520022E-03
  4.951550000E-01  1.194350012E-03
  1.916650000E-01  5.390200056E-04
  6.708300000E-02  2.103400022E-04
   s  14
  1.053749500E+05 -2.815000008E-05
  1.567924000E+04 -1.163000003E-04
  3.534544700E+03 -4.909200013E-04
  9.873651600E+02 -1.946160005E-03
  3.159787500E+02 -7.005300019E-03
  1.116542800E+02 -2.167814006E-02
  4.269945100E+01 -5.641213015E-02
  1.739559600E+01 -1.127053003E-01
  7.438309000E+00 -1.589119704E-01
  3.222862000E+00 -3.355083009E-02
  1.253877000E+00  3.531902810E-01
  4.951550000E-01  5.534199315E-01
  1.916650000E-01  2.301839106E-01
  6.708300000E-02  1.127267003E-02
   p   9
  2.000000000E+02  9.173000030E-04
  4.653336700E+01  7.377140024E-03
  1.462180900E+01  3.483515011E-02
  5.313064000E+00  1.144397004E-01
  2.102525000E+00  2.554966408E-01
  8.502230000E-01  3.722557412E-01
  3.375970000E-01  3.323314911E-01
  1.288920000E-01  1.400847905E-01
  4.511200000E-02  2.395784008E-02
 
[MO]
Sym=     1a  
Ene=   -26.4150
Spin= Alpha
Occup=    1.00000
   1         0.99999201
   2        -0.00413994
   3        -0.00000000
   4        -0.00000000
   5         0.00009178
   6        -0.00000519
   7        -0.00006212
   8        -0.00000000
   9        -0.00000000
  10         0.00003792
Sym=     1a  
Ene=   -26.4540
Spin= Beta
Occup=    1.00000
   1         0.99999873
   2        -0.00246048
   3        -0.00000000
   4        -0.00000000
   5         0.00011473
   6        -0.00000904
   7        -0.00012801
   8        -0.00000000
   9        -0.00000000
  10         0.00012815
Sym=     2a  
Ene=   -20.7790
Spin= Alpha
Occup=    1.00000
   1        -0.00001980
   2        -0.00021066
   3         0.00000000
   4         0.00000000
   5        -0.00019910
   6         1.00000126
   7         0.00157640
   8        -0.00000000
   9        -0.00000000
  10        -0.00014596
Sym=     2a  
Ene=   -20.7120
Spin= Beta
Occup=    1.00000
   1        -0.00000752
   2        -0.00004250
   3         0.00000000
   4         0.00000000
   5         0.00000525
   6         0.99999777
   7        -0.00212818
   8        -0.00000000
   9        -0.00000000
  10        -0.00010199
Sym=     3a  
Ene=    -1.5385
Spin= Alpha
Occup=    1.00000
   1         0.00236225
   2         0.91838550
   3        -0.00000000
   4        -0.00000000
   5         0.01150753
   6        -0.00255125
   7         0.32485792
   8        -0.00000000
   9         0.00000000
  10        -0.04537983
Sym=     3a  
Ene=    -1.6903
Spin= Beta
Occup=    1.00000
   1         0.00221690
   2         0.99475356
   3        -0.00000000
   4        -0.00000000
   5         0.01671411
   6        -0.00210486
   7         0.04049098
   8        -0.00000000
   9         0.00000000
  10        -0.01232671
Sym=     4a  
Ene=    -1.4247
Spin= Alpha
Occup=    1.00000
   1        -0.00434112
   2        -0.38328664
   3         0.00000000
   4        -0.00000000
   5         0.01819009
   6        -0.00083136
   7         0.94473152
   8         0.00000000
   9         0.00000000
  10         0.00673105
Sym=     4a  
Ene=    -1.1430
Spin= Beta
Occup=    1.00000
   1        -0.00333114
   2        -0.10640582
   3         0.00000000
   4        -0.00000000
   5         0.15725230
   6         0.00072263
   7         0.96818388
   8         0.00000000
   9         0.00000000
  10        -0.01165386
Sym=     5a  
Ene=    -0.7395
Spin= Alpha
Occup=    1.00000
   1         0.00000000
   2         0.00000000
   3         0.52161150
   4        -0.15117515
   5        -0.00000000
   6         0.00000000
   7         0.00000000
   8         0.77507885
   9        -0.22463589
  10         0.00000000
Sym=     5a  
Ene=    -0.8277
Spin= Beta
Occup=    1.00000
   1         0.00008235
   2        -0.00291536
   3         0.00000000
   4        -0.00000000
   5         0.98390773
   6        -0.01033836
   7        -0.28499879
   8         0.00000000
   9         0.00000000
  10        -0.06522021
Sym=     6a  
Ene=    -0.7212
Spin= Alpha
Occup=    1.00000
   1         0.01099143
   2         0.17158478
   3         0.00000000
   4         0.00000000
   5        -0.12073037
   6         0.00092224
   7         0.02134541
   8        -0.00000000
   9         0.00000000
  10         0.98268253
Sym=     6a  
Ene=    -0.7511
Spin= Beta
Occup=    1.00000
   1         0.00000000
   2         0.00000000
   3         0.27549174
   4         0.95055076
   5         0.00000000
   6        -0.00000000
   7         0.00000000
   8         0.02642537
   9         0.09117753
  10         0.00000000
Sym=     7a  
Ene=    -0.7141
Spin= Alpha
Occup=    1.00000
   1         0.00000000
   2         0.00000000
   3        -0.26194924
   4        -0.90382402
   5        -0.00000000
   6         0.00000000
   7         0.00000000
   8        -0.07945668
   9        -0.27415563
  10         0.00000000
Sym=     7a  
Ene=    -0.7485
Spin= Beta
Occup=    1.00000
   1         0.00000000
   2         0.00000000
   3         0.95929904
   4        -0.27802719
   5        -0.00000000
   6         0.00000000
   7        -0.00000000
   8         0.01675915
   9        -0.00485719
  10         0.00000000
Sym=     8a  
Ene=    -0.6931
Spin= Alpha
Occup=    1.00000
   1         0.00000000
   2         0.00000000
   3        -0.80865891
   4         0.23436818
   5         0.00000000
   6        -0.00000000
   7        -0.00000000
   8         0.57031619
   9        -0.16529091
  10         0.00000000
Sym=     8a  
Ene=    -0.5658
Spin= Beta
Occup=    1.00000
   1        -0.00000000
   2        -0.00000000
   3        -0.04343584
   4        -0.14987009
   5        -0.00000000
   6         0.00000000
   7        -0.00000000
   8         0.27764018
   9         0.95796370
  10        -0.00000000
Sym=     9a  
Ene=    -0.6376
Spin= Alpha
Occup=    1.00000
   1         0.00000000
   2         0.00000000
   3        -0.09573382
   4        -0.33031792
   5         0.00000000
   6         0.00000000
   7        -0.00000000
   8         0.26733688
   9         0.92241340
  10         0.00000000
Sym=     9a  
Ene=     0.1128
Spin= Beta
Occup=    0.00000
   1        -0.00000000
   2        -0.00000000
   3        -0.07584939
   4         0.02198292
   5        -0.00000000
   6         0.00000000
   7        -0.00000000
   8         0.96214703
   9        -0.27885261
  10        -0.00000000
Sym=    10a  
Ene=     0.0873
Spin= Alpha
Occup=    0.00000
   1         0.00337291
   2         0.04461551
   3         0.00000000
   4        -0.00000000
   5         1.01192507
   6        -0.01012461
   7        -0.15134536
   8        -0.00000000
   9        -0.00000000
  10         0.26770371
Sym=    10a  
Ene=     0.1316
Spin= Beta
Occup=    0.00000
   1         0.01127621
   2         0.14463134
   3        -0.00000000
   4        -0.00000000
   5         0.21435823
   6        -0.00238840
   7        -0.03413834
   8         0.00000000
   9         0.00000000
  10         1.01729712
