[Molden Format]
[N_Atoms]
                     2
[Atoms] (AU)
F1          1      9           0.00000000      0.00000000      0.00000000
O2          2      8           0.00000000      0.00000000      3.59047964
[Charge] (Mulliken)
 -0.133042128161229     
  0.133042128161211     
[GTO] (AU)
   1
   s  14
  1.031094600E+05  1.713099991E-04
  1.528100700E+04  7.123999962E-04
  3.441539200E+03  2.990479984E-03
  9.670948300E+02  1.164036994E-02
  3.140353400E+02  3.968642979E-02
  1.134423000E+02  1.128546094E-01
  4.464472700E+01  2.473650687E-01
  1.894287400E+01  3.672702681E-01
  8.532743000E+00  2.896286985E-01
  3.919401000E+00  7.786681959E-02
  1.568157000E+00  4.562139976E-03
  6.232900000E-01  2.468879987E-03
  2.408610000E-01  1.106309994E-03
  8.430100000E-02  1.739699991E-04
   s  14
  1.031094600E+05 -4.044999995E-05
  1.528100700E+04 -1.682299998E-04
  3.441539200E+03 -7.084299991E-04
  9.670948300E+02 -2.767999996E-03
  3.140353400E+02 -9.611379987E-03
  1.134423000E+02 -2.833957996E-02
  4.464472700E+01 -6.839343991E-02
  1.894287400E+01 -1.237379298E-01
  8.532743000E+00 -1.512859698E-01
  3.919401000E+00 -9.099909988E-03
  1.568157000E+00  3.716257695E-01
  6.232900000E-01  5.500214393E-01
  2.408610000E-01  2.092318697E-01
  8.430100000E-02  8.074639989E-03
   p   9
  2.453302900E+02  1.024860004E-03
  5.691900500E+01  8.344290032E-03
  1.760456800E+01  4.078927016E-02
  6.274995000E+00  1.351370605E-01
  2.447030000E+00  2.798830811E-01
  9.950600000E-01  3.597966414E-01
  4.039730000E-01  3.055347412E-01
  1.548100000E-01  1.354703905E-01
  5.418400000E-02  2.804449011E-02
 
   2
   s  14
  1.053749500E+05  1.238600013E-04
  1.567924000E+04  5.120100053E-04
  3.534544700E+03  2.152910022E-03
  9.873651600E+02  8.528440089E-03
  3.159787500E+02  3.018049031E-02
  1.116542800E+02  9.099702095E-02
  4.269945100E+01  2.177936423E-01
  1.739559600E+01  3.686245738E-01
  7.438309000E+00  3.366707335E-01
  3.222862000E+00  9.657630101E-02
  1.253877000E+00  2.144520022E-03
  4.951550000E-01  1.194350012E-03
  1.916650000E-01  5.390200056E-04
  6.708300000E-02  2.103400022E-04
   s  14
  1.053749500E+05 -2.815000008E-05
  1.567924000E+04 -1.163000003E-04
  3.534544700E+03 -4.909200013E-04
  9.873651600E+02 -1.946160005E-03
  3.159787500E+02 -7.005300019E-03
  1.116542800E+02 -2.167814006E-02
  4.269945100E+01 -5.641213015E-02
  1.739559600E+01 -1.127053003E-01
  7.438309000E+00 -1.589119704E-01
  3.222862000E+00 -3.355083009E-02
  1.253877000E+00  3.531902810E-01
  4.951550000E-01  5.534199315E-01
  1.916650000E-01  2.301839106E-01
  6.708300000E-02  1.127267003E-02
   p   9
  2.000000000E+02  9.173000030E-04
  4.653336700E+01  7.377140024E-03
  1.462180900E+01  3.483515011E-02
  5.313064000E+00  1.144397004E-01
  2.102525000E+00  2.554966408E-01
  8.502230000E-01  3.722557412E-01
  3.375970000E-01  3.323314911E-01
  1.288920000E-01  1.400847905E-01
  4.511200000E-02  2.395784008E-02
 
[MO]
Sym=     1a  
Ene=   -26.3800
Spin= Alpha
Occup=    2.00000
   1         0.99999558
   2        -0.00324625
   3        -0.00000000
   4        -0.00000000
   5         0.00034476
   6        -0.00000053
   7        -0.00010372
   8         0.00000000
   9        -0.00000000
  10         0.00005508
Sym=     2a  
Ene=   -20.8780
Spin= Alpha
Occup=    2.00000
   1        -0.00002457
   2        -0.00011553
   3        -0.00000000
   4         0.00000000
   5        -0.00002678
   6         1.00000026
   7        -0.00061105
   8         0.00000000
   9        -0.00000000
  10        -0.00039167
Sym=     3a  
Ene=    -1.5788
Spin= Alpha
Occup=    2.00000
   1         0.00223934
   2         0.97095055
   3        -0.00000000
   4        -0.00000000
   5         0.01700408
   6        -0.00212173
   7         0.15794113
   8        -0.00000000
   9        -0.00000000
  10        -0.04145666
Sym=     4a  
Ene=    -1.3439
Spin= Alpha
Occup=    2.00000
   1        -0.00359431
   2        -0.21956772
   3         0.00000000
   4        -0.00000000
   5         0.05816619
   6         0.00048558
   7         0.97975961
   8         0.00000000
   9        -0.00000000
  10         0.01036246
Sym=     5a  
Ene=    -0.7046
Spin= Alpha
Occup=    2.00000
   1         0.00000000
   2         0.00000000
   3         0.81844210
   4         0.10848045
   5        -0.00000000
   6         0.00000000
   7        -0.00000000
   8         0.51132833
   9         0.06777404
  10         0.00000000
Sym=     6a  
Ene=    -0.6914
Spin= Alpha
Occup=    2.00000
   1         0.00000000
   2        -0.00000000
   3        -0.13105752
   4         0.98877720
   5        -0.00000000
   6        -0.00000000
   7         0.00000000
   8        -0.00434266
   9         0.03276362
  10         0.00000000
Sym=     7a  
Ene=    -0.5876
Spin= Alpha
Occup=    2.00000
   1         0.00670878
   2         0.10715493
   3        -0.00000000
   4        -0.00000000
   5        -0.71410062
   6         0.00729397
   7         0.13202445
   8        -0.00000000
   9        -0.00000000
  10         0.61299610
Sym=     8a  
Ene=    -0.6549
Spin= Alpha
Occup=    2.00000
   1        -0.00000000
   2        -0.00000000
   3        -0.56268318
   4        -0.07458087
   5         0.00000000
   6        -0.00000000
   7        -0.00000000
   8         0.85147119
   9         0.11285829
  10        -0.00000000
Sym=     9a  
Ene=    -0.0000
Spin= Alpha
Occup=    1.00000
   1         0.00000000
   2         0.00000000
   3         0.01241933
   4        -0.09369896
   5        -0.00000000
   6         0.00000000
   7         0.00000000
   8        -0.13157300
   9         0.99266630
  10         0.00000000
Sym=    10a  
Ene=    -0.0987
Spin= Alpha
Occup=    0.00000
   1         0.00930265
   2         0.13907531
   3        -0.00000000
   4        -0.00000000
   5         0.72485810
   6        -0.00739044
   7        -0.13823427
   8        -0.00000000
   9        -0.00000000
  10         0.81353825
