   This run of MOLCAS is using the pymolcas driver

                             OPE
                             OPE          NMOL  CASOP  ENMOLC A   SO
                 OPE        NMOLC        AS  OP EN  MO LC     AS  OP
                OPENM       OL CA        SO  PE NM  OL CA     SOP EN
                OP EN      MO   LC       AS  OP ENMOL  CASO   PENMOL
                OP  EN     MO   LC       AS  OP EN     MO     LC ASO
               OP   E  NMOL  C  AS       OP  EN MO     LC     AS  OP
               OP  E   NMO   LC AS        OPEN  MO     LCASOP EN   M
               O  PEN   MO  LCA  SO
            OPE   NMO   L   CAS    OP
        OPENMOL  CASOP     ENMOL   CASOPE
     OPENMOLCA   SOPENMOLCASOPEN   MOLCASOPE
    OPENMOLCAS   OP           EN   MOL    CAS
    OPENMOLCAS       OP  ENM        O     LCA
    OPENMOLCAS    OPEN  MOLCASO     P  E  NMO
    OPENMOLCAS     OP               E  N  MOL
    OPENMOLCA   SO           PENM   O  L  CAS    OPEN    MO    LCAS
    OPENMOLCA   SOP           ENM   O  L  CAS   OP  EN  MOLC  AS   O
    OPENMOLCA   SOPE           NM      O  LCA   S      OP  EN MO
    OPENMOLC                AS         O  PEN   M      OL  CA  SOPE
    OPENMO        LCASOPE  NMOL        C  ASO   P      ENMOLC     AS
    OPE     NMO      LCA  SO     P     E   NM   OL  CA SO  PE N   MO
          OPENMOLCA            SOPE   NMO        LCAS  O    P  ENMO
     OPENMOLCASOPENMOLCASOPENMOLCASOPENMOLCA
        OPENMOLCASOPENMOLCASOPENMOLCASOPE
            OPENMOLCASOPENMOLCASOPENM
               OPENMOLCASOPENMOLCA        version: ea724fe96-dirty
                   OPENMOLCASO
                       OPE                tag:

 OpenMolcas is free software; you can redistribute it and/or modify it
 under the terms of the GNU Lesser General Public License version 2.1.
 OpenMolcas is distributed in the hope that it will be useful, but it
 is provided "as is" and without any express or implied warranties.
 For more details see the full text of the license in the file
 LICENSE or in <http://www.gnu.org/licenses/>.

                 Copyright (C) The OpenMolcas Authors
           For the author list and the recommended citation,
                   consult the file CONTRIBUTORS.md

           *************************************************
           * pymolcas version py2.28                       *
           *   build c4a6d18ded8cb6cad61d2372a9abd97c      *
           *   (after the EMIL interpreter by V. Veryazov) *
           *************************************************

configuration info
------------------
C Compiler ID: Intel
C flags: -std=gnu99
Fortran Compiler ID: Intel
Fortran flags: -fpp -i8 -r8 -heap-arrays
Definitions: _MOLCAS_;_I8_;_LINUX_
Parallel: OFF (GA=OFF)


   --------------------------------------------------------------------------------
  |
  |              Project: ozone_125.50
  |       Submitted from: /home/grierjones/DDCASPT2/ozone/ANO-RCC-VDZP/ozone_125.50
  |         Scratch area: /tmp/ozone_125.50
  |      Save outputs to: /home/grierjones/DDCASPT2/ozone/ANO-RCC-VDZP/ozone_125.50
  |               Molcas: /home/grierjones/Test/build
  |
  | Scratch area is empty
  |
  |       MOLCAS_DRIVER = /usr/local/pymolcas
  | MOLCAS_KEEP_WORKDIR = NO
  |  MOLCAS_NEW_WORKDIR = YES
  |       MOLCAS_NPROCS = 1
  |        MOLCAS_PRINT = NORMAL
  |       MOLCAS_SOURCE = /home/grierjones/Test/build
  |    MOLCAS_STRUCTURE = 0
  |
   --------------------------------------------------------------------------------

++ ---------   Input file   ---------

&GATEWAY
coord=ozone_125.50.xyz
Basis = ANO-RCC-VDZP
Group = nosymm
Expert
End of Input

&SEWARD
End of Input

&SCF

>>> COPY $WorkDir/ozone_125.50.scf.h5 $CurrDir/

&RASSCF
Title= RASSCF
FileOrb
/home/grierjones/DDCASPT2/ozone/ANO-RCC-VDZP/ozone_125.00/ozone_125.00.RasOrb
NACTEL
4 0 0
Inactive
10
RAS2
3
Symmetry
1
Spin
1
orblisting
all
ITERation
200 100
CIMX
200
SDAV
500

>>> COPY $WorkDir/ozone_125.50.rasscf.h5 $CurrDir/

>>> COPY $WorkDir/GMJ_Fock_MO.csv $CurrDir/ozone_125.50.GMJ_Fock_MO.csv

>>> COPY $WorkDir/GMJ_PT2_Fock_MO.csv $CurrDir/ozone_125.50.GMJ_PT2_Fock_MO.csv

&MOTRA
Frozen=0
LUMORB

>>> COPY $WorkDir/GMJ_one_int_indx.csv $CurrDir/ozone_125.50.GMJ_one_int_indx.csv

>>> COPY $WorkDir/GMJ_one_int.csv $CurrDir/ozone_125.50.GMJ_one_int.csv

>>> COPY $WorkDir/GMJ_two_int_indx.csv $CurrDir/ozone_125.50.GMJ_two_int_indx.csv

>>> COPY $WorkDir/GMJ_two_int.csv $CurrDir/ozone_125.50.GMJ_two_int.csv

&CASPT2
Frozen
0

>>> FOREACH i IN (B,E,F,G,H)

  >>> FOREACH j IN (P,M)

    >>> IF (-FILE GMJ_e2_${i}_${j}.csv)

      >>> COPY $WorkDir/GMJ_RHS_${i}_${j}.csv $CurrDir/GMJ_RHS_${i}_${j}.csv

      >>> COPY $WorkDir/GMJ_IVECW_${i}_${j}.csv $CurrDir/GMJ_IVECW_${i}_${j}.csv

      >>> COPY $WorkDir/GMJ_IVECX_${i}_${j}.csv $CurrDir/GMJ_IVECX_${i}_${j}.csv

      >>> COPY $WorkDir/GMJ_IVECC2_${i}_${j}.csv $CurrDir/GMJ_IVECC2_${i}_${j}.csv

      >>> COPY $WorkDir/GMJ_e2_${i}_${j}.csv $CurrDir/GMJ_e2_${i}_${j}.csv

    >>> END IF

  >>> END FOREACH

>>> END FOREACH

>>> FOREACH i IN (A,C,D)

  >>> IF (-FILE GMJ_e2_$i.csv)

    >>> COPY $WorkDir/GMJ_RHS_$i.csv $CurrDir/GMJ_RHS_$i.csv

    >>> COPY $WorkDir/GMJ_IVECW_$i.csv $CurrDir/GMJ_IVECW_$i.csv

    >>> COPY $WorkDir/GMJ_IVECX_$i.csv $CurrDir/GMJ_IVECX_$i.csv

    >>> COPY $WorkDir/GMJ_IVECC2_$i.csv $CurrDir/GMJ_IVECC2_$i.csv

    >>> COPY $WorkDir/GMJ_e2_$i.csv $CurrDir/GMJ_e2_$i.csv

  >>> END IF

>>> END FOREACH

-- ----------------------------------

--- Start Module: gateway at Wed Nov 13 12:32:25 2024 ---
 
()()()()()()()()()()()()()()()()()()()()()()()()()()()()()()()()()()()()()()()()()()()()()()()()()()

                                              &GATEWAY

                                   only a single process is used
                       available to each process: 2.0 GB of memory, 1 thread?
()()()()()()()()()()()()()()()()()()()()()()()()()()()()()()()()()()()()()()()()()()()()()()()()()()
 
 ###############################################################################
 ###############################################################################
 ###                                                                         ###
 ###                                                                         ###
 ###                                                                         ###
 ###    WARNING: EXPERT option is ON!                                        ###
 ###                                                                         ###
 ###                                                                         ###
 ###############################################################################
 ###############################################################################
 
++    Symmetry information:
      ---------------------
 
                    Character Table for C1 
 
                             E  
                    a        1  x, y, xy, Rz, z, xz, Ry, yz, Rx, I
--
 
 
++    Basis set information:
      ----------------------
 
 
      Basis set label: O.ANO-RCC...3S2P1D.
 
      Electronic valence basis set:
      ------------------
      Associated Effective Charge   8.000000 au
      Associated Actual Charge      8.000000 au
      Nuclear Model: Point charge
 
      Shell  nPrim  nBasis  Cartesian Spherical Contaminant
         s      14       3        X                  
         p       9       2        X                  
         d       4       1                 X         
--
 
 
++    Molecular structure info:
      -------------------------
 
                    ************************************************ 
                    **** Cartesian Coordinates / Bohr, Angstrom **** 
                    ************************************************ 
 
     Center  Label                x              y              z                     x              y              z
        1      O1               1.105798       2.147039       0.000000              0.585163       1.136164       0.000000
        2      O2               0.000000       0.000000       0.000000              0.000000       0.000000       0.000000
        3      O3               1.105798      -2.147039       0.000000              0.585163      -1.136164       0.000000
 
                    *************************************** 
                    *    InterNuclear Distances / Bohr    * 
                    *************************************** 
 
               1 O1            2 O2            3 O3    
    1 O1       0.000000
    2 O2       2.415070        0.000000
    3 O3       4.294078        2.415070        0.000000
 
                    ******************************************* 
                    *    InterNuclear Distances / Angstrom    * 
                    ******************************************* 
 
               1 O1            2 O2            3 O3    
    1 O1       0.000000
    2 O2       1.278000        0.000000
    3 O3       2.272328        1.278000        0.000000
 
                    ************************************** 
                    *    Valence Bond Angles / Degree    * 
                    ************************************** 
                          Atom centers                 Phi
                      1 O1       2 O2       3 O3       125.50
--
 
 
            Nuclear Potential Energy             67.90477701 au
 
 ###############################################################################
 ###############################################################################
 ###                                                                         ###
 ###                                                                         ###
 ###    There were warnings during the execution                             ###
 ###    Please, check the output with care!                                  ###
 ###                                                                         ###
 ###                                                                         ###
 ###############################################################################
 ###############################################################################
--- Stop Module: gateway at Wed Nov 13 12:32:25 2024 /rc=_RC_ALL_IS_WELL_ ---
*** files: xmldump
    saved to directory /home/grierjones/DDCASPT2/ozone/ANO-RCC-VDZP/ozone_125.50

--- Start Module: seward at Wed Nov 13 12:32:25 2024 ---
 
()()()()()()()()()()()()()()()()()()()()()()()()()()()()()()()()()()()()()()()()()()()()()()()()()()

                                              &SEWARD

                                   only a single process is used
                       available to each process: 2.0 GB of memory, 1 thread?
()()()()()()()()()()()()()()()()()()()()()()()()()()()()()()()()()()()()()()()()()()()()()()()()()()
 
 ###############################################################################
 ###############################################################################
 ###                                                                         ###
 ###                                                                         ###
 ###                                                                         ###
 ###    WARNING: EXPERT option is ON!                                        ###
 ###                                                                         ###
 ###                                                                         ###
 ###############################################################################
 ###############################################################################
               SEWARD will generate:
                  Multipole Moment integrals up to order  2
                  Kinetic Energy integrals
                  Nuclear Attraction integrals (point charge)
                  One-Electron Hamiltonian integrals
                  Velocity integrals
                  Relativistic Douglas-Kroll-Hess integrals:
                    - Parametrization         : EXP
                    - DKH order of Hamiltonian: 2
                    - DKH order of Properties : 0
                         - multipole moment operators
                         - electric potential operators
                         - contact operators
                  Atomic mean-field integrals
                  Two-Electron Repulsion integrals
 
                   Integrals are discarded if absolute value <: 0.10E-13
                   Integral cutoff threshold is set to       <: 0.10E-15
 
            Nuclear Potential Energy             67.90477701 au
 
 
      Basis set specifications :
      Symmetry species         a  
      Basis functions           42
 
 
  Input file to MOLDEN was generated!
 
 ###############################################################################
 ###############################################################################
 ###                                                                         ###
 ###                                                                         ###
 ###    There were warnings during the execution                             ###
 ###    Please, check the output with care!                                  ###
 ###                                                                         ###
 ###                                                                         ###
 ###############################################################################
 ###############################################################################
--- Stop Module: seward at Wed Nov 13 12:32:25 2024 /rc=_RC_ALL_IS_WELL_ ---
*** files: ozone_125.50.GssOrb ozone_125.50.guessorb.h5 ozone_125.50.guessorb.molden xmldump
    saved to directory /home/grierjones/DDCASPT2/ozone/ANO-RCC-VDZP/ozone_125.50

*** symbolic link created: INPORB -> ozone_125.50.GssOrb
--- Start Module: scf at Wed Nov 13 12:32:25 2024 ---
 
()()()()()()()()()()()()()()()()()()()()()()()()()()()()()()()()()()()()()()()()()()()()()()()()()()

                                                &SCF

                                   only a single process is used
                       available to each process: 2.0 GB of memory, 1 thread?
()()()()()()()()()()()()()()()()()()()()()()()()()()()()()()()()()()()()()()()()()()()()()()()()()()
 
++    Input section:
      --------------
 
      Header of the integral files:
      
       Integrals generated by seward 4.2.0  , Wed Nov 13 12:32:25 2024
 
 
      Cartesian coordinates in Angstrom:
      -----------------------------------------------------
      No.  Label        X            Y            Z        
      -----------------------------------------------------
       1   O1         0.58516300   1.13616400   0.00000000
       2   O2         0.00000000   0.00000000   0.00000000
       3   O3         0.58516300  -1.13616400   0.00000000
      -----------------------------------------------------
      Nuclear repulsion energy =   67.90477701
--
 
++    Orbital specifications:
      -----------------------
 
      Symmetry species               1
                                     a
      Frozen orbitals                0
      Occupied orbitals             12
      Secondary orbitals            30
      Deleted orbitals               0
      Total number of orbitals      42
      Number of basis functions     42
--
 
      Molecular charge                           0.000
 
++    Optimization specifications:
      ----------------------------
 
      SCF Algorithm: Conventional
      Minimized density differences are used
      Number of density matrices in core                5
      Maximum number of NDDO SCF iterations           400
      Maximum number of HF SCF iterations             400
      Threshold for SCF energy change            0.10E-08
      Threshold for density matrix               0.10E-03
      Threshold for Fock matrix                  0.15E-03
      Threshold for linear dependence            0.10E-08
      Threshold at which DIIS is turned on       0.15E+00
      Threshold at which QNR/C2DIIS is turned on 0.75E-01
      Threshold for Norm(delta) (QNR/C2DIIS)     0.20E-04
      DIIS extrapolation of the SCF procedure
      All orbitals punched on: SCFORB
--
 
      Input vectors read from INPORB
      Orbital file label: *Guess orbitals
 
 
++ Convergence information
                                   SCF        iterations: Energy and convergence statistics
 
Iter     Tot. SCF        One-elec.       Two-elec.     Energy      Max Dij or  Max Fij      DNorm      TNorm      AccCon     Time
         Energy          Energy          Energy        Change      Delta Norm                                                in Sec.
   1  -223.901558694  -439.464853761   147.658518062   0.00E+00    0.63E+00*   0.26E+00*    0.73E+01   0.76E+02   None         0.
   2  -224.118659048  -445.558163052   153.534726998  -0.22E+00*   0.23E+00*   0.18E+00*    0.25E+01   0.77E+02   EDIIS        0.
   3  -224.447384341  -443.096454105   150.744292758  -0.33E+00*   0.23E+00*   0.91E-01*    0.74E+00   0.77E+02   EDIIS        0.
   4  -224.448046636  -443.727388948   151.374565306  -0.66E-03*   0.16E-01*   0.46E-01*    0.24E+00   0.77E+02   EDIIS        0.
   5  -224.486396662  -443.362955871   150.971782204  -0.38E-01*   0.79E-02*   0.32E-02*    0.38E-01   0.77E+02   c2DIIS       0.
   6  -224.486539729  -443.388995927   150.997679192  -0.14E-03*   0.33E-02*   0.16E-02*    0.79E-02   0.77E+02   QNRc2DIIS    0.
   7  -224.486572809  -443.386328450   150.994978635  -0.33E-04*   0.57E-02*   0.13E-02*    0.38E-02   0.77E+02   QNRc2DIIS    0.
   8  -224.486589137  -443.383809307   150.992443164  -0.16E-04*   0.11E-02*   0.60E-03*    0.22E-02   0.77E+02   QNRc2DIIS    0.
   9  -224.486592517  -443.390366733   150.998997210  -0.34E-05*   0.55E-03*   0.28E-03*    0.46E-03   0.77E+02   QNRc2DIIS    0.
  10  -224.486593047  -443.386004604   150.994634551  -0.53E-06*   0.94E-04*   0.54E-04     0.62E-03   0.77E+02   QNRc2DIIS    0.
  11  -224.486593070  -443.387378974   150.996008898  -0.23E-07*   0.23E-04*   0.11E-04     0.73E-04   0.77E+02   QNRc2DIIS    0.
  12  -224.486593072  -443.387332151   150.995962074  -0.13E-08*   0.73E-05    0.34E-05     0.13E-04   0.77E+02   QNRc2DIIS    0.
  13  -224.486593072  -443.387289550   150.995919473  -0.10E-09    0.47E-06    0.30E-06     0.13E-02   0.77E+02   QNRc2DIIS    0.
 
       Convergence after 13 Macro Iterations
--
 
 *****************************************************************************************************************************
 *                                                                                                                           *
 *                                             SCF/KS-DFT Program, Final results                                             *
 *                                                                                                                           *
 *                                                                                                                           *
 *                                                                                                                           *
 *                                                       Final Results                                                       *
 *                                                                                                                           *
 *****************************************************************************************************************************
 
::    Total SCF energy                               -224.4865930717
      One-electron energy                            -443.3872895505
      Two-electron energy                             150.9959194729
      Nuclear repulsion energy                         67.9047770058
      Kinetic energy (interpolated)                   225.3842333638
      Virial theorem                                    0.9960172889
      Total spin, S(S+1)                                0.0000000000
      Total spin, S                                     0.0000000000
      Max non-diagonal density matrix element           0.0000005014
      Max non-diagonal Fock matrix element              0.0000000581
 
 
      All orbitals with orbital energies smaller than  E(LUMO)+0.5 are printed
 
++    Molecular orbitals:
      -------------------
 
      Title: SCF orbitals

      Molecular orbitals for symmetry species 1: a  
 
          Orbital            1         2         3         4         5         6         7         8         9        10    
          Energy          -20.9133  -20.7251  -20.7250   -1.7477   -1.4498   -1.0938   -0.8359   -0.8070   -0.7803   -0.5803
          Occ. No.          2.0000    2.0000    2.0000    2.0000    2.0000    2.0000    2.0000    2.0000    2.0000    2.0000
 
        1 O1     1s         0.0019   -0.7072    0.7072   -0.0153    0.0105    0.0099   -0.0117   -0.0192    0.0000    0.0044
        2 O1     2s        -0.0002   -0.0006    0.0005    0.3187   -0.5762    0.6007   -0.2432   -0.4056    0.0000    0.0465
        3 O1     3s        -0.0002    0.0000   -0.0001   -0.0231    0.0129    0.0128   -0.0231   -0.0281    0.0000    0.0062
        4 O1     2px        0.0001    0.0005   -0.0003   -0.0454    0.0591    0.0996    0.1792   -0.3181    0.0000   -0.5658
        5 O1     3px        0.0003   -0.0000    0.0002    0.0126   -0.0085   -0.0165   -0.0157    0.0212   -0.0000   -0.0123
        6 O1     2py        0.0001    0.0007   -0.0009   -0.1032    0.0758    0.1039   -0.3230   -0.2944    0.0000    0.4538
        7 O1     3py        0.0002   -0.0005    0.0003    0.0250   -0.0146   -0.0152    0.0317    0.0244   -0.0000    0.0025
        8 O1     2pz        0.0000   -0.0000   -0.0000   -0.0000   -0.0000    0.0000    0.0000    0.0000    0.3731    0.0000
        9 O1     3pz        0.0000   -0.0000   -0.0000   -0.0000    0.0000    0.0000   -0.0000   -0.0000   -0.0250   -0.0000
       10 O1     3d2-      -0.0000    0.0000   -0.0000    0.0144   -0.0130   -0.0108    0.0014    0.0277   -0.0000    0.0020
       11 O1     3d1-      -0.0000    0.0000    0.0000   -0.0000    0.0000    0.0000    0.0000   -0.0000   -0.0270   -0.0000
       12 O1     3d0        0.0001    0.0001   -0.0001   -0.0096    0.0088    0.0040   -0.0090   -0.0158    0.0000    0.0046
       13 O1     3d1+       0.0000    0.0000    0.0000    0.0000    0.0000    0.0000    0.0000    0.0000   -0.0140   -0.0000
       14 O1     3d2+       0.0001   -0.0001    0.0001   -0.0130    0.0064    0.0038   -0.0254   -0.0104    0.0000    0.0186
       15 O2     1s         1.0001   -0.0000   -0.0029   -0.0214    0.0000   -0.0162   -0.0068   -0.0000    0.0000   -0.0000
       16 O2     2s         0.0006   -0.0000   -0.0007    0.6580    0.0000   -0.6539   -0.0805   -0.0000    0.0000   -0.0000
       17 O2     3s        -0.0001   -0.0000   -0.0006   -0.0432    0.0000   -0.0065   -0.0113    0.0000    0.0000   -0.0000
       18 O2     2px        0.0009   -0.0000   -0.0004    0.1090    0.0000    0.2257    0.6879   -0.0000   -0.0000    0.0000
       19 O2     3px       -0.0009   -0.0000   -0.0005   -0.0251    0.0000   -0.0256   -0.0560    0.0000   -0.0000    0.0000
       20 O2     2py        0.0000    0.0007   -0.0000   -0.0000   -0.3302   -0.0000    0.0000    0.5355   -0.0000   -0.1318
       21 O2     3py        0.0000    0.0009   -0.0000    0.0000    0.0739    0.0000   -0.0000   -0.0760    0.0000    0.0053
       22 O2     2pz       -0.0000    0.0000    0.0000    0.0000   -0.0000    0.0000    0.0000    0.0000    0.6998   -0.0000
       23 O2     3pz       -0.0000    0.0000    0.0000    0.0000   -0.0000   -0.0000   -0.0000   -0.0000   -0.0265   -0.0000
       24 O2     3d2-       0.0000    0.0002   -0.0000   -0.0000   -0.0378   -0.0000    0.0000    0.0258   -0.0000   -0.0380
       25 O2     3d1-      -0.0000    0.0000    0.0000   -0.0000    0.0000    0.0000   -0.0000    0.0000    0.0000    0.0000
       26 O2     3d0       -0.0003    0.0000    0.0003   -0.0179   -0.0000   -0.0060   -0.0154    0.0000   -0.0000   -0.0000
       27 O2     3d1+       0.0000   -0.0000    0.0000   -0.0000   -0.0000    0.0000    0.0000    0.0000    0.0316   -0.0000
       28 O2     3d2+      -0.0000    0.0000    0.0002   -0.0150    0.0000    0.0009    0.0217   -0.0000    0.0000   -0.0000
       29 O3     1s         0.0019    0.7072    0.7072   -0.0153   -0.0105    0.0099   -0.0117    0.0192   -0.0000   -0.0044
       30 O3     2s        -0.0002    0.0006    0.0005    0.3187    0.5762    0.6007   -0.2432    0.4056   -0.0000   -0.0465
       31 O3     3s        -0.0002   -0.0000   -0.0001   -0.0231   -0.0129    0.0128   -0.0231    0.0281   -0.0000   -0.0062
       32 O3     2px        0.0001   -0.0005   -0.0003   -0.0454   -0.0591    0.0996    0.1792    0.3181   -0.0000    0.5658
       33 O3     3px        0.0003    0.0000    0.0002    0.0126    0.0085   -0.0165   -0.0157   -0.0212    0.0000    0.0123
       34 O3     2py       -0.0001    0.0007    0.0009    0.1032    0.0758   -0.1039    0.3230   -0.2944    0.0000    0.4538
       35 O3     3py       -0.0002   -0.0005   -0.0003   -0.0250   -0.0146    0.0152   -0.0317    0.0244   -0.0000    0.0025
       36 O3     2pz        0.0000   -0.0000   -0.0000   -0.0000   -0.0000    0.0000    0.0000    0.0000    0.3731   -0.0000
       37 O3     3pz        0.0000   -0.0000   -0.0000    0.0000    0.0000    0.0000   -0.0000   -0.0000   -0.0250   -0.0000
       38 O3     3d2-       0.0000    0.0000    0.0000   -0.0144   -0.0130    0.0108   -0.0014    0.0277   -0.0000    0.0020
       39 O3     3d1-      -0.0000    0.0000   -0.0000   -0.0000   -0.0000    0.0000    0.0000    0.0000    0.0270   -0.0000
       40 O3     3d0        0.0001   -0.0001   -0.0001   -0.0096   -0.0088    0.0040   -0.0090    0.0158   -0.0000   -0.0046
       41 O3     3d1+      -0.0000    0.0000    0.0000    0.0000    0.0000   -0.0000   -0.0000   -0.0000   -0.0140    0.0000
       42 O3     3d2+       0.0001    0.0001    0.0001   -0.0130   -0.0064    0.0038   -0.0254    0.0104   -0.0000   -0.0186
 
          Orbital           11        12        13        14        15        16    
          Energy           -0.5435   -0.4960   -0.0512    0.2386    0.2808    0.4462
          Occ. No.          2.0000    2.0000    0.0000    0.0000    0.0000    0.0000
 
        1 O1     1s         0.0057    0.0000   -0.0000   -0.0533   -0.1360   -0.0401
        2 O1     2s         0.0384    0.0000   -0.0000   -0.5039   -1.0325   -0.2237
        3 O1     3s         0.0212   -0.0000   -0.0000   -0.1147   -0.3373   -0.1730
        4 O1     2px        0.6606   -0.0000    0.0000    0.1940    0.4542   -0.0776
        5 O1     3px        0.0130   -0.0000    0.0000    0.1108    0.2917    0.3980
        6 O1     2py       -0.0805    0.0000    0.0000    0.7944    0.5109   -0.0244
        7 O1     3py       -0.0245    0.0000    0.0000    0.3422    0.4975    0.2030
        8 O1     2pz       -0.0000   -0.7127    0.6606   -0.0000   -0.0000    0.0000
        9 O1     3pz        0.0000   -0.0456    0.1285   -0.0000   -0.0000   -0.0000
       10 O1     3d2-      -0.0130    0.0000   -0.0000    0.0007   -0.0186   -0.0098
       11 O1     3d1-       0.0000    0.0224    0.0076    0.0000    0.0000   -0.0000
       12 O1     3d0        0.0051   -0.0000   -0.0000    0.0004    0.0122    0.0216
       13 O1     3d1+      -0.0000    0.0114    0.0051    0.0000    0.0000    0.0000
       14 O1     3d2+       0.0014   -0.0000   -0.0000   -0.0105    0.0151    0.0591
       15 O2     1s         0.0182   -0.0000    0.0000    0.1614   -0.0000    0.0819
       16 O2     2s         0.2378   -0.0000    0.0000    1.3328   -0.0000    0.4436
       17 O2     3s         0.0318   -0.0000    0.0000    0.3327   -0.0000    0.2550
       18 O2     2px       -0.5165    0.0000    0.0000    0.6797   -0.0000   -0.0687
       19 O2     3px       -0.0170   -0.0000   -0.0000    0.3078   -0.0000    0.6132
       20 O2     2py       -0.0000   -0.0000    0.0000    0.0000    1.2676    0.0000
       21 O2     3py        0.0000   -0.0000    0.0000    0.0000    0.8906    0.0000
       22 O2     2pz        0.0000   -0.0000   -0.8432    0.0000    0.0000    0.0000
       23 O2     3pz        0.0000   -0.0000   -0.1389    0.0000    0.0000   -0.0000
       24 O2     3d2-      -0.0000   -0.0000    0.0000    0.0000    0.0347    0.0000
       25 O2     3d1-      -0.0000   -0.0516    0.0000   -0.0000   -0.0000    0.0000
       26 O2     3d0        0.0191   -0.0000    0.0000    0.0171   -0.0000   -0.0633
       27 O2     3d1+      -0.0000   -0.0000    0.0027   -0.0000   -0.0000    0.0000
       28 O2     3d2+       0.0356   -0.0000    0.0000    0.0201   -0.0000   -0.1104
       29 O3     1s         0.0057   -0.0000    0.0000   -0.0533    0.1360   -0.0401
       30 O3     2s         0.0384    0.0000    0.0000   -0.5039    1.0325   -0.2237
       31 O3     3s         0.0212   -0.0000    0.0000   -0.1147    0.3373   -0.1730
       32 O3     2px        0.6606   -0.0000   -0.0000    0.1940   -0.4542   -0.0776
       33 O3     3px        0.0130   -0.0000    0.0000    0.1108   -0.2917    0.3980
       34 O3     2py        0.0805    0.0000   -0.0000   -0.7944    0.5109    0.0244
       35 O3     3py        0.0245    0.0000   -0.0000   -0.3422    0.4975   -0.2030
       36 O3     2pz        0.0000    0.7127    0.6606   -0.0000   -0.0000    0.0000
       37 O3     3pz        0.0000    0.0456    0.1285   -0.0000    0.0000   -0.0000
       38 O3     3d2-       0.0130   -0.0000   -0.0000   -0.0007   -0.0186    0.0098
       39 O3     3d1-       0.0000    0.0224   -0.0076    0.0000    0.0000    0.0000
       40 O3     3d0        0.0051    0.0000   -0.0000    0.0004   -0.0122    0.0216
       41 O3     3d1+      -0.0000   -0.0114    0.0051   -0.0000    0.0000   -0.0000
       42 O3     3d2+       0.0014   -0.0000    0.0000   -0.0105   -0.0151    0.0591
--
 
 
++    Molecular charges:
      ------------------
 
      Mulliken charges per centre and basis function type
      ---------------------------------------------------
 
                O1      O2      O3    
      1s       2.0003  2.0002  2.0003
      2s       1.9236  1.7619  1.9236
      2px      1.7940  1.6051  1.7940
      2pz      1.3790  1.2020  1.3790
      2py      1.0504  1.0190  1.0504
      3s      -0.0075 -0.0139 -0.0075
      3px     -0.0153 -0.0233 -0.0153
      3pz     -0.0143 -0.0085 -0.0143
      3py     -0.0023  0.0181 -0.0023
      3d2+     0.0129  0.0354  0.0129
      3d1+     0.0031  0.0079  0.0031
      3d0      0.0055  0.0080  0.0055
      3d1-     0.0110  0.0409  0.0110
      3d2-     0.0140  0.0383  0.0140
      Total    8.1544  7.6911  8.1544
 
      N-E     -0.1544  0.3089 -0.1544
 
      Total electronic charge=   24.000000
 
      Total            charge=   -0.000000
--
 
 
  Input file to MOLDEN was generated!
 
 
++    Static properties:
      ------------------
 
 
      LoProp Charges per center
 

                   O1       O2       O3    
      Nuclear      8.0000   8.0000   8.0000
      Electronic  -8.2010  -7.5980  -8.2010
 
      Total       -0.2010   0.4020  -0.2010
--
 
 
++    Natural Bond Order analysis
      ---------------------------
      Based on LoProp computed density
      -------------------------------------------------------------------------------------
      Atom A       Atom B       Bond Order | Atom A       Atom B       Bond Order
        O1           O2             2.000  |   O2           O3             2.000
      -------------------------------------------------------------------------------------
      NBO located     12.000 core electrons.
      NBO located      3.953 lone pair electrons.
      NBO located      8.000 electrons involved in    2 bonds.
      The remaining    0.047 electrons are to be considered as diffuse
--
 
 
++    Molecular properties:
      ---------------------
 
      Charge (e):
                      =   -0.0000
      Dipole Moment (Debye):
      Origin of the operator (Ang)=    0.0000    0.0000    0.0000
                   X= -6.4102E-01               Y=  1.1882E-10               Z= -4.9042E-14           Total=  6.4102E-01
      Quadrupole Moment (Debye*Ang):
      Origin of the operator (Ang)=    0.3901    0.0000    0.0000
                  XX= -1.6193E+01              XY=  4.6968E-11              XZ=  4.4053E-14              YY= -1.7594E+01
                  YZ= -1.0388E-13              ZZ= -1.5161E+01
      In traceless form (Debye*Ang)
                  XX=  1.8472E-01              XY=  7.0452E-11              XZ=  6.6080E-14              YY= -1.9177E+00
                  YZ= -1.5582E-13              ZZ=  1.7330E+00
--
 
 
  Input file to MOLDEN was generated!
 
 ###############################################################################
 ###############################################################################
 ###                                                                         ###
 ###                                                                         ###
 ###    RunFile label nBas                                                   ###
 ###    was used       78 times                                              ###
 ###                                                                         ###
 ###                                                                         ###
 ###############################################################################
 ###############################################################################
--- Stop Module: scf at Wed Nov 13 12:32:26 2024 /rc=_RC_ALL_IS_WELL_ ---
*** files: ozone_125.50.LprOrb ozone_125.50.LoProp.molden ozone_125.50.scf.molden ozone_125.50.ScfOrb ozone_125.50.scf.h5 xmldump
    saved to directory /home/grierjones/DDCASPT2/ozone/ANO-RCC-VDZP/ozone_125.50

>>> COPY /tmp/ozone_125.50/ozone_125.50.scf.h5 /home/grierjones/DDCASPT2/ozone/ANO-RCC-VDZP/ozone_125.50/

*** symbolic link created: INPORB -> ozone_125.50.ScfOrb
--- Start Module: rasscf at Wed Nov 13 12:32:26 2024 ---
 
()()()()()()()()()()()()()()()()()()()()()()()()()()()()()()()()()()()()()()()()()()()()()()()()()()

                                              &RASSCF

                                   only a single process is used
                       available to each process: 2.0 GB of memory, 1 thread?
()()()()()()()()()()()()()()()()()()()()()()()()()()()()()()()()()()()()()()()()()()()()()()()()()()
 
 
      Header of the ONEINT file:
      --------------------------
      
      Integrals generated by seward 4.2.0  , Wed Nov 13 12:32:25 2024
 
 
      OrdInt status: non-squared
 
 
      Cartesian coordinates in Angstrom:
      -----------------------------------------------------
      No.  Label        X            Y            Z        
      -----------------------------------------------------
       1   O1         0.58516300   1.13616400   0.00000000
       2   O2         0.00000000   0.00000000   0.00000000
       3   O3         0.58516300  -1.13616400   0.00000000
      -----------------------------------------------------
      Nuclear repulsion energy =   67.90477701
 
++    Wave function specifications:
      -----------------------------
 
      Number of closed shell electrons          20
      Number of electrons in active shells       4
      Max number of holes in RAS1 space          0
      Max nr of electrons in RAS3 space          0
      Number of inactive orbitals               10
      Number of active orbitals                  3
      Number of secondary orbitals              29
      Spin quantum number                      0.0
      State symmetry                             1
--
 
++    Orbital specifications:
      -----------------------
 
      Symmetry species                           1
                                                 a
      Frozen orbitals                            0
      Inactive orbitals                         10
      Active orbitals                            3
      RAS1 orbitals                              0
      RAS2 orbitals                              3
      RAS3 orbitals                              0
      Secondary orbitals                        29
      Deleted orbitals                           0
      Number of basis functions                 42
--
 
++    CI expansion specifications:
      ----------------------------
 
      Number of CSFs                             6
      Number of determinants                     6
      Number of root(s) required                 1
      Root chosen for geometry opt.              1
      CI root used                               1
         
      highest root included in the CI            1
      max. size of the explicit Hamiltonian      6
--
 
++    Optimization specifications:
      ----------------------------
 
      RASSCF algorithm: Conventional
      Maximum number of macro iterations       200
      Maximum number of SX iterations          100
      Threshold for RASSCF energy            0.100E-07
      Threshold for max MO rotation          0.100E+00
      Threshold for max BLB element          0.100E-03
      Level shift parameter                  0.500E+00
      Make Quasi-Newton update
--
 
      The MO-coefficients are taken from the file:
      /home/grierjones/DDCASPT2/ozone/ANO-RCC-VDZP/ozone_125.00/ozone_125.00.RasOrb                                                   
      Title: RASSCF average (pseudo-natural) orbitals                                      
 
      Total molecular charge    0.00
 
      ************************************************************************************************************************
      *                                                                                                                      *
      *                                            Wave function control section                                             *
      *                                                                                                                      *
      ************************************************************************************************************************
 
 
                                         RASSCF iterations: Energy and convergence statistics
                                         ----------------------------------------------------
 
      Iter CI   SX   CI       RASSCF       Energy    max ROT     max BLB   max BLB  Level Ln srch  Step   QN   Walltime
          iter iter root      energy       change     param      element    value   shift minimum  type update hh:mm:ss
 Nr of preliminary CI iterations:   1
        1   1    3    1  -224.58143619    0.00E+00   0.98E-03    7  42 1  0.26E-02*  0.18   0.00    SX    NO    0:00:00
        2   1    3    1  -224.58145645   -0.20E-04*  0.51E-03    9  18 1 -0.13E-02*  0.18   0.00    SX    NO    0:00:00
        3   1    3    1  -224.58146114   -0.47E-05*  0.33E-03    9  18 1 -0.85E-03*  0.18   0.00    SX    NO    0:00:00
        4   1    3    1  -224.58146276   -0.16E-05*  0.21E-03    9  18 1 -0.45E-03*  0.18   0.00    SX    NO    0:00:00
        5   1    3    1  -224.58146330   -0.54E-06*  0.32E-03    9  18 1 -0.31E-03*  0.18   2.50    LS   YES    0:00:00
        6   1    3    1  -224.58146356   -0.26E-06* -0.77E-04    8  18 1  0.26E-03*  0.18   0.88    QN   YES    0:00:00
        7   1    3    1  -224.58146364   -0.80E-07* -0.25E-04    8  18 1 -0.12E-03*  0.18   0.77    QN   YES    0:00:00
        8   1    3    1  -224.58146364    0.11E-08   0.83E-05    8  18 1  0.91E-04   0.18   0.40    QN   YES    0:00:00
      Convergence after  8 iterations
 
  Dmat in MO in SXCTL bf call to SXHAM                                                                                    
  mat. size =     3x    3
 
        1.9922402671725092
        0.0000000000014479      1.6314478622186119
        0.0013991397827305      0.0000000000022003      0.3763118706088795
        9   1    3    1  -224.58146364   -0.28E-08   0.83E-05    8  18 1  0.23E-04   0.18   0.40    QN   YES    0:00:00
 
      ************************************************************************************************************************
                                                      Wave function printout:
                       occupation of active orbitals, and spin coupling of open shells (u,d: Spin up or down)
      ************************************************************************************************************************
 
      Note: transformation to natural orbitals
      has been made, which may change the order of the CSFs.
 
      printout of CI-coefficients larger than  0.05 for root  1
      energy=    -224.581464
      conf/sym  111     Coeff  Weight
             1  220  -0.90102 0.81184
             3  202   0.42927 0.18428
             6  022   0.06228 0.00388
 
      Natural orbitals and occupation numbers for root  1
      sym 1:   1.992241   1.631448   0.376311
 
      ************************************************************************************************************************
      *                                                                                                                      *
      *                                                    Final results                                                     *
      *                                                                                                                      *
      ************************************************************************************************************************
 
 
++    Wave function specifications:
      -----------------------------
 
      Number of closed shell electrons          20
      Number of electrons in active shells       4
      Max number of holes in RAS1 space          0
      Max nr of electrons in RAS3 space          0
      Number of inactive orbitals               10
      Number of active orbitals                  3
      Number of secondary orbitals              29
      Spin quantum number                      0.0
      State symmetry                             1
--
 
++    Orbital specifications:
      -----------------------
 
      Symmetry species                           1
                                                 a
      Frozen orbitals                            0
      Inactive orbitals                         10
      Active orbitals                            3
      RAS1 orbitals                              0
      RAS2 orbitals                              3
      RAS3 orbitals                              0
      Secondary orbitals                        29
      Deleted orbitals                           0
      Number of basis functions                 42
--
 
++    CI expansion specifications:
      ----------------------------
 
      Number of CSFs                             6
      Number of determinants                     6
      Number of root(s) required                 1
      CI root used                               1
      highest root included in the CI            1
      Root passed to geometry opt.               1
--
 
++    Final optimization conditions:
      ------------------------------
 
      Average CI energy                            -224.58146364
      RASSCF energy for state  1                   -224.58146364
      Super-CI energy                                -0.00000001
      RASSCF energy change                           -0.00000000
      Max change in MO coefficients               0.868E-05
      Max non-diagonal density matrix element     0.835E-05
      Maximum BLB matrix element                  0.230E-04
      (orbital pair   8,  18 in symmetry   1)
      Norm of electronic gradient            0.723E-04
--
 
 
      Final state energy(ies):
      ------------------------
 
::    RASSCF root number  1 Total energy:   -224.58146364
 
++    Molecular orbitals:
      -------------------
 
      Pseudonatural active orbitals and approximate occupation numbers
 
 
 
 
      Molecular orbitals for symmetry species 1: a  
 
 
      Orbital                1         2         3         4         5         6         7         8         9        10
      Energy          -20.8117  -20.7182  -20.7181   -1.7113   -1.4314   -1.0744   -0.7981   -0.7897   -0.5804   -0.5272
      Occ. No.          2.0000    2.0000    2.0000    2.0000    2.0000    2.0000    2.0000    2.0000    2.0000    2.0000
 
    1 O1     1s         0.0035   -0.7072    0.7072   -0.0150    0.0093    0.0114   -0.0100   -0.0181    0.0047    0.0056
    2 O1     2s        -0.0001   -0.0006    0.0005    0.3389   -0.5950    0.6064   -0.1906   -0.3710    0.0474    0.0300
    3 O1     3s        -0.0001    0.0001   -0.0001   -0.0237    0.0117    0.0155   -0.0207   -0.0268    0.0066    0.0247
    4 O1     2px        0.0002    0.0004   -0.0003   -0.0464    0.0573    0.1070    0.2337   -0.3426   -0.5594    0.6497
    5 O1     3px        0.0004   -0.0000    0.0002    0.0126   -0.0079   -0.0158   -0.0185    0.0200   -0.0132    0.0179
    6 O1     2py        0.0001    0.0007   -0.0009   -0.1073    0.0745    0.1317   -0.3438   -0.3158    0.4637   -0.0318
    7 O1     3py        0.0002   -0.0005    0.0003    0.0254   -0.0138   -0.0182    0.0275    0.0224    0.0037   -0.0269
    8 O1     2pz        0.0000    0.0000   -0.0000    0.0000    0.0000   -0.0000   -0.0000    0.0000    0.0000   -0.0000
    9 O1     3pz        0.0000   -0.0000   -0.0000    0.0000   -0.0000   -0.0000    0.0000   -0.0000   -0.0000   -0.0000
   10 O1     3d2-      -0.0001    0.0000   -0.0000    0.0141   -0.0124   -0.0118   -0.0007    0.0275    0.0018   -0.0118
   11 O1     3d1-      -0.0000   -0.0000    0.0000   -0.0000   -0.0000    0.0000    0.0000   -0.0000    0.0000    0.0000
   12 O1     3d0        0.0001    0.0001   -0.0002   -0.0106    0.0094    0.0049   -0.0087   -0.0160    0.0050    0.0056
   13 O1     3d1+       0.0000   -0.0000    0.0000   -0.0000   -0.0000   -0.0000    0.0000   -0.0000   -0.0000    0.0000
   14 O1     3d2+       0.0001   -0.0001    0.0001   -0.0133    0.0064    0.0056   -0.0252   -0.0109    0.0180    0.0044
   15 O2     1s         1.0001   -0.0000   -0.0052   -0.0228   -0.0000   -0.0139   -0.0092    0.0000    0.0000    0.0221
   16 O2     2s         0.0008   -0.0000   -0.0007    0.6292    0.0000   -0.6555   -0.1317    0.0000    0.0000    0.2979
   17 O2     3s        -0.0003   -0.0000   -0.0006   -0.0372    0.0000   -0.0123   -0.0139    0.0000    0.0000    0.0401
   18 O2     2px        0.0009   -0.0000   -0.0003    0.1098    0.0000    0.1648    0.6343   -0.0000   -0.0000   -0.5629
   19 O2     3px       -0.0011   -0.0000   -0.0005   -0.0240    0.0000   -0.0176   -0.0409    0.0000   -0.0000   -0.0298
   20 O2     2py        0.0000    0.0007   -0.0000   -0.0000   -0.2969   -0.0000    0.0000    0.5012   -0.1317    0.0000
   21 O2     3py        0.0000    0.0009   -0.0000    0.0000    0.0697    0.0000   -0.0000   -0.0694   -0.0004    0.0000
   22 O2     2pz        0.0000    0.0000    0.0000   -0.0000    0.0000   -0.0000   -0.0000    0.0000   -0.0000    0.0000
   23 O2     3pz       -0.0000   -0.0000    0.0000    0.0000    0.0000    0.0000    0.0000    0.0000   -0.0000    0.0000
   24 O2     3d2-       0.0000    0.0002   -0.0000   -0.0000   -0.0371   -0.0000    0.0000    0.0289   -0.0371    0.0000
   25 O2     3d1-       0.0000   -0.0000    0.0000   -0.0000   -0.0000    0.0000    0.0000   -0.0000    0.0000   -0.0000
   26 O2     3d0       -0.0001    0.0000    0.0003   -0.0174    0.0000   -0.0057   -0.0165    0.0000    0.0000    0.0228
   27 O2     3d1+       0.0000   -0.0000    0.0000    0.0000   -0.0000    0.0000   -0.0000    0.0000    0.0000   -0.0000
   28 O2     3d2+      -0.0000    0.0000    0.0002   -0.0143    0.0000    0.0020    0.0249   -0.0000    0.0000    0.0307
   29 O3     1s         0.0035    0.7072    0.7072   -0.0150   -0.0093    0.0114   -0.0100    0.0181   -0.0047    0.0056
   30 O3     2s        -0.0001    0.0006    0.0005    0.3389    0.5950    0.6064   -0.1906    0.3710   -0.0474    0.0300
   31 O3     3s        -0.0001   -0.0001   -0.0001   -0.0237   -0.0117    0.0155   -0.0207    0.0268   -0.0066    0.0247
   32 O3     2px        0.0002   -0.0004   -0.0003   -0.0464   -0.0573    0.1070    0.2337    0.3426    0.5594    0.6497
   33 O3     3px        0.0004    0.0000    0.0002    0.0126    0.0079   -0.0158   -0.0185   -0.0200    0.0132    0.0179
   34 O3     2py       -0.0001    0.0007    0.0009    0.1073    0.0745   -0.1317    0.3438   -0.3158    0.4637    0.0318
   35 O3     3py       -0.0002   -0.0005   -0.0003   -0.0254   -0.0138    0.0182   -0.0275    0.0224    0.0037    0.0269
   36 O3     2pz        0.0000   -0.0000   -0.0000   -0.0000   -0.0000   -0.0000    0.0000    0.0000    0.0000    0.0000
   37 O3     3pz        0.0000    0.0000   -0.0000   -0.0000   -0.0000    0.0000   -0.0000    0.0000    0.0000    0.0000
   38 O3     3d2-       0.0001    0.0000    0.0000   -0.0141   -0.0124    0.0118    0.0007    0.0275    0.0018    0.0118
   39 O3     3d1-       0.0000    0.0000   -0.0000   -0.0000   -0.0000   -0.0000    0.0000   -0.0000   -0.0000   -0.0000
   40 O3     3d0        0.0001   -0.0001   -0.0002   -0.0106   -0.0094    0.0049   -0.0087    0.0160   -0.0050    0.0056
   41 O3     3d1+      -0.0000    0.0000    0.0000    0.0000   -0.0000   -0.0000   -0.0000    0.0000    0.0000    0.0000
   42 O3     3d2+       0.0001    0.0001    0.0001   -0.0133   -0.0064    0.0056   -0.0252    0.0109   -0.0180    0.0044
 
 
      Orbital               11        12        13        14        15        16        17        18        19        20
      Energy            0.0000    0.0000    0.0000    0.2519    0.2886    0.4630    0.4640    0.5702    0.6000    0.6907
      Occ. No.          1.9922    1.6314    0.3763    0.0000    0.0000    0.0000    0.0000    0.0000    0.0000    0.0000
 
    1 O1     1s         0.0000   -0.0000    0.0000   -0.0565   -0.1388   -0.0359   -0.0000   -0.0349    0.0217    0.0004
    2 O1     2s         0.0000    0.0000    0.0000   -0.5267   -1.0453   -0.1981   -0.0000   -0.1209    0.1143    0.0049
    3 O1     3s        -0.0000   -0.0000    0.0000   -0.1196   -0.3450   -0.1515   -0.0000   -0.1256    0.2113    0.0407
    4 O1     2px        0.0000   -0.0000    0.0000    0.1778    0.4378   -0.0584   -0.0000   -0.2114   -0.0712   -0.0344
    5 O1     3px        0.0000    0.0000   -0.0000    0.1137    0.3011    0.4442    0.0000   -0.0743    0.1823   -0.7953
    6 O1     2py       -0.0000    0.0000   -0.0000    0.7878    0.4847   -0.0383   -0.0000   -0.3180   -0.0545   -0.0113
    7 O1     3py       -0.0000    0.0000    0.0000    0.3543    0.5149    0.1693    0.0000    0.2896   -0.7509   -0.1724
    8 O1     2pz        0.2614   -0.7126    0.6912    0.0000   -0.0000    0.0000   -0.0053    0.0000    0.0000   -0.0000
    9 O1     3pz       -0.0302   -0.0090   -0.0468    0.0000   -0.0000   -0.0000    0.4732   -0.0000   -0.0000    0.0000
   10 O1     3d2-      -0.0000    0.0000   -0.0000    0.0014   -0.0203   -0.0109   -0.0000   -0.0920   -0.0086   -0.0165
   11 O1     3d1-      -0.0258    0.0173    0.0054    0.0000   -0.0000   -0.0000    0.0273   -0.0000   -0.0000    0.0000
   12 O1     3d0        0.0000    0.0000   -0.0000    0.0001    0.0130    0.0217    0.0000    0.0502    0.0009   -0.0035
   13 O1     3d1+      -0.0127    0.0082    0.0013    0.0000    0.0000   -0.0000    0.0171    0.0000   -0.0000   -0.0000
   14 O1     3d2+      -0.0000    0.0000   -0.0000   -0.0119    0.0152    0.0607    0.0000    0.0142   -0.0170    0.0084
   15 O2     1s        -0.0000   -0.0000    0.0000    0.1631   -0.0000    0.0772    0.0000   -0.0000   -0.1204    0.0000
   16 O2     2s         0.0000   -0.0000   -0.0000    1.3545   -0.0000    0.4097    0.0000   -0.0000   -0.6580    0.0000
   17 O2     3s        -0.0000   -0.0000   -0.0000    0.3553   -0.0000    0.2543    0.0000   -0.0000   -0.2621    0.0000
   18 O2     2px        0.0000    0.0000   -0.0000    0.7186   -0.0000   -0.1396   -0.0000    0.0000   -0.1000   -0.0000
   19 O2     3px       -0.0000    0.0000   -0.0000    0.3326   -0.0000    0.5264    0.0000    0.0000   -0.3195   -0.0000
   20 O2     2py       -0.0000    0.0000    0.0000    0.0000    1.2603    0.0000    0.0000   -0.4355   -0.0000    0.0919
   21 O2     3py        0.0000   -0.0000   -0.0000    0.0000    0.9236    0.0000    0.0000    0.6107   -0.0000    0.0772
   22 O2     2pz        0.8228   -0.0000   -0.6229   -0.0000    0.0000    0.0000   -0.2321   -0.0000   -0.0000    0.0000
   23 O2     3pz       -0.0161    0.0000   -0.0681    0.0000    0.0000   -0.0000    0.3634   -0.0000   -0.0000    0.0000
   24 O2     3d2-       0.0000   -0.0000   -0.0000    0.0000    0.0451    0.0000    0.0000    0.1118   -0.0000   -0.0751
   25 O2     3d1-      -0.0000   -0.0401    0.0000   -0.0000   -0.0000   -0.0000   -0.0000    0.0000    0.0000   -0.0000
   26 O2     3d0        0.0000   -0.0000   -0.0000    0.0134   -0.0000   -0.0593   -0.0000    0.0000    0.1039    0.0000
   27 O2     3d1+       0.0313   -0.0000   -0.0103   -0.0000    0.0000    0.0000   -0.0381    0.0000    0.0000   -0.0000
   28 O2     3d2+       0.0000   -0.0000   -0.0000    0.0179   -0.0000   -0.1093   -0.0000    0.0000    0.0535    0.0000
   29 O3     1s        -0.0000    0.0000    0.0000   -0.0565    0.1388   -0.0359   -0.0000    0.0349    0.0217   -0.0004
   30 O3     2s        -0.0000    0.0000    0.0000   -0.5267    1.0453   -0.1981   -0.0000    0.1209    0.1143   -0.0049
   31 O3     3s         0.0000   -0.0000    0.0000   -0.1196    0.3450   -0.1515   -0.0000    0.1256    0.2113   -0.0407
   32 O3     2px       -0.0000   -0.0000   -0.0000    0.1778   -0.4378   -0.0584   -0.0000    0.2114   -0.0712    0.0344
   33 O3     3px       -0.0000    0.0000    0.0000    0.1137   -0.3011    0.4442    0.0000    0.0743    0.1823    0.7953
   34 O3     2py        0.0000    0.0000    0.0000   -0.7878    0.4847    0.0383    0.0000   -0.3180    0.0545   -0.0113
   35 O3     3py       -0.0000   -0.0000   -0.0000   -0.3543    0.5149   -0.1693   -0.0000    0.2896    0.7509   -0.1724
   36 O3     2pz        0.2614    0.7126    0.6912    0.0000   -0.0000    0.0000   -0.0053    0.0000    0.0000   -0.0000
   37 O3     3pz       -0.0302    0.0090   -0.0468    0.0000   -0.0000   -0.0000    0.4732    0.0000    0.0000   -0.0000
   38 O3     3d2-       0.0000   -0.0000    0.0000   -0.0014   -0.0203    0.0109    0.0000   -0.0920    0.0086   -0.0165
   39 O3     3d1-       0.0258    0.0173   -0.0054   -0.0000    0.0000    0.0000   -0.0273   -0.0000   -0.0000    0.0000
   40 O3     3d0       -0.0000    0.0000    0.0000    0.0001   -0.0130    0.0217    0.0000   -0.0502    0.0009    0.0035
   41 O3     3d1+      -0.0127   -0.0082    0.0013   -0.0000   -0.0000   -0.0000    0.0171    0.0000   -0.0000   -0.0000
   42 O3     3d2+      -0.0000   -0.0000   -0.0000   -0.0119   -0.0152    0.0607    0.0000   -0.0142   -0.0170   -0.0084
 
 
      Orbital               21        22        23        24        25        26        27        28        29        30
      Energy            0.7129    0.8451    0.8927    0.9216    1.0015    1.6935    1.6966    1.7115    1.7845    1.8809
      Occ. No.          0.0000    0.0000    0.0000    0.0000    0.0000    0.0000    0.0000    0.0000    0.0000    0.0000
 
    1 O1     1s         0.0000   -0.0004   -0.0526    0.0000    0.0845   -0.0000   -0.0186    0.0000   -0.1518   -0.0735
    2 O1     2s        -0.0000   -0.0081   -0.2846    0.0000    0.4599   -0.0000   -0.1344    0.0000   -1.1041   -0.5641
    3 O1     3s         0.0000    0.4671    0.1090   -0.0000    0.0747   -0.0000   -0.1244    0.0000   -1.3545   -0.7125
    4 O1     2px        0.0000    0.0954   -0.3346    0.0000   -0.2835    0.0000    0.1460    0.0000    0.3410    0.1003
    5 O1     3px       -0.0000    0.3104   -0.6817    0.0000   -0.4836    0.0000    0.0623   -0.0000    0.3483    0.2392
    6 O1     2py       -0.0000   -0.0267    0.0801    0.0000    0.2222    0.0000    0.0364   -0.0000    0.3343    0.3615
    7 O1     3py       -0.0000    0.3117    0.0348   -0.0000    0.6970    0.0000    0.0661   -0.0000    0.2622    0.3929
    8 O1     2pz       -0.1111    0.0000    0.0000    0.4397   -0.0000   -0.1640    0.0000   -0.1108   -0.0000    0.0000
    9 O1     3pz       -0.8588    0.0000    0.0000    0.8402   -0.0000    0.0130   -0.0000   -0.0735   -0.0000   -0.0000
   10 O1     3d2-      -0.0000   -0.0540   -0.0711    0.0000    0.0395    0.0000    0.3219    0.0000    0.0893   -0.0875
   11 O1     3d1-      -0.0324    0.0000    0.0000   -0.0173    0.0000   -0.3028    0.0000   -0.3992   -0.0000    0.0000
   12 O1     3d0       -0.0000    0.0188    0.0816   -0.0000   -0.0734    0.0000    0.2954    0.0000   -0.1747    0.1689
   13 O1     3d1+      -0.0016   -0.0000    0.0000    0.0322   -0.0000   -0.3345    0.0000    0.2200    0.0000    0.0000
   14 O1     3d2+       0.0000    0.0150    0.0300   -0.0000   -0.1331    0.0000    0.1166    0.0000    0.0909   -0.2946
   15 O2     1s         0.0000    0.0231   -0.0329    0.0000    0.0000    0.0000    0.0383   -0.0000    0.0000    0.2006
   16 O2     2s         0.0000    0.1087   -0.1122    0.0000    0.0000    0.0000    0.2835    0.0000    0.0000    1.3996
   17 O2     3s         0.0000    0.5165    0.1399   -0.0000    0.0000    0.0000    0.3165    0.0000    0.0000    1.3656
   18 O2     2px        0.0000   -0.1769    0.5506   -0.0000    0.0000    0.0000    0.1707   -0.0000    0.0000    0.1445
   19 O2     3px        0.0000   -0.5118    1.3058   -0.0000    0.0000   -0.0000   -0.0520    0.0000    0.0000    0.1816
   20 O2     2py        0.0000   -0.0000   -0.0000    0.0000   -0.6921    0.0000    0.0000   -0.0000    1.0750   -0.0000
   21 O2     3py       -0.0000   -0.0000   -0.0000   -0.0000   -1.2810    0.0000    0.0000   -0.0000    1.2923   -0.0000
   22 O2     2pz       -0.0000   -0.0000   -0.0000   -0.6393    0.0000    0.0000    0.0000   -0.0886   -0.0000   -0.0000
   23 O2     3pz       -0.0000   -0.0000   -0.0000   -1.5602    0.0000   -0.0000   -0.0000    0.1670    0.0000    0.0000
   24 O2     3d2-      -0.0000   -0.0000   -0.0000   -0.0000    0.1666    0.0000   -0.0000    0.0000   -0.0264    0.0000
   25 O2     3d1-       0.0645    0.0000   -0.0000   -0.0000    0.0000    0.5922   -0.0000    0.0000   -0.0000   -0.0000
   26 O2     3d0       -0.0000    0.0185    0.1283   -0.0000    0.0000    0.0000    0.4418    0.0000    0.0000    0.1814
   27 O2     3d1+       0.0000    0.0000    0.0000    0.0554   -0.0000   -0.0000   -0.0000    0.6148    0.0000    0.0000
   28 O2     3d2+      -0.0000    0.0388    0.0650   -0.0000    0.0000   -0.0000   -0.3985   -0.0000    0.0000    0.3293
   29 O3     1s        -0.0000   -0.0004   -0.0526    0.0000   -0.0845   -0.0000   -0.0186   -0.0000    0.1518   -0.0735
   30 O3     2s        -0.0000   -0.0081   -0.2846    0.0000   -0.4599   -0.0000   -0.1344   -0.0000    1.1041   -0.5641
   31 O3     3s        -0.0000    0.4671    0.1090   -0.0000   -0.0747   -0.0000   -0.1244   -0.0000    1.3545   -0.7125
   32 O3     2px       -0.0000    0.0954   -0.3346    0.0000    0.2835    0.0000    0.1460    0.0000   -0.3410    0.1003
   33 O3     3px        0.0000    0.3104   -0.6817    0.0000    0.4836    0.0000    0.0623    0.0000   -0.3483    0.2392
   34 O3     2py        0.0000    0.0267   -0.0801    0.0000    0.2222   -0.0000   -0.0364   -0.0000    0.3343   -0.3615
   35 O3     3py       -0.0000   -0.3117   -0.0348    0.0000    0.6970   -0.0000   -0.0661   -0.0000    0.2622   -0.3929
   36 O3     2pz        0.1111    0.0000    0.0000    0.4397   -0.0000    0.1640   -0.0000   -0.1108   -0.0000   -0.0000
   37 O3     3pz        0.8588    0.0000    0.0000    0.8402   -0.0000   -0.0130    0.0000   -0.0735   -0.0000    0.0000
   38 O3     3d2-       0.0000    0.0540    0.0711   -0.0000    0.0395   -0.0000   -0.3219   -0.0000    0.0893    0.0875
   39 O3     3d1-      -0.0324    0.0000    0.0000    0.0173   -0.0000   -0.3028    0.0000    0.3992    0.0000    0.0000
   40 O3     3d0        0.0000    0.0188    0.0816   -0.0000    0.0734    0.0000    0.2954    0.0000    0.1747    0.1689
   41 O3     3d1+       0.0016    0.0000    0.0000    0.0322   -0.0000    0.3345   -0.0000    0.2200    0.0000   -0.0000
   42 O3     3d2+      -0.0000    0.0150    0.0300   -0.0000    0.1331    0.0000    0.1166    0.0000   -0.0909   -0.2946
 
 
      Orbital               31        32        33        34        35        36        37        38        39        40
      Energy            2.1080    2.1657    2.2605    2.2747    2.4359    2.7112    2.8609    3.0454    3.0531    3.4063
      Occ. No.          0.0000    0.0000    0.0000    0.0000    0.0000    0.0000    0.0000    0.0000    0.0000    0.0000
 
    1 O1     1s        -0.0993    0.0000    0.0000    0.1126   -0.1395    0.0720    0.0304   -0.1361    0.0000   -0.0000
    2 O1     2s        -0.6604    0.0000    0.0000    0.7719   -0.8579    0.3713    0.3586   -0.9591    0.0000    0.0000
    3 O1     3s        -0.5143    0.0000    0.0000    0.5831   -0.4264    0.0163    0.5364   -0.6474    0.0000    0.0000
    4 O1     2px        0.1797   -0.0000   -0.0000   -0.1192    0.3158    0.0538   -0.2240    0.0561    0.0000   -0.0000
    5 O1     3px        0.1396   -0.0000    0.0000    0.0477    0.3436    0.2352   -0.2500   -0.0763    0.0000    0.0000
    6 O1     2py        0.2004   -0.0000   -0.0000   -0.4234    0.1621   -0.1005   -0.2709    0.6906   -0.0000   -0.0000
    7 O1     3py       -0.0452    0.0000   -0.0000   -0.2825   -0.3250    0.1451   -0.3552    0.4289   -0.0000   -0.0000
    8 O1     2pz        0.0000   -0.0012   -0.0685    0.0000   -0.0000    0.0000   -0.0000   -0.0000   -0.3611   -0.3035
    9 O1     3pz       -0.0000   -0.0783   -0.1718    0.0000    0.0000    0.0000   -0.0000   -0.0000   -0.3994   -0.2201
   10 O1     3d2-       0.2089   -0.0000    0.0000    0.0526   -0.4442   -0.4837    0.6170   -0.0277   -0.0000    0.0000
   11 O1     3d1-       0.0000    0.4787    0.0733   -0.0000    0.0000    0.0000    0.0000    0.0000    0.6938    0.5460
   12 O1     3d0        0.5257   -0.0000    0.0000    0.4924   -0.2585    0.0794   -0.3927    0.3737   -0.0000   -0.0000
   13 O1     3d1+      -0.0000   -0.5334    0.6827   -0.0000   -0.0000   -0.0000    0.0000    0.0000    0.1518    0.3947
   14 O1     3d2+      -0.3279    0.0000   -0.0000   -0.2913   -0.4045    0.2719   -0.0916    0.6339   -0.0000   -0.0000
   15 O2     1s        -0.0000    0.0000   -0.0000   -0.1610    0.0000    0.0786    0.0000    0.2906   -0.0000   -0.0000
   16 O2     2s        -0.0000    0.0000   -0.0000   -1.2645    0.0000    0.2371    0.0000    2.0029   -0.0000    0.0000
   17 O2     3s        -0.0000    0.0000   -0.0000   -1.3250    0.0000   -0.4737    0.0000    1.2704   -0.0000   -0.0000
   18 O2     2px        0.0000    0.0000   -0.0000   -0.6051    0.0000   -0.2091   -0.0000    1.0490   -0.0000   -0.0000
   19 O2     3px        0.0000    0.0000   -0.0000   -0.5605    0.0000   -0.5351   -0.0000    0.6866   -0.0000   -0.0000
   20 O2     2py        0.7089   -0.0000    0.0000    0.0000    1.0961   -0.0000   -0.7343   -0.0000   -0.0000   -0.0000
   21 O2     3py        0.7940   -0.0000    0.0000    0.0000    1.1935   -0.0000    0.0513   -0.0000    0.0000   -0.0000
   22 O2     2pz       -0.0000    0.0000    0.3480   -0.0000   -0.0000   -0.0000    0.0000    0.0000    0.7334    0.0000
   23 O2     3pz       -0.0000    0.0000    0.2581   -0.0000   -0.0000   -0.0000    0.0000    0.0000    0.7344    0.0000
   24 O2     3d2-       0.2689   -0.0000    0.0000    0.0000    0.4563   -0.0000    0.3502   -0.0000   -0.0000   -0.0000
   25 O2     3d1-      -0.0000   -0.0869   -0.0000   -0.0000   -0.0000    0.0000    0.0000    0.0000   -0.0000    1.0412
   26 O2     3d0        0.0000   -0.0000   -0.0000   -0.1773    0.0000    0.6579    0.0000   -0.6189    0.0000   -0.0000
   27 O2     3d1+       0.0000   -0.0000   -0.3748    0.0000    0.0000   -0.0000    0.0000    0.0000    0.8220    0.0000
   28 O2     3d2+      -0.0000    0.0000    0.0000    0.2186    0.0000    0.1358   -0.0000    0.3848   -0.0000   -0.0000
   29 O3     1s         0.0993   -0.0000    0.0000    0.1126    0.1395    0.0720   -0.0304   -0.1361    0.0000   -0.0000
   30 O3     2s         0.6604   -0.0000    0.0000    0.7719    0.8579    0.3713   -0.3586   -0.9591    0.0000   -0.0000
   31 O3     3s         0.5143   -0.0000    0.0000    0.5831    0.4264    0.0163   -0.5364   -0.6474    0.0000   -0.0000
   32 O3     2px       -0.1797    0.0000   -0.0000   -0.1192   -0.3158    0.0538    0.2240    0.0561   -0.0000    0.0000
   33 O3     3px       -0.1396    0.0000    0.0000    0.0477   -0.3436    0.2352    0.2500   -0.0763    0.0000   -0.0000
   34 O3     2py        0.2004   -0.0000    0.0000    0.4234    0.1621    0.1005   -0.2709   -0.6906    0.0000   -0.0000
   35 O3     3py       -0.0452    0.0000    0.0000    0.2825   -0.3250   -0.1451   -0.3552   -0.4289    0.0000   -0.0000
   36 O3     2pz        0.0000    0.0012   -0.0685   -0.0000   -0.0000    0.0000   -0.0000   -0.0000   -0.3611    0.3035
   37 O3     3pz        0.0000    0.0783   -0.1718    0.0000    0.0000    0.0000   -0.0000   -0.0000   -0.3994    0.2201
   38 O3     3d2-       0.2089   -0.0000   -0.0000   -0.0526   -0.4442    0.4837    0.6170    0.0277   -0.0000    0.0000
   39 O3     3d1-       0.0000    0.4787   -0.0733    0.0000    0.0000    0.0000   -0.0000   -0.0000   -0.6938    0.5460
   40 O3     3d0       -0.5257    0.0000    0.0000    0.4924    0.2585    0.0794    0.3927    0.3737   -0.0000    0.0000
   41 O3     3d1+       0.0000    0.5334    0.6827   -0.0000   -0.0000   -0.0000    0.0000    0.0000    0.1518   -0.3947
   42 O3     3d2+       0.3279   -0.0000   -0.0000   -0.2913    0.4045    0.2719    0.0916    0.6339   -0.0000    0.0000
 
 
      Orbital               41        42
      Energy            3.4315    3.9292
      Occ. No.          0.0000    0.0000
 
    1 O1     1s        -0.1254    0.1481
    2 O1     2s        -0.8381    1.0090
    3 O1     3s        -0.4604    0.5574
    4 O1     2px        0.0974   -0.6020
    5 O1     3px       -0.0274   -0.3045
    6 O1     2py        0.5640   -0.5797
    7 O1     3py        0.1783   -0.2649
    8 O1     2pz       -0.0000    0.0000
    9 O1     3pz       -0.0000   -0.0000
   10 O1     3d2-      -0.1263    0.6468
   11 O1     3d1-       0.0000   -0.0000
   12 O1     3d0        0.1732   -0.2990
   13 O1     3d1+       0.0000    0.0000
   14 O1     3d2+       0.6149    0.1321
   15 O2     1s         0.0000   -0.3042
   16 O2     2s         0.0000   -2.1037
   17 O2     3s         0.0000   -1.2825
   18 O2     2px        0.0000   -0.2260
   19 O2     3px        0.0000    0.1191
   20 O2     2py        0.8292   -0.0000
   21 O2     3py        0.3258   -0.0000
   22 O2     2pz       -0.0000   -0.0000
   23 O2     3pz       -0.0000   -0.0000
   24 O2     3d2-       1.1169   -0.0000
   25 O2     3d1-       0.0000    0.0000
   26 O2     3d0       -0.0000    0.4930
   27 O2     3d1+      -0.0000   -0.0000
   28 O2     3d2+       0.0000    1.0891
   29 O3     1s         0.1254    0.1481
   30 O3     2s         0.8381    1.0090
   31 O3     3s         0.4604    0.5574
   32 O3     2px       -0.0974   -0.6020
   33 O3     3px        0.0274   -0.3045
   34 O3     2py        0.5640    0.5797
   35 O3     3py        0.1783    0.2649
   36 O3     2pz        0.0000    0.0000
   37 O3     3pz        0.0000   -0.0000
   38 O3     3d2-      -0.1263   -0.6468
   39 O3     3d1-       0.0000    0.0000
   40 O3     3d0       -0.1732   -0.2990
   41 O3     3d1+      -0.0000   -0.0000
   42 O3     3d2+      -0.6149    0.1321
--
 
      Von Neumann Entropy (Root  1) =  0.69874
 

      Mulliken population analysis for root number:  1
      -----------------------------------------------
 
 
++    Molecular charges:
      ------------------
 
      Mulliken charges per centre and basis function type
      ---------------------------------------------------
 
                O1      O2      O3    
      1s       2.0003  2.0002  2.0003
      2s       1.9204  1.7608  1.9204
      2px      1.8200  1.5385  1.8200
      2pz      1.1806  1.6107  1.1806
      2py      1.1233  0.9267  1.1233
      3s      -0.0062 -0.0178 -0.0062
      3px     -0.0175 -0.0344 -0.0175
      3pz     -0.0107 -0.0101 -0.0107
      3py     -0.0022  0.0057 -0.0022
      3d2+     0.0128  0.0331  0.0128
      3d1+     0.0029  0.0055  0.0029
      3d0      0.0055  0.0093  0.0055
      3d1-     0.0118  0.0246  0.0118
      3d2-     0.0133  0.0386  0.0133
      Total    8.0543  7.8915  8.0543
 
      N-E     -0.0543  0.1085 -0.0543
 
      Total electronic charge=   24.000000
 
      Total            charge=   -0.000000
--
 
 

      Expectation values of various properties for root number:  1
      -----------------------------------------------------------
 
 
++    Molecular properties:
      ---------------------
 
      Charge (e):
                      =   -0.0000
      Dipole Moment (Debye):
      Origin of the operator (Ang)=    0.0000    0.0000    0.0000
                   X= -7.3161E-02               Y=  9.3315E-11               Z= -1.3107E-13           Total=  7.3161E-02
      Quadrupole Moment (Debye*Ang):
      Origin of the operator (Ang)=    0.3901    0.0000    0.0000
                  XX= -1.6404E+01              XY=  3.8371E-11              XZ=  1.3264E-12              YY= -1.6587E+01
                  YZ= -5.9212E-13              ZZ= -1.4623E+01
      In traceless form (Debye*Ang)
                  XX= -7.9881E-01              XY=  5.7556E-11              XZ=  1.9897E-12              YY= -1.0735E+00
                  YZ= -8.8818E-13              ZZ=  1.8724E+00
--
 

      LoProp population analysis for root number:  1
      -----------------------------------------------
 
 
++    LoProp analysis:
      ----------------
 
 
 
  Input file to MOLDEN was generated!
 
 
++    Static properties:
      ------------------
 
 
      LoProp Charges per center
 

                   O1       O2       O3    
      Nuclear      8.0000   8.0000   8.0000
      Electronic  -8.0827  -7.8346  -8.0827
 
      Total       -0.0827   0.1654  -0.0827
--
 
 
      Natural Bond Order analysis for root number:  1
 
++    Natural Bond Order analysis
      ---------------------------
      Based on LoProp computed density
      -------------------------------------------------------------------------------------
      Atom A       Atom B       Bond Order | Atom A       Atom B       Bond Order
        O1           O2             1.967  |   O2           O3             1.967
      -------------------------------------------------------------------------------------
      NBO located     12.000 core electrons.
      NBO located      3.957 lone pair electrons.
      NBO located      7.870 electrons involved in    2 bonds.
      The remaining    0.174 electrons are to be considered as diffuse
--
 
--
 
 
  Input file to MOLDEN was generated!
 
      Average orbitals are written to the RASORB file
      Natural orbitals for root   1 are written to the RASORB.1 file
      Spin density orbitals for root   1 are written to the SPDORB.1 file
 
--- Stop Module: rasscf at Wed Nov 13 12:32:26 2024 /rc=_RC_ALL_IS_WELL_ ---
*** files: ozone_125.50.LprOrb ozone_125.50.rasscf.molden ozone_125.50.LoProp.molden ozone_125.50.RasOrb ozone_125.50.RasOrb.1 ozone_125.50.rasscf.h5 ozone_125.50.SpdOrb.1 xmldump
    saved to directory /home/grierjones/DDCASPT2/ozone/ANO-RCC-VDZP/ozone_125.50

>>> COPY /tmp/ozone_125.50/ozone_125.50.rasscf.h5 /home/grierjones/DDCASPT2/ozone/ANO-RCC-VDZP/ozone_125.50/

>>> COPY /tmp/ozone_125.50/GMJ_Fock_MO.csv /home/grierjones/DDCASPT2/ozone/ANO-RCC-VDZP/ozone_125.50/ozone_125.50.GMJ_Fock_MO.csv

>>> COPY /tmp/ozone_125.50/GMJ_PT2_Fock_MO.csv /home/grierjones/DDCASPT2/ozone/ANO-RCC-VDZP/ozone_125.50/ozone_125.50.GMJ_PT2_Fock_MO.csv

*** symbolic link created: INPORB -> ozone_125.50.RasOrb
--- Start Module: motra at Wed Nov 13 12:32:26 2024 ---
 
()()()()()()()()()()()()()()()()()()()()()()()()()()()()()()()()()()()()()()()()()()()()()()()()()()

                                               &MOTRA

                                   only a single process is used
                       available to each process: 2.0 GB of memory, 1 thread?
()()()()()()()()()()()()()()()()()()()()()()()()()()()()()()()()()()()()()()()()()()()()()()()()()()
 
 
      *** WARNING: Default frozen orbitals is overwritten by user input.
      *** Default values:   3
 
      Header of the integral files:
      
       Integrals generated by seward 4.2.0  , Wed Nov 13 12:32:25 2024
 
 
      Header of MO coefficients source file:
      * RASSCF average (pseudo-natural) orbitals                                      
 
 
      Cartesian coordinates in Angstrom:
      -----------------------------------------------------
      No.  Label        X            Y            Z        
      -----------------------------------------------------
       1   O1         0.58516300   1.13616400   0.00000000
       2   O2         0.00000000   0.00000000   0.00000000
       3   O3         0.58516300  -1.13616400   0.00000000
      -----------------------------------------------------
      Nuclear repulsion energy =   67.90477701
 
      Orbital specifications:
      -----------------------
 
      Symmetry species:              1
      Number of basis functions:    42
      Frozen orbitals:               0
      Deleted orbitals:              0
      Number of orbitals used:      42

       SYMMETRY  BASIS FUNCTIONS       ORBITALS      INTEGRALS   CPU(SEC)  I/O(SEC)
 
        1 1 1 1   42  42  42  42    42  42  42  42      408156       0.00      0.00

       TOTAL CPU TIME(SEC)    0.19TOTAL I/O TIME(SEC)    0.51
 
--- Stop Module: motra at Wed Nov 13 12:32:27 2024 /rc=_RC_ALL_IS_WELL_ ---
*** files: xmldump
    saved to directory /home/grierjones/DDCASPT2/ozone/ANO-RCC-VDZP/ozone_125.50

>>> COPY /tmp/ozone_125.50/GMJ_one_int_indx.csv /home/grierjones/DDCASPT2/ozone/ANO-RCC-VDZP/ozone_125.50/ozone_125.50.GMJ_one_int_indx.csv

>>> COPY /tmp/ozone_125.50/GMJ_one_int.csv /home/grierjones/DDCASPT2/ozone/ANO-RCC-VDZP/ozone_125.50/ozone_125.50.GMJ_one_int.csv

>>> COPY /tmp/ozone_125.50/GMJ_two_int_indx.csv /home/grierjones/DDCASPT2/ozone/ANO-RCC-VDZP/ozone_125.50/ozone_125.50.GMJ_two_int_indx.csv

>>> COPY /tmp/ozone_125.50/GMJ_two_int.csv /home/grierjones/DDCASPT2/ozone/ANO-RCC-VDZP/ozone_125.50/ozone_125.50.GMJ_two_int.csv

*** symbolic link created: INPORB -> ozone_125.50.RasOrb
--- Start Module: caspt2 at Wed Nov 13 12:32:27 2024 ---
 
()()()()()()()()()()()()()()()()()()()()()()()()()()()()()()()()()()()()()()()()()()()()()()()()()()

                                              &CASPT2

                                   only a single process is used
                       available to each process: 2.0 GB of memory, 1 thread?
()()()()()()()()()()()()()()()()()()()()()()()()()()()()()()()()()()()()()()()()()()()()()()()()()()
 
 Cholesky algorithm in CASPT2 =    1
 
 ###############################################################################
 ###############################################################################
 ###                                                                         ###
 ###                                                                         ###
 ###    User changed nr of frozen orbitals.                                  ###
 ###                                                                         ###
 ###                                                                         ###
 ###############################################################################
 ###############################################################################
 
++    Wave function specifications:
      -----------------------------
 
      Number of closed shell electrons          20
      Number of electrons in active shells       4
      Max number of holes in RAS1 space          0
      Max number of electrons in RAS3 space      0
      Number of inactive orbitals               10
      Number of active orbitals                  3
      Number of secondary orbitals              29
      Spin quantum number                      0.0
      State symmetry                             1
      Number of CSFs                             6
      Number of root(s) available                1
      Root passed to geometry opt.               1
      A file JOBMIX will be created.
      This is a CASSCF or RASSCF reference function
--
 
++    Orbital specifications:
      -----------------------
 
      Symmetry species                           1
                                                 a
      Frozen orbitals                            0
      Inactive orbitals                         10
      Active orbitals                            3
      Secondary orbitals                        29
      Deleted orbitals                           0
      Number of basis functions                 42
--
 
      Type of Fock operator: STANDARD
      Type of 0-order Hamiltonian: STANDARD WITH DEFAULT IPEA
        "IP-EA" denominator shift =      0.25
      The input orbitals and the CI vector will be transformed.
 
--------------------------------------------------------------------------------
 Estimated memory requirements:
  POLY3 :                   250202
  RHS:                      279634
  SIGMA :                   302200
  PRPCTL:                        0
 Available workspace:    230396563
 
++ CASPT2 computation for group   1
 
********************************************************************************
 Multi-State initialization phase begins for group   1
--------------------------------------------------------------------------------
********************************************************************************
 Compute H0 matrices for state    1
--------------------------------------------------------------------------------
--------------------------------------------------------------------------------
 H0 matrices have been computed.
 
********************************************************************************
  CASPT2 EQUATION SOLUTION
--------------------------------------------------------------------------------
 
  Total nr of CASPT2 parameters:
   Before reduction:       86691
   After  reduction:       82880
 
 The contributions to the second order correlation energy in atomic units.
-----------------------------------------------------------------------------------------------------------------------------
  IT.      VJTU        VJTI        ATVX        AIVX        VJAI        BVAT        BJAT        BJAI        TOTAL       RNORM  
-----------------------------------------------------------------------------------------------------------------------------
   1    -0.000000   -0.001207   -0.012195   -0.091669   -0.017402   -0.016757   -0.125138   -0.271665   -0.536034    0.002145
   2    -0.000000   -0.001223   -0.012240   -0.091978   -0.017419   -0.016763   -0.125174   -0.271668   -0.536464    0.000167
   3    -0.000000   -0.001223   -0.012241   -0.091982   -0.017419   -0.016763   -0.125174   -0.271668   -0.536470    0.000021
   4    -0.000000   -0.001223   -0.012240   -0.091981   -0.017419   -0.016763   -0.125174   -0.271668   -0.536468    0.000003
-------------------------------------------------------------------------------------------------------------------
 
  FINAL CASPT2 RESULT:
 
  Correlation energy /Case, /Symm, and sums:
 VJTU     -0.00000000 -0.00000000
 VJTIP    -0.00122342 -0.00122342
 VJTIM     0.00000000  0.00000000
 ATVX     -0.01224027 -0.01224027
 AIVX     -0.09198072 -0.09198072
 VJAIP    -0.01216340 -0.01216340
 VJAIM    -0.00525531 -0.00525531
 BVATP    -0.01578532 -0.01578532
 BVATM    -0.00097724 -0.00097724
 BJATP    -0.04610771 -0.04610771
 BJATM    -0.07906639 -0.07906639
 BJAIP    -0.18265441 -0.18265441
 BJAIM    -0.08901349 -0.08901349
 Summed:  -0.53646769 -0.53646769
 
      Reference energy:        -224.5814636418
      E2 (Non-variational):      -0.5364676947
      E2 (Variational):          -0.5364677190
      Total energy:            -225.1179313608
      Residual norm:              0.0000002520
      Reference weight:           0.85682
 
      Contributions to the CASPT2 correlation energy
      Active & Virtual Only:         -0.0290028319
      One Inactive Excited:          -0.2171548268
      Two Inactive Excited:          -0.2903100360
 
 
++ Denominators, etc.
----------------------------------------------------------------------------------------------------
 Report on small energy denominators, large coefficients, and large energy contributions.
CASE  SYMM ACTIVE-MIX  NON-ACTIVE INDICES          DENOMINATOR     RHS VALUE       COEFFICIENT     CONTRIBUTION
ATVX     1  Mu1.0006  Se1.017                       1.87827579      0.05682867     -0.03063566     -0.00174098
ATVX     1  Mu1.0005  Se1.021                       1.81729169      0.09302687     -0.05022111     -0.00467191
AIVX     1  Mu1.0006  In1.004 Se1.014               2.72711019      0.06982476     -0.02556624     -0.00178516
AIVX     1  Mu1.0003  In1.005 Se1.014               2.04454394      0.05910605     -0.02855420     -0.00168773
AIVX     1  Mu1.0004  In1.007 Se1.014               1.64587250      0.06521413     -0.04015260     -0.00261852
AIVX     1  Mu1.0002  In1.008 Se1.014               1.31778416      0.05861087     -0.04401612     -0.00257982
AIVX     1  Mu1.0002  In1.009 Se1.014               1.10842857     -0.04903948      0.04344266     -0.00213041
AIVX     1  Mu1.0003  In1.009 Se1.014               1.19346637      0.03400878     -0.02814144     -0.00095706
AIVX     1  Mu1.0004  In1.008 Se1.015               1.67429044      0.04178805     -0.02544649     -0.00106336
AIVX     1  Mu1.0002  In1.010 Se1.015               1.09198200     -0.03366994      0.03045329     -0.00102536
AIVX     1  Mu1.0004  In1.007 Se1.016               1.85699762     -0.04986069      0.02730017     -0.00136121
AIVX     1  Mu1.0002  In1.008 Se1.016               1.52890928     -0.05185720      0.03313959     -0.00171853
AIVX     1  Mu1.0004  In1.010 Se1.016               1.58611327      0.05573037     -0.03524250     -0.00196408
AIVX     1  Mu1.0004  In1.008 Se1.018               1.95582887     -0.11299663      0.05830793     -0.00658860
AIVX     1  Mu1.0006  In1.008 Se1.018               2.12381400     -0.06813253      0.03229511     -0.00220035
AIVX     1  Mu1.0002  In1.010 Se1.018               1.37352042      0.04036651     -0.02904213     -0.00117233
AIVX     1  Mu1.0002  In1.009 Se1.019               1.45660432     -0.07102340      0.04736429     -0.00336397
AIVX     1  Mu1.0003  In1.009 Se1.019               1.54164212      0.04956836     -0.03129045     -0.00155102
AIVX     1  Mu1.0002  In1.010 Se1.020               1.49410712     -0.06772410      0.04401913     -0.00298116
AIVX     1  Mu1.0003  In1.010 Se1.020               1.57914492      0.04479920     -0.02746695     -0.00123050
BJAIP    1  Se1.014 In1.007 Se1.018 In1.008         2.40979234     -0.06101028      0.02531762     -0.00154464
BJAIP    1  Se1.018 In1.008 Se1.018 In1.008         2.71974871      0.10416324     -0.03829880     -0.00398933
BJAIP    1  Se1.016 In1.008 Se1.018 In1.010         2.35003311     -0.06284383      0.02674165     -0.00168055
BJAIP    1  Se1.019 In1.009 Se1.020 In1.010         2.39831486      0.06119481     -0.02551575     -0.00156143
--
 
   (Skipping property calculation,
    use PROP keyword to activate)
--
 
  Total CASPT2 energies:
::    CASPT2 Root  1     Total energy:   -225.11793136
 
  A NEW JOBIPH FILE NAMED 'JOBMIX' IS PREPARED.
********************************************************************************
--- Stop Module: caspt2 at Wed Nov 13 12:32:27 2024 /rc=_RC_ALL_IS_WELL_ ---
*** files: xmldump
    saved to directory /home/grierjones/DDCASPT2/ozone/ANO-RCC-VDZP/ozone_125.50

>>> EXPORT i = B

>>> EXPORT j = P

>>> IF (-FILE GMJ_e2_${i}_${j}.csv)

>>> COPY /tmp/ozone_125.50/GMJ_RHS_B_P.csv /home/grierjones/DDCASPT2/ozone/ANO-RCC-VDZP/ozone_125.50/GMJ_RHS_B_P.csv

>>> COPY /tmp/ozone_125.50/GMJ_IVECW_B_P.csv /home/grierjones/DDCASPT2/ozone/ANO-RCC-VDZP/ozone_125.50/GMJ_IVECW_B_P.csv

>>> COPY /tmp/ozone_125.50/GMJ_IVECX_B_P.csv /home/grierjones/DDCASPT2/ozone/ANO-RCC-VDZP/ozone_125.50/GMJ_IVECX_B_P.csv

>>> COPY /tmp/ozone_125.50/GMJ_IVECC2_B_P.csv /home/grierjones/DDCASPT2/ozone/ANO-RCC-VDZP/ozone_125.50/GMJ_IVECC2_B_P.csv

>>> COPY /tmp/ozone_125.50/GMJ_e2_B_P.csv /home/grierjones/DDCASPT2/ozone/ANO-RCC-VDZP/ozone_125.50/GMJ_e2_B_P.csv

>>> END FOREACH

>>> EXPORT j = M

>>> IF (-FILE GMJ_e2_${i}_${j}.csv)
(Skipped)

>>> END FOREACH

>>> END FOREACH

>>> EXPORT i = E

>>> EXPORT j = P

>>> IF (-FILE GMJ_e2_${i}_${j}.csv)

>>> COPY /tmp/ozone_125.50/GMJ_RHS_E_P.csv /home/grierjones/DDCASPT2/ozone/ANO-RCC-VDZP/ozone_125.50/GMJ_RHS_E_P.csv

>>> COPY /tmp/ozone_125.50/GMJ_IVECW_E_P.csv /home/grierjones/DDCASPT2/ozone/ANO-RCC-VDZP/ozone_125.50/GMJ_IVECW_E_P.csv

>>> COPY /tmp/ozone_125.50/GMJ_IVECX_E_P.csv /home/grierjones/DDCASPT2/ozone/ANO-RCC-VDZP/ozone_125.50/GMJ_IVECX_E_P.csv

>>> COPY /tmp/ozone_125.50/GMJ_IVECC2_E_P.csv /home/grierjones/DDCASPT2/ozone/ANO-RCC-VDZP/ozone_125.50/GMJ_IVECC2_E_P.csv

>>> COPY /tmp/ozone_125.50/GMJ_e2_E_P.csv /home/grierjones/DDCASPT2/ozone/ANO-RCC-VDZP/ozone_125.50/GMJ_e2_E_P.csv

>>> END FOREACH

>>> EXPORT j = M

>>> IF (-FILE GMJ_e2_${i}_${j}.csv)

>>> COPY /tmp/ozone_125.50/GMJ_RHS_E_M.csv /home/grierjones/DDCASPT2/ozone/ANO-RCC-VDZP/ozone_125.50/GMJ_RHS_E_M.csv

>>> COPY /tmp/ozone_125.50/GMJ_IVECW_E_M.csv /home/grierjones/DDCASPT2/ozone/ANO-RCC-VDZP/ozone_125.50/GMJ_IVECW_E_M.csv

>>> COPY /tmp/ozone_125.50/GMJ_IVECX_E_M.csv /home/grierjones/DDCASPT2/ozone/ANO-RCC-VDZP/ozone_125.50/GMJ_IVECX_E_M.csv

>>> COPY /tmp/ozone_125.50/GMJ_IVECC2_E_M.csv /home/grierjones/DDCASPT2/ozone/ANO-RCC-VDZP/ozone_125.50/GMJ_IVECC2_E_M.csv

>>> COPY /tmp/ozone_125.50/GMJ_e2_E_M.csv /home/grierjones/DDCASPT2/ozone/ANO-RCC-VDZP/ozone_125.50/GMJ_e2_E_M.csv

>>> END FOREACH

>>> END FOREACH

>>> EXPORT i = F

>>> EXPORT j = P

>>> IF (-FILE GMJ_e2_${i}_${j}.csv)

>>> COPY /tmp/ozone_125.50/GMJ_RHS_F_P.csv /home/grierjones/DDCASPT2/ozone/ANO-RCC-VDZP/ozone_125.50/GMJ_RHS_F_P.csv

>>> COPY /tmp/ozone_125.50/GMJ_IVECW_F_P.csv /home/grierjones/DDCASPT2/ozone/ANO-RCC-VDZP/ozone_125.50/GMJ_IVECW_F_P.csv

>>> COPY /tmp/ozone_125.50/GMJ_IVECX_F_P.csv /home/grierjones/DDCASPT2/ozone/ANO-RCC-VDZP/ozone_125.50/GMJ_IVECX_F_P.csv

>>> COPY /tmp/ozone_125.50/GMJ_IVECC2_F_P.csv /home/grierjones/DDCASPT2/ozone/ANO-RCC-VDZP/ozone_125.50/GMJ_IVECC2_F_P.csv

>>> COPY /tmp/ozone_125.50/GMJ_e2_F_P.csv /home/grierjones/DDCASPT2/ozone/ANO-RCC-VDZP/ozone_125.50/GMJ_e2_F_P.csv

>>> END FOREACH

>>> EXPORT j = M

>>> IF (-FILE GMJ_e2_${i}_${j}.csv)

>>> COPY /tmp/ozone_125.50/GMJ_RHS_F_M.csv /home/grierjones/DDCASPT2/ozone/ANO-RCC-VDZP/ozone_125.50/GMJ_RHS_F_M.csv

>>> COPY /tmp/ozone_125.50/GMJ_IVECW_F_M.csv /home/grierjones/DDCASPT2/ozone/ANO-RCC-VDZP/ozone_125.50/GMJ_IVECW_F_M.csv

>>> COPY /tmp/ozone_125.50/GMJ_IVECX_F_M.csv /home/grierjones/DDCASPT2/ozone/ANO-RCC-VDZP/ozone_125.50/GMJ_IVECX_F_M.csv

>>> COPY /tmp/ozone_125.50/GMJ_IVECC2_F_M.csv /home/grierjones/DDCASPT2/ozone/ANO-RCC-VDZP/ozone_125.50/GMJ_IVECC2_F_M.csv

>>> COPY /tmp/ozone_125.50/GMJ_e2_F_M.csv /home/grierjones/DDCASPT2/ozone/ANO-RCC-VDZP/ozone_125.50/GMJ_e2_F_M.csv

>>> END FOREACH

>>> END FOREACH

>>> EXPORT i = G

>>> EXPORT j = P

>>> IF (-FILE GMJ_e2_${i}_${j}.csv)

>>> COPY /tmp/ozone_125.50/GMJ_RHS_G_P.csv /home/grierjones/DDCASPT2/ozone/ANO-RCC-VDZP/ozone_125.50/GMJ_RHS_G_P.csv

>>> COPY /tmp/ozone_125.50/GMJ_IVECW_G_P.csv /home/grierjones/DDCASPT2/ozone/ANO-RCC-VDZP/ozone_125.50/GMJ_IVECW_G_P.csv

>>> COPY /tmp/ozone_125.50/GMJ_IVECX_G_P.csv /home/grierjones/DDCASPT2/ozone/ANO-RCC-VDZP/ozone_125.50/GMJ_IVECX_G_P.csv

>>> COPY /tmp/ozone_125.50/GMJ_IVECC2_G_P.csv /home/grierjones/DDCASPT2/ozone/ANO-RCC-VDZP/ozone_125.50/GMJ_IVECC2_G_P.csv

>>> COPY /tmp/ozone_125.50/GMJ_e2_G_P.csv /home/grierjones/DDCASPT2/ozone/ANO-RCC-VDZP/ozone_125.50/GMJ_e2_G_P.csv

>>> END FOREACH

>>> EXPORT j = M

>>> IF (-FILE GMJ_e2_${i}_${j}.csv)

>>> COPY /tmp/ozone_125.50/GMJ_RHS_G_M.csv /home/grierjones/DDCASPT2/ozone/ANO-RCC-VDZP/ozone_125.50/GMJ_RHS_G_M.csv

>>> COPY /tmp/ozone_125.50/GMJ_IVECW_G_M.csv /home/grierjones/DDCASPT2/ozone/ANO-RCC-VDZP/ozone_125.50/GMJ_IVECW_G_M.csv

>>> COPY /tmp/ozone_125.50/GMJ_IVECX_G_M.csv /home/grierjones/DDCASPT2/ozone/ANO-RCC-VDZP/ozone_125.50/GMJ_IVECX_G_M.csv

>>> COPY /tmp/ozone_125.50/GMJ_IVECC2_G_M.csv /home/grierjones/DDCASPT2/ozone/ANO-RCC-VDZP/ozone_125.50/GMJ_IVECC2_G_M.csv

>>> COPY /tmp/ozone_125.50/GMJ_e2_G_M.csv /home/grierjones/DDCASPT2/ozone/ANO-RCC-VDZP/ozone_125.50/GMJ_e2_G_M.csv

>>> END FOREACH

>>> END FOREACH

>>> EXPORT i = H

>>> EXPORT j = P

>>> IF (-FILE GMJ_e2_${i}_${j}.csv)

>>> COPY /tmp/ozone_125.50/GMJ_RHS_H_P.csv /home/grierjones/DDCASPT2/ozone/ANO-RCC-VDZP/ozone_125.50/GMJ_RHS_H_P.csv

>>> COPY /tmp/ozone_125.50/GMJ_IVECW_H_P.csv /home/grierjones/DDCASPT2/ozone/ANO-RCC-VDZP/ozone_125.50/GMJ_IVECW_H_P.csv

>>> COPY /tmp/ozone_125.50/GMJ_IVECX_H_P.csv /home/grierjones/DDCASPT2/ozone/ANO-RCC-VDZP/ozone_125.50/GMJ_IVECX_H_P.csv

>>> COPY /tmp/ozone_125.50/GMJ_IVECC2_H_P.csv /home/grierjones/DDCASPT2/ozone/ANO-RCC-VDZP/ozone_125.50/GMJ_IVECC2_H_P.csv

>>> COPY /tmp/ozone_125.50/GMJ_e2_H_P.csv /home/grierjones/DDCASPT2/ozone/ANO-RCC-VDZP/ozone_125.50/GMJ_e2_H_P.csv

>>> END FOREACH

>>> EXPORT j = M

>>> IF (-FILE GMJ_e2_${i}_${j}.csv)

>>> COPY /tmp/ozone_125.50/GMJ_RHS_H_M.csv /home/grierjones/DDCASPT2/ozone/ANO-RCC-VDZP/ozone_125.50/GMJ_RHS_H_M.csv

>>> COPY /tmp/ozone_125.50/GMJ_IVECW_H_M.csv /home/grierjones/DDCASPT2/ozone/ANO-RCC-VDZP/ozone_125.50/GMJ_IVECW_H_M.csv

>>> COPY /tmp/ozone_125.50/GMJ_IVECX_H_M.csv /home/grierjones/DDCASPT2/ozone/ANO-RCC-VDZP/ozone_125.50/GMJ_IVECX_H_M.csv

>>> COPY /tmp/ozone_125.50/GMJ_IVECC2_H_M.csv /home/grierjones/DDCASPT2/ozone/ANO-RCC-VDZP/ozone_125.50/GMJ_IVECC2_H_M.csv

>>> COPY /tmp/ozone_125.50/GMJ_e2_H_M.csv /home/grierjones/DDCASPT2/ozone/ANO-RCC-VDZP/ozone_125.50/GMJ_e2_H_M.csv

>>> END FOREACH

>>> END FOREACH

>>> EXPORT i = A

>>> IF (-FILE GMJ_e2_$i.csv)

>>> COPY /tmp/ozone_125.50/GMJ_RHS_A.csv /home/grierjones/DDCASPT2/ozone/ANO-RCC-VDZP/ozone_125.50/GMJ_RHS_A.csv

>>> COPY /tmp/ozone_125.50/GMJ_IVECW_A.csv /home/grierjones/DDCASPT2/ozone/ANO-RCC-VDZP/ozone_125.50/GMJ_IVECW_A.csv

>>> COPY /tmp/ozone_125.50/GMJ_IVECX_A.csv /home/grierjones/DDCASPT2/ozone/ANO-RCC-VDZP/ozone_125.50/GMJ_IVECX_A.csv

>>> COPY /tmp/ozone_125.50/GMJ_IVECC2_A.csv /home/grierjones/DDCASPT2/ozone/ANO-RCC-VDZP/ozone_125.50/GMJ_IVECC2_A.csv

>>> COPY /tmp/ozone_125.50/GMJ_e2_A.csv /home/grierjones/DDCASPT2/ozone/ANO-RCC-VDZP/ozone_125.50/GMJ_e2_A.csv

>>> END FOREACH

>>> EXPORT i = C

>>> IF (-FILE GMJ_e2_$i.csv)

>>> COPY /tmp/ozone_125.50/GMJ_RHS_C.csv /home/grierjones/DDCASPT2/ozone/ANO-RCC-VDZP/ozone_125.50/GMJ_RHS_C.csv

>>> COPY /tmp/ozone_125.50/GMJ_IVECW_C.csv /home/grierjones/DDCASPT2/ozone/ANO-RCC-VDZP/ozone_125.50/GMJ_IVECW_C.csv

>>> COPY /tmp/ozone_125.50/GMJ_IVECX_C.csv /home/grierjones/DDCASPT2/ozone/ANO-RCC-VDZP/ozone_125.50/GMJ_IVECX_C.csv

>>> COPY /tmp/ozone_125.50/GMJ_IVECC2_C.csv /home/grierjones/DDCASPT2/ozone/ANO-RCC-VDZP/ozone_125.50/GMJ_IVECC2_C.csv

>>> COPY /tmp/ozone_125.50/GMJ_e2_C.csv /home/grierjones/DDCASPT2/ozone/ANO-RCC-VDZP/ozone_125.50/GMJ_e2_C.csv

>>> END FOREACH

>>> EXPORT i = D

>>> IF (-FILE GMJ_e2_$i.csv)

>>> COPY /tmp/ozone_125.50/GMJ_RHS_D.csv /home/grierjones/DDCASPT2/ozone/ANO-RCC-VDZP/ozone_125.50/GMJ_RHS_D.csv

>>> COPY /tmp/ozone_125.50/GMJ_IVECW_D.csv /home/grierjones/DDCASPT2/ozone/ANO-RCC-VDZP/ozone_125.50/GMJ_IVECW_D.csv

>>> COPY /tmp/ozone_125.50/GMJ_IVECX_D.csv /home/grierjones/DDCASPT2/ozone/ANO-RCC-VDZP/ozone_125.50/GMJ_IVECX_D.csv

>>> COPY /tmp/ozone_125.50/GMJ_IVECC2_D.csv /home/grierjones/DDCASPT2/ozone/ANO-RCC-VDZP/ozone_125.50/GMJ_IVECC2_D.csv

>>> COPY /tmp/ozone_125.50/GMJ_e2_D.csv /home/grierjones/DDCASPT2/ozone/ANO-RCC-VDZP/ozone_125.50/GMJ_e2_D.csv

>>> END FOREACH

.########################.
.# Non-zero return code #.
.########################.

    Timing: Wall=2.15 User=1.46 System=0.68
********************************************
*** WorkDir at /tmp/ozone_125.50 cleaned ***
********************************************
