   This run of MOLCAS is using the pymolcas driver

                             OPE
                             OPE          NMOL  CASOP  ENMOLC A   SO
                 OPE        NMOLC        AS  OP EN  MO LC     AS  OP
                OPENM       OL CA        SO  PE NM  OL CA     SOP EN
                OP EN      MO   LC       AS  OP ENMOL  CASO   PENMOL
                OP  EN     MO   LC       AS  OP EN     MO     LC ASO
               OP   E  NMOL  C  AS       OP  EN MO     LC     AS  OP
               OP  E   NMO   LC AS        OPEN  MO     LCASOP EN   M
               O  PEN   MO  LCA  SO
            OPE   NMO   L   CAS    OP
        OPENMOL  CASOP     ENMOL   CASOPE
     OPENMOLCA   SOPENMOLCASOPEN   MOLCASOPE
    OPENMOLCAS   OP           EN   MOL    CAS
    OPENMOLCAS       OP  ENM        O     LCA
    OPENMOLCAS    OPEN  MOLCASO     P  E  NMO
    OPENMOLCAS     OP               E  N  MOL
    OPENMOLCA   SO           PENM   O  L  CAS    OPEN    MO    LCAS
    OPENMOLCA   SOP           ENM   O  L  CAS   OP  EN  MOLC  AS   O
    OPENMOLCA   SOPE           NM      O  LCA   S      OP  EN MO
    OPENMOLC                AS         O  PEN   M      OL  CA  SOPE
    OPENMO        LCASOPE  NMOL        C  ASO   P      ENMOLC     AS
    OPE     NMO      LCA  SO     P     E   NM   OL  CA SO  PE N   MO
          OPENMOLCA            SOPE   NMO        LCAS  O    P  ENMO
     OPENMOLCASOPENMOLCASOPENMOLCASOPENMOLCA
        OPENMOLCASOPENMOLCASOPENMOLCASOPE
            OPENMOLCASOPENMOLCASOPENM
               OPENMOLCASOPENMOLCA        version: ea724fe96-dirty
                   OPENMOLCASO
                       OPE                tag:

 OpenMolcas is free software; you can redistribute it and/or modify it
 under the terms of the GNU Lesser General Public License version 2.1.
 OpenMolcas is distributed in the hope that it will be useful, but it
 is provided "as is" and without any express or implied warranties.
 For more details see the full text of the license in the file
 LICENSE or in <http://www.gnu.org/licenses/>.

                 Copyright (C) The OpenMolcas Authors
           For the author list and the recommended citation,
                   consult the file CONTRIBUTORS.md

           *************************************************
           * pymolcas version py2.28                       *
           *   build c4a6d18ded8cb6cad61d2372a9abd97c      *
           *   (after the EMIL interpreter by V. Veryazov) *
           *************************************************

configuration info
------------------
C Compiler ID: Intel
C flags: -std=gnu99
Fortran Compiler ID: Intel
Fortran flags: -fpp -i8 -r8 -heap-arrays
Definitions: _MOLCAS_;_I8_;_LINUX_
Parallel: OFF (GA=OFF)


   --------------------------------------------------------------------------------
  |
  |              Project: ozone_150.00
  |       Submitted from: /home/grierjones/DDCASPT2/ozone/ANO-RCC-VTZP/ozone_150.00
  |         Scratch area: /tmp/ozone_150.00
  |      Save outputs to: /home/grierjones/DDCASPT2/ozone/ANO-RCC-VTZP/ozone_150.00
  |               Molcas: /home/grierjones/Test/build
  |
  | Scratch area is empty
  |
  |       MOLCAS_DRIVER = /usr/local/pymolcas
  | MOLCAS_KEEP_WORKDIR = NO
  |  MOLCAS_NEW_WORKDIR = YES
  |       MOLCAS_NPROCS = 1
  |        MOLCAS_PRINT = NORMAL
  |       MOLCAS_SOURCE = /home/grierjones/Test/build
  |    MOLCAS_STRUCTURE = 0
  |
   --------------------------------------------------------------------------------

++ ---------   Input file   ---------

&GATEWAY
coord=ozone_150.00.xyz
Basis = ANO-RCC-VTZP
Group = nosymm
Expert
End of Input

&SEWARD
End of Input

&SCF

>>> COPY $WorkDir/ozone_150.00.scf.h5 $CurrDir/

&RASSCF
Title= RASSCF
FileOrb
/home/grierjones/DDCASPT2/ozone/ANO-RCC-VTZP/ozone_149.75/ozone_149.75.RasOrb
NACTEL
4 0 0
Inactive
10
RAS2
3
Symmetry
1
Spin
1
orblisting
all
ITERation
300 200

>>> COPY $WorkDir/ozone_150.00.rasscf.h5 $CurrDir/

>>> COPY $WorkDir/GMJ_Fock_MO.csv $CurrDir/ozone_150.00.GMJ_Fock_MO.csv

>>> COPY $WorkDir/GMJ_PT2_Fock_MO.csv $CurrDir/ozone_150.00.GMJ_PT2_Fock_MO.csv

&MOTRA
Frozen=0
LUMORB

>>> COPY $WorkDir/GMJ_one_int_indx.csv $CurrDir/ozone_150.00.GMJ_one_int_indx.csv

>>> COPY $WorkDir/GMJ_one_int.csv $CurrDir/ozone_150.00.GMJ_one_int.csv

>>> COPY $WorkDir/GMJ_two_int_indx.csv $CurrDir/ozone_150.00.GMJ_two_int_indx.csv

>>> COPY $WorkDir/GMJ_two_int.csv $CurrDir/ozone_150.00.GMJ_two_int.csv

&CASPT2
Frozen
0
MAXITER
50

>>> FOREACH i IN (B,E,F,G,H)

  >>> FOREACH j IN (P,M)

    >>> IF (-FILE GMJ_e2_${i}_${j}.csv)

      >>> COPY $WorkDir/GMJ_RHS_${i}_${j}.csv $CurrDir/GMJ_RHS_${i}_${j}.csv

      >>> COPY $WorkDir/GMJ_IVECW_${i}_${j}.csv $CurrDir/GMJ_IVECW_${i}_${j}.csv

      >>> COPY $WorkDir/GMJ_IVECX_${i}_${j}.csv $CurrDir/GMJ_IVECX_${i}_${j}.csv

      >>> COPY $WorkDir/GMJ_IVECC2_${i}_${j}.csv $CurrDir/GMJ_IVECC2_${i}_${j}.csv

      >>> COPY $WorkDir/GMJ_e2_${i}_${j}.csv $CurrDir/GMJ_e2_${i}_${j}.csv

    >>> END IF

  >>> END FOREACH

>>> END FOREACH

>>> FOREACH i IN (A,C,D)

  >>> IF (-FILE GMJ_e2_$i.csv)

    >>> COPY $WorkDir/GMJ_RHS_$i.csv $CurrDir/GMJ_RHS_$i.csv

    >>> COPY $WorkDir/GMJ_IVECW_$i.csv $CurrDir/GMJ_IVECW_$i.csv

    >>> COPY $WorkDir/GMJ_IVECX_$i.csv $CurrDir/GMJ_IVECX_$i.csv

    >>> COPY $WorkDir/GMJ_IVECC2_$i.csv $CurrDir/GMJ_IVECC2_$i.csv

    >>> COPY $WorkDir/GMJ_e2_$i.csv $CurrDir/GMJ_e2_$i.csv

  >>> END IF

>>> END FOREACH

-- ----------------------------------

--- Start Module: gateway at Sat Dec 21 09:45:00 2024 ---
 
()()()()()()()()()()()()()()()()()()()()()()()()()()()()()()()()()()()()()()()()()()()()()()()()()()

                                              &GATEWAY

                                   only a single process is used
                       available to each process: 2.0 GB of memory, 1 thread?
()()()()()()()()()()()()()()()()()()()()()()()()()()()()()()()()()()()()()()()()()()()()()()()()()()
 
 ###############################################################################
 ###############################################################################
 ###                                                                         ###
 ###                                                                         ###
 ###                                                                         ###
 ###    WARNING: EXPERT option is ON!                                        ###
 ###                                                                         ###
 ###                                                                         ###
 ###############################################################################
 ###############################################################################
 
++    Symmetry information:
      ---------------------
 
                    Character Table for C1 
 
                             E  
                    a        1  x, y, xy, Rz, z, xz, Ry, yz, Rx, I
--
 
 
++    Basis set information:
      ----------------------
 
 
      Basis set label: O.ANO-RCC...4S3P2D1F.
 
      Electronic valence basis set:
      ------------------
      Associated Effective Charge   8.000000 au
      Associated Actual Charge      8.000000 au
      Nuclear Model: Point charge
 
      Shell  nPrim  nBasis  Cartesian Spherical Contaminant
         s      14       4        X                  
         p       9       3        X                  
         d       4       2                 X         
         f       3       1                 X         
--
 
 
++    Molecular structure info:
      -------------------------
 
                    ************************************************ 
                    **** Cartesian Coordinates / Bohr, Angstrom **** 
                    ************************************************ 
 
     Center  Label                x              y              z                     x              y              z
        1      O1               0.625067       2.332778       0.000000              0.330771       1.234453       0.000000
        2      O2               0.000000       0.000000       0.000000              0.000000       0.000000       0.000000
        3      O3               0.625067      -2.332778       0.000000              0.330771      -1.234453       0.000000
 
                    *************************************** 
                    *    InterNuclear Distances / Bohr    * 
                    *************************************** 
 
               1 O1            2 O2            3 O3    
    1 O1       0.000000
    2 O2       2.415070        0.000000
    3 O3       4.665556        2.415070        0.000000
 
                    ******************************************* 
                    *    InterNuclear Distances / Angstrom    * 
                    ******************************************* 
 
               1 O1            2 O2            3 O3    
    1 O1       0.000000
    2 O2       1.278000        0.000000
    3 O3       2.468906        1.278000        0.000000
 
                    ************************************** 
                    *    Valence Bond Angles / Degree    * 
                    ************************************** 
                          Atom centers                 Phi
                      1 O1       2 O2       3 O3       150.00
--
 
 
            Nuclear Potential Energy             66.71808985 au
 
 ###############################################################################
 ###############################################################################
 ###                                                                         ###
 ###                                                                         ###
 ###    There were warnings during the execution                             ###
 ###    Please, check the output with care!                                  ###
 ###                                                                         ###
 ###                                                                         ###
 ###############################################################################
 ###############################################################################
--- Stop Module: gateway at Sat Dec 21 09:45:00 2024 /rc=_RC_ALL_IS_WELL_ ---
*** files: xmldump
    saved to directory /home/grierjones/DDCASPT2/ozone/ANO-RCC-VTZP/ozone_150.00

--- Start Module: seward at Sat Dec 21 09:45:00 2024 ---
 
()()()()()()()()()()()()()()()()()()()()()()()()()()()()()()()()()()()()()()()()()()()()()()()()()()

                                              &SEWARD

                                   only a single process is used
                       available to each process: 2.0 GB of memory, 1 thread?
()()()()()()()()()()()()()()()()()()()()()()()()()()()()()()()()()()()()()()()()()()()()()()()()()()
 
 ###############################################################################
 ###############################################################################
 ###                                                                         ###
 ###                                                                         ###
 ###                                                                         ###
 ###    WARNING: EXPERT option is ON!                                        ###
 ###                                                                         ###
 ###                                                                         ###
 ###############################################################################
 ###############################################################################
               SEWARD will generate:
                  Multipole Moment integrals up to order  2
                  Kinetic Energy integrals
                  Nuclear Attraction integrals (point charge)
                  One-Electron Hamiltonian integrals
                  Velocity integrals
                  Relativistic Douglas-Kroll-Hess integrals:
                    - Parametrization         : EXP
                    - DKH order of Hamiltonian: 2
                    - DKH order of Properties : 0
                         - multipole moment operators
                         - electric potential operators
                         - contact operators
                  Atomic mean-field integrals
                  Two-Electron Repulsion integrals
 
                   Integrals are discarded if absolute value <: 0.10E-13
                   Integral cutoff threshold is set to       <: 0.10E-15
 
            Nuclear Potential Energy             66.71808985 au
 
 
      Basis set specifications :
      Symmetry species         a  
      Basis functions           90
 
 
  Input file to MOLDEN was generated!
 
 ###############################################################################
 ###############################################################################
 ###                                                                         ###
 ###                                                                         ###
 ###    There were warnings during the execution                             ###
 ###    Please, check the output with care!                                  ###
 ###                                                                         ###
 ###                                                                         ###
 ###############################################################################
 ###############################################################################
--- Stop Module: seward at Sat Dec 21 09:45:03 2024 /rc=_RC_ALL_IS_WELL_ ---
*** files: ozone_150.00.GssOrb ozone_150.00.guessorb.h5 ozone_150.00.guessorb.molden xmldump
    saved to directory /home/grierjones/DDCASPT2/ozone/ANO-RCC-VTZP/ozone_150.00
--- Module seward spent 2 seconds ---

*** symbolic link created: INPORB -> ozone_150.00.GssOrb
--- Start Module: scf at Sat Dec 21 09:45:03 2024 ---
 
()()()()()()()()()()()()()()()()()()()()()()()()()()()()()()()()()()()()()()()()()()()()()()()()()()

                                                &SCF

                                   only a single process is used
                       available to each process: 2.0 GB of memory, 1 thread?
()()()()()()()()()()()()()()()()()()()()()()()()()()()()()()()()()()()()()()()()()()()()()()()()()()
 
++    Input section:
      --------------
 
      Header of the integral files:
      
       Integrals generated by seward 4.2.0  , Sat Dec 21 09:45:00 2024
 
 
      Cartesian coordinates in Angstrom:
      -----------------------------------------------------
      No.  Label        X            Y            Z        
      -----------------------------------------------------
       1   O1         0.33077100   1.23445300   0.00000000
       2   O2         0.00000000   0.00000000   0.00000000
       3   O3         0.33077100  -1.23445300   0.00000000
      -----------------------------------------------------
      Nuclear repulsion energy =   66.71808985
--
 
++    Orbital specifications:
      -----------------------
 
      Symmetry species               1
                                     a
      Frozen orbitals                0
      Occupied orbitals             12
      Secondary orbitals            78
      Deleted orbitals               0
      Total number of orbitals      90
      Number of basis functions     90
--
 
      Molecular charge                           0.000
 
++    Optimization specifications:
      ----------------------------
 
      SCF Algorithm: Conventional
      Minimized density differences are used
      Number of density matrices in core                5
      Maximum number of NDDO SCF iterations           400
      Maximum number of HF SCF iterations             400
      Threshold for SCF energy change            0.10E-08
      Threshold for density matrix               0.10E-03
      Threshold for Fock matrix                  0.15E-03
      Threshold for linear dependence            0.10E-08
      Threshold at which DIIS is turned on       0.15E+00
      Threshold at which QNR/C2DIIS is turned on 0.75E-01
      Threshold for Norm(delta) (QNR/C2DIIS)     0.20E-04
      DIIS extrapolation of the SCF procedure
      All orbitals punched on: SCFORB
--
 
      Input vectors read from INPORB
      Orbital file label: *Guess orbitals
 
 
++ Convergence information
                                   SCF        iterations: Energy and convergence statistics
 
Iter     Tot. SCF        One-elec.       Two-elec.     Energy      Max Dij or  Max Fij      DNorm      TNorm      AccCon     Time
         Energy          Energy          Energy        Change      Delta Norm                                                in Sec.
   1  -223.918547715  -437.200127224   146.563489657   0.00E+00    0.57E+00*   0.26E+00*    0.73E+01   0.11E+03   None         0.
   2  -224.133585012  -443.344805994   152.493131131  -0.22E+00*   0.27E+00*   0.18E+00*    0.26E+01   0.11E+03   EDIIS        0.
   3  -224.413617845  -440.637784866   149.506077169  -0.28E+00*   0.21E+00*   0.81E-01*    0.72E+00   0.11E+03   EDIIS        0.
   4  -224.421193682  -441.532800655   150.393517121  -0.76E-02*   0.31E-01*   0.49E-01*    0.24E+00   0.11E+03   EDIIS        0.
   5  -224.458554371  -441.048271194   149.871626972  -0.37E-01*   0.12E-01*   0.56E-02*    0.43E-01   0.11E+03   c2DIIS       0.
   6  -224.458980300  -441.090631078   149.913560926  -0.43E-03*   0.55E-02*   0.23E-02*    0.12E-01   0.11E+03   QNRc2DIIS    0.
   7  -224.459073115  -441.090130491   149.912967524  -0.93E-04*   0.12E-01*   0.21E-02*    0.40E-02   0.11E+03   QNRc2DIIS    0.
   8  -224.459135821  -441.085465188   149.908239515  -0.63E-04*   0.20E-02*   0.11E-02*    0.29E-02   0.11E+03   QNRc2DIIS    0.
   9  -224.459142596  -441.094366649   149.917134201  -0.68E-05*   0.91E-03*   0.62E-03*    0.11E-02   0.11E+03   QNRc2DIIS    0.
  10  -224.459145155  -441.089130674   149.911895666  -0.26E-05*   0.20E-03*   0.57E-04     0.94E-03   0.11E+03   QNRc2DIIS    0.
  11  -224.459145219  -441.091362990   149.914127919  -0.64E-07*   0.11E-03*   0.37E-04     0.38E-03   0.11E+03   QNRc2DIIS    0.
  12  -224.459145236  -441.090696265   149.913461176  -0.17E-07*   0.43E-04*   0.10E-04     0.80E-04   0.11E+03   QNRc2DIIS    0.
  13  -224.459145239  -441.090534478   149.913299387  -0.20E-08*   0.94E-05    0.25E-05     0.30E-04   0.11E+03   QNRc2DIIS    0.
  14  -224.459145239  -441.090554213   149.913319123  -0.12E-09    0.78E-06    0.21E-06     0.30E-03   0.11E+03   QNRc2DIIS    0.
 
       Convergence after 14 Macro Iterations
--
 
 *****************************************************************************************************************************
 *                                                                                                                           *
 *                                             SCF/KS-DFT Program, Final results                                             *
 *                                                                                                                           *
 *                                                                                                                           *
 *                                                                                                                           *
 *                                                       Final Results                                                       *
 *                                                                                                                           *
 *****************************************************************************************************************************
 
::    Total SCF energy                               -224.4591452386
      One-electron energy                            -441.0905542134
      Two-electron energy                             149.9133191225
      Nuclear repulsion energy                         66.7180898523
      Kinetic energy (interpolated)                   225.1313645609
      Virial theorem                                    0.9970141019
      Total spin, S(S+1)                                0.0000000000
      Total spin, S                                     0.0000000000
      Max non-diagonal density matrix element           0.0000009237
      Max non-diagonal Fock matrix element              0.0000001407
 
 
      All orbitals with orbital energies smaller than  E(LUMO)+0.5 are printed
 
++    Molecular orbitals:
      -------------------
 
      Title: SCF orbitals

      Molecular orbitals for symmetry species 1: a  
 
          Orbital            1         2         3         4         5         6         7         8         9        10    
          Energy          -20.8973  -20.7390  -20.7390   -1.7195   -1.4622   -1.0708   -0.8328   -0.7987   -0.7635   -0.6009
          Occ. No.          2.0000    2.0000    2.0000    2.0000    2.0000    2.0000    2.0000    2.0000    2.0000    2.0000
 
        1 O1     1s         0.0023   -0.7063    0.7063   -0.0128    0.0124    0.0132   -0.0066   -0.0239    0.0000    0.0075
        2 O1     2s         0.0019    0.0056   -0.0057    0.3426   -0.5599    0.6404   -0.1421   -0.4374   -0.0000    0.0825
        3 O1     3s         0.0011    0.0040   -0.0039   -0.0088    0.0208    0.0218   -0.0101   -0.0524    0.0000    0.0159
        4 O1     4s         0.0002    0.0009   -0.0008   -0.0002    0.0040    0.0037   -0.0021   -0.0110    0.0000    0.0036
        5 O1     2px       -0.0004   -0.0008    0.0007   -0.0251    0.0354    0.0694    0.2964   -0.2299    0.0000   -0.6474
        6 O1     3px       -0.0004   -0.0008    0.0005    0.0096   -0.0053   -0.0120   -0.0202    0.0192   -0.0000    0.0020
        7 O1     4px       -0.0002    0.0002   -0.0004    0.0021    0.0005    0.0003   -0.0009    0.0008    0.0000    0.0052
        8 O1     2py       -0.0013   -0.0024    0.0029   -0.1151    0.0862    0.1537   -0.2014   -0.3537   -0.0000    0.2703
        9 O1     3py       -0.0007   -0.0024    0.0028    0.0124   -0.0187   -0.0253    0.0177    0.0458   -0.0000   -0.0055
       10 O1     4py        0.0003    0.0016   -0.0016    0.0010   -0.0036    0.0009    0.0031    0.0039   -0.0000   -0.0024
       11 O1     2pz       -0.0000   -0.0000   -0.0000   -0.0000   -0.0000   -0.0000   -0.0000    0.0000    0.4057    0.0000
       12 O1     3pz       -0.0000   -0.0000   -0.0000   -0.0000   -0.0000    0.0000    0.0000   -0.0000   -0.0155   -0.0000
       13 O1     4pz        0.0000   -0.0000    0.0000   -0.0000   -0.0000   -0.0000    0.0000   -0.0000   -0.0067   -0.0000
       14 O1     3d2-       0.0001    0.0005   -0.0006    0.0078   -0.0084   -0.0083   -0.0150    0.0163   -0.0000    0.0094
       15 O1     4d2-       0.0000    0.0003   -0.0003    0.0004   -0.0009   -0.0004   -0.0014    0.0010   -0.0000    0.0013
       16 O1     3d1-       0.0000    0.0000    0.0000    0.0000    0.0000    0.0000    0.0000   -0.0000   -0.0313    0.0000
       17 O1     4d1-       0.0000   -0.0000   -0.0000    0.0000    0.0000    0.0000   -0.0000   -0.0000   -0.0055    0.0000
       18 O1     3d0       -0.0002   -0.0005    0.0006   -0.0104    0.0089    0.0061   -0.0064   -0.0146   -0.0000    0.0054
       19 O1     4d0       -0.0001   -0.0004    0.0004   -0.0009    0.0008    0.0002   -0.0009   -0.0008   -0.0000    0.0009
       20 O1     3d1+      -0.0000    0.0000    0.0000   -0.0000   -0.0000   -0.0000   -0.0000   -0.0000   -0.0075    0.0000
       21 O1     4d1+       0.0000   -0.0000   -0.0000    0.0000   -0.0000    0.0000    0.0000    0.0000   -0.0014   -0.0000
       22 O1     3d2+      -0.0004   -0.0011    0.0012   -0.0185    0.0134    0.0125   -0.0196   -0.0234   -0.0000    0.0147
       23 O1     4d2+      -0.0002   -0.0005    0.0006   -0.0026    0.0017    0.0014   -0.0021   -0.0017   -0.0000    0.0021
       24 O1     4f3-       0.0001    0.0002   -0.0001    0.0044   -0.0040   -0.0017    0.0061    0.0044    0.0000   -0.0049
       25 O1     4f2-      -0.0000    0.0000    0.0000   -0.0000   -0.0000    0.0000   -0.0000   -0.0000    0.0028    0.0000
       26 O1     4f1-       0.0000    0.0002   -0.0002    0.0033   -0.0030   -0.0017    0.0017    0.0037   -0.0000   -0.0012
       27 O1     4f0        0.0000   -0.0000   -0.0000    0.0000    0.0000   -0.0000   -0.0000    0.0000   -0.0037    0.0000
       28 O1     4f1+      -0.0000    0.0000   -0.0000    0.0007   -0.0007   -0.0005   -0.0003    0.0008    0.0000   -0.0008
       29 O1     4f2+      -0.0000   -0.0000    0.0000   -0.0000    0.0000    0.0000    0.0000   -0.0000   -0.0065   -0.0000
       30 O1     4f3+       0.0000    0.0001   -0.0001    0.0034   -0.0036   -0.0026   -0.0045    0.0054   -0.0000    0.0034
       31 O2     1s         0.9994   -0.0000   -0.0011   -0.0281    0.0000   -0.0158   -0.0051   -0.0000   -0.0000    0.0000
       32 O2     2s        -0.0039    0.0000    0.0118    0.6240   -0.0000   -0.6373   -0.0544    0.0000   -0.0000   -0.0000
       33 O2     3s        -0.0030    0.0000    0.0067   -0.0690    0.0000   -0.0199   -0.0087    0.0000   -0.0000    0.0000
       34 O2     4s        -0.0006    0.0000    0.0011   -0.0127    0.0000   -0.0044   -0.0035    0.0000   -0.0000    0.0000
       35 O2     2px        0.0001    0.0000    0.0022    0.0607   -0.0000    0.1395    0.7132    0.0000    0.0000    0.0000
       36 O2     3px       -0.0007    0.0000    0.0014   -0.0271    0.0000   -0.0175   -0.0753   -0.0000   -0.0000    0.0000
       37 O2     4px        0.0013   -0.0000   -0.0004   -0.0042    0.0000    0.0016   -0.0102   -0.0000   -0.0000   -0.0000
       38 O2     2py        0.0000   -0.0069    0.0000   -0.0000   -0.3362    0.0000   -0.0000    0.5484    0.0000   -0.1361
       39 O2     3py        0.0000   -0.0046    0.0000    0.0000    0.0650   -0.0000    0.0000   -0.0547   -0.0000   -0.0054
       40 O2     4py       -0.0000    0.0012   -0.0000   -0.0000   -0.0013   -0.0000    0.0000   -0.0103    0.0000    0.0008
       41 O2     2pz        0.0000    0.0000    0.0000    0.0000    0.0000   -0.0000   -0.0000   -0.0000    0.6510    0.0000
       42 O2     3pz        0.0000    0.0000    0.0000    0.0000    0.0000    0.0000   -0.0000   -0.0000   -0.0440    0.0000
       43 O2     4pz        0.0000    0.0000    0.0000    0.0000    0.0000   -0.0000   -0.0000   -0.0000   -0.0180    0.0000
       44 O2     3d2-       0.0000   -0.0010    0.0000   -0.0000   -0.0267    0.0000   -0.0000    0.0185    0.0000   -0.0442
       45 O2     4d2-       0.0000   -0.0005    0.0000    0.0000   -0.0029    0.0000   -0.0000    0.0017    0.0000   -0.0074
       46 O2     3d1-       0.0000   -0.0000   -0.0000    0.0000    0.0000    0.0000    0.0000    0.0000    0.0000    0.0000
       47 O2     4d1-       0.0000   -0.0000   -0.0000    0.0000    0.0000    0.0000    0.0000   -0.0000    0.0000   -0.0000
       48 O2     3d0        0.0001   -0.0000   -0.0011   -0.0147    0.0000   -0.0027   -0.0119    0.0000    0.0000   -0.0000
       49 O2     4d0        0.0004   -0.0000   -0.0006    0.0007   -0.0000    0.0003   -0.0010    0.0000    0.0000   -0.0000
       50 O2     3d1+      -0.0000    0.0000    0.0000   -0.0000   -0.0000   -0.0000   -0.0000   -0.0000    0.0213   -0.0000
       51 O2     4d1+      -0.0000    0.0000    0.0000   -0.0000   -0.0000   -0.0000   -0.0000    0.0000    0.0032   -0.0000
       52 O2     3d2+       0.0006   -0.0000   -0.0016   -0.0219    0.0000   -0.0041    0.0122    0.0000    0.0000   -0.0000
       53 O2     4d2+       0.0003   -0.0000   -0.0008   -0.0014    0.0000   -0.0004    0.0005    0.0000    0.0000   -0.0000
       54 O2     4f3-      -0.0000    0.0001   -0.0000    0.0000    0.0075   -0.0000    0.0000   -0.0081    0.0000   -0.0057
       55 O2     4f2-      -0.0000   -0.0000    0.0000    0.0000   -0.0000    0.0000    0.0000    0.0000    0.0000    0.0000
       56 O2     4f1-      -0.0000    0.0001   -0.0000    0.0000    0.0054   -0.0000    0.0000   -0.0046    0.0000    0.0010
       57 O2     4f0        0.0000   -0.0000   -0.0000    0.0000   -0.0000    0.0000    0.0000    0.0000   -0.0057   -0.0000
       58 O2     4f1+       0.0000   -0.0000   -0.0001   -0.0016    0.0000    0.0002   -0.0006   -0.0000    0.0000    0.0000
       59 O2     4f2+       0.0000   -0.0000    0.0000    0.0000    0.0000    0.0000    0.0000    0.0000   -0.0098   -0.0000
       60 O2     4f3+       0.0001   -0.0000   -0.0002   -0.0078    0.0000   -0.0011   -0.0098   -0.0000    0.0000   -0.0000
       61 O3     1s         0.0023    0.7063    0.7063   -0.0128   -0.0124    0.0132   -0.0066    0.0239    0.0000   -0.0075
       62 O3     2s         0.0019   -0.0056   -0.0057    0.3426    0.5599    0.6404   -0.1421    0.4374    0.0000   -0.0825
       63 O3     3s         0.0011   -0.0040   -0.0039   -0.0088   -0.0208    0.0218   -0.0101    0.0524    0.0000   -0.0159
       64 O3     4s         0.0002   -0.0009   -0.0008   -0.0002   -0.0040    0.0037   -0.0021    0.0110    0.0000   -0.0036
       65 O3     2px       -0.0004    0.0008    0.0007   -0.0251   -0.0354    0.0694    0.2964    0.2299    0.0000    0.6474
       66 O3     3px       -0.0004    0.0008    0.0005    0.0096    0.0053   -0.0120   -0.0202   -0.0192   -0.0000   -0.0020
       67 O3     4px       -0.0002   -0.0002   -0.0004    0.0021   -0.0005    0.0003   -0.0009   -0.0008   -0.0000   -0.0052
       68 O3     2py        0.0013   -0.0024   -0.0029    0.1151    0.0862   -0.1537    0.2014   -0.3537   -0.0000    0.2703
       69 O3     3py        0.0007   -0.0024   -0.0028   -0.0124   -0.0187    0.0253   -0.0177    0.0458    0.0000   -0.0055
       70 O3     4py       -0.0003    0.0016    0.0016   -0.0010   -0.0036   -0.0009   -0.0031    0.0039   -0.0000   -0.0024
       71 O3     2pz        0.0000   -0.0000   -0.0000   -0.0000   -0.0000   -0.0000   -0.0000   -0.0000    0.4057   -0.0000
       72 O3     3pz        0.0000   -0.0000   -0.0000   -0.0000   -0.0000   -0.0000    0.0000    0.0000   -0.0155   -0.0000
       73 O3     4pz       -0.0000   -0.0000   -0.0000   -0.0000   -0.0000   -0.0000    0.0000    0.0000   -0.0067   -0.0000
       74 O3     3d2-      -0.0001    0.0005    0.0006   -0.0078   -0.0084    0.0083    0.0150    0.0163    0.0000    0.0094
       75 O3     4d2-      -0.0000    0.0003    0.0003   -0.0004   -0.0009    0.0004    0.0014    0.0010   -0.0000    0.0013
       76 O3     3d1-       0.0000   -0.0000   -0.0000   -0.0000   -0.0000   -0.0000   -0.0000   -0.0000    0.0313   -0.0000
       77 O3     4d1-       0.0000   -0.0000    0.0000   -0.0000   -0.0000   -0.0000    0.0000   -0.0000    0.0055   -0.0000
       78 O3     3d0       -0.0002    0.0005    0.0006   -0.0104   -0.0089    0.0061   -0.0064    0.0146   -0.0000   -0.0054
       79 O3     4d0       -0.0001    0.0004    0.0004   -0.0009   -0.0008    0.0002   -0.0009    0.0008   -0.0000   -0.0009
       80 O3     3d1+      -0.0000   -0.0000   -0.0000    0.0000   -0.0000   -0.0000    0.0000   -0.0000   -0.0075    0.0000
       81 O3     4d1+       0.0000    0.0000    0.0000    0.0000   -0.0000   -0.0000   -0.0000   -0.0000   -0.0014    0.0000
       82 O3     3d2+      -0.0004    0.0011    0.0012   -0.0185   -0.0134    0.0125   -0.0196    0.0234   -0.0000   -0.0147
       83 O3     4d2+      -0.0002    0.0005    0.0006   -0.0026   -0.0017    0.0014   -0.0021    0.0017   -0.0000   -0.0021
       84 O3     4f3-      -0.0001    0.0002    0.0001   -0.0044   -0.0040    0.0017   -0.0061    0.0044    0.0000   -0.0049
       85 O3     4f2-      -0.0000    0.0000   -0.0000    0.0000    0.0000   -0.0000    0.0000   -0.0000   -0.0028    0.0000
       86 O3     4f1-      -0.0000    0.0002    0.0002   -0.0033   -0.0030    0.0017   -0.0017    0.0037   -0.0000   -0.0012
       87 O3     4f0       -0.0000    0.0000   -0.0000    0.0000    0.0000   -0.0000   -0.0000    0.0000   -0.0037    0.0000
       88 O3     4f1+      -0.0000   -0.0000   -0.0000    0.0007    0.0007   -0.0005   -0.0003   -0.0008    0.0000    0.0008
       89 O3     4f2+      -0.0000    0.0000   -0.0000   -0.0000   -0.0000   -0.0000    0.0000    0.0000   -0.0065    0.0000
       90 O3     4f3+       0.0000   -0.0001   -0.0001    0.0034    0.0036   -0.0026   -0.0045   -0.0054   -0.0000   -0.0034
 
          Orbital           11        12        13        14        15        16        17        18        19        20    
          Energy           -0.5073   -0.5008   -0.0350    0.1631    0.1703    0.2318    0.2348    0.2965    0.3600    0.3709
          Occ. No.          2.0000    2.0000    0.0000    0.0000    0.0000    0.0000    0.0000    0.0000    0.0000    0.0000
 
        1 O1     1s        -0.0000    0.0020   -0.0000    0.0806   -0.2182   -0.0528    0.0000    0.0826   -0.0160   -0.0000
        2 O1     2s        -0.0000    0.0002   -0.0000    0.6958   -1.5885   -0.3320    0.0000    0.5318   -0.0555   -0.0000
        3 O1     3s        -0.0000    0.0128   -0.0000    0.2521   -0.9418   -0.2760    0.0000    0.5540   -0.0228    0.0000
        4 O1     4s        -0.0000    0.0044   -0.0000    0.0388   -0.2128   -0.0670   -0.0000    0.1486    0.0001    0.0000
        5 O1     2px        0.0000    0.6675    0.0000   -0.0447    0.2573   -0.0115   -0.0000   -0.1217   -0.1820   -0.0000
        6 O1     3px        0.0000    0.0285    0.0000   -0.0609    0.2708    0.3960   -0.0000    0.0974   -0.8256   -0.0000
        7 O1     4px       -0.0000   -0.0019    0.0000   -0.0089    0.0361    0.1804    0.0000    0.0836   -0.3285   -0.0000
        8 O1     2py        0.0000    0.0550    0.0000   -0.9599    0.6244    0.0875   -0.0000   -0.3097   -0.1719   -0.0000
        9 O1     3py        0.0000   -0.0125    0.0000   -0.5489    0.7777    0.2365   -0.0000   -0.9345   -0.1167   -0.0000
       10 O1     4py        0.0000   -0.0027   -0.0000   -0.0773    0.1044    0.0132    0.0000   -0.2232   -0.0229   -0.0000
       11 O1     2pz       -0.6963    0.0000    0.6680    0.0000   -0.0000   -0.0000   -0.1256    0.0000    0.0000   -0.1530
       12 O1     3pz       -0.0274    0.0000    0.1701   -0.0000    0.0000   -0.0000    0.3684    0.0000    0.0000   -0.8846
       13 O1     4pz        0.0071   -0.0000    0.0272   -0.0000    0.0000   -0.0000    0.2024    0.0000    0.0000   -0.3559
       14 O1     3d2-       0.0000   -0.0036   -0.0000    0.0247   -0.0469   -0.0129    0.0000    0.0202    0.0084    0.0000
       15 O1     4d2-       0.0000   -0.0006   -0.0000    0.0132   -0.0318   -0.0119    0.0000    0.0145    0.0154    0.0000
       16 O1     3d1-       0.0251   -0.0000    0.0126   -0.0000    0.0000   -0.0000    0.0074   -0.0000   -0.0000    0.0080
       17 O1     4d1-       0.0059   -0.0000    0.0013   -0.0000   -0.0000    0.0000   -0.0005   -0.0000   -0.0000    0.0130
       18 O1     3d0        0.0000    0.0040    0.0000   -0.0201    0.0519    0.0289   -0.0000   -0.0524   -0.0067    0.0000
       19 O1     4d0        0.0000    0.0002    0.0000   -0.0147    0.0327    0.0180   -0.0000   -0.0359   -0.0087   -0.0000
       20 O1     3d1+       0.0054    0.0000    0.0040   -0.0000   -0.0000    0.0000    0.0028   -0.0000   -0.0000    0.0104
       21 O1     4d1+       0.0012   -0.0000    0.0003    0.0000    0.0000    0.0000    0.0003    0.0000   -0.0000    0.0085
       22 O1     3d2+       0.0000    0.0075    0.0000   -0.0210    0.0774    0.0525   -0.0000   -0.0979    0.0047    0.0000
       23 O1     4d2+       0.0000   -0.0002    0.0000   -0.0189    0.0467    0.0303   -0.0000   -0.0675   -0.0007   -0.0000
       24 O1     4f3-      -0.0000   -0.0011   -0.0000    0.0034   -0.0070   -0.0003    0.0000    0.0104   -0.0016   -0.0000
       25 O1     4f2-      -0.0022    0.0000   -0.0003    0.0000   -0.0000   -0.0000    0.0009    0.0000    0.0000   -0.0048
       26 O1     4f1-       0.0000   -0.0012   -0.0000    0.0030   -0.0051   -0.0032    0.0000    0.0101    0.0044    0.0000
       27 O1     4f0        0.0018   -0.0000    0.0015    0.0000   -0.0000   -0.0000   -0.0019   -0.0000   -0.0000    0.0061
       28 O1     4f1+      -0.0000    0.0009   -0.0000    0.0013   -0.0007   -0.0018    0.0000    0.0016    0.0036    0.0000
       29 O1     4f2+       0.0051    0.0000   -0.0004   -0.0000   -0.0000   -0.0000   -0.0018    0.0000   -0.0000    0.0054
       30 O1     4f3+       0.0000   -0.0029   -0.0000    0.0043   -0.0041   -0.0044    0.0000    0.0054    0.0090    0.0000
       31 O2     1s         0.0000    0.0220    0.0000   -0.2350    0.0000    0.1149    0.0000   -0.2669   -0.0000   -0.0000
       32 O2     2s         0.0000    0.2603    0.0000   -1.8678    0.0000    0.7080   -0.0000   -1.6339   -0.0000   -0.0000
       33 O2     3s         0.0000    0.0566    0.0000   -0.8765    0.0000    0.4931   -0.0000   -1.0033    0.0000    0.0000
       34 O2     4s         0.0000    0.0138    0.0000   -0.1930    0.0000    0.0990   -0.0000   -0.1826    0.0000    0.0000
       35 O2     2px       -0.0000   -0.6180   -0.0000   -0.5468    0.0000   -0.0497   -0.0000   -0.1510    0.0000    0.0000
       36 O2     3px       -0.0000   -0.0259   -0.0000   -0.2593    0.0000    0.3885    0.0000   -0.3239    0.0000   -0.0000
       37 O2     4px        0.0000   -0.0032   -0.0000   -0.0255    0.0000    0.1697    0.0000   -0.0031    0.0000   -0.0000
       38 O2     2py        0.0000    0.0000    0.0000    0.0000    1.5402   -0.0000   -0.0000    0.0000   -0.0588   -0.0000
       39 O2     3py       -0.0000    0.0000    0.0000    0.0000    1.5747   -0.0000   -0.0000    0.0000    0.2995    0.0000
       40 O2     4py       -0.0000   -0.0000    0.0000    0.0000    0.1597   -0.0000   -0.0000    0.0000    0.1468    0.0000
       41 O2     2pz        0.0000    0.0000   -0.8945   -0.0000    0.0000    0.0000   -0.0331   -0.0000    0.0000    0.0000
       42 O2     3pz       -0.0000    0.0000   -0.1994   -0.0000    0.0000    0.0000    0.2991   -0.0000    0.0000    0.0000
       43 O2     4pz       -0.0000   -0.0000   -0.0209   -0.0000    0.0000   -0.0000    0.1819   -0.0000    0.0000    0.0000
       44 O2     3d2-      -0.0000   -0.0000    0.0000    0.0000    0.0965   -0.0000   -0.0000    0.0000    0.0952    0.0000
       45 O2     4d2-      -0.0000    0.0000    0.0000    0.0000    0.0593   -0.0000   -0.0000   -0.0000    0.0648    0.0000
       46 O2     3d1-      -0.0618    0.0000   -0.0000    0.0000   -0.0000    0.0000   -0.0000   -0.0000   -0.0000    0.1135
       47 O2     4d1-      -0.0143    0.0000   -0.0000    0.0000   -0.0000   -0.0000   -0.0000   -0.0000   -0.0000    0.0686
       48 O2     3d0        0.0000    0.0178    0.0000   -0.0016   -0.0000   -0.0615   -0.0000    0.1252   -0.0000    0.0000
       49 O2     4d0       -0.0000    0.0020   -0.0000    0.0106   -0.0000   -0.0313   -0.0000    0.0567   -0.0000    0.0000
       50 O2     3d1+       0.0000    0.0000   -0.0023    0.0000    0.0000   -0.0000   -0.0170    0.0000   -0.0000   -0.0000
       51 O2     4d1+       0.0000    0.0000   -0.0001    0.0000    0.0000   -0.0000   -0.0071    0.0000   -0.0000   -0.0000
       52 O2     3d2+       0.0000    0.0311   -0.0000   -0.0076   -0.0000   -0.1108   -0.0000    0.1413   -0.0000    0.0000
       53 O2     4d2+      -0.0000    0.0057   -0.0000    0.0154   -0.0000   -0.0507   -0.0000    0.0517   -0.0000   -0.0000
       54 O2     4f3-      -0.0000   -0.0000   -0.0000   -0.0000   -0.0124    0.0000    0.0000   -0.0000   -0.0018    0.0000
       55 O2     4f2-      -0.0055    0.0000   -0.0000    0.0000   -0.0000    0.0000   -0.0000   -0.0000   -0.0000    0.0044
       56 O2     4f1-      -0.0000   -0.0000   -0.0000   -0.0000   -0.0107    0.0000    0.0000   -0.0000   -0.0073   -0.0000
       57 O2     4f0       -0.0000    0.0000   -0.0021    0.0000    0.0000   -0.0000   -0.0014   -0.0000   -0.0000   -0.0000
       58 O2     4f1+      -0.0000   -0.0014   -0.0000   -0.0009    0.0000   -0.0028   -0.0000    0.0041   -0.0000    0.0000
       59 O2     4f2+      -0.0000   -0.0000    0.0015   -0.0000    0.0000   -0.0000   -0.0020    0.0000    0.0000   -0.0000
       60 O2     4f3+       0.0000    0.0025   -0.0000    0.0010   -0.0000   -0.0077   -0.0000    0.0089   -0.0000   -0.0000
       61 O3     1s        -0.0000    0.0020    0.0000    0.0806    0.2182   -0.0528   -0.0000    0.0826    0.0160    0.0000
       62 O3     2s        -0.0000    0.0002    0.0000    0.6958    1.5885   -0.3320   -0.0000    0.5318    0.0555    0.0000
       63 O3     3s        -0.0000    0.0128    0.0000    0.2521    0.9418   -0.2760   -0.0000    0.5540    0.0228    0.0000
       64 O3     4s        -0.0000    0.0044    0.0000    0.0388    0.2128   -0.0670   -0.0000    0.1486   -0.0001    0.0000
       65 O3     2px        0.0000    0.6675    0.0000   -0.0447   -0.2573   -0.0115   -0.0000   -0.1217    0.1820    0.0000
       66 O3     3px        0.0000    0.0285    0.0000   -0.0609   -0.2708    0.3960    0.0000    0.0974    0.8256    0.0000
       67 O3     4px       -0.0000   -0.0019    0.0000   -0.0089   -0.0361    0.1804    0.0000    0.0836    0.3285    0.0000
       68 O3     2py       -0.0000   -0.0550    0.0000    0.9599    0.6244   -0.0875   -0.0000    0.3097   -0.1719   -0.0000
       69 O3     3py       -0.0000    0.0125    0.0000    0.5489    0.7777   -0.2365   -0.0000    0.9345   -0.1167    0.0000
       70 O3     4py        0.0000    0.0027    0.0000    0.0773    0.1044   -0.0132   -0.0000    0.2232   -0.0229    0.0000
       71 O3     2pz        0.6963   -0.0000    0.6680    0.0000   -0.0000   -0.0000   -0.1256    0.0000   -0.0000    0.1530
       72 O3     3pz        0.0274   -0.0000    0.1701    0.0000    0.0000   -0.0000    0.3684    0.0000   -0.0000    0.8846
       73 O3     4pz       -0.0071    0.0000    0.0272   -0.0000    0.0000   -0.0000    0.2024    0.0000   -0.0000    0.3559
       74 O3     3d2-       0.0000    0.0036   -0.0000   -0.0247   -0.0469    0.0129   -0.0000   -0.0202    0.0084    0.0000
       75 O3     4d2-       0.0000    0.0006   -0.0000   -0.0132   -0.0318    0.0119   -0.0000   -0.0145    0.0154    0.0000
       76 O3     3d1-       0.0251   -0.0000   -0.0126    0.0000    0.0000   -0.0000   -0.0074    0.0000   -0.0000    0.0080
       77 O3     4d1-       0.0059   -0.0000   -0.0013    0.0000    0.0000   -0.0000    0.0005    0.0000   -0.0000    0.0130
       78 O3     3d0        0.0000    0.0040   -0.0000   -0.0201   -0.0519    0.0289    0.0000   -0.0524    0.0067    0.0000
       79 O3     4d0        0.0000    0.0002   -0.0000   -0.0147   -0.0327    0.0180    0.0000   -0.0359    0.0087    0.0000
       80 O3     3d1+      -0.0054    0.0000    0.0040   -0.0000   -0.0000   -0.0000    0.0028    0.0000    0.0000   -0.0104
       81 O3     4d1+      -0.0012    0.0000    0.0003   -0.0000   -0.0000   -0.0000    0.0003    0.0000    0.0000   -0.0085
       82 O3     3d2+       0.0000    0.0075    0.0000   -0.0210   -0.0774    0.0525    0.0000   -0.0979   -0.0047   -0.0000
       83 O3     4d2+       0.0000   -0.0002    0.0000   -0.0189   -0.0467    0.0303    0.0000   -0.0675    0.0007   -0.0000
       84 O3     4f3-       0.0000    0.0011   -0.0000   -0.0034   -0.0070    0.0003    0.0000   -0.0104   -0.0016   -0.0000
       85 O3     4f2-      -0.0022    0.0000    0.0003    0.0000   -0.0000   -0.0000   -0.0009    0.0000    0.0000   -0.0048
       86 O3     4f1-       0.0000    0.0012   -0.0000   -0.0030   -0.0051    0.0032    0.0000   -0.0101    0.0044    0.0000
       87 O3     4f0       -0.0018    0.0000    0.0015   -0.0000   -0.0000    0.0000   -0.0019    0.0000    0.0000   -0.0061
       88 O3     4f1+       0.0000    0.0009    0.0000    0.0013    0.0007   -0.0018   -0.0000    0.0016   -0.0036   -0.0000
       89 O3     4f2+      -0.0051    0.0000   -0.0004   -0.0000    0.0000   -0.0000   -0.0018   -0.0000    0.0000   -0.0054
       90 O3     4f3+      -0.0000   -0.0029   -0.0000    0.0043    0.0041   -0.0044   -0.0000    0.0054   -0.0090   -0.0000
 
          Orbital           21    
          Energy            0.4504
          Occ. No.          0.0000
 
        1 O1     1s        -0.0505
        2 O1     2s        -0.2952
        3 O1     3s         0.1962
        4 O1     4s         0.1363
        5 O1     2px        0.1585
        6 O1     3px        0.3412
        7 O1     4px        0.0789
        8 O1     2py       -0.0014
        9 O1     3py        0.4440
       10 O1     4py        0.0992
       11 O1     2pz       -0.0000
       12 O1     3pz        0.0000
       13 O1     4pz        0.0000
       14 O1     3d2-      -0.0747
       15 O1     4d2-      -0.0471
       16 O1     3d1-       0.0000
       17 O1     4d1-       0.0000
       18 O1     3d0        0.0593
       19 O1     4d0        0.0351
       20 O1     3d1+      -0.0000
       21 O1     4d1+      -0.0000
       22 O1     3d2+       0.0795
       23 O1     4d2+       0.0445
       24 O1     4f3-      -0.0018
       25 O1     4f2-      -0.0000
       26 O1     4f1-      -0.0038
       27 O1     4f0       -0.0000
       28 O1     4f1+      -0.0019
       29 O1     4f2+       0.0000
       30 O1     4f3+      -0.0059
       31 O2     1s         0.0921
       32 O2     2s         0.5557
       33 O2     3s         0.9048
       34 O2     4s         0.2754
       35 O2     2px       -0.2066
       36 O2     3px       -0.4619
       37 O2     4px       -0.1706
       38 O2     2py        0.0000
       39 O2     3py        0.0000
       40 O2     4py        0.0000
       41 O2     2pz        0.0000
       42 O2     3pz        0.0000
       43 O2     4pz        0.0000
       44 O2     3d2-       0.0000
       45 O2     4d2-       0.0000
       46 O2     3d1-      -0.0000
       47 O2     4d1-      -0.0000
       48 O2     3d0       -0.0311
       49 O2     4d0       -0.0088
       50 O2     3d1+      -0.0000
       51 O2     4d1+      -0.0000
       52 O2     3d2+      -0.0709
       53 O2     4d2+      -0.0328
       54 O2     4f3-      -0.0000
       55 O2     4f2-      -0.0000
       56 O2     4f1-      -0.0000
       57 O2     4f0       -0.0000
       58 O2     4f1+      -0.0007
       59 O2     4f2+      -0.0000
       60 O2     4f3+      -0.0045
       61 O3     1s        -0.0505
       62 O3     2s        -0.2952
       63 O3     3s         0.1962
       64 O3     4s         0.1363
       65 O3     2px        0.1585
       66 O3     3px        0.3412
       67 O3     4px        0.0789
       68 O3     2py        0.0014
       69 O3     3py       -0.4440
       70 O3     4py       -0.0992
       71 O3     2pz       -0.0000
       72 O3     3pz       -0.0000
       73 O3     4pz       -0.0000
       74 O3     3d2-       0.0747
       75 O3     4d2-       0.0471
       76 O3     3d1-      -0.0000
       77 O3     4d1-      -0.0000
       78 O3     3d0        0.0593
       79 O3     4d0        0.0351
       80 O3     3d1+      -0.0000
       81 O3     4d1+      -0.0000
       82 O3     3d2+       0.0795
       83 O3     4d2+       0.0445
       84 O3     4f3-       0.0018
       85 O3     4f2-       0.0000
       86 O3     4f1-       0.0038
       87 O3     4f0        0.0000
       88 O3     4f1+      -0.0019
       89 O3     4f2+       0.0000
       90 O3     4f3+      -0.0059
--
 
 
++    Molecular charges:
      ------------------
 
      Mulliken charges per centre and basis function type
      ---------------------------------------------------
 
                O1      O2      O3    
      1s       1.9977  1.9989  1.9977
      2s       1.9541  1.6591  1.9541
      2px      1.9535  1.7520  1.9535
      2pz      1.4089  1.0904  1.4089
      2py      0.8197  1.0365  0.8197
      3s      -0.0058 -0.0332 -0.0058
      3px     -0.0149 -0.0330 -0.0149
      3pz     -0.0075 -0.0148 -0.0075
      3py      0.0004  0.0058  0.0004
      4s       0.0037  0.0011  0.0037
      3d2+     0.0204  0.0297  0.0204
      3d1+     0.0009  0.0035  0.0009
      3d0      0.0059  0.0067  0.0059
      3d1-     0.0141  0.0534  0.0141
      3d2-     0.0103  0.0386  0.0103
      4px      0.0005  0.0011  0.0005
      4pz      0.0012  0.0019  0.0012
      4py      0.0026  0.0042  0.0026
      4d2+     0.0014  0.0034  0.0014
      4d1+     0.0002  0.0005  0.0002
      4d0      0.0002 -0.0003  0.0002
      4d1-     0.0021  0.0135  0.0021
      4d2-     0.0005  0.0059  0.0005
      4f3+     0.0023  0.0032  0.0023
      4f2+     0.0016  0.0031  0.0016
      4f1+     0.0002  0.0003  0.0002
      4f0      0.0008  0.0015  0.0008
      4f1-     0.0012  0.0013  0.0012
      4f2-     0.0004  0.0016  0.0004
      4f3-     0.0029  0.0053  0.0029
      Total    8.1795  7.6411  8.1795
 
      N-E     -0.1795  0.3589 -0.1795
 
      Total electronic charge=   24.000000
 
      Total            charge=   -0.000000
--
 
 
  Input file to MOLDEN was generated!
 
 
++    Static properties:
      ------------------
 
 
      LoProp Charges per center
 

                   O1       O2       O3    
      Nuclear      8.0000   8.0000   8.0000
      Electronic  -8.1879  -7.6243  -8.1879
 
      Total       -0.1879   0.3757  -0.1879
--
 
 
++    Natural Bond Order analysis
      ---------------------------
      Based on LoProp computed density
      -------------------------------------------------------------------------------------
      Atom A       Atom B       Bond Order | Atom A       Atom B       Bond Order
        O1           O2             1.996  |   O2           O3             1.996
      -------------------------------------------------------------------------------------
      NBO located     11.999 core electrons.
      NBO located      3.961 lone pair electrons.
      NBO located      7.982 electrons involved in    2 bonds.
      The remaining    0.058 electrons are to be considered as diffuse
--
 
 
++    Molecular properties:
      ---------------------
 
      Charge (e):
                      =   -0.0000
      Dipole Moment (Debye):
      Origin of the operator (Ang)=    0.0000    0.0000    0.0000
                   X= -1.9709E-01               Y= -3.4378E-11               Z= -7.1642E-14           Total=  1.9709E-01
      Quadrupole Moment (Debye*Ang):
      Origin of the operator (Ang)=    0.2205    0.0000    0.0000
                  XX= -1.6224E+01              XY= -7.6639E-12              XZ=  7.3045E-14              YY= -1.6947E+01
                  YZ= -2.8784E-14              ZZ= -1.4917E+01
      In traceless form (Debye*Ang)
                  XX= -2.9196E-01              XY= -1.1496E-11              XZ=  1.0957E-13              YY= -1.3765E+00
                  YZ= -4.3175E-14              ZZ=  1.6685E+00
--
 
 
  Input file to MOLDEN was generated!
 
 ###############################################################################
 ###############################################################################
 ###                                                                         ###
 ###                                                                         ###
 ###    RunFile label nBas                                                   ###
 ###    was used       78 times                                              ###
 ###                                                                         ###
 ###                                                                         ###
 ###############################################################################
 ###############################################################################
--- Stop Module: scf at Sat Dec 21 09:45:04 2024 /rc=_RC_ALL_IS_WELL_ ---
*** files: ozone_150.00.LprOrb ozone_150.00.LoProp.molden ozone_150.00.scf.molden ozone_150.00.ScfOrb ozone_150.00.scf.h5 xmldump
    saved to directory /home/grierjones/DDCASPT2/ozone/ANO-RCC-VTZP/ozone_150.00

>>> COPY /tmp/ozone_150.00/ozone_150.00.scf.h5 /home/grierjones/DDCASPT2/ozone/ANO-RCC-VTZP/ozone_150.00/

*** symbolic link created: INPORB -> ozone_150.00.ScfOrb
--- Start Module: rasscf at Sat Dec 21 09:45:04 2024 ---
 
()()()()()()()()()()()()()()()()()()()()()()()()()()()()()()()()()()()()()()()()()()()()()()()()()()

                                              &RASSCF

                                   only a single process is used
                       available to each process: 2.0 GB of memory, 1 thread?
()()()()()()()()()()()()()()()()()()()()()()()()()()()()()()()()()()()()()()()()()()()()()()()()()()
 
 
 *************** WARNING ****************
 ###############################################################################
 ###############################################################################
 ###                                                                         ###
 ###                                                                         ###
 ###    Too many macro-iterations.                                           ###
 ###                                                                         ###
 ###                                                                         ###
 ###############################################################################
 ###############################################################################
 Too many macro-iterations requested.
 Reset to maximum, new MAXIT=     200
 ****************************************
 
 *************** WARNING ****************
 ###############################################################################
 ###############################################################################
 ###                                                                         ###
 ###                                                                         ###
 ###    Too many SX-iterations.                                              ###
 ###                                                                         ###
 ###                                                                         ###
 ###############################################################################
 ###############################################################################
 Too many SX-iterations requested.
 Reset to maximum, new ITMAX=     100
 ****************************************
 
      Header of the ONEINT file:
      --------------------------
      
      Integrals generated by seward 4.2.0  , Sat Dec 21 09:45:00 2024
 
 
      OrdInt status: non-squared
 
 
      Cartesian coordinates in Angstrom:
      -----------------------------------------------------
      No.  Label        X            Y            Z        
      -----------------------------------------------------
       1   O1         0.33077100   1.23445300   0.00000000
       2   O2         0.00000000   0.00000000   0.00000000
       3   O3         0.33077100  -1.23445300   0.00000000
      -----------------------------------------------------
      Nuclear repulsion energy =   66.71808985
 
++    Wave function specifications:
      -----------------------------
 
      Number of closed shell electrons          20
      Number of electrons in active shells       4
      Max number of holes in RAS1 space          0
      Max nr of electrons in RAS3 space          0
      Number of inactive orbitals               10
      Number of active orbitals                  3
      Number of secondary orbitals              77
      Spin quantum number                      0.0
      State symmetry                             1
--
 
++    Orbital specifications:
      -----------------------
 
      Symmetry species                           1
                                                 a
      Frozen orbitals                            0
      Inactive orbitals                         10
      Active orbitals                            3
      RAS1 orbitals                              0
      RAS2 orbitals                              3
      RAS3 orbitals                              0
      Secondary orbitals                        77
      Deleted orbitals                           0
      Number of basis functions                 90
--
 
++    CI expansion specifications:
      ----------------------------
 
      Number of CSFs                             6
      Number of determinants                     6
      Number of root(s) required                 1
      Root chosen for geometry opt.              1
      CI root used                               1
         
      highest root included in the CI            1
      max. size of the explicit Hamiltonian      6
--
 
++    Optimization specifications:
      ----------------------------
 
      RASSCF algorithm: Conventional
      Maximum number of macro iterations       200
      Maximum number of SX iterations          100
      Threshold for RASSCF energy            0.100E-07
      Threshold for max MO rotation          0.100E+00
      Threshold for max BLB element          0.100E-03
      Level shift parameter                  0.500E+00
      Make Quasi-Newton update
--
 
      The MO-coefficients are taken from the file:
      /home/grierjones/DDCASPT2/ozone/ANO-RCC-VTZP/ozone_149.75/ozone_149.75.RasOrb                                                   
      Title: RASSCF average (pseudo-natural) orbitals                                      
 
      Total molecular charge    0.00
 
      ************************************************************************************************************************
      *                                                                                                                      *
      *                                            Wave function control section                                             *
      *                                                                                                                      *
      ************************************************************************************************************************
 
 
                                         RASSCF iterations: Energy and convergence statistics
                                         ----------------------------------------------------
 
      Iter CI   SX   CI       RASSCF       Energy    max ROT     max BLB   max BLB  Level Ln srch  Step   QN   Walltime
          iter iter root      energy       change     param      element    value   shift minimum  type update hh:mm:ss
 Nr of preliminary CI iterations:   1
        1   1    3    1  -224.54100239    0.00E+00   0.54E-03    7  15 1 -0.12E-02*  0.19   0.00    SX    NO    0:00:00
        2   1    3    1  -224.54100752   -0.51E-05*  0.31E-03    7  15 1 -0.71E-03*  0.19   0.00    SX    NO    0:00:00
        3   1    3    1  -224.54100865   -0.11E-05*  0.21E-03    7  15 1 -0.48E-03*  0.19   0.00    SX    NO    0:00:00
        4   1    3    1  -224.54100903   -0.38E-06*  0.10E-03    7  15 1 -0.24E-03*  0.19   0.00    SX    NO    0:00:00
        5   1    3    1  -224.54100914   -0.11E-06*  0.29E-03    7  15 1 -0.19E-03*  0.19   2.21    QN   YES    0:00:00
        6   1    3    1  -224.54100920   -0.54E-07* -0.13E-03    7  15 1  0.16E-03*  0.19   0.65    QN   YES    0:00:00
        7   1    3    1  -224.54100922   -0.23E-07*  0.22E-04    8  25 1  0.84E-04   0.19   0.64    QN   YES    0:00:00
        8   1    3    1  -224.54100922   -0.43E-08  -0.42E-05    7  15 1  0.87E-05   0.19   0.75    QN   YES    0:00:00
      Convergence after  8 iterations
 
  Dmat in MO in SXCTL bf call to SXHAM                                                                                    
  mat. size =     3x    3
 
        1.9889880151371908
        0.0000000000013530      1.7112878184009332
       -0.0011266769600127     -0.0000000000027170      0.2997241664618768
        9   1    3    1  -224.54100922    0.14E-10  -0.42E-05    8  25 1  0.15E-04   0.19   0.75    QN   YES    0:00:00
 
      ************************************************************************************************************************
                                                      Wave function printout:
                       occupation of active orbitals, and spin coupling of open shells (u,d: Spin up or down)
      ************************************************************************************************************************
 
      Note: transformation to natural orbitals
      has been made, which may change the order of the CSFs.
 
      printout of CI-coefficients larger than  0.05 for root  1
      energy=    -224.541009
      conf/sym  111     Coeff  Weight
             1  220  -0.92203 0.85014
             3  202   0.37994 0.14436
             6  022   0.07420 0.00551
 
      Natural orbitals and occupation numbers for root  1
      sym 1:   1.988989   1.711288   0.299723
 
      ************************************************************************************************************************
      *                                                                                                                      *
      *                                                    Final results                                                     *
      *                                                                                                                      *
      ************************************************************************************************************************
 
 
++    Wave function specifications:
      -----------------------------
 
      Number of closed shell electrons          20
      Number of electrons in active shells       4
      Max number of holes in RAS1 space          0
      Max nr of electrons in RAS3 space          0
      Number of inactive orbitals               10
      Number of active orbitals                  3
      Number of secondary orbitals              77
      Spin quantum number                      0.0
      State symmetry                             1
--
 
++    Orbital specifications:
      -----------------------
 
      Symmetry species                           1
                                                 a
      Frozen orbitals                            0
      Inactive orbitals                         10
      Active orbitals                            3
      RAS1 orbitals                              0
      RAS2 orbitals                              3
      RAS3 orbitals                              0
      Secondary orbitals                        77
      Deleted orbitals                           0
      Number of basis functions                 90
--
 
++    CI expansion specifications:
      ----------------------------
 
      Number of CSFs                             6
      Number of determinants                     6
      Number of root(s) required                 1
      CI root used                               1
      highest root included in the CI            1
      Root passed to geometry opt.               1
--
 
++    Final optimization conditions:
      ------------------------------
 
      Average CI energy                            -224.54100922
      RASSCF energy for state  1                   -224.54100922
      Super-CI energy                                -0.00000000
      RASSCF energy change                            0.00000000
      Max change in MO coefficients              -0.415E-05
      Max non-diagonal density matrix element    -0.417E-05
      Maximum BLB matrix element                  0.153E-04
      (orbital pair   8,  25 in symmetry   1)
      Norm of electronic gradient            0.412E-04
--
 
 
      Final state energy(ies):
      ------------------------
 
::    RASSCF root number  1 Total energy:   -224.54100922
 
++    Molecular orbitals:
      -------------------
 
      Pseudonatural active orbitals and approximate occupation numbers
 
 
 
 
      Molecular orbitals for symmetry species 1: a  
 
 
      Orbital                1         2         3         4         5         6         7         8         9        10
      Energy          -20.8037  -20.7373  -20.7373   -1.6861   -1.4456   -1.0582   -0.7942   -0.7857   -0.6011   -0.4812
      Occ. No.          2.0000    2.0000    2.0000    2.0000    2.0000    2.0000    2.0000    2.0000    2.0000    2.0000
 
    1 O1     1s         0.0049   -0.7063    0.7063   -0.0128    0.0113    0.0143   -0.0053    0.0228    0.0077    0.0008
    2 O1     2s         0.0025    0.0055   -0.0055    0.3609   -0.5769    0.6356   -0.1087    0.4052    0.0844   -0.0160
    3 O1     3s         0.0014    0.0039   -0.0038   -0.0110    0.0201    0.0232   -0.0075    0.0498    0.0159    0.0132
    4 O1     4s         0.0002    0.0008   -0.0007   -0.0008    0.0041    0.0037   -0.0017    0.0105    0.0036    0.0051
    5 O1     2px       -0.0005   -0.0008    0.0007   -0.0248    0.0341    0.0699    0.3535    0.2488   -0.6431    0.6429
    6 O1     3px       -0.0005   -0.0008    0.0005    0.0101   -0.0050   -0.0121   -0.0222   -0.0191    0.0025    0.0342
    7 O1     4px       -0.0002    0.0002   -0.0003    0.0020    0.0007    0.0000   -0.0023   -0.0012    0.0055   -0.0008
    8 O1     2py       -0.0017   -0.0023    0.0028   -0.1170    0.0836    0.1749   -0.2092    0.3762    0.2814    0.0996
    9 O1     3py       -0.0009   -0.0023    0.0027    0.0136   -0.0183   -0.0270    0.0150   -0.0440   -0.0049   -0.0123
   10 O1     4py        0.0004    0.0016   -0.0016    0.0008   -0.0036    0.0006    0.0039   -0.0048   -0.0028   -0.0040
   11 O1     2pz        0.0000    0.0000    0.0000    0.0000   -0.0000   -0.0000   -0.0000   -0.0000    0.0000   -0.0000
   12 O1     3pz        0.0000    0.0000   -0.0000    0.0000   -0.0000   -0.0000   -0.0000   -0.0000   -0.0000   -0.0000
   13 O1     4pz        0.0000   -0.0000    0.0000    0.0000   -0.0000   -0.0000   -0.0000    0.0000    0.0000   -0.0000
   14 O1     3d2-       0.0001    0.0005   -0.0005    0.0072   -0.0077   -0.0079   -0.0160   -0.0158    0.0085   -0.0004
   15 O1     4d2-       0.0000    0.0003   -0.0003    0.0002   -0.0008   -0.0003   -0.0016   -0.0009    0.0009    0.0003
   16 O1     3d1-      -0.0000   -0.0000    0.0000   -0.0000    0.0000   -0.0000   -0.0000    0.0000   -0.0000   -0.0000
   17 O1     4d1-      -0.0000   -0.0000    0.0000   -0.0000    0.0000   -0.0000   -0.0000    0.0000   -0.0000    0.0000
   18 O1     3d0       -0.0003   -0.0005    0.0006   -0.0112    0.0094    0.0064   -0.0062    0.0145    0.0061    0.0042
   19 O1     4d0       -0.0001   -0.0004    0.0004   -0.0011    0.0012   -0.0001   -0.0009    0.0007    0.0011    0.0002
   20 O1     3d1+      -0.0000   -0.0000    0.0000   -0.0000    0.0000   -0.0000    0.0000   -0.0000    0.0000    0.0000
   21 O1     4d1+      -0.0000    0.0000   -0.0000    0.0000   -0.0000   -0.0000   -0.0000   -0.0000    0.0000   -0.0000
   22 O1     3d2+      -0.0005   -0.0010    0.0011   -0.0183    0.0129    0.0138   -0.0186    0.0238    0.0145    0.0098
   23 O1     4d2+      -0.0002   -0.0005    0.0006   -0.0026    0.0016    0.0015   -0.0021    0.0020    0.0019    0.0003
   24 O1     4f3-       0.0001    0.0002   -0.0001    0.0044   -0.0039   -0.0020    0.0057   -0.0044   -0.0046   -0.0019
   25 O1     4f2-      -0.0000    0.0000   -0.0000   -0.0000   -0.0000    0.0000    0.0000    0.0000    0.0000    0.0000
   26 O1     4f1-       0.0000    0.0001   -0.0002    0.0034   -0.0030   -0.0014    0.0013   -0.0033   -0.0011   -0.0012
   27 O1     4f0       -0.0000   -0.0000    0.0000   -0.0000    0.0000    0.0000   -0.0000    0.0000   -0.0000    0.0000
   28 O1     4f1+      -0.0000    0.0000   -0.0000    0.0007   -0.0007   -0.0004   -0.0001   -0.0005   -0.0012    0.0014
   29 O1     4f2+      -0.0000   -0.0000    0.0000    0.0000   -0.0000    0.0000    0.0000    0.0000    0.0000    0.0000
   30 O1     4f3+       0.0000    0.0001   -0.0001    0.0032   -0.0033   -0.0025   -0.0048   -0.0052    0.0032   -0.0022
   31 O2     1s         0.9992   -0.0000   -0.0047   -0.0287    0.0000   -0.0137   -0.0064    0.0000    0.0000    0.0266
   32 O2     2s        -0.0048    0.0000    0.0114    0.6011   -0.0000   -0.6417   -0.0825    0.0000    0.0000    0.3218
   33 O2     3s        -0.0038    0.0000    0.0065   -0.0603    0.0000   -0.0266   -0.0109   -0.0000    0.0000    0.0717
   34 O2     4s        -0.0006    0.0000    0.0010   -0.0121    0.0000   -0.0049   -0.0041    0.0000    0.0000    0.0171
   35 O2     2px        0.0001    0.0000    0.0021    0.0623   -0.0000    0.1022    0.6497   -0.0000    0.0000   -0.6661
   36 O2     3px       -0.0008    0.0000    0.0013   -0.0266    0.0000   -0.0115   -0.0596    0.0000    0.0000   -0.0407
   37 O2     4px        0.0015   -0.0000   -0.0004   -0.0051    0.0000    0.0022   -0.0114    0.0000   -0.0000   -0.0029
   38 O2     2py        0.0000   -0.0067    0.0000   -0.0000   -0.3068    0.0000   -0.0000   -0.5172   -0.1386    0.0000
   39 O2     3py        0.0000   -0.0045    0.0000    0.0000    0.0616   -0.0000    0.0000    0.0502   -0.0083    0.0000
   40 O2     4py        0.0000    0.0012   -0.0000   -0.0000   -0.0007   -0.0000    0.0000    0.0103    0.0006   -0.0000
   41 O2     2pz       -0.0000   -0.0000    0.0000    0.0000    0.0000   -0.0000   -0.0000    0.0000   -0.0000   -0.0000
   42 O2     3pz       -0.0000   -0.0000    0.0000   -0.0000    0.0000    0.0000   -0.0000    0.0000    0.0000    0.0000
   43 O2     4pz       -0.0000    0.0000   -0.0000   -0.0000    0.0000    0.0000    0.0000    0.0000   -0.0000    0.0000
   44 O2     3d2-      -0.0000   -0.0010    0.0000   -0.0000   -0.0268    0.0000   -0.0000   -0.0211   -0.0424    0.0000
   45 O2     4d2-      -0.0000   -0.0005    0.0000    0.0000   -0.0028   -0.0000   -0.0000   -0.0023   -0.0065    0.0000
   46 O2     3d1-      -0.0000   -0.0000   -0.0000   -0.0000    0.0000    0.0000   -0.0000    0.0000   -0.0000   -0.0000
   47 O2     4d1-      -0.0000   -0.0000   -0.0000   -0.0000    0.0000    0.0000   -0.0000    0.0000   -0.0000   -0.0000
   48 O2     3d0        0.0005   -0.0000   -0.0011   -0.0143    0.0000   -0.0025   -0.0131    0.0000   -0.0000    0.0214
   49 O2     4d0        0.0004   -0.0000   -0.0006    0.0006   -0.0000    0.0001   -0.0015    0.0000   -0.0000    0.0027
   50 O2     3d1+      -0.0000   -0.0000    0.0000   -0.0000   -0.0000    0.0000    0.0000    0.0000    0.0000   -0.0000
   51 O2     4d1+      -0.0000   -0.0000    0.0000    0.0000   -0.0000    0.0000    0.0000    0.0000   -0.0000   -0.0000
   52 O2     3d2+       0.0008   -0.0000   -0.0016   -0.0221    0.0000   -0.0009    0.0146   -0.0000   -0.0000    0.0277
   53 O2     4d2+       0.0004   -0.0000   -0.0008   -0.0014   -0.0000    0.0007    0.0012   -0.0000   -0.0000    0.0043
   54 O2     4f3-      -0.0000    0.0001   -0.0000    0.0000    0.0070   -0.0000    0.0000    0.0082   -0.0055   -0.0000
   55 O2     4f2-      -0.0000   -0.0000    0.0000    0.0000    0.0000    0.0000   -0.0000    0.0000   -0.0000   -0.0000
   56 O2     4f1-      -0.0000    0.0001   -0.0000    0.0000    0.0063   -0.0000    0.0000    0.0058    0.0014   -0.0000
   57 O2     4f0       -0.0000    0.0000   -0.0000   -0.0000    0.0000   -0.0000    0.0000   -0.0000   -0.0000    0.0000
   58 O2     4f1+       0.0001   -0.0000   -0.0001   -0.0018    0.0000   -0.0001   -0.0021    0.0000   -0.0000   -0.0002
   59 O2     4f2+       0.0000   -0.0000   -0.0000    0.0000   -0.0000   -0.0000    0.0000   -0.0000    0.0000    0.0000
   60 O2     4f3+       0.0001   -0.0000   -0.0002   -0.0080    0.0000   -0.0003   -0.0097    0.0000   -0.0000    0.0040
   61 O3     1s         0.0049    0.7063    0.7063   -0.0128   -0.0113    0.0143   -0.0053   -0.0228   -0.0077    0.0008
   62 O3     2s         0.0025   -0.0055   -0.0055    0.3609    0.5769    0.6356   -0.1087   -0.4052   -0.0844   -0.0160
   63 O3     3s         0.0014   -0.0039   -0.0038   -0.0110   -0.0201    0.0232   -0.0075   -0.0498   -0.0159    0.0132
   64 O3     4s         0.0002   -0.0008   -0.0007   -0.0008   -0.0041    0.0037   -0.0017   -0.0105   -0.0036    0.0051
   65 O3     2px       -0.0005    0.0008    0.0007   -0.0248   -0.0341    0.0699    0.3535   -0.2488    0.6431    0.6429
   66 O3     3px       -0.0005    0.0008    0.0005    0.0101    0.0050   -0.0121   -0.0222    0.0191   -0.0025    0.0342
   67 O3     4px       -0.0002   -0.0002   -0.0003    0.0020   -0.0007    0.0000   -0.0023    0.0012   -0.0055   -0.0008
   68 O3     2py        0.0017   -0.0023   -0.0028    0.1170    0.0836   -0.1749    0.2092    0.3762    0.2814   -0.0996
   69 O3     3py        0.0009   -0.0023   -0.0027   -0.0136   -0.0183    0.0270   -0.0150   -0.0440   -0.0049    0.0123
   70 O3     4py       -0.0004    0.0016    0.0016   -0.0008   -0.0036   -0.0006   -0.0039   -0.0048   -0.0028    0.0040
   71 O3     2pz       -0.0000   -0.0000   -0.0000   -0.0000    0.0000   -0.0000    0.0000    0.0000   -0.0000    0.0000
   72 O3     3pz        0.0000    0.0000   -0.0000   -0.0000    0.0000    0.0000   -0.0000   -0.0000   -0.0000   -0.0000
   73 O3     4pz       -0.0000    0.0000    0.0000    0.0000   -0.0000    0.0000    0.0000   -0.0000   -0.0000   -0.0000
   74 O3     3d2-      -0.0001    0.0005    0.0005   -0.0072   -0.0077    0.0079    0.0160   -0.0158    0.0085    0.0004
   75 O3     4d2-      -0.0000    0.0003    0.0003   -0.0002   -0.0008    0.0003    0.0016   -0.0009    0.0009   -0.0003
   76 O3     3d1-      -0.0000   -0.0000   -0.0000   -0.0000    0.0000    0.0000   -0.0000    0.0000   -0.0000    0.0000
   77 O3     4d1-       0.0000   -0.0000   -0.0000   -0.0000   -0.0000    0.0000   -0.0000    0.0000   -0.0000   -0.0000
   78 O3     3d0       -0.0003    0.0005    0.0006   -0.0112   -0.0094    0.0064   -0.0062   -0.0145   -0.0061    0.0042
   79 O3     4d0       -0.0001    0.0004    0.0004   -0.0011   -0.0012   -0.0001   -0.0009   -0.0007   -0.0011    0.0002
   80 O3     3d1+       0.0000    0.0000    0.0000    0.0000    0.0000    0.0000   -0.0000    0.0000    0.0000   -0.0000
   81 O3     4d1+       0.0000   -0.0000   -0.0000    0.0000    0.0000    0.0000   -0.0000    0.0000   -0.0000   -0.0000
   82 O3     3d2+      -0.0005    0.0010    0.0011   -0.0183   -0.0129    0.0138   -0.0186   -0.0238   -0.0145    0.0098
   83 O3     4d2+      -0.0002    0.0005    0.0006   -0.0026   -0.0016    0.0015   -0.0021   -0.0020   -0.0019    0.0003
   84 O3     4f3-      -0.0001    0.0002    0.0001   -0.0044   -0.0039    0.0020   -0.0057   -0.0044   -0.0046    0.0019
   85 O3     4f2-       0.0000   -0.0000    0.0000    0.0000    0.0000   -0.0000   -0.0000    0.0000   -0.0000   -0.0000
   86 O3     4f1-      -0.0000    0.0001    0.0002   -0.0034   -0.0030    0.0014   -0.0013   -0.0033   -0.0011    0.0012
   87 O3     4f0        0.0000   -0.0000    0.0000    0.0000    0.0000   -0.0000    0.0000    0.0000    0.0000    0.0000
   88 O3     4f1+      -0.0000   -0.0000   -0.0000    0.0007    0.0007   -0.0004   -0.0001    0.0005    0.0012    0.0014
   89 O3     4f2+       0.0000    0.0000   -0.0000    0.0000    0.0000   -0.0000    0.0000    0.0000    0.0000   -0.0000
   90 O3     4f3+       0.0000   -0.0001   -0.0001    0.0032    0.0033   -0.0025   -0.0048    0.0052   -0.0032   -0.0022
 
 
      Orbital               11        12        13        14        15        16        17        18        19        20
      Energy            0.0000    0.0000    0.0000    0.1701    0.1705    0.2270    0.2373    0.2989    0.3617    0.3685
      Occ. No.          1.9890    1.7113    0.2997    0.0000    0.0000    0.0000    0.0000    0.0000    0.0000    0.0000
 
    1 O1     1s         0.0000    0.0000   -0.0000   -0.2176   -0.0865    0.0000   -0.0450    0.0866   -0.0118    0.0000
    2 O1     2s         0.0000    0.0000    0.0000   -1.5824   -0.7362    0.0000   -0.2776    0.5564   -0.0342   -0.0000
    3 O1     3s         0.0000    0.0000    0.0000   -0.9406   -0.2714    0.0000   -0.2304    0.5692   -0.0069   -0.0000
    4 O1     4s        -0.0000   -0.0000    0.0000   -0.2126   -0.0421    0.0000   -0.0544    0.1503    0.0030   -0.0000
    5 O1     2px       -0.0000   -0.0000    0.0000    0.2532    0.0289   -0.0000    0.0062   -0.1398   -0.1826   -0.0000
    6 O1     3px       -0.0000   -0.0000   -0.0000    0.2770    0.0654    0.0000    0.4350    0.0482   -0.8422   -0.0000
    7 O1     4px        0.0000   -0.0000    0.0000    0.0390    0.0113    0.0000    0.1949    0.0660   -0.3339   -0.0000
    8 O1     2py       -0.0000   -0.0000   -0.0000    0.6155    0.9609   -0.0000    0.0445   -0.3122   -0.1432   -0.0000
    9 O1     3py       -0.0000   -0.0000   -0.0000    0.7825    0.5759   -0.0000    0.1699   -0.9586   -0.0927    0.0000
   10 O1     4py        0.0000    0.0000    0.0000    0.1067    0.0814   -0.0000   -0.0013   -0.2252   -0.0135    0.0000
   11 O1     2pz       -0.3026   -0.6997    0.6702    0.0000   -0.0000    0.0348    0.0000    0.0000    0.0000   -0.1736
   12 O1     3pz        0.0223    0.0025   -0.0648    0.0000   -0.0000    0.4402   -0.0000    0.0000    0.0000   -0.8852
   13 O1     4pz        0.0053    0.0084    0.0017    0.0000    0.0000    0.2155   -0.0000   -0.0000    0.0000   -0.3553
   14 O1     3d2-       0.0000   -0.0000    0.0000   -0.0474   -0.0267    0.0000   -0.0134    0.0231    0.0097    0.0000
   15 O1     4d2-       0.0000   -0.0000    0.0000   -0.0322   -0.0144    0.0000   -0.0125    0.0166    0.0156    0.0000
   16 O1     3d1-       0.0298    0.0187    0.0117   -0.0000    0.0000    0.0057   -0.0000   -0.0000   -0.0000    0.0099
   17 O1     4d1-       0.0049    0.0033    0.0046   -0.0000    0.0000   -0.0026    0.0000   -0.0000   -0.0000    0.0133
   18 O1     3d0       -0.0000   -0.0000   -0.0000    0.0522    0.0218   -0.0000    0.0259   -0.0568   -0.0082    0.0000
   19 O1     4d0       -0.0000   -0.0000   -0.0000    0.0332    0.0162   -0.0000    0.0157   -0.0382   -0.0090    0.0000
   20 O1     3d1+       0.0065    0.0034    0.0027   -0.0000    0.0000    0.0037    0.0000   -0.0000   -0.0000    0.0104
   21 O1     4d1+       0.0009    0.0004    0.0004    0.0000    0.0000    0.0007    0.0000    0.0000   -0.0000    0.0082
   22 O1     3d2+      -0.0000   -0.0000   -0.0000    0.0779    0.0221   -0.0000    0.0477   -0.1045    0.0029    0.0000
   23 O1     4d2+      -0.0000   -0.0000   -0.0000    0.0472    0.0203   -0.0000    0.0264   -0.0707   -0.0012    0.0000
   24 O1     4f3-       0.0000    0.0000    0.0000   -0.0070   -0.0032    0.0000    0.0004    0.0107   -0.0022   -0.0000
   25 O1     4f2-      -0.0025   -0.0018   -0.0003   -0.0000    0.0000    0.0011   -0.0000    0.0000    0.0000   -0.0050
   26 O1     4f1-       0.0000    0.0000   -0.0000   -0.0052   -0.0030    0.0000   -0.0027    0.0108    0.0041   -0.0000
   27 O1     4f0        0.0035   -0.0003    0.0106   -0.0000   -0.0000   -0.0022    0.0000    0.0000   -0.0000    0.0065
   28 O1     4f1+      -0.0000   -0.0000    0.0000   -0.0007   -0.0014   -0.0000   -0.0019    0.0018    0.0037    0.0000
   29 O1     4f2+       0.0061    0.0046   -0.0005   -0.0000    0.0000   -0.0024   -0.0000    0.0000   -0.0000    0.0058
   30 O1     4f3+       0.0000    0.0000    0.0000   -0.0042   -0.0044    0.0000   -0.0045    0.0062    0.0090    0.0000
   31 O2     1s        -0.0000   -0.0000    0.0000   -0.0000    0.2430   -0.0000    0.0949   -0.2775   -0.0000    0.0000
   32 O2     2s        -0.0000   -0.0000   -0.0000   -0.0000    1.9317   -0.0000    0.5725   -1.6945   -0.0000    0.0000
   33 O2     3s        -0.0000   -0.0000   -0.0000   -0.0000    0.9318   -0.0000    0.4243   -1.0656   -0.0000    0.0000
   34 O2     4s        -0.0000   -0.0000   -0.0000   -0.0000    0.2043   -0.0000    0.0879   -0.1982   -0.0000    0.0000
   35 O2     2px       -0.0000    0.0000   -0.0000   -0.0000    0.5916   -0.0000   -0.1225   -0.1087   -0.0000    0.0000
   36 O2     3px       -0.0000   -0.0000   -0.0000   -0.0000    0.2920    0.0000    0.2969   -0.3065   -0.0000    0.0000
   37 O2     4px        0.0000    0.0000    0.0000   -0.0000    0.0295    0.0000    0.1533   -0.0039   -0.0000   -0.0000
[...]

                                   only a single process is used
                       available to each process: 2.0 GB of memory, 1 thread?
()()()()()()()()()()()()()()()()()()()()()()()()()()()()()()()()()()()()()()()()()()()()()()()()()()
 
 
      *** WARNING: Default frozen orbitals is overwritten by user input.
      *** Default values:   3
 
      Header of the integral files:
      
       Integrals generated by seward 4.2.0  , Sat Dec 21 09:45:00 2024
 
 
      Header of MO coefficients source file:
      * RASSCF average (pseudo-natural) orbitals                                      
 
 
      Cartesian coordinates in Angstrom:
      -----------------------------------------------------
      No.  Label        X            Y            Z        
      -----------------------------------------------------
       1   O1         0.33077100   1.23445300   0.00000000
       2   O2         0.00000000   0.00000000   0.00000000
       3   O3         0.33077100  -1.23445300   0.00000000
      -----------------------------------------------------
      Nuclear repulsion energy =   66.71808985
 
      Orbital specifications:
      -----------------------
 
      Symmetry species:              1
      Number of basis functions:    90
      Frozen orbitals:               0
      Deleted orbitals:              0
      Number of orbitals used:      90

       SYMMETRY  BASIS FUNCTIONS       ORBITALS      INTEGRALS   CPU(SEC)  I/O(SEC)
 
        1 1 1 1   90  90  90  90    90  90  90  90     8386560       0.00      0.00

       TOTAL CPU TIME(SEC)    4.48TOTAL I/O TIME(SEC)   11.48
 
--- Stop Module: motra at Sat Dec 21 09:45:17 2024 /rc=_RC_ALL_IS_WELL_ ---
*** files: xmldump
    saved to directory /home/grierjones/DDCASPT2/ozone/ANO-RCC-VTZP/ozone_150.00
--- Module motra spent 11 seconds ---

>>> COPY /tmp/ozone_150.00/GMJ_one_int_indx.csv /home/grierjones/DDCASPT2/ozone/ANO-RCC-VTZP/ozone_150.00/ozone_150.00.GMJ_one_int_indx.csv

>>> COPY /tmp/ozone_150.00/GMJ_one_int.csv /home/grierjones/DDCASPT2/ozone/ANO-RCC-VTZP/ozone_150.00/ozone_150.00.GMJ_one_int.csv

>>> COPY /tmp/ozone_150.00/GMJ_two_int_indx.csv /home/grierjones/DDCASPT2/ozone/ANO-RCC-VTZP/ozone_150.00/ozone_150.00.GMJ_two_int_indx.csv

>>> COPY /tmp/ozone_150.00/GMJ_two_int.csv /home/grierjones/DDCASPT2/ozone/ANO-RCC-VTZP/ozone_150.00/ozone_150.00.GMJ_two_int.csv

*** symbolic link created: INPORB -> ozone_150.00.RasOrb
--- Start Module: caspt2 at Sat Dec 21 09:45:17 2024 ---
 
()()()()()()()()()()()()()()()()()()()()()()()()()()()()()()()()()()()()()()()()()()()()()()()()()()

                                              &CASPT2

                                   only a single process is used
                       available to each process: 2.0 GB of memory, 1 thread?
()()()()()()()()()()()()()()()()()()()()()()()()()()()()()()()()()()()()()()()()()()()()()()()()()()
 
 Cholesky algorithm in CASPT2 =    1
 
 ###############################################################################
 ###############################################################################
 ###                                                                         ###
 ###                                                                         ###
 ###    User changed nr of frozen orbitals.                                  ###
 ###                                                                         ###
 ###                                                                         ###
 ###############################################################################
 ###############################################################################
 
++    Wave function specifications:
      -----------------------------
 
      Number of closed shell electrons          20
      Number of electrons in active shells       4
      Max number of holes in RAS1 space          0
      Max number of electrons in RAS3 space      0
      Number of inactive orbitals               10
      Number of active orbitals                  3
      Number of secondary orbitals              77
      Spin quantum number                      0.0
      State symmetry                             1
      Number of CSFs                             6
      Number of root(s) available                1
      Root passed to geometry opt.               1
      A file JOBMIX will be created.
      This is a CASSCF or RASSCF reference function
--
 
++    Orbital specifications:
      -----------------------
 
      Symmetry species                           1
                                                 a
      Frozen orbitals                            0
      Inactive orbitals                         10
      Active orbitals                            3
      Secondary orbitals                        77
      Deleted orbitals                           0
      Number of basis functions                 90
--
 
      Type of Fock operator: STANDARD
      Type of 0-order Hamiltonian: STANDARD WITH DEFAULT IPEA
        "IP-EA" denominator shift =      0.25
      The input orbitals and the CI vector will be transformed.
 
--------------------------------------------------------------------------------
 Estimated memory requirements:
  POLY3 :                   250202
  RHS:                      446386
  SIGMA :                   610360
  PRPCTL:                        0
 Available workspace:    230385072
 
++ CASPT2 computation for group   1
 
********************************************************************************
 Multi-State initialization phase begins for group   1
--------------------------------------------------------------------------------
********************************************************************************
 Compute H0 matrices for state    1
--------------------------------------------------------------------------------
--------------------------------------------------------------------------------
 H0 matrices have been computed.
 
********************************************************************************
  CASPT2 EQUATION SOLUTION
--------------------------------------------------------------------------------
 
  Total nr of CASPT2 parameters:
   Before reduction:      541275
   After  reduction:      532232
 
 The contributions to the second order correlation energy in atomic units.
-----------------------------------------------------------------------------------------------------------------------------
  IT.      VJTU        VJTI        ATVX        AIVX        VJAI        BVAT        BJAT        BJAI        TOTAL       RNORM  
-----------------------------------------------------------------------------------------------------------------------------
   1    -0.000000   -0.001447   -0.014587   -0.102205   -0.018852   -0.023458   -0.172266   -0.364460   -0.697274    0.003003
   2    -0.000000   -0.001471   -0.014653   -0.102665   -0.018879   -0.023466   -0.172312   -0.364465   -0.697910    0.000269
   3    -0.000000   -0.001471   -0.014653   -0.102670   -0.018879   -0.023466   -0.172313   -0.364465   -0.697918    0.000033
   4    -0.000000   -0.001472   -0.014653   -0.102668   -0.018879   -0.023466   -0.172313   -0.364465   -0.697915    0.000006
-------------------------------------------------------------------------------------------------------------------
 
  FINAL CASPT2 RESULT:
 
  Correlation energy /Case, /Symm, and sums:
 VJTU     -0.00000000 -0.00000000
 VJTIP    -0.00147159 -0.00147159
 VJTIM     0.00000000  0.00000000
 ATVX     -0.01465290 -0.01465290
 AIVX     -0.10266767 -0.10266767
 VJAIP    -0.01324469 -0.01324469
 VJAIM    -0.00563415 -0.00563415
 BVATP    -0.02208365 -0.02208365
 BVATM    -0.00138234 -0.00138234
 BJATP    -0.07107195 -0.07107195
 BJATM    -0.10124068 -0.10124068
 BJAIP    -0.25119262 -0.25119262
 BJAIM    -0.11327272 -0.11327272
 Summed:  -0.69791498 -0.69791498
 
      Reference energy:        -224.5410092243
      E2 (Non-variational):      -0.6979149787
      E2 (Variational):          -0.6979150284
      Total energy:            -225.2389242527
      Residual norm:              0.0000005109
      Reference weight:           0.84648
 
      Contributions to the CASPT2 correlation energy
      Active & Virtual Only:         -0.0381188919
      One Inactive Excited:          -0.2749803040
      Two Inactive Excited:          -0.3848157828
 
 
++ Denominators, etc.
----------------------------------------------------------------------------------------------------
 Report on small energy denominators, large coefficients, and large energy contributions.
CASE  SYMM ACTIVE-MIX  NON-ACTIVE INDICES          DENOMINATOR     RHS VALUE       COEFFICIENT     CONTRIBUTION
ATVX     1  Mu1.0005  Se1.020                       1.51917235     -0.06156332      0.03962947     -0.00243972
ATVX     1  Mu1.0005  Se1.042                       3.07917728      0.09725056     -0.03092503     -0.00300748
AIVX     1  Mu1.0005  In1.004 Se1.015               2.63973692      0.07098984     -0.02703571     -0.00191926
AIVX     1  Mu1.0003  In1.005 Se1.015               2.04640259      0.05993038     -0.02878961     -0.00172537
AIVX     1  Mu1.0004  In1.007 Se1.015               1.58547909     -0.05728439      0.03669298     -0.00210193
AIVX     1  Mu1.0002  In1.008 Se1.015               1.29399849     -0.07231175      0.05524020     -0.00399452
AIVX     1  Mu1.0002  In1.009 Se1.015               1.10938232     -0.05509080      0.04883059     -0.00269012
AIVX     1  Mu1.0003  In1.009 Se1.015               1.20191891      0.03636987     -0.02993938     -0.00108889
AIVX     1  Mu1.0002  In1.008 Se1.017               1.36078595      0.03482237     -0.02503693     -0.00087185
AIVX     1  Mu1.0002  In1.008 Se1.018               1.42233695     -0.04004645      0.02754963     -0.00110326
AIVX     1  Mu1.0002  In1.009 Se1.018               1.23772079     -0.05087604      0.04009333     -0.00203979
AIVX     1  Mu1.0003  In1.009 Se1.018               1.33025737      0.03555120     -0.02620484     -0.00093161
AIVX     1  Mu1.0004  In1.006 Se1.021               2.13603987     -0.05522154      0.02599436     -0.00143545
AIVX     1  Mu1.0002  In1.008 Se1.021               1.58054412      0.05426990     -0.03352282     -0.00181928
AIVX     1  Mu1.0004  In1.008 Se1.022               1.92549879     -0.08152769      0.04295839     -0.00350230
AIVX     1  Mu1.0002  In1.010 Se1.022               1.33805988      0.03603526     -0.02630723     -0.00094799
AIVX     1  Mu1.0004  In1.008 Se1.025               2.04096969      0.08887352     -0.04403005     -0.00391311
AIVX     1  Mu1.0005  In1.008 Se1.025               2.20326869     -0.05904735      0.02715506     -0.00160343
AIVX     1  Mu1.0002  In1.010 Se1.025               1.45353077     -0.05995703      0.04066058     -0.00243789
BJAIP    1  Se1.022 In1.008 Se1.025 In1.008         2.72491322     -0.07263373      0.02665541     -0.00193608
--
 
   (Skipping property calculation,
    use PROP keyword to activate)
--
 
  Total CASPT2 energies:
::    CASPT2 Root  1     Total energy:   -225.23892425
 
  A NEW JOBIPH FILE NAMED 'JOBMIX' IS PREPARED.
********************************************************************************
--- Stop Module: caspt2 at Sat Dec 21 09:45:18 2024 /rc=_RC_ALL_IS_WELL_ ---
*** files: xmldump
    saved to directory /home/grierjones/DDCASPT2/ozone/ANO-RCC-VTZP/ozone_150.00
--- Module caspt2 spent 1 second ---

>>> EXPORT i = B

>>> EXPORT j = P

>>> IF (-FILE GMJ_e2_${i}_${j}.csv)

>>> COPY /tmp/ozone_150.00/GMJ_RHS_B_P.csv /home/grierjones/DDCASPT2/ozone/ANO-RCC-VTZP/ozone_150.00/GMJ_RHS_B_P.csv

>>> COPY /tmp/ozone_150.00/GMJ_IVECW_B_P.csv /home/grierjones/DDCASPT2/ozone/ANO-RCC-VTZP/ozone_150.00/GMJ_IVECW_B_P.csv

>>> COPY /tmp/ozone_150.00/GMJ_IVECX_B_P.csv /home/grierjones/DDCASPT2/ozone/ANO-RCC-VTZP/ozone_150.00/GMJ_IVECX_B_P.csv

>>> COPY /tmp/ozone_150.00/GMJ_IVECC2_B_P.csv /home/grierjones/DDCASPT2/ozone/ANO-RCC-VTZP/ozone_150.00/GMJ_IVECC2_B_P.csv

>>> COPY /tmp/ozone_150.00/GMJ_e2_B_P.csv /home/grierjones/DDCASPT2/ozone/ANO-RCC-VTZP/ozone_150.00/GMJ_e2_B_P.csv

>>> END FOREACH

>>> EXPORT j = M

>>> IF (-FILE GMJ_e2_${i}_${j}.csv)
(Skipped)

>>> END FOREACH

>>> END FOREACH

>>> EXPORT i = E

>>> EXPORT j = P

>>> IF (-FILE GMJ_e2_${i}_${j}.csv)

>>> COPY /tmp/ozone_150.00/GMJ_RHS_E_P.csv /home/grierjones/DDCASPT2/ozone/ANO-RCC-VTZP/ozone_150.00/GMJ_RHS_E_P.csv

>>> COPY /tmp/ozone_150.00/GMJ_IVECW_E_P.csv /home/grierjones/DDCASPT2/ozone/ANO-RCC-VTZP/ozone_150.00/GMJ_IVECW_E_P.csv

>>> COPY /tmp/ozone_150.00/GMJ_IVECX_E_P.csv /home/grierjones/DDCASPT2/ozone/ANO-RCC-VTZP/ozone_150.00/GMJ_IVECX_E_P.csv

>>> COPY /tmp/ozone_150.00/GMJ_IVECC2_E_P.csv /home/grierjones/DDCASPT2/ozone/ANO-RCC-VTZP/ozone_150.00/GMJ_IVECC2_E_P.csv

>>> COPY /tmp/ozone_150.00/GMJ_e2_E_P.csv /home/grierjones/DDCASPT2/ozone/ANO-RCC-VTZP/ozone_150.00/GMJ_e2_E_P.csv

>>> END FOREACH

>>> EXPORT j = M

>>> IF (-FILE GMJ_e2_${i}_${j}.csv)

>>> COPY /tmp/ozone_150.00/GMJ_RHS_E_M.csv /home/grierjones/DDCASPT2/ozone/ANO-RCC-VTZP/ozone_150.00/GMJ_RHS_E_M.csv

>>> COPY /tmp/ozone_150.00/GMJ_IVECW_E_M.csv /home/grierjones/DDCASPT2/ozone/ANO-RCC-VTZP/ozone_150.00/GMJ_IVECW_E_M.csv

>>> COPY /tmp/ozone_150.00/GMJ_IVECX_E_M.csv /home/grierjones/DDCASPT2/ozone/ANO-RCC-VTZP/ozone_150.00/GMJ_IVECX_E_M.csv

>>> COPY /tmp/ozone_150.00/GMJ_IVECC2_E_M.csv /home/grierjones/DDCASPT2/ozone/ANO-RCC-VTZP/ozone_150.00/GMJ_IVECC2_E_M.csv

>>> COPY /tmp/ozone_150.00/GMJ_e2_E_M.csv /home/grierjones/DDCASPT2/ozone/ANO-RCC-VTZP/ozone_150.00/GMJ_e2_E_M.csv

>>> END FOREACH

>>> END FOREACH

>>> EXPORT i = F

>>> EXPORT j = P

>>> IF (-FILE GMJ_e2_${i}_${j}.csv)

>>> COPY /tmp/ozone_150.00/GMJ_RHS_F_P.csv /home/grierjones/DDCASPT2/ozone/ANO-RCC-VTZP/ozone_150.00/GMJ_RHS_F_P.csv

>>> COPY /tmp/ozone_150.00/GMJ_IVECW_F_P.csv /home/grierjones/DDCASPT2/ozone/ANO-RCC-VTZP/ozone_150.00/GMJ_IVECW_F_P.csv

>>> COPY /tmp/ozone_150.00/GMJ_IVECX_F_P.csv /home/grierjones/DDCASPT2/ozone/ANO-RCC-VTZP/ozone_150.00/GMJ_IVECX_F_P.csv

>>> COPY /tmp/ozone_150.00/GMJ_IVECC2_F_P.csv /home/grierjones/DDCASPT2/ozone/ANO-RCC-VTZP/ozone_150.00/GMJ_IVECC2_F_P.csv

>>> COPY /tmp/ozone_150.00/GMJ_e2_F_P.csv /home/grierjones/DDCASPT2/ozone/ANO-RCC-VTZP/ozone_150.00/GMJ_e2_F_P.csv

>>> END FOREACH

>>> EXPORT j = M

>>> IF (-FILE GMJ_e2_${i}_${j}.csv)

>>> COPY /tmp/ozone_150.00/GMJ_RHS_F_M.csv /home/grierjones/DDCASPT2/ozone/ANO-RCC-VTZP/ozone_150.00/GMJ_RHS_F_M.csv

>>> COPY /tmp/ozone_150.00/GMJ_IVECW_F_M.csv /home/grierjones/DDCASPT2/ozone/ANO-RCC-VTZP/ozone_150.00/GMJ_IVECW_F_M.csv

>>> COPY /tmp/ozone_150.00/GMJ_IVECX_F_M.csv /home/grierjones/DDCASPT2/ozone/ANO-RCC-VTZP/ozone_150.00/GMJ_IVECX_F_M.csv

>>> COPY /tmp/ozone_150.00/GMJ_IVECC2_F_M.csv /home/grierjones/DDCASPT2/ozone/ANO-RCC-VTZP/ozone_150.00/GMJ_IVECC2_F_M.csv

>>> COPY /tmp/ozone_150.00/GMJ_e2_F_M.csv /home/grierjones/DDCASPT2/ozone/ANO-RCC-VTZP/ozone_150.00/GMJ_e2_F_M.csv

>>> END FOREACH

>>> END FOREACH

>>> EXPORT i = G

>>> EXPORT j = P

>>> IF (-FILE GMJ_e2_${i}_${j}.csv)

>>> COPY /tmp/ozone_150.00/GMJ_RHS_G_P.csv /home/grierjones/DDCASPT2/ozone/ANO-RCC-VTZP/ozone_150.00/GMJ_RHS_G_P.csv

>>> COPY /tmp/ozone_150.00/GMJ_IVECW_G_P.csv /home/grierjones/DDCASPT2/ozone/ANO-RCC-VTZP/ozone_150.00/GMJ_IVECW_G_P.csv

>>> COPY /tmp/ozone_150.00/GMJ_IVECX_G_P.csv /home/grierjones/DDCASPT2/ozone/ANO-RCC-VTZP/ozone_150.00/GMJ_IVECX_G_P.csv

>>> COPY /tmp/ozone_150.00/GMJ_IVECC2_G_P.csv /home/grierjones/DDCASPT2/ozone/ANO-RCC-VTZP/ozone_150.00/GMJ_IVECC2_G_P.csv

>>> COPY /tmp/ozone_150.00/GMJ_e2_G_P.csv /home/grierjones/DDCASPT2/ozone/ANO-RCC-VTZP/ozone_150.00/GMJ_e2_G_P.csv

>>> END FOREACH

>>> EXPORT j = M

>>> IF (-FILE GMJ_e2_${i}_${j}.csv)

>>> COPY /tmp/ozone_150.00/GMJ_RHS_G_M.csv /home/grierjones/DDCASPT2/ozone/ANO-RCC-VTZP/ozone_150.00/GMJ_RHS_G_M.csv

>>> COPY /tmp/ozone_150.00/GMJ_IVECW_G_M.csv /home/grierjones/DDCASPT2/ozone/ANO-RCC-VTZP/ozone_150.00/GMJ_IVECW_G_M.csv

>>> COPY /tmp/ozone_150.00/GMJ_IVECX_G_M.csv /home/grierjones/DDCASPT2/ozone/ANO-RCC-VTZP/ozone_150.00/GMJ_IVECX_G_M.csv

>>> COPY /tmp/ozone_150.00/GMJ_IVECC2_G_M.csv /home/grierjones/DDCASPT2/ozone/ANO-RCC-VTZP/ozone_150.00/GMJ_IVECC2_G_M.csv

>>> COPY /tmp/ozone_150.00/GMJ_e2_G_M.csv /home/grierjones/DDCASPT2/ozone/ANO-RCC-VTZP/ozone_150.00/GMJ_e2_G_M.csv

>>> END FOREACH

>>> END FOREACH

>>> EXPORT i = H

>>> EXPORT j = P

>>> IF (-FILE GMJ_e2_${i}_${j}.csv)

>>> COPY /tmp/ozone_150.00/GMJ_RHS_H_P.csv /home/grierjones/DDCASPT2/ozone/ANO-RCC-VTZP/ozone_150.00/GMJ_RHS_H_P.csv

>>> COPY /tmp/ozone_150.00/GMJ_IVECW_H_P.csv /home/grierjones/DDCASPT2/ozone/ANO-RCC-VTZP/ozone_150.00/GMJ_IVECW_H_P.csv

>>> COPY /tmp/ozone_150.00/GMJ_IVECX_H_P.csv /home/grierjones/DDCASPT2/ozone/ANO-RCC-VTZP/ozone_150.00/GMJ_IVECX_H_P.csv

>>> COPY /tmp/ozone_150.00/GMJ_IVECC2_H_P.csv /home/grierjones/DDCASPT2/ozone/ANO-RCC-VTZP/ozone_150.00/GMJ_IVECC2_H_P.csv

>>> COPY /tmp/ozone_150.00/GMJ_e2_H_P.csv /home/grierjones/DDCASPT2/ozone/ANO-RCC-VTZP/ozone_150.00/GMJ_e2_H_P.csv

>>> END FOREACH

>>> EXPORT j = M

>>> IF (-FILE GMJ_e2_${i}_${j}.csv)

>>> COPY /tmp/ozone_150.00/GMJ_RHS_H_M.csv /home/grierjones/DDCASPT2/ozone/ANO-RCC-VTZP/ozone_150.00/GMJ_RHS_H_M.csv

>>> COPY /tmp/ozone_150.00/GMJ_IVECW_H_M.csv /home/grierjones/DDCASPT2/ozone/ANO-RCC-VTZP/ozone_150.00/GMJ_IVECW_H_M.csv

>>> COPY /tmp/ozone_150.00/GMJ_IVECX_H_M.csv /home/grierjones/DDCASPT2/ozone/ANO-RCC-VTZP/ozone_150.00/GMJ_IVECX_H_M.csv

>>> COPY /tmp/ozone_150.00/GMJ_IVECC2_H_M.csv /home/grierjones/DDCASPT2/ozone/ANO-RCC-VTZP/ozone_150.00/GMJ_IVECC2_H_M.csv

>>> COPY /tmp/ozone_150.00/GMJ_e2_H_M.csv /home/grierjones/DDCASPT2/ozone/ANO-RCC-VTZP/ozone_150.00/GMJ_e2_H_M.csv

>>> END FOREACH

>>> END FOREACH

>>> EXPORT i = A

>>> IF (-FILE GMJ_e2_$i.csv)

>>> COPY /tmp/ozone_150.00/GMJ_RHS_A.csv /home/grierjones/DDCASPT2/ozone/ANO-RCC-VTZP/ozone_150.00/GMJ_RHS_A.csv

>>> COPY /tmp/ozone_150.00/GMJ_IVECW_A.csv /home/grierjones/DDCASPT2/ozone/ANO-RCC-VTZP/ozone_150.00/GMJ_IVECW_A.csv

>>> COPY /tmp/ozone_150.00/GMJ_IVECX_A.csv /home/grierjones/DDCASPT2/ozone/ANO-RCC-VTZP/ozone_150.00/GMJ_IVECX_A.csv

>>> COPY /tmp/ozone_150.00/GMJ_IVECC2_A.csv /home/grierjones/DDCASPT2/ozone/ANO-RCC-VTZP/ozone_150.00/GMJ_IVECC2_A.csv

>>> COPY /tmp/ozone_150.00/GMJ_e2_A.csv /home/grierjones/DDCASPT2/ozone/ANO-RCC-VTZP/ozone_150.00/GMJ_e2_A.csv

>>> END FOREACH

>>> EXPORT i = C

>>> IF (-FILE GMJ_e2_$i.csv)

>>> COPY /tmp/ozone_150.00/GMJ_RHS_C.csv /home/grierjones/DDCASPT2/ozone/ANO-RCC-VTZP/ozone_150.00/GMJ_RHS_C.csv

>>> COPY /tmp/ozone_150.00/GMJ_IVECW_C.csv /home/grierjones/DDCASPT2/ozone/ANO-RCC-VTZP/ozone_150.00/GMJ_IVECW_C.csv

>>> COPY /tmp/ozone_150.00/GMJ_IVECX_C.csv /home/grierjones/DDCASPT2/ozone/ANO-RCC-VTZP/ozone_150.00/GMJ_IVECX_C.csv

>>> COPY /tmp/ozone_150.00/GMJ_IVECC2_C.csv /home/grierjones/DDCASPT2/ozone/ANO-RCC-VTZP/ozone_150.00/GMJ_IVECC2_C.csv

>>> COPY /tmp/ozone_150.00/GMJ_e2_C.csv /home/grierjones/DDCASPT2/ozone/ANO-RCC-VTZP/ozone_150.00/GMJ_e2_C.csv

>>> END FOREACH

>>> EXPORT i = D

>>> IF (-FILE GMJ_e2_$i.csv)

>>> COPY /tmp/ozone_150.00/GMJ_RHS_D.csv /home/grierjones/DDCASPT2/ozone/ANO-RCC-VTZP/ozone_150.00/GMJ_RHS_D.csv

>>> COPY /tmp/ozone_150.00/GMJ_IVECW_D.csv /home/grierjones/DDCASPT2/ozone/ANO-RCC-VTZP/ozone_150.00/GMJ_IVECW_D.csv

>>> COPY /tmp/ozone_150.00/GMJ_IVECX_D.csv /home/grierjones/DDCASPT2/ozone/ANO-RCC-VTZP/ozone_150.00/GMJ_IVECX_D.csv

>>> COPY /tmp/ozone_150.00/GMJ_IVECC2_D.csv /home/grierjones/DDCASPT2/ozone/ANO-RCC-VTZP/ozone_150.00/GMJ_IVECC2_D.csv

>>> COPY /tmp/ozone_150.00/GMJ_e2_D.csv /home/grierjones/DDCASPT2/ozone/ANO-RCC-VTZP/ozone_150.00/GMJ_e2_D.csv

>>> END FOREACH

.########################.
.# Non-zero return code #.
.########################.

    Timing: Wall=17.62 User=9.43 System=8.19
********************************************
*** WorkDir at /tmp/ozone_150.00 cleaned ***
********************************************
