   This run of MOLCAS is using the pymolcas driver

                             OPE
                             OPE          NMOL  CASOP  ENMOLC A   SO
                 OPE        NMOLC        AS  OP EN  MO LC     AS  OP
                OPENM       OL CA        SO  PE NM  OL CA     SOP EN
                OP EN      MO   LC       AS  OP ENMOL  CASO   PENMOL
                OP  EN     MO   LC       AS  OP EN     MO     LC ASO
               OP   E  NMOL  C  AS       OP  EN MO     LC     AS  OP
               OP  E   NMO   LC AS        OPEN  MO     LCASOP EN   M
               O  PEN   MO  LCA  SO
            OPE   NMO   L   CAS    OP
        OPENMOL  CASOP     ENMOL   CASOPE
     OPENMOLCA   SOPENMOLCASOPEN   MOLCASOPE
    OPENMOLCAS   OP           EN   MOL    CAS
    OPENMOLCAS       OP  ENM        O     LCA
    OPENMOLCAS    OPEN  MOLCASO     P  E  NMO
    OPENMOLCAS     OP               E  N  MOL
    OPENMOLCA   SO           PENM   O  L  CAS    OPEN    MO    LCAS
    OPENMOLCA   SOP           ENM   O  L  CAS   OP  EN  MOLC  AS   O
    OPENMOLCA   SOPE           NM      O  LCA   S      OP  EN MO
    OPENMOLC                AS         O  PEN   M      OL  CA  SOPE
    OPENMO        LCASOPE  NMOL        C  ASO   P      ENMOLC     AS
    OPE     NMO      LCA  SO     P     E   NM   OL  CA SO  PE N   MO
          OPENMOLCA            SOPE   NMO        LCAS  O    P  ENMO
     OPENMOLCASOPENMOLCASOPENMOLCASOPENMOLCA
        OPENMOLCASOPENMOLCASOPENMOLCASOPE
            OPENMOLCASOPENMOLCASOPENM
               OPENMOLCASOPENMOLCA        version: 24.02
                   OPENMOLCASO
                       OPE                tag: 126-g611b04c8f

 OpenMolcas is free software; you can redistribute it and/or modify it
 under the terms of the GNU Lesser General Public License version 2.1.
 OpenMolcas is distributed in the hope that it will be useful, but it
 is provided "as is" and without any express or implied warranties.
 For more details see the full text of the license in the file
 LICENSE or in <http://www.gnu.org/licenses/>.

                 Copyright (C) The OpenMolcas Authors
           For the author list and the recommended citation,
                   consult the file CONTRIBUTORS.md

           *************************************************
           * pymolcas version py2.28                       *
           *   build c4a6d18ded8cb6cad61d2372a9abd97c      *
           *   (after the EMIL interpreter by V. Veryazov) *
           *************************************************

configuration info
------------------
Host name: debian (Linux)
C Compiler ID: GNU
C flags: -std=gnu99
Fortran Compiler ID: Intel
Fortran flags: -fpp -i8 -heap-arrays
Definitions: _MOLCAS_;_I8_;_LINUX_
Parallel: OFF (GA=OFF)


   ------------------------------------------------------------------
  |
  |              Project: 2.30
  |       Submitted from: /home/grierjones/DDCASPT2/delta_ML/BeN/2.30
  |         Scratch area: /tmp/2.30
  |      Save outputs to: /home/grierjones/DDCASPT2/delta_ML/BeN/2.30
  |               Molcas: /usr/local
  |
  | Scratch area is empty
  |
  |       MOLCAS_DRIVER = /usr/local/pymolcas
  | MOLCAS_KEEP_WORKDIR = NO
  |  MOLCAS_NEW_WORKDIR = YES
  |       MOLCAS_NPROCS = 1
  |       MOLCAS_SOURCE = /usr/local
  |    MOLCAS_STRUCTURE = 0
  |
   ------------------------------------------------------------------

++ ---------   Input file   ---------

&GATEWAY
coord=2.30.xyz
Basis = ANO-RCC-MB
Group = nosymm
End of Input

&SEWARD
End of Input

&SCF
UHF

&MBPT2
Frozen
0

&RASSCF
Title= RASSCF
FileOrb
/home/grierjones/DDCASPT2/delta_ML/BeN/2.20/2.20.RasOrb

NACTEL
1 0 0
Inactive
5
RAS2
2
Symmetry
1
Spin
2
orblisting
all
ITERation
200 100
CIMX
200
SDAV
500

&CASPT2
Imaginary Shift
0.0
Frozen
0

-- ----------------------------------

--- Start Module: gateway at Thu Apr 25 13:45:11 2024 ---
 
()()()()()()()()()()()()()()()()()()()()()()()()()()()()()()()()()()()()()()()()()()()()()()()()()()

                                              &GATEWAY

                                   only a single process is used
                       available to each process: 2.0 GB of memory, 1 thread?
                                            pid: 102273
()()()()()()()()()()()()()()()()()()()()()()()()()()()()()()()()()()()()()()()()()()()()()()()()()()
 
 
++    Symmetry information:
      ---------------------
 
                    Character Table for C1 
 
                             E  
                    a        1  x, y, xy, Rz, z, xz, Ry, yz, Rx, I
--
 
 
++    Basis set information:
      ----------------------
 
 
      Basis set label: BE.ANO-RCC...2S1P.
 
      Electronic valence basis set:
      ------------------
      Associated Effective Charge   4.000000 au
      Associated Actual Charge      4.000000 au
      Nuclear Model: Point charge
 
      Shell  nPrim  nBasis  Cartesian Spherical Contaminant
         s      14       2        X                  
         p       9       1        X                  
 
 
      Basis set label: N.ANO-RCC...2S1P.
 
      Electronic valence basis set:
      ------------------
      Associated Effective Charge   7.000000 au
      Associated Actual Charge      7.000000 au
      Nuclear Model: Point charge
 
      Shell  nPrim  nBasis  Cartesian Spherical Contaminant
         s      14       2        X                  
         p       9       1        X                  
--
 
 
++    Molecular structure info:
      -------------------------
 
                    ************************************************ 
                    **** Cartesian Coordinates / Bohr, Angstrom **** 
                    ************************************************ 
 
     Center  Label                x              y              z                     x              y              z
        1      BE1              0.000000       0.000000       0.000000              0.000000       0.000000       0.000000
        2      N2               0.000000       0.000000       4.346370              0.000000       0.000000       2.300000
--
 
 
            Nuclear Potential Energy              6.44215735 au
 
--- Stop Module: gateway at Thu Apr 25 13:45:11 2024 /rc=_RC_ALL_IS_WELL_ ---
*** files: xmldump
    saved to directory /home/grierjones/DDCASPT2/delta_ML/BeN/2.30

--- Start Module: seward at Thu Apr 25 13:45:11 2024 ---
 
()()()()()()()()()()()()()()()()()()()()()()()()()()()()()()()()()()()()()()()()()()()()()()()()()()

                                              &SEWARD

                                   only a single process is used
                       available to each process: 2.0 GB of memory, 1 thread?
                                            pid: 102276
()()()()()()()()()()()()()()()()()()()()()()()()()()()()()()()()()()()()()()()()()()()()()()()()()()
 
               SEWARD will generate:
                  Multipole Moment integrals up to order  2
                  Kinetic Energy integrals
                  Nuclear Attraction integrals (point charge)
                  One-Electron Hamiltonian integrals
                  Velocity integrals
                  Relativistic Douglas-Kroll-Hess integrals:
                    - Parametrization         : EXP
                    - DKH order of Hamiltonian: 2
                    - DKH order of Properties : 0
                         - multipole moment operators
                         - electric potential operators
                         - contact operators
                  Orbital angular momentum around ( 0.0000  0.0000  2.6444 )
                  Velocity quadrupole around ( 0.0000  0.0000  2.6444 )
                  Atomic mean-field integrals
                  Two-Electron Repulsion integrals
 
                   Integrals are discarded if absolute value <: 1.00E-14
                   Integral cutoff threshold is set to       <: 1.00E-16
 
            Nuclear Potential Energy              6.44215735 au
 
 
      Basis set specifications :
      Symmetry species         a  
      Basis functions           10
 
 
      Input file to MOLDEN was generated!
 
--- Stop Module: seward at Thu Apr 25 13:45:12 2024 /rc=_RC_ALL_IS_WELL_ ---
*** files: 2.30.GssOrb 2.30.guessorb.h5 2.30.guessorb.molden xmldump
    saved to directory /home/grierjones/DDCASPT2/delta_ML/BeN/2.30

*** symbolic link created: INPORB -> 2.30.GssOrb
--- Start Module: scf at Thu Apr 25 13:45:12 2024 ---
 
()()()()()()()()()()()()()()()()()()()()()()()()()()()()()()()()()()()()()()()()()()()()()()()()()()

                                                &SCF

                                   only a single process is used
                       available to each process: 2.0 GB of memory, 1 thread?
                                            pid: 102279
()()()()()()()()()()()()()()()()()()()()()()()()()()()()()()()()()()()()()()()()()()()()()()()()()()
 
++    Input section:
      --------------
 
      Header of the integral files:
      
       Integrals generated by Gateway/Seward, Thu Apr 25 13:45:11 2024
 
 
      Cartesian coordinates in Angstrom:
      -----------------------------------------------------
      No.  Label        X            Y            Z        
      -----------------------------------------------------
       1   BE1        0.00000000   0.00000000   0.00000000
       2   N2         0.00000000   0.00000000   2.30000000
      -----------------------------------------------------
      Nuclear repulsion energy =    6.44215735
--
 
++    Orbital specifications:
      -----------------------
 
      Symmetry species               1
                                     a
      Frozen orbitals                0
      Occupied orbitals alpha        6
      Occupied orbitals beta         5
      Secondary orbitals alpha       4
      Secondary orbitals beta        5
      Deleted orbitals               0
      Total number of orbitals      10
      Number of basis functions     10
--
 
      Molecular charge                           0.000
 
++    Optimization specifications:
      ----------------------------
 
      SCF Algorithm: Conventional USCF
      D(i)-D(i-1) density differences are used
      Number of density matrices in core                 5
      Maximum number of NDDO SCF iterations            400
      Maximum number of HF SCF iterations              400
      Threshold for SCF energy change             1.00E-09
      Threshold for density matrix                1.00E-04
      Threshold for Fock matrix                   1.50E-04
      Threshold for linear dependence             1.00E-09
      Threshold at which DIIS is turned on        1.50E-01
      Maximum depth in the DIIS procedure                5
      Maximum depth in the BFGS Hessian update          30
      Threshold at which QNR/C2DIIS is turned on  7.50E-02
      Threshold for Norm(delta) (QNR/C2DIIS)      1.00E-03
      All orbitals punched on: UHFORB
--
 
      Input vectors read from INPORB
      Orbital file label: *Guess orbitals
 
 
++ Convergence information
                               UHF SCF        iterations: Energy and convergence statistics
 
Iter     Tot. SCF        One-elec.       Two-elec.     Energy      Max Dij or  Max Fij      DNorm      TNorm      AccCon     Time
         Energy          Energy          Energy        Change      Delta Norm                                                in Sec.
   1   -68.004762647  -111.079917960    36.632997964   0.00E+00    6.18E-01*   2.56E-01*    4.75E+00   1.84E+01   None         0.
   2   -64.518178345   -95.181701563    24.221365868   3.49E+00*   5.98E-01*   1.78E-01*    4.94E+00   1.42E+01   EDIIS        0.
   3   -68.443589864  -103.525812939    28.640065725  -3.93E+00*   3.66E-01*   1.57E-01*    2.92E+00   1.61E+01   EDIIS        0.
   4   -68.725638794  -107.923400850    32.755604706  -2.82E-01*   4.26E-01*   1.17E-01*    1.19E+00   1.74E+01   EDIIS        0.
   5   -68.792197749  -105.702668767    30.468313668  -6.66E-02*   3.80E-01*   9.22E-02*    9.25E-01   1.67E+01   EDIIS        0.
   6   -68.827321935  -107.037154073    31.767674788  -3.51E-02*   3.01E-01*   7.23E-02*    8.01E-01   1.71E+01   EDIIS        0.
   7   -68.845884761  -106.301985285    31.013943174  -1.86E-02*   1.86E-01*   3.70E-02*    5.49E-01   1.69E+01   EDIIS        0.
   8   -68.854988916  -106.626498223    31.329351956  -9.10E-03*   1.34E-01*   2.73E-02*    3.46E-01   1.70E+01   EDIIS        0.
   9   -68.859554225  -106.543683179    31.241971604  -4.57E-03*   1.15E-01*   7.68E-03*    2.21E-01   1.70E+01   c2DIIS       0.
  10   -68.860836966  -106.552084168    31.249089852  -1.28E-03*   7.98E-02*   9.91E-02*    1.97E-01   1.70E+01   c2DIIS       0.
  11   -68.866591125  -106.550781630    31.242033155  -5.75E-03*   3.41E-02*   3.49E-02*    2.15E-01   1.70E+01   c2DIIS       0.
  12   -68.866625940  -106.572459130    31.263675840  -3.48E-05*   4.94E-02*   8.39E-03*    1.65E-01   1.70E+01   QNRc2DIIS    0.
  13   -68.867085689  -106.578519166    31.269276127  -4.60E-04*   1.55E-01*   5.90E-03*    6.46E-02   1.70E+01   QNRc2DIIS    0.
  14   -68.867687225  -106.602534985    31.292690410  -6.02E-04*   1.46E-02*   3.84E-03*    2.00E-01   1.70E+01   QNRc2DIIS    0.
  15   -68.867748958  -106.600568358    31.290662050  -6.17E-05*   2.87E-02*   1.72E-03*    2.11E-02   1.70E+01   QNRc2DIIS    0.
  16   -68.867798513  -106.603131112    31.293175248  -4.96E-05*   1.42E-02*   1.36E-03*    4.04E-02   1.70E+01   QNRc2DIIS    0.
  17   -68.867810978  -106.607537423    31.297569094  -1.25E-05*   1.96E-02*   1.32E-03*    1.83E-02   1.70E+01   QNRc2DIIS    0.
  18   -68.867823565  -106.615463962    31.305483047  -1.26E-05*   5.31E-03*   2.05E-04*    2.81E-02   1.70E+01   QNRc2DIIS    0.
  19   -68.867824224  -106.616668300    31.306686727  -6.58E-07*   1.53E-03*   1.04E-04     6.63E-03   1.70E+01   QNRc2DIIS    0.
  20   -68.867824325  -106.616837605    31.306855929  -1.02E-07*   2.64E-04    1.42E-05     2.10E-03   1.70E+01   QNRc2DIIS    0.
  21   -68.867824329  -106.616791847    31.306810168  -3.31E-09*   5.58E-05    5.00E-06     3.78E-04   1.70E+01   QNRc2DIIS    0.
  22   -68.867824329  -106.616782144    31.306800465  -1.97E-10    2.31E-05    2.16E-06     7.96E-05   1.70E+01   QNRc2DIIS    0.
 
       Convergence after  22 Macro Iterations
--
 
 *****************************************************************************************************************************
 *                                                                                                                           *
 *                                             SCF/KS-DFT Program, Final results                                             *
 *                                                                                                                           *
 *                                                                                                                           *
 *                                                                                                                           *
 *                                                       Final Results                                                       *
 *                                                                                                                           *
 *****************************************************************************************************************************
 
::    Total SCF energy                                -68.8678243290
      One-electron energy                            -106.6167821443
      Two-electron energy                              31.3068004651
      Nuclear repulsion energy                          6.4421573501
      Kinetic energy (interpolated)                    69.7447848227
      Virial theorem                                    0.9874261496
      Total spin, S(S+1)                                1.3851393685
      Total spin, S                                     0.7787256815
      Max non-diagonal density matrix element           0.0000177432
      Max non-diagonal Fock matrix element              0.0000020643
 
 
      All orbitals with orbital energies smaller than  E(LUMO)+0.5 are printed
 
++    Molecular orbitals:
      -------------------
 
      Title: UHF orbitals (alpha)

      Molecular orbitals for symmetry species 1: a  
 
          Orbital            1         2         3         4         5         6         7         8         9        10    
          Energy          -15.4621   -4.7705   -0.9611   -0.4459   -0.3728   -0.3565    0.0376    0.0993    0.1038    0.2546
          Occ. No.          1.0000    1.0000    1.0000    1.0000    1.0000    1.0000    0.0000    0.0000    0.0000    0.0000
 
        1 BE1    1s        -0.0001    1.0000    0.0069   -0.0000    0.0000   -0.0098    0.0088   -0.0000   -0.0000   -0.0167
        2 BE1    2s        -0.0009    0.0026   -0.0570    0.0000   -0.0000    0.7145    0.7075   -0.0000   -0.0000   -0.2720
        3 BE1    2px       -0.0000    0.0000   -0.0000   -0.0459    0.0828    0.0000   -0.0000   -0.6463    0.7657   -0.0000
        4 BE1    2py       -0.0000    0.0000   -0.0000    0.0545    0.0697    0.0000   -0.0000    0.7682    0.6442   -0.0000
        5 BE1    2pz       -0.0011    0.0007   -0.0449    0.0000   -0.0000    0.3256   -0.5049    0.0000   -0.0000   -0.9005
        6 N2     1s         1.0000   -0.0000   -0.0015   -0.0000    0.0000   -0.0231    0.0043    0.0000    0.0000    0.0343
        7 N2     2s        -0.0034    0.0000   -0.9729   -0.0000    0.0000   -0.2617   -0.0154   -0.0000    0.0000    0.3830
        8 N2     2px        0.0000    0.0000   -0.0000   -0.6370    0.7514    0.0000   -0.0000    0.1186   -0.1688    0.0000
        9 N2     2py        0.0000    0.0000   -0.0000    0.7571    0.6322    0.0000   -0.0000   -0.1410   -0.1420    0.0000
       10 N2     2pz       -0.0005   -0.0003   -0.0485   -0.0000    0.0000   -0.4930    0.5152   -0.0000   -0.0000   -0.7668
--
 
 
      Input file to MOLDEN was generated!
 
 
++    Static properties:
      ------------------
 
 
      LoProp Charges per center
 

                   BE1      N2    
      Nuclear      4.0000   7.0000
      Electronic  -3.6693  -7.3307
 
      Total        0.3307  -0.3307
--
 
 
      All orbitals with orbital energies smaller than  E(LUMO)+0.5 are printed
 
++    Molecular orbitals:
      -------------------
 
      Title: UHF orbitals (beta)

      Molecular orbitals for symmetry species 1: a  
 
          Orbital            1         2         3         4         5         6         7         8         9        10    
          Energy          -15.4208   -4.7795   -0.7680   -0.3562   -0.3097    0.0635    0.0788    0.0908    0.3069    0.3453
          Occ. No.          1.0000    1.0000    1.0000    1.0000    1.0000    0.0000    0.0000    0.0000    0.0000    0.0000
 
        1 BE1    1s        -0.0001    1.0000    0.0092   -0.0019   -0.0000    0.0000    0.0000   -0.0050    0.0000   -0.0196
        2 BE1    2s        -0.0007    0.0021   -0.0702    0.9361   -0.0000   -0.0000   -0.0000    0.2475    0.0000   -0.3820
        3 BE1    2px       -0.0000   -0.0000   -0.0000   -0.0000    0.1321   -0.6284    0.7587    0.0000    0.1581    0.0000
        4 BE1    2py       -0.0000   -0.0000   -0.0000   -0.0000    0.1112    0.7468    0.6383    0.0000   -0.1880    0.0000
        5 BE1    2pz       -0.0008   -0.0006   -0.0459   -0.3429    0.0000   -0.0000   -0.0000    0.8130    0.0000   -0.6270
        6 N2     1s         1.0000    0.0000   -0.0040   -0.0053   -0.0000    0.0000    0.0000   -0.0320   -0.0000    0.0268
        7 N2     2s        -0.0064    0.0004   -0.9639   -0.1369   -0.0000    0.0000    0.0000   -0.4041    0.0000    0.2255
        8 N2     2px        0.0000    0.0000   -0.0000    0.0000    0.7389   -0.0861   -0.2170   -0.0000   -0.6422   -0.0000
        9 N2     2py        0.0000    0.0000   -0.0000    0.0000    0.6217    0.1024   -0.1826   -0.0000    0.7633   -0.0000
       10 N2     2pz       -0.0007   -0.0001    0.0850   -0.0361   -0.0000    0.0000    0.0000   -0.4148    0.0000   -0.9582
--
 
 
++    Molecular charges:
      ------------------
 
      Mulliken charges per centre and basis function type
      ---------------------------------------------------
 
                            BE1                     N2    
                     alpha        beta       alpha        beta
      1s           1.0000      1.0000      1.0000      1.0000
      2s           0.5515      0.8767      0.9772      0.9638
      2px          0.0193      0.0285      0.9807      0.5570
      2pz          0.1288      0.1455      0.3424      0.0139
      2py          0.0175      0.0202      0.9825      0.3943
      Total        1.7171      2.0709      4.2829      2.9291
      Total              3.7881                  7.2119
 
      Charge            0.2119                 -0.2119
 
      Total electronic charge=   11.000000
 
      Total            charge=   -0.000000
--
 
 
      Input file to MOLDEN was generated!
 
 
++    Static properties:
      ------------------
 
 
      LoProp Charges per center
 

                   BE1      N2    
      Nuclear      4.0000   7.0000
      Electronic  -3.6693  -7.3307
 
      Total        0.3307  -0.3307
--
 
 
++    Natural Bond Order analysis
      ---------------------------
      Based on LoProp computed density
      -------------------------------------------------------------------------------------
      Atom A       Atom B       Bond Order
      -------------------------------------------------------------------------------------
      NBO located      1.000 non-bonded electrons on atom BE1       
      The remaining    4.619 electrons are to be considered as diffuse
--
 
 
++    Molecular orbitals:
      -------------------
 
      Title: Natural orbitals

      Molecular orbitals for symmetry species 1: a  
 
          Orbital            1         2         3         4         5         6         7         8         9        10    
          Energy          -15.4413   -4.7747   -0.3408   -0.8569   -0.2780   -0.0814   -0.0104    0.2881    0.0909    0.0932
          Occ. No.          2.0000    2.0000    1.9979    1.9969    1.6126    1.0000    0.3874    0.0031    0.0021    0.0000
 
        1 BE1    1s        -0.0001    1.0000   -0.0000    0.0001   -0.0043   -0.0000   -0.0078   -0.0182   -0.0000    0.0000
        2 BE1    2s        -0.0001    0.0002   -0.0000   -0.1374    0.9082   -0.0000   -0.2623   -0.4194   -0.0000    0.0000
        3 BE1    2px        0.0000   -0.0000    0.1075   -0.0000   -0.0000   -0.0459    0.0000    0.0000   -0.7626    0.6463
        4 BE1    2py        0.0000   -0.0000    0.0905   -0.0000   -0.0000    0.0545    0.0000    0.0000   -0.6416   -0.7682
        5 BE1    2pz       -0.0007   -0.0006   -0.0000   -0.0581   -0.0159    0.0000    0.7513   -0.7783   -0.0000   -0.0000
        6 N2     1s         1.0000    0.0000    0.0000    0.0017   -0.0165   -0.0000   -0.0208    0.0327    0.0000    0.0000
        7 N2     2s        -0.0025   -0.0075   -0.0000   -0.9423   -0.3234    0.0000   -0.2307    0.3408    0.0000    0.0000
        8 N2     2px        0.0000   -0.0000    0.7456   -0.0000   -0.0000   -0.6370   -0.0000   -0.0000    0.1930   -0.1186
        9 N2     2py        0.0000   -0.0000    0.6273   -0.0000   -0.0000    0.7571   -0.0000   -0.0000    0.1624    0.1410
       10 N2     2pz       -0.0010    0.0006    0.0000    0.0531   -0.2932   -0.0000   -0.5267   -0.8559   -0.0000    0.0000
--
 
 
++    Molecular properties:
      ---------------------
 
      Charge (e):
                      =   -0.0000
      Dipole Moment (Debye):
      Origin of the operator (Ang)=    0.0000    0.0000    0.0000
                   X=  1.2187E-11               Y=  1.0011E-11               Z= -1.9950E+00           Total=  1.9950E+00
      Quadrupole Moment (Debye*Ang):
      Origin of the operator (Ang)=    0.0000    0.0000    1.3994
                  XX= -1.2268E+01              XY= -7.5115E-01              XZ=  7.0453E-11              YY= -1.2007E+01
                  YZ=  5.9705E-11              ZZ= -1.0827E+01
      In traceless form (Debye*Ang)
                  XX= -8.5100E-01              XY= -1.1267E+00              XZ=  1.0568E-10              YY= -4.5979E-01
                  YZ=  8.9558E-11              ZZ=  1.3108E+00
--
 
 
      Input file to MOLDEN was generated!
 
 ###############################################################################
 ###############################################################################
 ###                                                                         ###
 ###                                                                         ###
 ###    WARNING: RunFile label nBas                                          ###
 ###    was used       87 times                                              ###
 ###                                                                         ###
 ###                                                                         ###
 ###############################################################################
 ###############################################################################
--- Stop Module: scf at Thu Apr 25 13:45:13 2024 /rc=_RC_ALL_IS_WELL_ ---
*** files: 2.30.LprOrb 2.30.LoProp.molden 2.30.scf.molden 2.30.scf.h5 2.30.UhfOrb 2.30.UnaOrb xmldump
    saved to directory /home/grierjones/DDCASPT2/delta_ML/BeN/2.30

*** symbolic link created: INPORB -> 2.30.UnaOrb
--- Start Module: mbpt2 at Thu Apr 25 13:45:13 2024 ---
 
()()()()()()()()()()()()()()()()()()()()()()()()()()()()()()()()()()()()()()()()()()()()()()()()()()

                                               &MBPT2

                                   only a single process is used
                       available to each process: 2.0 GB of memory, 1 thread?
                                            pid: 102283
()()()()()()()()()()()()()()()()()()()()()()()()()()()()()()()()()()()()()()()()()()()()()()()()()()
 
 
 ###############################################################################
 ###############################################################################
 ###                                                                         ###
 ###                                                                         ###
 ###    WARNING: MP2 implementation intended for RHF references only         ###
 ###                                                                         ###
 ###                                                                         ###
 ###############################################################################
 ###############################################################################
MBPT2 WARNING: Reference function according to RunFile:UHF-SCF 
I'll assume you know what you're doing and continue
 
 
WARNING!
Default frozen orbitals as non valence orbitals is overwritten by user input.
Default values:   2
 
 
      Cartesian coordinates in Angstrom:
      -----------------------------------------------------
      No.  Label        X            Y            Z        
      -----------------------------------------------------
       1   BE1        0.00000000   0.00000000   0.00000000
       2   N2         0.00000000   0.00000000   2.30000000
      -----------------------------------------------------
      Nuclear repulsion energy =    6.44215735
 
      Contents of RUNFILE file:
      -------------------------
 
      Symmetry species                           1
                                                 a
      Number of basis functions                 10
      Frozen occupied orbitals                   0
      Active occupied orbitals                   6
      Active external orbitals                   4
      Deleted external orbitals                  0
 
 
      Energies of the active occupied orbitals
 
      symmetry species 1                   -15.462117     -4.770488     -0.961113     -0.445944     -0.372817
                                            -0.356517
 
 
      Energies of the active external orbitals
 
      symmetry species 1                     0.037585      0.099271      0.103807      0.254636
 
 
      ********************************************************************************************************
      *                                               Results                                                *
      ********************************************************************************************************
 
 Conventional algorithm used...

       SCF energy                           =      -68.8678243290 a.u.
       Second-order correlation energy      =       -0.0383668941 a.u.

       Total energy                         =      -68.9061912231 a.u.
       Reference weight ( Cref**2 )         =        0.96484
 
::    Total MBPT2 energy                              -68.9061912231
 
 
       Zeroth-order energy (E0)             =      -38.2958358340 a.u.
 
       Shanks-type energy S1(E)             =      -68.9062394329 a.u.
 
 


       Data processing and timing information:

       Section                                              time(sec)
                                                          CPU  Elapsed

      Input data processing                              0.03      0.04
      Transformation of integrals                        0.00      0.00
      MBPT2 calculations (BJAI)                          0.00      0.00
      Total MBPT2 calculations                           0.03      0.04
 
 
--- Stop Module: mbpt2 at Thu Apr 25 13:45:13 2024 /rc=_RC_ALL_IS_WELL_ ---
*** files: xmldump
    saved to directory /home/grierjones/DDCASPT2/delta_ML/BeN/2.30

*** symbolic link created: INPORB -> 2.30.UnaOrb
--- Start Module: rasscf at Thu Apr 25 13:45:13 2024 ---
 
()()()()()()()()()()()()()()()()()()()()()()()()()()()()()()()()()()()()()()()()()()()()()()()()()()

                                              &RASSCF

                                   only a single process is used
                       available to each process: 2.0 GB of memory, 1 thread?
                                            pid: 102286
()()()()()()()()()()()()()()()()()()()()()()()()()()()()()()()()()()()()()()()()()()()()()()()()()()
 
 
      Header of the ONEINT file:
      --------------------------
      
      Integrals generated by Gateway/Seward, Thu Apr 25 13:45:11 2024
 
 
      OrdInt status: non-squared
 
 
      Cartesian coordinates in Angstrom:
      -----------------------------------------------------
      No.  Label        X            Y            Z        
      -----------------------------------------------------
       1   BE1        0.00000000   0.00000000   0.00000000
       2   N2         0.00000000   0.00000000   2.30000000
      -----------------------------------------------------
      Nuclear repulsion energy =    6.44215735
 
++    Wave function specifications:
      -----------------------------
 
      Number of closed shell electrons          10
      Number of electrons in active shells       1
      Max number of holes in RAS1 space          0
      Max nr of electrons in RAS3 space          0
      Number of inactive orbitals                5
      Number of active orbitals                  2
      Number of secondary orbitals               3
      Spin quantum number                      0.5
      State symmetry                             1
--
 
++    Orbital specifications:
      -----------------------
 
      Symmetry species                           1
                                                 a
      Frozen orbitals                            0
      Inactive orbitals                          5
      Active orbitals                            2
      RAS1 orbitals                              0
      RAS2 orbitals                              2
      RAS3 orbitals                              0
      Secondary orbitals                         3
      Deleted orbitals                           0
      Number of basis functions                 10
--
 
++    CI expansion specifications:
      ----------------------------
 
      Number of CSFs                             2
      Number of determinants                     2
      Number of root(s) required                 1
      Root chosen for geometry opt.              1
      CI root used                               1
         
      highest root included in the CI            1
      max. size of the explicit Hamiltonian      2
--
 
++    Optimization specifications:
      ----------------------------
 
      RASSCF algorithm: Conventional
      Maximum number of macro iterations       200
      Maximum number of SX iterations          100
      Threshold for RASSCF energy            1.000E-08
      Threshold for max MO rotation          1.000E-01
      Threshold for max BLB element          1.000E-04
      Level shift parameter                  5.000E-01
      Make Quasi-Newton update
--
 
      The MO-coefficients are taken from the file:
      /home/grierjones/DDCASPT2/delta_ML/BeN/2.20/2.20.RasOrb                                                                                                                                                                                                         
      Title: RASSCF average (pseudo-natural) orbitals                                      
 
      Total molecular charge    0.00
 
      ************************************************************************************************************************
      *                                                                                                                      *
      *                                            Wave function control section                                             *
      *                                                                                                                      *
      ************************************************************************************************************************
 
 
                                         RASSCF iterations: Energy and convergence statistics
                                         ----------------------------------------------------
 
      Iter CI   SX   CI       RASSCF       Energy    max ROT     max BLB   max BLB  Level Ln srch  Step   QN   Walltime
          iter iter root      energy       change     param      element    value   shift minimum  type update hh:mm:ss
 Nr of preliminary CI iterations:   1
 ###############################################################################
 ###############################################################################
 ###                                                                         ###
 ###                                                                         ###
 ###    WARNING: Problems in orbital optimization.                           ###
 ###                                                                         ###
 ###                                                                         ###
 ###############################################################################
 ###############################################################################
  Warning: In symmetry  1, orbital p=   7 has diagonal density matrix element D(p,p) close to zero. D(p,p)=  5.652252E-22
        1   1    4    1   -68.69322286    0.00E+00  -6.61E-03    3   8 1 -7.85E-03*  0.50   0.00    SX    NO    0:00:00
 ###############################################################################
 ###############################################################################
 ###                                                                         ###
 ###                                                                         ###
 ###    WARNING: Problems in orbital optimization.                           ###
 ###                                                                         ###
 ###                                                                         ###
 ###############################################################################
 ###############################################################################
  Warning: In symmetry  1, orbital p=   7 has diagonal density matrix element D(p,p) close to zero. D(p,p)=  1.178382E-19
        2   1    4    1   -68.69334488   -1.22E-04* -3.50E-03    3   8 1 -4.97E-03*  0.50   0.00    SX    NO    0:00:00
 ###############################################################################
 ###############################################################################
 ###                                                                         ###
 ###                                                                         ###
 ###    WARNING: Problems in orbital optimization.                           ###
 ###                                                                         ###
 ###                                                                         ###
 ###############################################################################
 ###############################################################################
  Warning: In symmetry  1, orbital p=   7 has diagonal density matrix element D(p,p) close to zero. D(p,p)=  4.897586E-19
        3   1    4    1   -68.69338473   -3.98E-05* -1.90E-03    3   8 1 -3.08E-03*  0.50   0.00    SX    NO    0:00:00
 ###############################################################################
 ###############################################################################
 ###                                                                         ###
 ###                                                                         ###
 ###    WARNING: Problems in orbital optimization.                           ###
 ###                                                                         ###
 ###                                                                         ###
 ###############################################################################
 ###############################################################################
  Warning: In symmetry  1, orbital p=   7 has diagonal density matrix element D(p,p) close to zero. D(p,p)=  1.200871E-18
        4   1    4    1   -68.69339940   -1.47E-05*  1.07E-03    3   8 1 -1.92E-03*  0.50   0.00    SX    NO    0:00:00
 ###############################################################################
 ###############################################################################
 ###                                                                         ###
 ###                                                                         ###
 ###    WARNING: Problems in orbital optimization.                           ###
 ###                                                                         ###
 ###                                                                         ###
 ###############################################################################
 ###############################################################################
  Warning: In symmetry  1, orbital p=   7 has diagonal density matrix element D(p,p) close to zero. D(p,p)=  2.355577E-18
        5   1    4    1   -68.69340563   -6.22E-06*  1.60E-03    3   8 1 -1.23E-03*  0.50   2.50    LS   YES    0:00:00
 ###############################################################################
 ###############################################################################
 ###                                                                         ###
 ###                                                                         ###
 ###    WARNING: Problems in orbital optimization.                           ###
 ###                                                                         ###
 ###                                                                         ###
 ###############################################################################
 ###############################################################################
  Warning: In symmetry  1, orbital p=   7 has diagonal density matrix element D(p,p) close to zero. D(p,p)=  4.800891E-18
        6   1    4    1   -68.69341048   -4.86E-06* -1.38E-03    6   8 1 -5.96E-04*  0.50   1.42    QN   YES    0:00:00
 ###############################################################################
 ###############################################################################
 ###                                                                         ###
 ###                                                                         ###
 ###    WARNING: Problems in orbital optimization.                           ###
 ###                                                                         ###
 ###                                                                         ###
 ###############################################################################
 ###############################################################################
  Warning: In symmetry  1, orbital p=   7 has diagonal density matrix element D(p,p) close to zero. D(p,p)=  9.728319E-18
        7   1    3    1   -68.69341200   -1.52E-06* -1.72E-03    6   8 1 -4.50E-04*  0.50   1.73    QN   YES    0:00:00
 ###############################################################################
 ###############################################################################
 ###                                                                         ###
 ###                                                                         ###
 ###    WARNING: Problems in orbital optimization.                           ###
 ###                                                                         ###
 ###                                                                         ###
 ###############################################################################
 ###############################################################################
  Warning: In symmetry  1, orbital p=   7 has diagonal density matrix element D(p,p) close to zero. D(p,p)=  2.224991E-17
        8   1    3    1   -68.69341300   -1.00E-06* -9.21E-04    3   8 1  3.12E-04*  0.50   1.48    QN   YES    0:00:00
 ###############################################################################
 ###############################################################################
 ###                                                                         ###
 ###                                                                         ###
 ###    WARNING: Problems in orbital optimization.                           ###
 ###                                                                         ###
 ###                                                                         ###
 ###############################################################################
 ###############################################################################
  Warning: In symmetry  1, orbital p=   7 has diagonal density matrix element D(p,p) close to zero. D(p,p)=  4.079942E-17
        9   1    3    1   -68.69341330   -3.03E-07* -1.44E-04    3   8 1  1.58E-04*  0.50   1.27    QN   YES    0:00:00
 ###############################################################################
 ###############################################################################
 ###                                                                         ###
 ###                                                                         ###
 ###    WARNING: Problems in orbital optimization.                           ###
 ###                                                                         ###
 ###                                                                         ###
 ###############################################################################
 ###############################################################################
  Warning: In symmetry  1, orbital p=   7 has diagonal density matrix element D(p,p) close to zero. D(p,p)=  6.097772E-17
       10   1    3    1   -68.69341334   -3.88E-08*  3.61E-05    3   8 1  4.15E-05   0.50   1.23    QN   YES    0:00:00
 ###############################################################################
 ###############################################################################
 ###                                                                         ###
 ###                                                                         ###
 ###    WARNING: Problems in orbital optimization.                           ###
 ###                                                                         ###
 ###                                                                         ###
 ###############################################################################
 ###############################################################################
  Warning: In symmetry  1, orbital p=   7 has diagonal density matrix element D(p,p) close to zero. D(p,p)=  8.712544E-17
       11   1    3    1   -68.69341335   -4.63E-09   2.43E-05    6  10 1  1.87E-05   0.50   1.35    QN   YES    0:00:00
      Convergence after 11 iterations
       12   1    3    1   -68.69341335   -8.80E-10   2.43E-05    6  10 1  6.11E-06   0.50   1.35    QN   YES    0:00:00
 
      ************************************************************************************************************************
                                                      Wave function printout:
                       occupation of active orbitals, and spin coupling of open shells (u,d: Spin up or down)
      ************************************************************************************************************************
 
      Note: transformation to natural orbitals
      has been made, which may change the order of the CSFs.
 
      printout of CI-coefficients larger than  0.05 for root  1
      energy=     -68.693413
      conf/sym  11     Coeff  Weight
             1  u0   1.00000 1.00000
 
      Natural orbitals and occupation numbers for root  1
      sym 1:   1.000000   0.000000
 
      ************************************************************************************************************************
      *                                                                                                                      *
      *                                                    Final results                                                     *
      *                                                                                                                      *
      ************************************************************************************************************************
 
 
++    Wave function specifications:
      -----------------------------
 
      Number of closed shell electrons          10
      Number of electrons in active shells       1
      Max number of holes in RAS1 space          0
      Max nr of electrons in RAS3 space          0
      Number of inactive orbitals                5
      Number of active orbitals                  2
      Number of secondary orbitals               3
      Spin quantum number                      0.5
      State symmetry                             1
--
 
++    Orbital specifications:
      -----------------------
 
      Symmetry species                           1
                                                 a
      Frozen orbitals                            0
      Inactive orbitals                          5
      Active orbitals                            2
      RAS1 orbitals                              0
      RAS2 orbitals                              2
      RAS3 orbitals                              0
      Secondary orbitals                         3
      Deleted orbitals                           0
      Number of basis functions                 10
--
 
++    CI expansion specifications:
      ----------------------------
 
      Number of CSFs                             2
      Number of determinants                     2
      Number of root(s) required                 1
      CI root used                               1
      highest root included in the CI            1
      Root passed to geometry opt.               1
--
 
++    Final optimization conditions:
      ------------------------------
 
      Average CI energy                             -68.69341335
      RASSCF energy for state  1                    -68.69341335
      Super-CI energy                                -0.00000000
      RASSCF energy change                           -0.00000000
      Max change in MO coefficients              -2.436E-05
      Max non-diagonal density matrix element     2.433E-05
      Maximum BLB matrix element                  6.113E-06
      (orbital pair   6,  10 in symmetry   1)
      Norm of electronic gradient            6.636E-06
--
 
 
      Final state energy(ies):
      ------------------------
 
::    RASSCF root number  1 Total energy:    -68.69341335
 
++    Molecular orbitals:
      -------------------
 
      Pseudonatural active orbitals and approximate occupation numbers
 
 
 
 
      Molecular orbitals for symmetry species 1: a  
 
 
      Orbital                 1         2         3         4         5         6         7         8         9        10
      Energy           -15.3379   -4.8503   -0.8129   -0.2609   -0.2609   -0.2145   -0.0000    0.0613    0.0683    0.3481
      Occ. No.           2.0000    2.0000    2.0000    2.0000    2.0000    1.0000    0.0000    0.0000    0.0000    0.0000
 
     1 BE1    1s        -0.0001    1.0000   -0.0084    0.0000    0.0000    0.0027   -0.0000    0.0053    0.0000    0.0197
     2 BE1    2s        -0.0008    0.0031    0.0657   -0.0000   -0.0000   -0.9723    0.0000   -0.1386   -0.0000    0.3455
     3 BE1    2px       -0.0000    0.0000   -0.0000   -0.0156    0.3204   -0.0000   -0.9261   -0.0000    0.2288   -0.0000
     4 BE1    2py        0.0000   -0.0000   -0.0000    0.3204    0.0156   -0.0000   -0.2288    0.0000   -0.9261   -0.0000
     5 BE1    2pz       -0.0010    0.0004    0.0633    0.0000   -0.0000    0.2177   -0.0000   -0.8672   -0.0000    0.6086
     6 N2     1s         1.0000   -0.0000    0.0018    0.0000    0.0000    0.0098   -0.0000    0.0312    0.0000   -0.0260
     7 N2     2s        -0.0046    0.0000    0.9633    0.0000    0.0000    0.1751   -0.0000    0.3722    0.0000   -0.2549
     8 N2     2px       -0.0000    0.0000   -0.0000   -0.0442    0.9105   -0.0000    0.4141   -0.0000   -0.1023   -0.0000
     9 N2     2py       -0.0000    0.0000   -0.0000    0.9105    0.0442   -0.0000    0.1023   -0.0000    0.4141    0.0000
    10 N2     2pz       -0.0003   -0.0000   -0.0311    0.0000    0.0000    0.0596   -0.0000    0.3823    0.0000    0.9737
--
 
      Von Neumann Entropy (Root   1) =  0.50000
 

      Mulliken population analysis for root number:  1
      -----------------------------------------------
 
 
++    Molecular charges:
      ------------------
 
      Mulliken charges per centre and basis function type
      ---------------------------------------------------
 
                BE1     N2    
      1s       2.0000  2.0001
      2s       0.9568  1.9264
      2px      0.2719  1.7281
      2pz      0.1020  0.0148
      2py      0.2719  1.7281
      Total    3.6025  7.3975
 
      N-E      0.3975 -0.3975
 
      Total electronic charge=   11.000000
 
      Total            charge=   -0.000000
--
 
 

      Expectation values of various properties for root number:  1
      -----------------------------------------------------------
 
 
++    Molecular properties:
      ---------------------
 
      Charge (e):
                      =   -0.0000
      Dipole Moment (Debye):
      Origin of the operator (Ang)=    0.0000    0.0000    0.0000
                   X= -1.9038E-08               Y= -6.5705E-09               Z= -3.4227E+00           Total=  3.4227E+00
      Quadrupole Moment (Debye*Ang):
      Origin of the operator (Ang)=    0.0000    0.0000    1.3994
                  XX= -1.2912E+01              XY= -6.1347E-14              XZ=  1.4393E-09              YY= -1.2912E+01
                  YZ=  8.5513E-09              ZZ= -9.2975E+00
      In traceless form (Debye*Ang)
                  XX= -1.8075E+00              XY= -9.2020E-14              XZ=  2.1590E-09              YY= -1.8075E+00
                  YZ=  1.2827E-08              ZZ=  3.6149E+00
--
 

      Mulliken spin population analysis for root number:  1
      ---------------------------------------------------
 
 
++    Molecular charges:
      ------------------
 
      Mulliken spin population per centre and basis function type
      ---------------------------------------------------
 
                BE1     N2    
      1s       0.0000 -0.0000
      2s       0.9230  0.0094
      2px      0.0000  0.0000
      2pz      0.0563  0.0113
      2py      0.0000  0.0000
      Total    0.9793  0.0207
 
      Total electronic spin=    1.000000
--
 
 

      LoProp population analysis for root number:  1
      -----------------------------------------------
 
 
++    LoProp analysis:
      ----------------
 
 
 
      Input file to MOLDEN was generated!
 
 
++    Static properties:
      ------------------
 
 
      LoProp Charges per center
 

                   BE1      N2    
      Nuclear      4.0000   7.0000
      Electronic  -3.4311  -7.5689
 
      Total        0.5689  -0.5689
--
 
 
      Natural Bond Order analysis for root number:  1
 
++    Natural Bond Order analysis
      ---------------------------
      Based on LoProp computed density
      -------------------------------------------------------------------------------------
      Atom A       Atom B       Bond Order
      -------------------------------------------------------------------------------------
      NBO located      1.000 non-bonded electrons on atom BE1       
      The remaining    4.681 electrons are to be considered as diffuse
--
 
--
 
 
      Input file to MOLDEN was generated!
 
 
      Input file to MOLDEN was generated!
 
      Average orbitals are written to the RASORB file
      Natural orbitals for root   1 are written to the RASORB.1 file
      Spin density orbitals for root   1 are written to the SPDORB.1 file
 
--- Stop Module: rasscf at Thu Apr 25 13:45:14 2024 /rc=_RC_ALL_IS_WELL_ ---
*** files: 2.30.LprOrb 2.30.rasscf.molden.1 2.30.rasscf.molden 2.30.LoProp.molden 2.30.RasOrb.1 2.30.RasOrb 2.30.rasscf.h5 2.30.SpdOrb.1 xmldump
    saved to directory /home/grierjones/DDCASPT2/delta_ML/BeN/2.30

*** symbolic link created: INPORB -> 2.30.RasOrb
--- Start Module: caspt2 at Thu Apr 25 13:45:14 2024 ---
 
()()()()()()()()()()()()()()()()()()()()()()()()()()()()()()()()()()()()()()()()()()()()()()()()()()

                                              &CASPT2

                                   only a single process is used
                       available to each process: 2.0 GB of memory, 1 thread?
                                            pid: 102290
()()()()()()()()()()()()()()()()()()()()()()()()()()()()()()()()()()()()()()()()()()()()()()()()()()
 
 ###############################################################################
 ###############################################################################
 ###                                                                         ###
 ###                                                                         ###
 ###    WARNING: User changed nr of frozen orbitals.                         ###
 ###                                                                         ###
 ###                                                                         ###
 ###############################################################################
 ###############################################################################
 
++    Wave function specifications:
      -----------------------------
 
      Number of closed shell electrons          10
      Number of electrons in active shells       1
      Max number of holes in RAS1 space          0
      Max number of electrons in RAS3 space      0
      Number of inactive orbitals                5
      Number of active orbitals                  2
      Number of secondary orbitals               3
      Spin quantum number                      0.5
      State symmetry                             1
      Number of CSFs                             2
      Number of CASSCF root(s) available         1
      CASPT2 state passed to geometry opt.       1
      A file JOBMIX will be created
      This is a CASSCF or RASSCF reference function
--
 
++    Orbital specifications:
      -----------------------
 
      Symmetry species                           1
                                                 a
      Frozen orbitals                            0
      Inactive orbitals                          5
      Active orbitals                            2
      Secondary orbitals                         3
      Deleted orbitals                           0
      Number of basis functions                 10
--
 
++    CASPT2 specifications:
      ----------------------
 
      Type of calculation                        SS-CASPT2
      Fock operator                              state-specific
      IPEA shift                                 0.25
      Real shift                                 0.00
      Imaginary shift                            0.00
      The input orbitals will be transformed to quasi-canonical
--
 
--------------------------------------------------------------------------------
 Estimated memory requirements:
  POLY3 :                   250056
  RHS:                      250476
  SIGMA :                   250480
  PRPCTL:                        0
 Available workspace:    230392719
 
++ CASPT2 computation for group   1
 
********************************************************************************
 Multi-State initialization phase begins for group   1
--------------------------------------------------------------------------------
********************************************************************************
 Compute H0 matrices for state    1
--------------------------------------------------------------------------------
--------------------------------------------------------------------------------
 H0 matrices have been computed.
 
********************************************************************************
  CASPT2 EQUATION SOLUTION
--------------------------------------------------------------------------------
 
  Total nr of CASPT2 parameters:
   Before reduction:         620
   After  reduction:         438
 
 Variance of |WF0>:       0.0767187147
 
 The contributions to the second order correlation energy in atomic units.
-----------------------------------------------------------------------------------------------------------------------------
  IT.      VJTU        VJTI        ATVX        AIVX        VJAI        BVAT        BJAT        BJAI        TOTAL       RNORM  
-----------------------------------------------------------------------------------------------------------------------------
   1    -0.001089   -0.011766    0.000000   -0.003307   -0.032868    0.000000   -0.002706   -0.026474   -0.078211    0.000041
-----------------------------------------------------------------------------------------------------------------------------
 
  FINAL CASPT2 RESULT:
 
      Reference energy:         -68.6934133464
      E2 (Non-variational):      -0.0782135337
      E2 (Variational):          -0.0782134865
      Total energy:             -68.7716268329
      Residual norm:              0.0000006633
      Reference weight:           0.90907
 
      Contributions to the CASPT2 correlation energy
      Active & Virtual Only:          0.0000000004
      One Inactive Excited:          -0.0071047635
      Two Inactive Excited:          -0.0711087706
 
 
++ Denominators, etc.
--------------------------------------------------------------------------------------------------------------
 Report on small energy denominators, large coefficients, and large energy contributions.
CASE  SYMM ACTIVE-MIX  NON-ACTIVE INDICES          DENOMINATOR     RHS VALUE       COEFFICIENT     CONTRIBUTION
VJTU     1  Mu1.0002  In1.005                       0.49584479      0.01348275     -0.02847532     -0.00038393
VJTU     1  Mu1.0004  In1.005                       0.82917812     -0.02335363      0.02786178     -0.00065067
VJTIP    1  Mu1.0002  In1.005 In1.004               0.65835624      0.01842379     -0.02798452     -0.00051558
VJTIP    1  Mu1.0002  In1.005 In1.005               0.65835624      0.08174004     -0.12415777     -0.01014866
AIVX     1  Mu1.0002  In1.005 Se1.008               0.68838066      0.03376534     -0.04997483     -0.00168742
AIVX     1  Mu1.0001  In1.004 Se1.009               0.49584479     -0.01348275      0.02838247     -0.00038267
AIVX     1  Mu1.0003  In1.004 Se1.009               0.82917812     -0.02335363      0.02780212     -0.00064928
VJAIP    1  Mu1.0002  Se1.009 In1.004 In1.004       0.65835624     -0.01842379      0.02798452     -0.00051558
VJAIP    1  Mu1.0002  Se1.008 In1.005 In1.003       1.20344959     -0.04559926      0.03813948     -0.00173913
VJAIP    1  Mu1.0002  Se1.009 In1.005 In1.004       0.65835624     -0.07278923      0.11056208     -0.00804773
VJAIP    1  Mu1.0002  Se1.009 In1.005 In1.005       0.65835624      0.01842379     -0.02798452     -0.00051558
VJAIM    1  Mu1.0002  Se1.008 In1.005 In1.003       1.20344959      0.04554188     -0.03820927     -0.00174012
VJAIM    1  Mu1.0002  Se1.009 In1.005 In1.004       0.65835624      0.11073544     -0.16819989     -0.01862569
BJATM    1  Mu1.0001  In1.004 Se1.009 Se1.008       0.73004732     -0.03376534      0.04712049     -0.00159104
BJAIP    1  Se1.008 In1.003 Se1.008 In1.003         1.74854293      0.05375977     -0.03086286     -0.00165918
BJAIP    1  Se1.008 In1.003 Se1.010 In1.003         2.03527188      0.06915230     -0.03402954     -0.00235322
BJAIP    1  Se1.010 In1.003 Se1.010 In1.003         2.32200083      0.10732567     -0.04624305     -0.00496307
BJAIP    1  Se1.008 In1.003 Se1.009 In1.004         1.20344959      0.04559926     -0.03815124     -0.00173967
BJAIP    1  Se1.009 In1.004 Se1.009 In1.004         0.65835624      0.08174004     -0.12415777     -0.01014866
BJAIP    1  Se1.009 In1.004 Se1.009 In1.005         0.65835624     -0.01842379      0.02798452     -0.00051558
BJAIM    1  Se1.008 In1.003 Se1.008 In1.004         1.20344959      0.04554188     -0.03819796     -0.00173961
--
 
   (Skipping property calculation,
    use PROP keyword to activate)
--
 
  Total CASPT2 energies:
::    CASPT2 Root  1     Total energy:    -68.77162683
 
  A NEW JOBIPH FILE NAMED 'JOBMIX' IS PREPARED.
********************************************************************************
--- Stop Module: caspt2 at Thu Apr 25 13:45:14 2024 /rc=_RC_ALL_IS_WELL_ ---
*** files: xmldump
    saved to directory /home/grierjones/DDCASPT2/delta_ML/BeN/2.30

.##################.
.# Happy landing! #.
.##################.

    Timing: Wall=2.67 User=1.79 System=0.22
************************************
*** WorkDir at /tmp/2.30 removed ***
************************************
