[Molden Format]
[N_Atoms]
                     2
[Atoms] (AU)
BE1         1      4           0.00000000      0.00000000      0.00000000
N2          2      7           0.00000000      0.00000000      4.34637009
[Charge] (Mulliken)
  0.211947740086925     
 -0.211947740086972     
[GTO] (AU)
   1
   s  14
  2.262859900E+04  8.443999941E-05
  3.372318100E+03  4.601499968E-04
  7.603504000E+02  2.285389984E-03
  2.117404800E+02  9.648129932E-03
  6.722346800E+01  3.494469975E-02
  2.337217700E+01  1.061099893E-01
  8.721373000E+00  2.458240383E-01
  3.468091000E+00  3.862428773E-01
  1.452144000E+00  3.105526078E-01
  6.086150000E-01  6.415933955E-02
  2.576860000E-01 -2.265049984E-03
  1.041760000E-01 -5.217499963E-04
  4.242700000E-02 -8.757499938E-04
  1.484900000E-02  1.242199991E-04
   s  14
  2.262859900E+04 -1.586999994E-05
  3.372318100E+03 -8.656999968E-05
  7.603504000E+02 -4.302199984E-04
  2.117404800E+02 -1.825079993E-03
  6.722346800E+01 -6.682749976E-03
  2.337217700E+01 -2.095119992E-02
  8.721373000E+00 -5.200308981E-02
  3.468091000E+00 -9.849176964E-02
  1.452144000E+00 -1.355800695E-01
  6.086150000E-01 -6.429875976E-02
  2.576860000E-01  3.125414989E-01
  1.041760000E-01  6.270468577E-01
  4.242700000E-02  2.110231492E-01
  1.484900000E-02 -4.104669985E-03
   p   9
  3.371018400E+01  1.069960000E-03
  8.057649500E+00  6.828550001E-03
  2.836471400E+00  2.119065000E-02
  1.099965700E+00  5.843696001E-02
  4.433964000E-01  2.020920800E-01
  1.822264000E-01  4.582953101E-01
  7.572410000E-02  3.691239601E-01
  3.168540000E-02  6.611471001E-02
  1.108990000E-02  1.405160000E-03
 
   2
   s  14
  7.476171500E+04  1.182599996E-04
  1.112365400E+04  5.172899983E-04
  2.512685700E+03  2.266659992E-03
  7.037772900E+02  9.145289970E-03
  2.254787900E+02  3.239342989E-02
  7.961581000E+01  9.770792967E-02
  3.023728300E+01  2.317036792E-01
  1.226362200E+01  3.768898887E-01
  5.265086000E+00  3.177420689E-01
  2.333471000E+00  8.211308973E-02
  9.018560000E-01  3.312089989E-03
  3.583360000E-01  3.720819988E-03
  1.410930000E-01  3.165419989E-03
  4.938300000E-02  4.595799985E-04
   s  14
  7.476171500E+04 -2.707000010E-05
  1.112365400E+04 -1.183700004E-04
  2.512685700E+03 -5.203800020E-04
  7.037772900E+02 -2.102930008E-03
  2.254787900E+02 -7.568200028E-03
  7.961581000E+01 -2.346767009E-02
  3.023728300E+01 -6.042901023E-02
  1.226362200E+01 -1.170549104E-01
  5.265086000E+00 -1.555321506E-01
  2.333471000E+00 -2.468935009E-02
  9.018560000E-01  3.625054514E-01
  3.583360000E-01  5.550845021E-01
  1.410930000E-01  2.148376908E-01
  4.938300000E-02  8.983850034E-03
   p   9
  1.266665700E+02  1.233630000E-03
  2.983738900E+01  9.493409996E-03
  9.394038000E+00  4.293961998E-02
  3.405104000E+00  1.362925399E-01
  1.350000000E+00  2.921362499E-01
  5.576960000E-01  3.887887598E-01
  2.324490000E-01  2.946801399E-01
  9.426400000E-02  8.012875997E-02
  3.299200000E-02  5.405199998E-04
 
[MO]
Sym=     1a  
Ene=   -15.4620
Spin= Alpha
Occup=    1.00000
   1        -0.00009881
   2        -0.00093085
   3        -0.00000000
   4        -0.00000000
   5        -0.00112766
   6         1.00004587
   7        -0.00342373
   8         0.00000000
   9         0.00000000
  10        -0.00054292
Sym=     1a  
Ene=   -15.4210
Spin= Beta
Occup=    1.00000
   1        -0.00008208
   2        -0.00071905
   3        -0.00000000
   4        -0.00000000
   5        -0.00079117
   6         1.00001583
   7        -0.00641601
   8         0.00000000
   9         0.00000000
  10        -0.00065003
Sym=     2a  
Ene=    -4.7705
Spin= Alpha
Occup=    1.00000
   1         0.99999107
   2         0.00258648
   3         0.00000000
   4         0.00000000
   5         0.00068973
   6        -0.00003596
   7         0.00004202
   8         0.00000000
   9         0.00000000
  10        -0.00025625
Sym=     2a  
Ene=    -4.7795
Spin= Beta
Occup=    1.00000
   1         0.99999225
   2         0.00209329
   3        -0.00000000
   4        -0.00000000
   5        -0.00063775
   6         0.00001943
   7         0.00038786
   8         0.00000000
   9         0.00000000
  10        -0.00012675
Sym=     3a  
Ene=    -0.9611
Spin= Alpha
Occup=    1.00000
   1         0.00690592
   2        -0.05695001
   3        -0.00000000
   4        -0.00000000
   5        -0.04485668
   6        -0.00149635
   7        -0.97294689
   8        -0.00000000
   9        -0.00000000
  10        -0.04847781
Sym=     3a  
Ene=    -0.7680
Spin= Beta
Occup=    1.00000
   1         0.00922492
   2        -0.07015021
   3        -0.00000000
   4        -0.00000000
   5        -0.04594747
   6        -0.00396990
   7        -0.96391711
   8        -0.00000000
   9        -0.00000000
  10         0.08503327
Sym=     4a  
Ene=    -0.4459
Spin= Alpha
Occup=    1.00000
   1        -0.00000000
   2         0.00000000
   3        -0.04587576
   4         0.05452620
   5         0.00000000
   6        -0.00000000
   7        -0.00000000
   8        -0.63699977
   9         0.75711393
  10        -0.00000000
Sym=     4a  
Ene=    -0.3562
Spin= Beta
Occup=    1.00000
   1        -0.00185414
   2         0.93612121
   3        -0.00000000
   4        -0.00000000
   5        -0.34291440
   6        -0.00534382
   7        -0.13686395
   8         0.00000000
   9         0.00000000
  10        -0.03612666
Sym=     5a  
Ene=    -0.3728
Spin= Alpha
Occup=    1.00000
   1         0.00000000
   2        -0.00000000
   3         0.08279704
   4         0.06966151
   5        -0.00000000
   6         0.00000000
   7         0.00000000
   8         0.75140492
   9         0.63219648
  10         0.00000000
Sym=     5a  
Ene=    -0.3098
Spin= Beta
Occup=    1.00000
   1        -0.00000000
   2        -0.00000000
   3         0.13214406
   4         0.11117974
   5         0.00000000
   6        -0.00000000
   7        -0.00000000
   8         0.73891590
   9         0.62168881
  10        -0.00000000
Sym=     6a  
Ene=    -0.3565
Spin= Alpha
Occup=    1.00000
   1        -0.00978066
   2         0.71452872
   3         0.00000000
   4         0.00000000
   5         0.32556526
   6        -0.02307552
   7        -0.26167563
   8         0.00000000
   9         0.00000000
  10        -0.49303893
Sym=     6a  
Ene=     0.0635
Spin= Beta
Occup=    0.00000
   1         0.00000000
   2        -0.00000000
   3        -0.62835525
   4         0.74683939
   5        -0.00000000
   6         0.00000000
   7         0.00000000
   8        -0.08612531
   9         0.10236530
  10         0.00000000
Sym=     7a  
Ene=     0.0376
Spin= Alpha
Occup=    0.00000
   1         0.00878554
   2         0.70753363
   3        -0.00000000
   4        -0.00000000
   5        -0.50486303
   6         0.00432405
   7        -0.01539264
   8        -0.00000000
   9        -0.00000000
  10         0.51515657
Sym=     7a  
Ene=     0.0788
Spin= Beta
Occup=    0.00000
   1         0.00000000
   2        -0.00000000
   3         0.75870441
   4         0.63833792
   5        -0.00000000
   6         0.00000000
   7         0.00000000
   8        -0.21702011
   9        -0.18259043
  10         0.00000000
Sym=     8a  
Ene=     0.0993
Spin= Alpha
Occup=    0.00000
   1        -0.00000000
   2        -0.00000000
   3        -0.64632163
   4         0.76819355
   5         0.00000000
   6         0.00000000
   7        -0.00000000
   8         0.11860665
   9        -0.14097139
  10        -0.00000000
Sym=     8a  
Ene=     0.0908
Spin= Beta
Occup=    0.00000
   1        -0.00497606
   2         0.24751339
   3         0.00000000
   4         0.00000000
   5         0.81298193
   6        -0.03204869
   7        -0.40411302
   8        -0.00000000
   9        -0.00000000
  10        -0.41480798
Sym=     9a  
Ene=     0.1038
Spin= Alpha
Occup=    0.00000
   1        -0.00000000
   2        -0.00000000
   3         0.76566252
   4         0.64419214
   5        -0.00000000
   6         0.00000000
   7         0.00000000
   8        -0.16877524
   9        -0.14199949
  10        -0.00000000
Sym=     9a  
Ene=     0.3069
Spin= Beta
Occup=    0.00000
   1         0.00000000
   2         0.00000000
   3         0.15813259
   4        -0.18795044
   5         0.00000000
   6        -0.00000000
   7         0.00000000
   8        -0.64219831
   9         0.76329272
  10         0.00000000
Sym=    10a  
Ene=     0.2546
Spin= Alpha
Occup=    0.00000
   1        -0.01673704
   2        -0.27201418
   3        -0.00000000
   4        -0.00000000
   5        -0.90049205
   6         0.03425635
   7         0.38302461
   8         0.00000000
   9         0.00000000
  10        -0.76678592
Sym=    10a  
Ene=     0.3453
Spin= Beta
Occup=    0.00000
   1        -0.01962194
   2        -0.38195020
   3         0.00000000
   4         0.00000000
   5        -0.62700647
   6         0.02675014
   7         0.22547662
   8        -0.00000000
   9        -0.00000000
  10        -0.95821860
