[Molden Format]
[N_Atoms]
                     2
[Atoms] (AU)
BE1         1      4           0.00000000      0.00000000      0.00000000
F2          2      9           0.00000000      0.00000000      3.21253441
[Charge] (Mulliken)
  0.577389045653375     
 -0.577389045653378     
[GTO] (AU)
   1
   s  14
  2.262859900E+04  8.443999941E-05
  3.372318100E+03  4.601499968E-04
  7.603504000E+02  2.285389984E-03
  2.117404800E+02  9.648129932E-03
  6.722346800E+01  3.494469975E-02
  2.337217700E+01  1.061099893E-01
  8.721373000E+00  2.458240383E-01
  3.468091000E+00  3.862428773E-01
  1.452144000E+00  3.105526078E-01
  6.086150000E-01  6.415933955E-02
  2.576860000E-01 -2.265049984E-03
  1.041760000E-01 -5.217499963E-04
  4.242700000E-02 -8.757499938E-04
  1.484900000E-02  1.242199991E-04
   s  14
  2.262859900E+04 -1.586999994E-05
  3.372318100E+03 -8.656999968E-05
  7.603504000E+02 -4.302199984E-04
  2.117404800E+02 -1.825079993E-03
  6.722346800E+01 -6.682749976E-03
  2.337217700E+01 -2.095119992E-02
  8.721373000E+00 -5.200308981E-02
  3.468091000E+00 -9.849176964E-02
  1.452144000E+00 -1.355800695E-01
  6.086150000E-01 -6.429875976E-02
  2.576860000E-01  3.125414989E-01
  1.041760000E-01  6.270468577E-01
  4.242700000E-02  2.110231492E-01
  1.484900000E-02 -4.104669985E-03
   p   9
  3.371018400E+01  1.069960000E-03
  8.057649500E+00  6.828550001E-03
  2.836471400E+00  2.119065000E-02
  1.099965700E+00  5.843696001E-02
  4.433964000E-01  2.020920800E-01
  1.822264000E-01  4.582953101E-01
  7.572410000E-02  3.691239601E-01
  3.168540000E-02  6.611471001E-02
  1.108990000E-02  1.405160000E-03
 
   2
   s  14
  1.031094600E+05  1.713099991E-04
  1.528100700E+04  7.123999962E-04
  3.441539200E+03  2.990479984E-03
  9.670948300E+02  1.164036994E-02
  3.140353400E+02  3.968642979E-02
  1.134423000E+02  1.128546094E-01
  4.464472700E+01  2.473650687E-01
  1.894287400E+01  3.672702681E-01
  8.532743000E+00  2.896286985E-01
  3.919401000E+00  7.786681959E-02
  1.568157000E+00  4.562139976E-03
  6.232900000E-01  2.468879987E-03
  2.408610000E-01  1.106309994E-03
  8.430100000E-02  1.739699991E-04
   s  14
  1.031094600E+05 -4.044999995E-05
  1.528100700E+04 -1.682299998E-04
  3.441539200E+03 -7.084299991E-04
  9.670948300E+02 -2.767999996E-03
  3.140353400E+02 -9.611379987E-03
  1.134423000E+02 -2.833957996E-02
  4.464472700E+01 -6.839343991E-02
  1.894287400E+01 -1.237379298E-01
  8.532743000E+00 -1.512859698E-01
  3.919401000E+00 -9.099909988E-03
  1.568157000E+00  3.716257695E-01
  6.232900000E-01  5.500214393E-01
  2.408610000E-01  2.092318697E-01
  8.430100000E-02  8.074639989E-03
   p   9
  2.453302900E+02  1.024860004E-03
  5.691900500E+01  8.344290032E-03
  1.760456800E+01  4.078927016E-02
  6.274995000E+00  1.351370605E-01
  2.447030000E+00  2.798830811E-01
  9.950600000E-01  3.597966414E-01
  4.039730000E-01  3.055347412E-01
  1.548100000E-01  1.354703905E-01
  5.418400000E-02  2.804449011E-02
 
[MO]
Sym=     1a  
Ene=   -26.0670
Spin= Alpha
Occup=    2.00000
   1        -0.00007976
   2        -0.00040624
   3         0.00000000
   4         0.00000000
   5        -0.00044140
   6         1.00002685
   7        -0.00234946
   8        -0.00000000
   9        -0.00000000
  10        -0.00076879
Sym=     2a  
Ene=    -4.8137
Spin= Alpha
Occup=    2.00000
   1         0.99991340
   2         0.00233809
   3        -0.00000000
   4         0.00000000
   5         0.00025090
   6        -0.00006813
   7         0.00114547
   8         0.00000000
   9        -0.00000000
  10        -0.00132619
Sym=     3a  
Ene=    -1.4332
Spin= Alpha
Occup=    2.00000
   1        -0.01861983
   2         0.04489675
   3         0.00000000
   4        -0.00000000
   5         0.05252311
   6        -0.00095578
   7         0.96430661
   8        -0.00000000
   9         0.00000000
  10        -0.05543626
Sym=     4a  
Ene=    -0.5518
Spin= Alpha
Occup=    2.00000
   1         0.04265366
   2        -0.20647243
   3         0.00000000
   4         0.00000000
   5        -0.17013661
   6         0.01378382
   7         0.20184334
   8         0.00000000
   9         0.00000000
  10         0.89708091
Sym=     5a  
Ene=    -0.5241
Spin= Alpha
Occup=    2.00000
   1         0.00000000
   2        -0.00000000
   3        -0.02228285
   4         0.11444797
   5        -0.00000000
   6         0.00000000
   7         0.00000000
   8        -0.18571161
   9         0.95384177
  10        -0.00000000
Sym=     6a  
Ene=    -0.5241
Spin= Alpha
Occup=    2.00000
   1        -0.00000000
   2         0.00000000
   3         0.11444797
   4         0.02228285
   5         0.00000000
   6        -0.00000000
   7        -0.00000000
   8         0.95384177
   9         0.18571161
  10        -0.00000000
Sym=     7a  
Ene=    -0.1667
Spin= Alpha
Occup=    1.00000
   1        -0.00748547
   2        -0.86704473
   3        -0.00000000
   4        -0.00000000
   5         0.50002569
   6        -0.00023014
   7         0.03310759
   8         0.00000000
   9         0.00000000
  10        -0.17883134
Sym=     8a  
Ene=    -0.0000
Spin= Alpha
Occup=    0.00000
   1         0.00000000
   2         0.00000000
   3        -0.02781349
   4        -1.01063602
   5         0.00000000
   6        -0.00000000
   7        -0.00000000
   8         0.00831936
   9         0.30229368
  10         0.00000000
Sym=     9a  
Ene=     0.0997
Spin= Alpha
Occup=    0.00000
   1        -0.00000000
   2        -0.00000000
   3        -1.01063602
   4         0.02781349
   5        -0.00000000
   6         0.00000000
   7         0.00000000
   8         0.30229368
   9        -0.00831936
  10        -0.00000000
Sym=    10a  
Ene=     0.2976
Spin= Alpha
Occup=    0.00000
   1        -0.03259754
   2        -0.59513757
   3         0.00000000
   4        -0.00000000
   5        -0.98350165
   6         0.05958736
   7         0.56552411
   8         0.00000000
   9         0.00000000
  10        -0.51727312
