[Molden Format]
[N_Atoms]
                     2
[Atoms] (AU)
BE1         1      4           0.00000000      0.00000000      0.00000000
F2          2      9           0.00000000      0.00000000      3.21253441
[Charge] (Mulliken)
  0.575400922707010     
 -0.575400922707034     
[GTO] (AU)
   1
   s  14
  2.262859900E+04  8.443999941E-05
  3.372318100E+03  4.601499968E-04
  7.603504000E+02  2.285389984E-03
  2.117404800E+02  9.648129932E-03
  6.722346800E+01  3.494469975E-02
  2.337217700E+01  1.061099893E-01
  8.721373000E+00  2.458240383E-01
  3.468091000E+00  3.862428773E-01
  1.452144000E+00  3.105526078E-01
  6.086150000E-01  6.415933955E-02
  2.576860000E-01 -2.265049984E-03
  1.041760000E-01 -5.217499963E-04
  4.242700000E-02 -8.757499938E-04
  1.484900000E-02  1.242199991E-04
   s  14
  2.262859900E+04 -1.586999994E-05
  3.372318100E+03 -8.656999968E-05
  7.603504000E+02 -4.302199984E-04
  2.117404800E+02 -1.825079993E-03
  6.722346800E+01 -6.682749976E-03
  2.337217700E+01 -2.095119992E-02
  8.721373000E+00 -5.200308981E-02
  3.468091000E+00 -9.849176964E-02
  1.452144000E+00 -1.355800695E-01
  6.086150000E-01 -6.429875976E-02
  2.576860000E-01  3.125414989E-01
  1.041760000E-01  6.270468577E-01
  4.242700000E-02  2.110231492E-01
  1.484900000E-02 -4.104669985E-03
   p   9
  3.371018400E+01  1.069960000E-03
  8.057649500E+00  6.828550001E-03
  2.836471400E+00  2.119065000E-02
  1.099965700E+00  5.843696001E-02
  4.433964000E-01  2.020920800E-01
  1.822264000E-01  4.582953101E-01
  7.572410000E-02  3.691239601E-01
  3.168540000E-02  6.611471001E-02
  1.108990000E-02  1.405160000E-03
 
   2
   s  14
  1.031094600E+05  1.713099991E-04
  1.528100700E+04  7.123999962E-04
  3.441539200E+03  2.990479984E-03
  9.670948300E+02  1.164036994E-02
  3.140353400E+02  3.968642979E-02
  1.134423000E+02  1.128546094E-01
  4.464472700E+01  2.473650687E-01
  1.894287400E+01  3.672702681E-01
  8.532743000E+00  2.896286985E-01
  3.919401000E+00  7.786681959E-02
  1.568157000E+00  4.562139976E-03
  6.232900000E-01  2.468879987E-03
  2.408610000E-01  1.106309994E-03
  8.430100000E-02  1.739699991E-04
   s  14
  1.031094600E+05 -4.044999995E-05
  1.528100700E+04 -1.682299998E-04
  3.441539200E+03 -7.084299991E-04
  9.670948300E+02 -2.767999996E-03
  3.140353400E+02 -9.611379987E-03
  1.134423000E+02 -2.833957996E-02
  4.464472700E+01 -6.839343991E-02
  1.894287400E+01 -1.237379298E-01
  8.532743000E+00 -1.512859698E-01
  3.919401000E+00 -9.099909988E-03
  1.568157000E+00  3.716257695E-01
  6.232900000E-01  5.500214393E-01
  2.408610000E-01  2.092318697E-01
  8.430100000E-02  8.074639989E-03
   p   9
  2.453302900E+02  1.024860004E-03
  5.691900500E+01  8.344290032E-03
  1.760456800E+01  4.078927016E-02
  6.274995000E+00  1.351370605E-01
  2.447030000E+00  2.798830811E-01
  9.950600000E-01  3.597966414E-01
  4.039730000E-01  3.055347412E-01
  1.548100000E-01  1.354703905E-01
  5.418400000E-02  2.804449011E-02
 
[MO]
Sym=     1a  
Ene=   -26.0690
Spin= Alpha
Occup=    1.00000
   1        -0.00007940
   2        -0.00042374
   3        -0.00000000
   4        -0.00000000
   5        -0.00043894
   6         1.00002724
   7        -0.00232702
   8         0.00000000
   9         0.00000000
  10        -0.00077520
Sym=     1a  
Ene=   -26.0680
Spin= Beta
Occup=    1.00000
   1        -0.00007995
   2        -0.00040129
   3        -0.00000000
   4        -0.00000000
   5        -0.00043323
   6         1.00002629
   7        -0.00237956
   8        -0.00000000
   9        -0.00000000
  10        -0.00076072
Sym=     2a  
Ene=    -4.8239
Spin= Alpha
Occup=    1.00000
   1         0.99990506
   2         0.00232644
   3        -0.00000000
   4         0.00000000
   5        -0.00036337
   6        -0.00004112
   7         0.00139361
   8        -0.00000000
   9        -0.00000000
  10        -0.00142065
Sym=     2a  
Ene=    -4.8027
Spin= Beta
Occup=    1.00000
   1         0.99992394
   2         0.00260745
   3        -0.00000000
   4         0.00000000
   5         0.00070971
   6        -0.00009470
   7         0.00088887
   8        -0.00000000
   9        -0.00000000
  10        -0.00117370
Sym=     3a  
Ene=    -1.4366
Spin= Alpha
Occup=    1.00000
   1        -0.01884891
   2         0.04310126
   3        -0.00000000
   4         0.00000000
   5         0.05230701
   6        -0.00092181
   7         0.96457443
   8         0.00000000
   9         0.00000000
  10        -0.06026932
Sym=     3a  
Ene=    -1.4317
Spin= Beta
Occup=    1.00000
   1        -0.01840403
   2         0.04505541
   3        -0.00000000
   4         0.00000000
   5         0.05300949
   6        -0.00095279
   7         0.96437473
   8         0.00000000
   9         0.00000000
  10        -0.05088297
Sym=     4a  
Ene=    -0.5661
Spin= Alpha
Occup=    1.00000
   1         0.04234226
   2        -0.25941538
   3         0.00000000
   4         0.00000000
   5        -0.11924234
   6         0.01285833
   7         0.19919963
   8         0.00000000
   9        -0.00000000
  10         0.88910586
Sym=     4a  
Ene=    -0.5402
Spin= Beta
Occup=    1.00000
   1         0.04233462
   2        -0.21877117
   3         0.00000000
   4         0.00000000
   5        -0.18153997
   6         0.01460113
   7         0.20566109
   8         0.00000000
   9         0.00000000
  10         0.88929884
Sym=     5a  
Ene=    -0.5224
Spin= Alpha
Occup=    1.00000
   1         0.00000000
   2         0.00000000
   3        -0.02209653
   4         0.12920049
   5        -0.00000000
   6        -0.00000000
   7        -0.00000000
   8        -0.16306804
   9         0.95347427
  10         0.00000000
Sym=     5a  
Ene=    -0.5275
Spin= Beta
Occup=    1.00000
   1        -0.00000000
   2         0.00000000
   3        -0.03074754
   4         0.09861633
   5         0.00000000
   6        -0.00000000
   7        -0.00000000
   8        -0.29040708
   9         0.93142018
  10        -0.00000000
Sym=     6a  
Ene=    -0.5224
Spin= Alpha
Occup=    1.00000
   1        -0.00000000
   2         0.00000000
   3         0.12920049
   4         0.02209653
   5         0.00000000
   6        -0.00000000
   7        -0.00000000
   8         0.95347427
   9         0.16306804
  10        -0.00000000
Sym=     6a  
Ene=    -0.5275
Spin= Beta
Occup=    1.00000
   1        -0.00000000
   2         0.00000000
   3         0.09861633
   4         0.03074754
   5         0.00000000
   6        -0.00000000
   7        -0.00000000
   8         0.93142018
   9         0.29040708
  10        -0.00000000
Sym=     7a  
Ene=    -0.3679
Spin= Alpha
Occup=    1.00000
   1         0.01030471
   2         0.85249508
   3        -0.00000000
   4         0.00000000
   5        -0.50681573
   6         0.00098993
   7        -0.01884806
   8         0.00000000
   9        -0.00000000
  10         0.24479685
Sym=     7a  
Ene=     0.0305
Spin= Beta
Occup=    0.00000
   1         0.01202706
   2         0.93769733
   3        -0.00000000
   4         0.00000000
   5        -0.36465178
   6        -0.00768000
   7        -0.10784445
   8         0.00000000
   9        -0.00000000
  10         0.25235675
Sym=     8a  
Ene=     0.0708
Spin= Alpha
Occup=    0.00000
   1        -0.00000000
   2         0.00000000
   3         0.94611982
   4         0.35132587
   5         0.00000000
   6        -0.00000000
   7        -0.00000000
   8        -0.29652210
   9        -0.11010855
  10        -0.00000000
Sym=     8a  
Ene=     0.1288
Spin= Beta
Occup=    0.00000
   1        -0.00000000
   2         0.00000000
   3         0.95588756
   4         0.33370944
   5         0.00000000
   6        -0.00000000
   7        -0.00000000
   8        -0.27342640
   9        -0.09545576
  10        -0.00000000
Sym=     9a  
Ene=     0.0708
Spin= Alpha
Occup=    0.00000
   1        -0.00000000
   2        -0.00000000
   3        -0.35132587
   4         0.94611982
   5         0.00000000
   6         0.00000000
   7         0.00000000
   8         0.11010855
   9        -0.29652210
  10        -0.00000000
Sym=     9a  
Ene=     0.1288
Spin= Beta
Occup=    0.00000
   1        -0.00000000
   2        -0.00000000
   3        -0.33370944
   4         0.95588756
   5        -0.00000000
   6         0.00000000
   7         0.00000000
   8         0.09545576
   9        -0.27342640
  10        -0.00000000
Sym=    10a  
Ene=     0.2800
Spin= Alpha
Occup=    0.00000
   1         0.03235753
   2         0.59556694
   3        -0.00000000
   4        -0.00000000
   5         0.98751674
   6        -0.05978024
   7        -0.56665820
   8         0.00000000
   9        -0.00000000
  10         0.50330118
Sym=    10a  
Ene=     0.3201
Spin= Beta
Occup=    0.00000
   1         0.03143264
   2         0.47056715
   3        -0.00000000
   4        -0.00000000
   5         1.03935952
   6        -0.05890371
   7        -0.55461378
   8         0.00000000
   9        -0.00000000
  10         0.50025436
