[Molden Format]
[N_Atoms]
                     2
[Atoms] (AU)
B1          1      5           0.00000000      0.00000000      0.00000000
LI2         2      3           0.00000000      0.00000000      3.77945225
[Charge] (Mulliken)
 -0.195962898936287     
  0.195962898936281     
[GTO] (AU)
   1
   s  14
  3.336021700E+04  1.039699991E-04
  4.972095200E+03  5.254399956E-04
  1.125641700E+03  2.509059979E-03
  3.164913600E+02  1.031887991E-02
  1.020072600E+02  3.636632969E-02
  3.629587300E+01  1.064607991E-01
  1.397141000E+01  2.403999880E-01
  5.741156000E+00  3.748581168E-01
  2.494268000E+00  3.100066974E-01
  1.114202000E+00  7.922455933E-02
  4.215490000E-01 -4.947589958E-03
  1.696330000E-01 -7.737119935E-03
  6.853500000E-02 -1.501079987E-03
  2.398700000E-02 -1.333299989E-04
   s  14
  3.336021700E+04 -2.030000008E-05
  4.972095200E+03 -1.025700004E-04
  1.125641700E+03 -4.911300020E-04
  3.164913600E+02 -2.026570008E-03
  1.020072600E+02 -7.261010030E-03
  3.629587300E+01 -2.197722009E-02
  1.397141000E+01 -5.408428022E-02
  5.741156000E+00 -1.022402604E-01
  2.494268000E+00 -1.423595206E-01
  1.114202000E+00 -4.658690019E-02
  4.215490000E-01  3.799402916E-01
  1.696330000E-01  5.890463624E-01
  6.853500000E-02  1.749075107E-01
  2.398700000E-02 -1.142030005E-03
   p   9
  5.500000000E+01  1.229800005E-03
  1.336610100E+01  8.827380035E-03
  4.135394000E+00  3.843340015E-02
  1.481256000E+00  1.150031805E-01
  6.021360000E-01  2.733674011E-01
  2.556360000E-01  4.061972116E-01
  1.111510000E-01  3.014967912E-01
  4.764800000E-02  7.684809030E-02
  1.667700000E-02 -8.170000032E-06
 
   2
   s  14
  9.497934400E+03  9.668999974E-05
  1.416811200E+03  6.087099984E-04
  3.214599400E+02  3.101519992E-03
  9.112416300E+01  1.266904997E-02
  2.999989100E+01  4.248012989E-02
  1.101763100E+01  1.150183297E-01
  4.372801000E+00  2.398650094E-01
  1.831256000E+00  3.584300090E-01
  8.022610000E-01  3.048527792E-01
  3.626480000E-01  8.824261976E-02
  1.139950000E-01 -8.445899977E-04
  5.123700000E-02 -7.943959979E-03
  2.246800000E-02 -3.764419990E-03
  7.860000000E-03 -8.868999976E-05
   s  14
  9.497934400E+03 -1.244999993E-05
  1.416811200E+03 -7.838999954E-05
  3.214599400E+02 -4.007099976E-04
  9.112416300E+01 -1.645249990E-03
  2.999989100E+01 -5.634599967E-03
  1.101763100E+01 -1.590780991E-02
  4.372801000E+00 -3.612581979E-02
  1.831256000E+00 -6.459927962E-02
  8.022610000E-01 -1.008321794E-01
  3.626480000E-01 -9.757613942E-02
  1.139950000E-01  2.301215886E-01
  5.123700000E-02  6.102389764E-01
  2.246800000E-02  2.849406083E-01
  7.860000000E-03  4.026899976E-03
   p   9
  1.311950400E+01  1.524940000E-03
  3.077424200E+00  8.314830000E-03
  1.098800500E+00  1.933203000E-02
  4.357784000E-01  4.934293000E-02
  1.802432000E-01  1.623554000E-01
  7.613330000E-02  3.847505400E-01
  3.254650000E-02  4.336100400E-01
  1.401820000E-02  1.287005900E-01
  4.906400000E-03 -1.018520000E-03
 
[MO]
Sym=     1a  
Ene=    -7.5959
Spin= Alpha
Occup=    2.00000
   1         0.99997699
   2         0.01553078
   3        -0.00000000
   4         0.00000000
   5        -0.00003325
   6        -0.00017031
   7        -0.00067758
   8         0.00000000
   9        -0.00000000
  10         0.00070376
Sym=     2a  
Ene=    -2.5153
Spin= Alpha
Occup=    2.00000
   1        -0.00047286
   2         0.00349509
   3        -0.00000000
   4        -0.00000000
   5         0.00165839
   6         0.99948126
   7         0.01244272
   8        -0.00000000
   9         0.00000000
  10         0.00126472
Sym=     3a  
Ene=    -0.4669
Spin= Alpha
Occup=    2.00000
   1        -0.03004130
   2         0.86423655
   3        -0.00000000
   4         0.00000000
   5         0.08360525
   6        -0.07077881
   7         0.12937855
   8         0.00000000
   9         0.00000000
  10        -0.11895660
Sym=     4a  
Ene=    -0.0563
Spin= Alpha
Occup=    1.00000
   1         0.00000000
   2         0.00000000
   3         0.35473432
   4        -0.71180421
   5        -0.00000000
   6         0.00000000
   7        -0.00000000
   8         0.17646840
   9        -0.35409867
  10        -0.00000000
Sym=     5a  
Ene=    -0.0000
Spin= Alpha
Occup=    1.00000
   1        -0.00000000
   2         0.00000000
   3         0.71180421
   4         0.35473432
   5         0.00000000
   6         0.00000000
   7         0.00000000
   8         0.35409867
   9         0.17646840
  10         0.00000000
Sym=     6a  
Ene=     0.0048
Spin= Alpha
Occup=    0.00000
   1         0.00081030
   2        -0.15185305
   3        -0.00000000
   4        -0.00000000
   5         0.11765610
   6        -0.01642507
   7         0.82733553
   8         0.00000000
   9        -0.00000000
  10         0.51387568
Sym=     7a  
Ene=     0.1169
Spin= Alpha
Occup=    0.00000
   1         0.04803422
   2         0.51039268
   3        -0.00000000
   4        -0.00000000
   5        -0.80234047
   6         0.07057968
   7        -0.10112539
   8        -0.00000000
   9         0.00000000
  10         0.58957074
Sym=     8a  
Ene=     0.1382
Spin= Alpha
Occup=    0.00000
   1         0.00000000
   2         0.00000000
   3         0.27600498
   4         0.64648535
   5        -0.00000000
   6         0.00000000
   7        -0.00000000
   8        -0.38672952
   9        -0.90583500
  10         0.00000000
Sym=     9a  
Ene=     0.1382
Spin= Alpha
Occup=    0.00000
   1         0.00000000
   2         0.00000000
   3        -0.64648535
   4         0.27600498
   5        -0.00000000
   6         0.00000000
   7        -0.00000000
   8         0.90583500
   9        -0.38672952
  10         0.00000000
Sym=    10a  
Ene=     0.2416
Spin= Alpha
Occup=    0.00000
   1         0.12485221
   2         1.05747976
   3        -0.00000000
   4        -0.00000000
   5         0.71310080
   6        -0.14805274
   7        -0.94527246
   8         0.00000000
   9        -0.00000000
  10         1.03861946
