[Molden Format]
[N_Atoms]
                     2
[Atoms] (AU)
O1          1      8           0.00000000      0.00000000      0.00000000
O2          2      8           0.00000000      0.00000000      3.02356180
[Charge] (Mulliken)
   1.00000067758161     
  0.999999322418400     
[GTO] (AU)
   1
   s  14
  1.053749500E+05  1.238600013E-04
  1.567924000E+04  5.120100053E-04
  3.534544700E+03  2.152910022E-03
  9.873651600E+02  8.528440089E-03
  3.159787500E+02  3.018049031E-02
  1.116542800E+02  9.099702095E-02
  4.269945100E+01  2.177936423E-01
  1.739559600E+01  3.686245738E-01
  7.438309000E+00  3.366707335E-01
  3.222862000E+00  9.657630101E-02
  1.253877000E+00  2.144520022E-03
  4.951550000E-01  1.194350012E-03
  1.916650000E-01  5.390200056E-04
  6.708300000E-02  2.103400022E-04
   s  14
  1.053749500E+05 -2.815000008E-05
  1.567924000E+04 -1.163000003E-04
  3.534544700E+03 -4.909200013E-04
  9.873651600E+02 -1.946160005E-03
  3.159787500E+02 -7.005300019E-03
  1.116542800E+02 -2.167814006E-02
  4.269945100E+01 -5.641213015E-02
  1.739559600E+01 -1.127053003E-01
  7.438309000E+00 -1.589119704E-01
  3.222862000E+00 -3.355083009E-02
  1.253877000E+00  3.531902810E-01
  4.951550000E-01  5.534199315E-01
  1.916650000E-01  2.301839106E-01
  6.708300000E-02  1.127267003E-02
   p   9
  2.000000000E+02  9.173000030E-04
  4.653336700E+01  7.377140024E-03
  1.462180900E+01  3.483515011E-02
  5.313064000E+00  1.144397004E-01
  2.102525000E+00  2.554966408E-01
  8.502230000E-01  3.722557412E-01
  3.375970000E-01  3.323314911E-01
  1.288920000E-01  1.400847905E-01
  4.511200000E-02  2.395784008E-02
 
   2
   s  14
  1.053749500E+05  1.238600013E-04
  1.567924000E+04  5.120100053E-04
  3.534544700E+03  2.152910022E-03
  9.873651600E+02  8.528440089E-03
  3.159787500E+02  3.018049031E-02
  1.116542800E+02  9.099702095E-02
  4.269945100E+01  2.177936423E-01
  1.739559600E+01  3.686245738E-01
  7.438309000E+00  3.366707335E-01
  3.222862000E+00  9.657630101E-02
  1.253877000E+00  2.144520022E-03
  4.951550000E-01  1.194350012E-03
  1.916650000E-01  5.390200056E-04
  6.708300000E-02  2.103400022E-04
   s  14
  1.053749500E+05 -2.815000008E-05
  1.567924000E+04 -1.163000003E-04
  3.534544700E+03 -4.909200013E-04
  9.873651600E+02 -1.946160005E-03
  3.159787500E+02 -7.005300019E-03
  1.116542800E+02 -2.167814006E-02
  4.269945100E+01 -5.641213015E-02
  1.739559600E+01 -1.127053003E-01
  7.438309000E+00 -1.589119704E-01
  3.222862000E+00 -3.355083009E-02
  1.253877000E+00  3.531902810E-01
  4.951550000E-01  5.534199315E-01
  1.916650000E-01  2.301839106E-01
  6.708300000E-02  1.127267003E-02
   p   9
  2.000000000E+02  9.173000030E-04
  4.653336700E+01  7.377140024E-03
  1.462180900E+01  3.483515011E-02
  5.313064000E+00  1.144397004E-01
  2.102525000E+00  2.554966408E-01
  8.502230000E-01  3.722557412E-01
  3.375970000E-01  3.323314911E-01
  1.288920000E-01  1.400847905E-01
  4.511200000E-02  2.395784008E-02
 
[MO]
Sym=     1a  
Ene=   -22.2480
Spin= Alpha
Occup=    2.00000
   1         0.70718035
   2        -0.00163889
   3         0.00000000
   4        -0.00000000
   5         0.00056609
   6         0.70699333
   7        -0.00163584
   8         0.00000000
   9        -0.00000000
  10        -0.00056596
Sym=     2a  
Ene=   -22.2440
Spin= Alpha
Occup=    2.00000
   1        -0.70685946
   2         0.01157039
   3        -0.00000000
   4         0.00000000
   5        -0.00046875
   6         0.70704651
   7        -0.01157082
   8         0.00000000
   9         0.00000000
  10        -0.00046890
Sym=     3a  
Ene=    -2.4787
Spin= Alpha
Occup=    2.00000
   1         0.00688854
   2        -0.62274267
   3        -0.00000000
   4        -0.00000000
   5        -0.12223070
   6         0.00688854
   7        -0.62274266
   8         0.00000000
   9        -0.00000000
  10         0.12223071
Sym=     4a  
Ene=    -1.6417
Spin= Alpha
Occup=    2.00000
   1         0.01414470
   2         0.25533382
   3         0.00000000
   4         0.00000000
   5        -0.64470859
   6         0.01414469
   7         0.25533378
   8         0.00000000
   9         0.00000000
  10         0.64470873
Sym=     5a  
Ene=    -1.5389
Spin= Alpha
Occup=    2.00000
   1        -0.00000000
   2        -0.00000000
   3         0.35620247
   4         0.56450114
   5         0.00000000
   6        -0.00000000
   7        -0.00000000
   8         0.35620258
   9         0.56450130
  10        -0.00000000
Sym=     6a  
Ene=    -1.5381
Spin= Alpha
Occup=    2.00000
   1        -0.00000000
   2        -0.00000000
   3         0.56450114
   4        -0.35620247
   5         0.00000000
   6        -0.00000000
   7        -0.00000000
   8         0.56450130
   9        -0.35620257
  10        -0.00000000
Sym=     7a  
Ene=    -2.2419
Spin= Alpha
Occup=    1.98997
   1        -0.01722833
   2        -0.76402548
   3         0.00000000
   4        -0.00000000
   5         0.01012587
   6         0.01722833
   7         0.76402550
   8         0.00000000
   9        -0.00000000
  10         0.01012587
Sym=     8a  
Ene=     0.0000
Spin= Alpha
Occup=    0.01003
   1         0.00000000
   2        -0.00000000
   3        -0.40276077
   4        -0.63828562
   5         0.00000000
   6         0.00000000
   7         0.00000000
   8         0.40276068
   9         0.63828548
  10         0.00000000
Sym=     9a  
Ene=    -1.1536
Spin= Alpha
Occup=    0.00000
   1         0.00000000
   2         0.00000000
   3        -0.63828562
   4         0.40276077
   5         0.00000000
   6        -0.00000000
   7         0.00000000
   8         0.63828548
   9        -0.40276068
  10         0.00000000
Sym=    10a  
Ene=    -1.0154
Spin= Alpha
Occup=    0.00000
   1         0.02179751
   2         0.24095911
   3         0.00000000
   4        -0.00000000
   5         0.83146939
   6        -0.02179751
   7        -0.24095915
   8        -0.00000000
   9        -0.00000000
  10         0.83146928
