[Molden Format]
[N_Atoms]
                     2
[Atoms] (AU)
O1          1      8           0.00000000      0.00000000      0.00000000
O2          2      8           0.00000000      0.00000000      3.02356180
[Charge] (Mulliken)
  2.513544927751354E-013
 -2.735589532676386E-013
[GTO] (AU)
   1
   s  14
  1.053749500E+05  1.238600013E-04
  1.567924000E+04  5.120100053E-04
  3.534544700E+03  2.152910022E-03
  9.873651600E+02  8.528440089E-03
  3.159787500E+02  3.018049031E-02
  1.116542800E+02  9.099702095E-02
  4.269945100E+01  2.177936423E-01
  1.739559600E+01  3.686245738E-01
  7.438309000E+00  3.366707335E-01
  3.222862000E+00  9.657630101E-02
  1.253877000E+00  2.144520022E-03
  4.951550000E-01  1.194350012E-03
  1.916650000E-01  5.390200056E-04
  6.708300000E-02  2.103400022E-04
   s  14
  1.053749500E+05 -2.815000008E-05
  1.567924000E+04 -1.163000003E-04
  3.534544700E+03 -4.909200013E-04
  9.873651600E+02 -1.946160005E-03
  3.159787500E+02 -7.005300019E-03
  1.116542800E+02 -2.167814006E-02
  4.269945100E+01 -5.641213015E-02
  1.739559600E+01 -1.127053003E-01
  7.438309000E+00 -1.589119704E-01
  3.222862000E+00 -3.355083009E-02
  1.253877000E+00  3.531902810E-01
  4.951550000E-01  5.534199315E-01
  1.916650000E-01  2.301839106E-01
  6.708300000E-02  1.127267003E-02
   p   9
  2.000000000E+02  9.173000030E-04
  4.653336700E+01  7.377140024E-03
  1.462180900E+01  3.483515011E-02
  5.313064000E+00  1.144397004E-01
  2.102525000E+00  2.554966408E-01
  8.502230000E-01  3.722557412E-01
  3.375970000E-01  3.323314911E-01
  1.288920000E-01  1.400847905E-01
  4.511200000E-02  2.395784008E-02
 
   2
   s  14
  1.053749500E+05  1.238600013E-04
  1.567924000E+04  5.120100053E-04
  3.534544700E+03  2.152910022E-03
  9.873651600E+02  8.528440089E-03
  3.159787500E+02  3.018049031E-02
  1.116542800E+02  9.099702095E-02
  4.269945100E+01  2.177936423E-01
  1.739559600E+01  3.686245738E-01
  7.438309000E+00  3.366707335E-01
  3.222862000E+00  9.657630101E-02
  1.253877000E+00  2.144520022E-03
  4.951550000E-01  1.194350012E-03
  1.916650000E-01  5.390200056E-04
  6.708300000E-02  2.103400022E-04
   s  14
  1.053749500E+05 -2.815000008E-05
  1.567924000E+04 -1.163000003E-04
  3.534544700E+03 -4.909200013E-04
  9.873651600E+02 -1.946160005E-03
  3.159787500E+02 -7.005300019E-03
  1.116542800E+02 -2.167814006E-02
  4.269945100E+01 -5.641213015E-02
  1.739559600E+01 -1.127053003E-01
  7.438309000E+00 -1.589119704E-01
  3.222862000E+00 -3.355083009E-02
  1.253877000E+00  3.531902810E-01
  4.951550000E-01  5.534199315E-01
  1.916650000E-01  2.301839106E-01
  6.708300000E-02  1.127267003E-02
   p   9
  2.000000000E+02  9.173000030E-04
  4.653336700E+01  7.377140024E-03
  1.462180900E+01  3.483515011E-02
  5.313064000E+00  1.144397004E-01
  2.102525000E+00  2.554966408E-01
  8.502230000E-01  3.722557412E-01
  3.375970000E-01  3.323314911E-01
  1.288920000E-01  1.400847905E-01
  4.511200000E-02  2.395784008E-02
 
[MO]
Sym=     1a  
Ene=   -20.8260
Spin= Alpha
Occup=    2.00000
   1         0.70708054
   2        -0.00048446
   3         0.00000000
   4        -0.00000000
   5         0.00048363
   6         0.70708061
   7        -0.00048446
   8         0.00000000
   9        -0.00000000
  10        -0.00048363
Sym=     2a  
Ene=   -20.8260
Spin= Alpha
Occup=    2.00000
   1        -0.70713989
   2         0.00009215
   3        -0.00000000
   4        -0.00000000
   5        -0.00065109
   6         0.70713983
   7        -0.00009215
   8         0.00000000
   9        -0.00000000
  10        -0.00065109
Sym=     3a  
Ene=    -1.4545
Spin= Alpha
Occup=    2.00000
   1         0.00738575
   2        -0.63443901
   3        -0.00000000
   4        -0.00000000
   5        -0.09069120
   6         0.00738575
   7        -0.63443901
   8         0.00000000
   9        -0.00000000
  10         0.09069120
Sym=     4a  
Ene=    -1.2286
Spin= Alpha
Occup=    2.00000
   1        -0.00496668
   2        -0.74257017
   3        -0.00000000
   4         0.00000000
   5         0.07611375
   6         0.00496668
   7         0.74257017
   8        -0.00000000
   9         0.00000000
  10         0.07611375
Sym=     5a  
Ene=    -0.6346
Spin= Alpha
Occup=    2.00000
   1         0.01420706
   2         0.22470729
   3         0.00000000
   4         0.00000000
   5        -0.64989599
   6         0.01420706
   7         0.22470729
   8         0.00000000
   9         0.00000000
  10         0.64989599
Sym=     6a  
Ene=    -0.6216
Spin= Alpha
Occup=    2.00000
   1        -0.00000000
   2        -0.00000000
   3         0.15491856
   4        -0.64926274
   5         0.00000000
   6        -0.00000000
   7        -0.00000000
   8         0.15491856
   9        -0.64926274
  10        -0.00000000
Sym=     7a  
Ene=    -0.6216
Spin= Alpha
Occup=    2.00000
   1        -0.00000000
   2        -0.00000000
   3         0.64926274
   4         0.15491856
   5         0.00000000
   6        -0.00000000
   7        -0.00000000
   8         0.64926274
   9         0.15491856
  10        -0.00000000
Sym=     8a  
Ene=    -0.3534
Spin= Alpha
Occup=    1.00000
   1        -0.00000000
   2        -0.00000000
   3         0.73613088
   4         0.16654120
   5         0.00000000
   6        -0.00000000
   7        -0.00000000
   8        -0.73613088
   9        -0.16654120
  10        -0.00000000
Sym=     9a  
Ene=     0.0000
Spin= Alpha
Occup=    1.00000
   1         0.00000000
   2        -0.00000000
   3         0.16654120
   4        -0.73613088
   5         0.00000000
   6        -0.00000000
   7        -0.00000000
   8        -0.16654120
   9         0.73613088
  10         0.00000000
Sym=    10a  
Ene=     0.0686
Spin= Alpha
Occup=    0.00000
   1         0.02197788
   2         0.30086485
   3        -0.00000000
   4         0.00000000
   5         0.82804002
   6        -0.02197788
   7        -0.30086485
   8        -0.00000000
   9        -0.00000000
  10         0.82804002
