[Molden Format]
[N_Atoms]
                     2
[Atoms] (AU)
O1          1      8           0.00000000      0.00000000      0.00000000
O2          2      8           0.00000000      0.00000000      3.02356180
[Charge] (Mulliken)
  0.000000000000000E+000
  0.000000000000000E+000
[GTO] (AU)
   1
   s  14
  1.053749500E+05  1.238600013E-04
  1.567924000E+04  5.120100053E-04
  3.534544700E+03  2.152910022E-03
  9.873651600E+02  8.528440089E-03
  3.159787500E+02  3.018049031E-02
  1.116542800E+02  9.099702095E-02
  4.269945100E+01  2.177936423E-01
  1.739559600E+01  3.686245738E-01
  7.438309000E+00  3.366707335E-01
  3.222862000E+00  9.657630101E-02
  1.253877000E+00  2.144520022E-03
  4.951550000E-01  1.194350012E-03
  1.916650000E-01  5.390200056E-04
  6.708300000E-02  2.103400022E-04
   s  14
  1.053749500E+05 -2.815000008E-05
  1.567924000E+04 -1.163000003E-04
  3.534544700E+03 -4.909200013E-04
  9.873651600E+02 -1.946160005E-03
  3.159787500E+02 -7.005300019E-03
  1.116542800E+02 -2.167814006E-02
  4.269945100E+01 -5.641213015E-02
  1.739559600E+01 -1.127053003E-01
  7.438309000E+00 -1.589119704E-01
  3.222862000E+00 -3.355083009E-02
  1.253877000E+00  3.531902810E-01
  4.951550000E-01  5.534199315E-01
  1.916650000E-01  2.301839106E-01
  6.708300000E-02  1.127267003E-02
   p   9
  2.000000000E+02  9.173000030E-04
  4.653336700E+01  7.377140024E-03
  1.462180900E+01  3.483515011E-02
  5.313064000E+00  1.144397004E-01
  2.102525000E+00  2.554966408E-01
  8.502230000E-01  3.722557412E-01
  3.375970000E-01  3.323314911E-01
  1.288920000E-01  1.400847905E-01
  4.511200000E-02  2.395784008E-02
 
   2
   s  14
  1.053749500E+05  1.238600013E-04
  1.567924000E+04  5.120100053E-04
  3.534544700E+03  2.152910022E-03
  9.873651600E+02  8.528440089E-03
  3.159787500E+02  3.018049031E-02
  1.116542800E+02  9.099702095E-02
  4.269945100E+01  2.177936423E-01
  1.739559600E+01  3.686245738E-01
  7.438309000E+00  3.366707335E-01
  3.222862000E+00  9.657630101E-02
  1.253877000E+00  2.144520022E-03
  4.951550000E-01  1.194350012E-03
  1.916650000E-01  5.390200056E-04
  6.708300000E-02  2.103400022E-04
   s  14
  1.053749500E+05 -2.815000008E-05
  1.567924000E+04 -1.163000003E-04
  3.534544700E+03 -4.909200013E-04
  9.873651600E+02 -1.946160005E-03
  3.159787500E+02 -7.005300019E-03
  1.116542800E+02 -2.167814006E-02
  4.269945100E+01 -5.641213015E-02
  1.739559600E+01 -1.127053003E-01
  7.438309000E+00 -1.589119704E-01
  3.222862000E+00 -3.355083009E-02
  1.253877000E+00  3.531902810E-01
  4.951550000E-01  5.534199315E-01
  1.916650000E-01  2.301839106E-01
  6.708300000E-02  1.127267003E-02
   p   9
  2.000000000E+02  9.173000030E-04
  4.653336700E+01  7.377140024E-03
  1.462180900E+01  3.483515011E-02
  5.313064000E+00  1.144397004E-01
  2.102525000E+00  2.554966408E-01
  8.502230000E-01  3.722557412E-01
  3.375970000E-01  3.323314911E-01
  1.288920000E-01  1.400847905E-01
  4.511200000E-02  2.395784008E-02
 
[MO]
Sym=     1a  
Ene=   -20.6860
Spin= Alpha
Occup=    2.00000
   1         0.70707114
   2         0.00040891
   3         0.00000000
   4        -0.00000000
   5         0.00054524
   6         0.70707114
   7         0.00040891
   8         0.00000000
   9        -0.00000000
  10        -0.00054524
Sym=     2a  
Ene=   -20.6830
Spin= Alpha
Occup=    2.00000
   1        -0.70710898
   2         0.00038498
   3        -0.00000000
   4        -0.00000000
   5         0.00053217
   6         0.70710898
   7        -0.00038498
   8        -0.00000000
   9         0.00000000
  10         0.00053217
Sym=     3a  
Ene=    -1.4956
Spin= Alpha
Occup=    2.00000
   1        -0.00916792
   2         0.62024558
   3        -0.00000000
   4        -0.00000000
   5         0.12845949
   6        -0.00916792
   7         0.62024558
   8         0.00000000
   9        -0.00000000
  10        -0.12845949
Sym=     4a  
Ene=    -1.1310
Spin= Alpha
Occup=    2.00000
   1        -0.00223030
   2        -0.70409257
   3        -0.00000000
   4        -0.00000000
   5         0.16860696
   6         0.00223030
   7         0.70409257
   8        -0.00000000
   9        -0.00000000
  10         0.16860696
Sym=     5a  
Ene=    -0.7140
Spin= Alpha
Occup=    2.00000
   1        -0.00000000
   2        -0.00000000
   3        -0.47390366
   4         0.47006084
   5         0.00000000
   6        -0.00000000
   7        -0.00000000
   8        -0.47390366
   9         0.47006084
  10        -0.00000000
Sym=     6a  
Ene=    -0.7140
Spin= Alpha
Occup=    2.00000
   1        -0.00000000
   2         0.00000000
   3         0.47006084
   4         0.47390366
   5        -0.00000000
   6         0.00000000
   7         0.00000000
   8         0.47006084
   9         0.47390366
  10         0.00000000
Sym=     7a  
Ene=    -0.7086
Spin= Alpha
Occup=    2.00000
   1         0.01362678
   2         0.26134596
   3        -0.00000000
   4        -0.00000000
   5        -0.64349653
   6         0.01362678
   7         0.26134596
   8        -0.00000000
   9        -0.00000000
  10         0.64349653
Sym=     8a  
Ene=    -0.5584
Spin= Alpha
Occup=    1.00000
   1         0.00000000
   2        -0.00000000
   3        -0.60518432
   4         0.45097292
   5         0.00000000
   6        -0.00000000
   7        -0.00000000
   8         0.60518432
   9        -0.45097292
  10        -0.00000000
Sym=     9a  
Ene=    -0.5584
Spin= Alpha
Occup=    1.00000
   1         0.00000000
   2         0.00000000
   3        -0.45097292
   4        -0.60518432
   5         0.00000000
   6        -0.00000000
   7        -0.00000000
   8         0.45097292
   9         0.60518432
  10         0.00000000
Sym=    10a  
Ene=    -0.4313
Spin= Alpha
Occup=    0.00000
   1         0.02337503
   2         0.38233968
   3         0.00000000
   4         0.00000000
   5         0.81425759
   6        -0.02337503
   7        -0.38233968
   8        -0.00000000
   9        -0.00000000
  10         0.81425759
