[Molden Format]
[N_Atoms]
                     2
[Atoms] (AU)
O1          1      8           0.00000000      0.00000000      0.00000000
O2          2      8           0.00000000      0.00000000      4.53534270
[Charge] (Mulliken)
   1.00054815803599     
  0.999451841963976     
[GTO] (AU)
   1
   s  14
  1.053749500E+05  1.238600013E-04
  1.567924000E+04  5.120100053E-04
  3.534544700E+03  2.152910022E-03
  9.873651600E+02  8.528440089E-03
  3.159787500E+02  3.018049031E-02
  1.116542800E+02  9.099702095E-02
  4.269945100E+01  2.177936423E-01
  1.739559600E+01  3.686245738E-01
  7.438309000E+00  3.366707335E-01
  3.222862000E+00  9.657630101E-02
  1.253877000E+00  2.144520022E-03
  4.951550000E-01  1.194350012E-03
  1.916650000E-01  5.390200056E-04
  6.708300000E-02  2.103400022E-04
   s  14
  1.053749500E+05 -2.815000008E-05
  1.567924000E+04 -1.163000003E-04
  3.534544700E+03 -4.909200013E-04
  9.873651600E+02 -1.946160005E-03
  3.159787500E+02 -7.005300019E-03
  1.116542800E+02 -2.167814006E-02
  4.269945100E+01 -5.641213015E-02
  1.739559600E+01 -1.127053003E-01
  7.438309000E+00 -1.589119704E-01
  3.222862000E+00 -3.355083009E-02
  1.253877000E+00  3.531902810E-01
  4.951550000E-01  5.534199315E-01
  1.916650000E-01  2.301839106E-01
  6.708300000E-02  1.127267003E-02
   p   9
  2.000000000E+02  9.173000030E-04
  4.653336700E+01  7.377140024E-03
  1.462180900E+01  3.483515011E-02
  5.313064000E+00  1.144397004E-01
  2.102525000E+00  2.554966408E-01
  8.502230000E-01  3.722557412E-01
  3.375970000E-01  3.323314911E-01
  1.288920000E-01  1.400847905E-01
  4.511200000E-02  2.395784008E-02
 
   2
   s  14
  1.053749500E+05  1.238600013E-04
  1.567924000E+04  5.120100053E-04
  3.534544700E+03  2.152910022E-03
  9.873651600E+02  8.528440089E-03
  3.159787500E+02  3.018049031E-02
  1.116542800E+02  9.099702095E-02
  4.269945100E+01  2.177936423E-01
  1.739559600E+01  3.686245738E-01
  7.438309000E+00  3.366707335E-01
  3.222862000E+00  9.657630101E-02
  1.253877000E+00  2.144520022E-03
  4.951550000E-01  1.194350012E-03
  1.916650000E-01  5.390200056E-04
  6.708300000E-02  2.103400022E-04
   s  14
  1.053749500E+05 -2.815000008E-05
  1.567924000E+04 -1.163000003E-04
  3.534544700E+03 -4.909200013E-04
  9.873651600E+02 -1.946160005E-03
  3.159787500E+02 -7.005300019E-03
  1.116542800E+02 -2.167814006E-02
  4.269945100E+01 -5.641213015E-02
  1.739559600E+01 -1.127053003E-01
  7.438309000E+00 -1.589119704E-01
  3.222862000E+00 -3.355083009E-02
  1.253877000E+00  3.531902810E-01
  4.951550000E-01  5.534199315E-01
  1.916650000E-01  2.301839106E-01
  6.708300000E-02  1.127267003E-02
   p   9
  2.000000000E+02  9.173000030E-04
  4.653336700E+01  7.377140024E-03
  1.462180900E+01  3.483515011E-02
  5.313064000E+00  1.144397004E-01
  2.102525000E+00  2.554966408E-01
  8.502230000E-01  3.722557412E-01
  3.375970000E-01  3.323314911E-01
  1.288920000E-01  1.400847905E-01
  4.511200000E-02  2.395784008E-02
 
[MO]
Sym=     1a  
Ene=   -22.0480
Spin= Alpha
Occup=    2.00000
   1         0.01652046
   2        -0.00026589
   3         0.00000000
   4         0.00000000
   5         0.00006460
   6         0.99986121
   7        -0.00201821
   8         0.00000000
   9         0.00000000
  10        -0.00019876
Sym=     2a  
Ene=   -22.0450
Spin= Alpha
Occup=    2.00000
   1        -0.99974019
   2         0.01538894
   3        -0.00000000
   4        -0.00000000
   5        -0.00082785
   6         0.01652132
   7        -0.00030417
   8        -0.00000000
   9        -0.00000000
  10         0.00097146
Sym=     3a  
Ene=    -2.1887
Spin= Alpha
Occup=    2.00000
   1         0.00109089
   2         0.00143343
   3        -0.00000000
   4        -0.00000000
   5        -0.01683452
   6        -0.00192749
   7        -0.99795715
   8         0.00000000
   9         0.00000000
  10         0.03684044
Sym=     4a  
Ene=    -1.5154
Spin= Alpha
Occup=    2.00000
   1         0.00000000
   2        -0.00000000
   3         0.84582299
   4        -0.53372014
   5        -0.00000000
   6         0.00000000
   7         0.00000000
   8        -0.00392954
   9         0.00247980
  10         0.00000000
Sym=     5a  
Ene=    -1.5152
Spin= Alpha
Occup=    2.00000
   1         0.00000000
   2         0.00000001
   3        -0.00251617
   4        -0.00398718
   5        -0.00000004
   6         0.00000000
   7         0.00000002
   8         0.53372114
   9         0.84582454
  10         0.00000039
Sym=     6a  
Ene=    -1.3784
Spin= Alpha
Occup=    2.00000
   1         0.00318251
   2        -0.04503039
   3        -0.00000005
   4        -0.00000008
   5        -0.67529408
   6         0.00365631
   7         0.08922429
   8        -0.00000017
   9        -0.00000026
  10         0.67301772
Sym=     7a  
Ene=    -2.1710
Spin= Alpha
Occup=    1.97485
   1        -0.01575702
   2        -1.00105620
   3         0.00000001
   4         0.00000001
   5         0.05197691
   6         0.00070434
   7         0.02221087
   8         0.00000001
   9         0.00000001
  10        -0.07250485
Sym=     8a  
Ene=    -0.0000
Spin= Alpha
Occup=    0.02515
   1         0.00000000
   2        -0.00000000
   3        -0.53391075
   4        -0.84612506
   5         0.00000016
   6        -0.00000000
   7        -0.00000001
   8         0.01444915
   9         0.02289856
  10         0.00000003
Sym=     9a  
Ene=    -1.0735
Spin= Alpha
Occup=    0.00000
   1         0.00363407
   2         0.04111911
   3         0.00000007
   4         0.00000011
   5         0.74518493
   6        -0.00363349
   7        -0.04115882
   8        -0.00000013
   9        -0.00000020
  10         0.74480894
Sym=    10a  
Ene=    -0.9140
Spin= Alpha
Occup=    0.00000
   1         0.00000000
   2         0.00000000
   3        -0.02295618
   4         0.01448551
   5         0.00000000
   6        -0.00000000
   7         0.00000000
   8         0.84612532
   9        -0.53391094
  10         0.00000000
