[Molden Format]
[N_Atoms]
                     2
[Atoms] (AU)
O1          1      8           0.00000000      0.00000000      0.00000000
O2          2      8           0.00000000      0.00000000      4.53534270
[Charge] (Mulliken)
  1.504512070482633E-010
 -1.504520952266830E-010
[GTO] (AU)
   1
   s  14
  1.053749500E+05  1.238600013E-04
  1.567924000E+04  5.120100053E-04
  3.534544700E+03  2.152910022E-03
  9.873651600E+02  8.528440089E-03
  3.159787500E+02  3.018049031E-02
  1.116542800E+02  9.099702095E-02
  4.269945100E+01  2.177936423E-01
  1.739559600E+01  3.686245738E-01
  7.438309000E+00  3.366707335E-01
  3.222862000E+00  9.657630101E-02
  1.253877000E+00  2.144520022E-03
  4.951550000E-01  1.194350012E-03
  1.916650000E-01  5.390200056E-04
  6.708300000E-02  2.103400022E-04
   s  14
  1.053749500E+05 -2.815000008E-05
  1.567924000E+04 -1.163000003E-04
  3.534544700E+03 -4.909200013E-04
  9.873651600E+02 -1.946160005E-03
  3.159787500E+02 -7.005300019E-03
  1.116542800E+02 -2.167814006E-02
  4.269945100E+01 -5.641213015E-02
  1.739559600E+01 -1.127053003E-01
  7.438309000E+00 -1.589119704E-01
  3.222862000E+00 -3.355083009E-02
  1.253877000E+00  3.531902810E-01
  4.951550000E-01  5.534199315E-01
  1.916650000E-01  2.301839106E-01
  6.708300000E-02  1.127267003E-02
   p   9
  2.000000000E+02  9.173000030E-04
  4.653336700E+01  7.377140024E-03
  1.462180900E+01  3.483515011E-02
  5.313064000E+00  1.144397004E-01
  2.102525000E+00  2.554966408E-01
  8.502230000E-01  3.722557412E-01
  3.375970000E-01  3.323314911E-01
  1.288920000E-01  1.400847905E-01
  4.511200000E-02  2.395784008E-02
 
   2
   s  14
  1.053749500E+05  1.238600013E-04
  1.567924000E+04  5.120100053E-04
  3.534544700E+03  2.152910022E-03
  9.873651600E+02  8.528440089E-03
  3.159787500E+02  3.018049031E-02
  1.116542800E+02  9.099702095E-02
  4.269945100E+01  2.177936423E-01
  1.739559600E+01  3.686245738E-01
  7.438309000E+00  3.366707335E-01
  3.222862000E+00  9.657630101E-02
  1.253877000E+00  2.144520022E-03
  4.951550000E-01  1.194350012E-03
  1.916650000E-01  5.390200056E-04
  6.708300000E-02  2.103400022E-04
   s  14
  1.053749500E+05 -2.815000008E-05
  1.567924000E+04 -1.163000003E-04
  3.534544700E+03 -4.909200013E-04
  9.873651600E+02 -1.946160005E-03
  3.159787500E+02 -7.005300019E-03
  1.116542800E+02 -2.167814006E-02
  4.269945100E+01 -5.641213015E-02
  1.739559600E+01 -1.127053003E-01
  7.438309000E+00 -1.589119704E-01
  3.222862000E+00 -3.355083009E-02
  1.253877000E+00  3.531902810E-01
  4.951550000E-01  5.534199315E-01
  1.916650000E-01  2.301839106E-01
  6.708300000E-02  1.127267003E-02
   p   9
  2.000000000E+02  9.173000030E-04
  4.653336700E+01  7.377140024E-03
  1.462180900E+01  3.483515011E-02
  5.313064000E+00  1.144397004E-01
  2.102525000E+00  2.554966408E-01
  8.502230000E-01  3.722557412E-01
  3.375970000E-01  3.323314911E-01
  1.288920000E-01  1.400847905E-01
  4.511200000E-02  2.395784008E-02
 
[MO]
Sym=     1a  
Ene=   -20.7810
Spin= Alpha
Occup=    1.00000
   1         0.70710240
   2        -0.00034402
   3        -0.00000000
   4         0.00000000
   5         0.00014048
   6         0.70710282
   7        -0.00034402
   8         0.00000000
   9         0.00000000
  10        -0.00014048
Sym=     1a  
Ene=   -20.7810
Spin= Beta
Occup=    1.00000
   1         0.70710240
   2        -0.00034402
   3        -0.00000000
   4         0.00000000
   5         0.00014048
   6         0.70710282
   7        -0.00034402
   8         0.00000000
   9         0.00000000
  10        -0.00014048
Sym=     2a  
Ene=   -20.7810
Spin= Alpha
Occup=    1.00000
   1        -0.70711116
   2         0.00027823
   3        -0.00000000
   4         0.00000000
   5        -0.00016120
   6         0.70711074
   7        -0.00027823
   8         0.00000000
   9        -0.00000000
  10        -0.00016120
Sym=     2a  
Ene=   -20.7810
Spin= Beta
Occup=    1.00000
   1        -0.70711116
   2         0.00027823
   3        -0.00000000
   4         0.00000000
   5        -0.00016120
   6         0.70711074
   7        -0.00027823
   8         0.00000000
   9        -0.00000000
  10        -0.00016120
Sym=     3a  
Ene=    -1.3111
Spin= Alpha
Occup=    1.00000
   1        -0.00043156
   2         0.69584834
   3        -0.00000000
   4        -0.00000000
   5         0.01666100
   6        -0.00043156
   7         0.69584834
   8         0.00000000
   9         0.00000000
  10        -0.01666100
Sym=     3a  
Ene=    -1.3111
Spin= Beta
Occup=    1.00000
   1        -0.00043156
   2         0.69584834
   3        -0.00000000
   4        -0.00000000
   5         0.01666100
   6        -0.00043156
   7         0.69584834
   8         0.00000000
   9         0.00000000
  10        -0.01666100
Sym=     4a  
Ene=    -1.2743
Spin= Alpha
Occup=    1.00000
   1        -0.00087999
   2        -0.71540468
   3        -0.00000000
   4        -0.00000000
   5         0.02283372
   6         0.00087999
   7         0.71540468
   8         0.00000000
   9        -0.00000000
  10         0.02283372
Sym=     4a  
Ene=    -1.2743
Spin= Beta
Occup=    1.00000
   1        -0.00087999
   2        -0.71540468
   3        -0.00000000
   4        -0.00000000
   5         0.02283372
   6         0.00087999
   7         0.71540468
   8         0.00000000
   9        -0.00000000
  10         0.02283372
Sym=     5a  
Ene=    -0.6234
Spin= Alpha
Occup=    1.00000
   1        -0.00000000
   2        -0.00000000
   3         0.64363342
   4        -0.26521462
   5        -0.00000000
   6         0.00000000
   7         0.00000000
   8         0.64363342
   9        -0.26521462
  10        -0.00000000
Sym=     5a  
Ene=    -0.6234
Spin= Beta
Occup=    1.00000
   1        -0.00000000
   2        -0.00000000
   3         0.64363342
   4        -0.26521462
   5        -0.00000000
   6         0.00000000
   7         0.00000000
   8         0.64363342
   9        -0.26521462
  10        -0.00000000
Sym=     6a  
Ene=    -0.6055
Spin= Alpha
Occup=    1.00000
   1         0.00000000
   2         0.00000000
   3        -0.66441896
   4         0.27377948
   5         0.00000000
   6        -0.00000000
   7        -0.00000000
   8         0.66441896
   9        -0.27377948
  10         0.00000000
Sym=     6a  
Ene=    -0.6055
Spin= Beta
Occup=    1.00000
   1         0.00000000
   2         0.00000000
   3        -0.66441896
   4         0.27377948
   5         0.00000000
   6        -0.00000000
   7        -0.00000000
   8         0.66441896
   9        -0.27377948
  10         0.00000000
Sym=     7a  
Ene=    -0.4702
Spin= Alpha
Occup=    1.00000
   1         0.00346258
   2         0.06434958
   3         0.00000000
   4         0.00000000
   5        -0.67735043
   6         0.00346258
   7         0.06434958
   8        -0.00000000
   9        -0.00000000
  10         0.67735043
Sym=     7a  
Ene=    -0.4702
Spin= Beta
Occup=    1.00000
   1         0.00346258
   2         0.06434958
   3         0.00000000
   4         0.00000000
   5        -0.67735043
   6         0.00346258
   7         0.06434958
   8        -0.00000000
   9        -0.00000000
  10         0.67735043
Sym=     8a  
Ene=    -0.4297
Spin= Alpha
Occup=    1.00000
   1        -0.00000000
   2        -0.00000000
   3         0.26521462
   4         0.64363342
   5        -0.00000000
   6         0.00000000
   7         0.00000000
   8         0.26521462
   9         0.64363342
  10        -0.00000000
Sym=     8a  
Ene=    -0.4297
Spin= Beta
Occup=    1.00000
   1        -0.00000000
   2        -0.00000000
   3         0.26521462
   4         0.64363342
   5        -0.00000000
   6         0.00000000
   7         0.00000000
   8         0.26521462
   9         0.64363342
  10        -0.00000000
Sym=     9a  
Ene=    -0.1942
Spin= Alpha
Occup=    0.00000
   1         0.00000000
   2         0.00000000
   3        -0.27377948
   4        -0.66441896
   5        -0.00000000
   6         0.00000000
   7         0.00000000
   8         0.27377948
   9         0.66441896
  10         0.00000000
Sym=     9a  
Ene=    -0.1942
Spin= Beta
Occup=    0.00000
   1         0.00000000
   2         0.00000000
   3        -0.27377948
   4        -0.66441896
   5        -0.00000000
   6         0.00000000
   7         0.00000000
   8         0.27377948
   9         0.66441896
  10         0.00000000
Sym=    10a  
Ene=    -0.1425
Spin= Alpha
Occup=    0.00000
   1         0.00363809
   2         0.07694902
   3         0.00000000
   4         0.00000000
   5         0.74478570
   6        -0.00363809
   7        -0.07694902
   8         0.00000000
   9         0.00000000
  10         0.74478570
Sym=    10a  
Ene=    -0.1425
Spin= Beta
Occup=    0.00000
   1         0.00363809
   2         0.07694902
   3         0.00000000
   4         0.00000000
   5         0.74478570
   6        -0.00363809
   7        -0.07694902
   8         0.00000000
   9         0.00000000
  10         0.74478570
