[Molden Format]
[N_Atoms]
                     2
[Atoms] (AU)
LI1         1      3           0.00000000      0.00000000      0.00000000
LI2         2      3           0.00000000      0.00000000      1.70075351
[Charge] (Mulliken)
  8.371081605673680E-013
 -8.495426584431698E-013
[GTO] (AU)
   1
   s  14
  9.497934400E+03  9.668999974E-05
  1.416811200E+03  6.087099984E-04
  3.214599400E+02  3.101519992E-03
  9.112416300E+01  1.266904997E-02
  2.999989100E+01  4.248012989E-02
  1.101763100E+01  1.150183297E-01
  4.372801000E+00  2.398650094E-01
  1.831256000E+00  3.584300090E-01
  8.022610000E-01  3.048527792E-01
  3.626480000E-01  8.824261976E-02
  1.139950000E-01 -8.445899977E-04
  5.123700000E-02 -7.943959979E-03
  2.246800000E-02 -3.764419990E-03
  7.860000000E-03 -8.868999976E-05
   s  14
  9.497934400E+03 -1.244999993E-05
  1.416811200E+03 -7.838999954E-05
  3.214599400E+02 -4.007099976E-04
  9.112416300E+01 -1.645249990E-03
  2.999989100E+01 -5.634599967E-03
  1.101763100E+01 -1.590780991E-02
  4.372801000E+00 -3.612581979E-02
  1.831256000E+00 -6.459927962E-02
  8.022610000E-01 -1.008321794E-01
  3.626480000E-01 -9.757613942E-02
  1.139950000E-01  2.301215886E-01
  5.123700000E-02  6.102389764E-01
  2.246800000E-02  2.849406083E-01
  7.860000000E-03  4.026899976E-03
   p   9
  1.311950400E+01  1.524940000E-03
  3.077424200E+00  8.314830000E-03
  1.098800500E+00  1.933203000E-02
  4.357784000E-01  4.934293000E-02
  1.802432000E-01  1.623554000E-01
  7.613330000E-02  3.847505400E-01
  3.254650000E-02  4.336100400E-01
  1.401820000E-02  1.287005900E-01
  4.906400000E-03 -1.018520000E-03
 
   2
   s  14
  9.497934400E+03  9.668999974E-05
  1.416811200E+03  6.087099984E-04
  3.214599400E+02  3.101519992E-03
  9.112416300E+01  1.266904997E-02
  2.999989100E+01  4.248012989E-02
  1.101763100E+01  1.150183297E-01
  4.372801000E+00  2.398650094E-01
  1.831256000E+00  3.584300090E-01
  8.022610000E-01  3.048527792E-01
  3.626480000E-01  8.824261976E-02
  1.139950000E-01 -8.445899977E-04
  5.123700000E-02 -7.943959979E-03
  2.246800000E-02 -3.764419990E-03
  7.860000000E-03 -8.868999976E-05
   s  14
  9.497934400E+03 -1.244999993E-05
  1.416811200E+03 -7.838999954E-05
  3.214599400E+02 -4.007099976E-04
  9.112416300E+01 -1.645249990E-03
  2.999989100E+01 -5.634599967E-03
  1.101763100E+01 -1.590780991E-02
  4.372801000E+00 -3.612581979E-02
  1.831256000E+00 -6.459927962E-02
  8.022610000E-01 -1.008321794E-01
  3.626480000E-01 -9.757613942E-02
  1.139950000E-01  2.301215886E-01
  5.123700000E-02  6.102389764E-01
  2.246800000E-02  2.849406083E-01
  7.860000000E-03  4.026899976E-03
   p   9
  1.311950400E+01  1.524940000E-03
  3.077424200E+00  8.314830000E-03
  1.098800500E+00  1.933203000E-02
  4.357784000E-01  4.934293000E-02
  1.802432000E-01  1.623554000E-01
  7.613330000E-02  3.847505400E-01
  3.254650000E-02  4.336100400E-01
  1.401820000E-02  1.287005900E-01
  4.906400000E-03 -1.018520000E-03
 
[MO]
Sym=     1a  
Ene=    -2.9753
Spin= Alpha
Occup=    2.00000
   1         0.66042514
   2        -0.00183888
   3         0.00000000
   4         0.00000000
   5         0.00309654
   6         0.66042514
   7        -0.00183888
   8        -0.00000000
   9        -0.00000000
  10        -0.00309654
Sym=     2a  
Ene=    -2.5565
Spin= Alpha
Occup=    2.00000
   1        -0.74798560
   2         0.06755259
   3        -0.00000000
   4         0.00000000
   5         0.01525792
   6         0.74798560
   7        -0.06755259
   8         0.00000000
   9        -0.00000000
  10         0.01525792
Sym=     3a  
Ene=    -0.2146
Spin= Alpha
Occup=    1.80130
   1        -0.07918025
   2         0.50932625
   3        -0.00000000
   4        -0.00000000
   5         0.04650678
   6        -0.07918025
   7         0.50932625
   8         0.00000000
   9        -0.00000000
  10        -0.04650678
Sym=     4a  
Ene=    -0.0000
Spin= Alpha
Occup=    0.19870
   1         0.00000000
   2        -0.00000000
   3         0.47163246
   4        -0.19586413
   5        -0.00000000
   6         0.00000000
   7         0.00000000
   8         0.47163246
   9        -0.19586413
  10         0.00000000
Sym=     5a  
Ene=    -0.0123
Spin= Alpha
Occup=    0.00000
   1        -0.00000000
   2         0.00000000
   3         0.19586413
   4         0.47163246
   5        -0.00000000
   6         0.00000000
   7        -0.00000000
   8         0.19586413
   9         0.47163246
  10        -0.00000000
Sym=     6a  
Ene=     0.0176
Spin= Alpha
Occup=    0.00000
   1         0.02010154
   2        -0.52264621
   3        -0.00000000
   4         0.00000000
   5         0.44063878
   6        -0.02010154
   7         0.52264621
   8        -0.00000000
   9         0.00000000
  10         0.44063878
Sym=     7a  
Ene=     0.1894
Spin= Alpha
Occup=    0.00000
   1        -0.00000000
   2         0.00000000
   3        -0.94235453
   4        -2.26914948
   5         0.00000000
   6        -0.00000000
   7        -0.00000000
   8         0.94235453
   9         2.26914948
  10        -0.00000000
Sym=     8a  
Ene=     0.1896
Spin= Alpha
Occup=    0.00000
   1         0.00000000
   2         0.00000000
   3        -2.26914948
   4         0.94235453
   5        -0.00000000
   6         0.00000000
   7         0.00000000
   8         2.26914948
   9        -0.94235453
  10         0.00000000
Sym=     9a  
Ene=     0.2156
Spin= Alpha
Occup=    0.00000
   1         0.31447274
   2         0.25276557
   3         0.00000000
   4        -0.00000000
   5        -1.77774228
   6         0.31447274
   7         0.25276557
   8        -0.00000000
   9         0.00000000
  10         1.77774228
Sym=    10a  
Ene=     1.7703
Spin= Alpha
Occup=    0.00000
   1        -2.59261559
   2       -10.77943985
   3        -0.00000000
   4        -0.00000000
   5        -2.09508125
   6         2.59261559
   7        10.77943985
   8         0.00000000
   9        -0.00000000
  10        -2.09508125
