[Molden Format]
[N_Atoms]
                     2
[Atoms] (AU)
LI1         1      3           0.00000000      0.00000000      0.00000000
LI2         2      3           0.00000000      0.00000000      1.70075351
[Charge] (Mulliken)
  4.352074256530614E-013
 -4.392042285417119E-013
[GTO] (AU)
   1
   s  14
  9.497934400E+03  9.668999974E-05
  1.416811200E+03  6.087099984E-04
  3.214599400E+02  3.101519992E-03
  9.112416300E+01  1.266904997E-02
  2.999989100E+01  4.248012989E-02
  1.101763100E+01  1.150183297E-01
  4.372801000E+00  2.398650094E-01
  1.831256000E+00  3.584300090E-01
  8.022610000E-01  3.048527792E-01
  3.626480000E-01  8.824261976E-02
  1.139950000E-01 -8.445899977E-04
  5.123700000E-02 -7.943959979E-03
  2.246800000E-02 -3.764419990E-03
  7.860000000E-03 -8.868999976E-05
   s  14
  9.497934400E+03 -1.244999993E-05
  1.416811200E+03 -7.838999954E-05
  3.214599400E+02 -4.007099976E-04
  9.112416300E+01 -1.645249990E-03
  2.999989100E+01 -5.634599967E-03
  1.101763100E+01 -1.590780991E-02
  4.372801000E+00 -3.612581979E-02
  1.831256000E+00 -6.459927962E-02
  8.022610000E-01 -1.008321794E-01
  3.626480000E-01 -9.757613942E-02
  1.139950000E-01  2.301215886E-01
  5.123700000E-02  6.102389764E-01
  2.246800000E-02  2.849406083E-01
  7.860000000E-03  4.026899976E-03
   p   9
  1.311950400E+01  1.524940000E-03
  3.077424200E+00  8.314830000E-03
  1.098800500E+00  1.933203000E-02
  4.357784000E-01  4.934293000E-02
  1.802432000E-01  1.623554000E-01
  7.613330000E-02  3.847505400E-01
  3.254650000E-02  4.336100400E-01
  1.401820000E-02  1.287005900E-01
  4.906400000E-03 -1.018520000E-03
 
   2
   s  14
  9.497934400E+03  9.668999974E-05
  1.416811200E+03  6.087099984E-04
  3.214599400E+02  3.101519992E-03
  9.112416300E+01  1.266904997E-02
  2.999989100E+01  4.248012989E-02
  1.101763100E+01  1.150183297E-01
  4.372801000E+00  2.398650094E-01
  1.831256000E+00  3.584300090E-01
  8.022610000E-01  3.048527792E-01
  3.626480000E-01  8.824261976E-02
  1.139950000E-01 -8.445899977E-04
  5.123700000E-02 -7.943959979E-03
  2.246800000E-02 -3.764419990E-03
  7.860000000E-03 -8.868999976E-05
   s  14
  9.497934400E+03 -1.244999993E-05
  1.416811200E+03 -7.838999954E-05
  3.214599400E+02 -4.007099976E-04
  9.112416300E+01 -1.645249990E-03
  2.999989100E+01 -5.634599967E-03
  1.101763100E+01 -1.590780991E-02
  4.372801000E+00 -3.612581979E-02
  1.831256000E+00 -6.459927962E-02
  8.022610000E-01 -1.008321794E-01
  3.626480000E-01 -9.757613942E-02
  1.139950000E-01  2.301215886E-01
  5.123700000E-02  6.102389764E-01
  2.246800000E-02  2.849406083E-01
  7.860000000E-03  4.026899976E-03
   p   9
  1.311950400E+01  1.524940000E-03
  3.077424200E+00  8.314830000E-03
  1.098800500E+00  1.933203000E-02
  4.357784000E-01  4.934293000E-02
  1.802432000E-01  1.623554000E-01
  7.613330000E-02  3.847505400E-01
  3.254650000E-02  4.336100400E-01
  1.401820000E-02  1.287005900E-01
  4.906400000E-03 -1.018520000E-03
 
[MO]
Sym=     1a  
Ene=    -2.9719
Spin= Alpha
Occup=    1.00000
   1         0.66008826
   2         0.00024988
   3         0.00000000
   4        -0.00000000
   5         0.00332075
   6         0.66008826
   7         0.00024988
   8         0.00000000
   9         0.00000000
  10        -0.00332075
Sym=     1a  
Ene=    -2.9719
Spin= Beta
Occup=    1.00000
   1         0.66008826
   2         0.00024988
   3         0.00000000
   4        -0.00000000
   5         0.00332075
   6         0.66008826
   7         0.00024988
   8         0.00000000
   9         0.00000000
  10        -0.00332075
Sym=     2a  
Ene=    -2.5527
Spin= Alpha
Occup=    1.00000
   1        -0.74821319
   2         0.06661659
   3         0.00000000
   4        -0.00000000
   5         0.01506681
   6         0.74821319
   7        -0.06661659
   8         0.00000000
   9         0.00000000
  10         0.01506681
Sym=     2a  
Ene=    -2.5527
Spin= Beta
Occup=    1.00000
   1        -0.74821319
   2         0.06661659
   3         0.00000000
   4        -0.00000000
   5         0.01506681
   6         0.74821319
   7        -0.06661659
   8         0.00000000
   9         0.00000000
  10         0.01506681
Sym=     3a  
Ene=    -0.2299
Spin= Alpha
Occup=    1.00000
   1        -0.07665949
   2         0.51345745
   3         0.00000000
   4        -0.00000000
   5         0.01696063
   6        -0.07665949
   7         0.51345745
   8        -0.00000000
   9        -0.00000000
  10        -0.01696063
Sym=     3a  
Ene=    -0.2299
Spin= Beta
Occup=    1.00000
   1        -0.07665949
   2         0.51345745
   3         0.00000000
   4        -0.00000000
   5         0.01696063
   6        -0.07665949
   7         0.51345745
   8        -0.00000000
   9        -0.00000000
  10        -0.01696063
Sym=     4a  
Ene=    -0.0122
Spin= Alpha
Occup=    0.00000
   1         0.00000000
   2         0.00000000
   3        -0.36777794
   4         0.35431529
   5        -0.00000000
   6         0.00000000
   7        -0.00000000
   8        -0.36777794
   9         0.35431529
  10        -0.00000000
Sym=     4a  
Ene=    -0.0122
Spin= Beta
Occup=    0.00000
   1         0.00000000
   2         0.00000000
   3        -0.36777794
   4         0.35431529
   5        -0.00000000
   6         0.00000000
   7        -0.00000000
   8        -0.36777794
   9         0.35431529
  10        -0.00000000
Sym=     5a  
Ene=    -0.0122
Spin= Alpha
Occup=    0.00000
   1        -0.00000000
   2        -0.00000000
   3         0.35431529
   4         0.36777794
   5         0.00000000
   6        -0.00000000
   7         0.00000000
   8         0.35431529
   9         0.36777794
  10        -0.00000000
Sym=     5a  
Ene=    -0.0122
Spin= Beta
Occup=    0.00000
   1        -0.00000000
   2        -0.00000000
   3         0.35431529
   4         0.36777794
   5         0.00000000
   6        -0.00000000
   7         0.00000000
   8         0.35431529
   9         0.36777794
  10        -0.00000000
Sym=     6a  
Ene=     0.0174
Spin= Alpha
Occup=    0.00000
   1         0.02007947
   2        -0.52268413
   3        -0.00000000
   4         0.00000000
   5         0.44063145
   6        -0.02007947
   7         0.52268413
   8        -0.00000000
   9         0.00000000
  10         0.44063145
Sym=     6a  
Ene=     0.0174
Spin= Beta
Occup=    0.00000
   1         0.02007947
   2        -0.52268413
   3        -0.00000000
   4         0.00000000
   5         0.44063145
   6        -0.02007947
   7         0.52268413
   8        -0.00000000
   9         0.00000000
  10         0.44063145
Sym=     7a  
Ene=     0.1921
Spin= Alpha
Occup=    0.00000
   1         0.00000000
   2         0.00000000
   3        -2.45623440
   4         0.06311905
   5        -0.00000000
   6         0.00000000
   7         0.00000000
   8         2.45623440
   9        -0.06311905
  10         0.00000000
Sym=     7a  
Ene=     0.1921
Spin= Beta
Occup=    0.00000
   1         0.00000000
   2         0.00000000
   3        -2.45623440
   4         0.06311905
   5        -0.00000000
   6         0.00000000
   7         0.00000000
   8         2.45623440
   9        -0.06311905
  10         0.00000000
Sym=     8a  
Ene=     0.1921
Spin= Alpha
Occup=    0.00000
   1        -0.00000000
   2        -0.00000000
   3        -0.06311905
   4        -2.45623440
   5         0.00000000
   6        -0.00000000
   7        -0.00000000
   8         0.06311905
   9         2.45623440
  10        -0.00000000
Sym=     8a  
Ene=     0.1921
Spin= Beta
Occup=    0.00000
   1        -0.00000000
   2        -0.00000000
   3        -0.06311905
   4        -2.45623440
   5         0.00000000
   6        -0.00000000
   7        -0.00000000
   8         0.06311905
   9         2.45623440
  10        -0.00000000
Sym=     9a  
Ene=     0.2183
Spin= Alpha
Occup=    0.00000
   1         0.31580183
   2         0.24427122
   3         0.00000000
   4        -0.00000000
   5        -1.77826921
   6         0.31580183
   7         0.24427122
   8        -0.00000000
   9         0.00000000
  10         1.77826921
Sym=     9a  
Ene=     0.2183
Spin= Beta
Occup=    0.00000
   1         0.31580183
   2         0.24427122
   3         0.00000000
   4        -0.00000000
   5        -1.77826921
   6         0.31580183
   7         0.24427122
   8        -0.00000000
   9         0.00000000
  10         1.77826921
Sym=    10a  
Ene=     1.7736
Spin= Alpha
Occup=    0.00000
   1        -2.59255008
   2       -10.77944384
   3        -0.00000000
   4        -0.00000000
   5        -2.09508418
   6         2.59255008
   7        10.77944384
   8         0.00000000
   9        -0.00000000
  10        -2.09508418
Sym=    10a  
Ene=     1.7736
Spin= Beta
Occup=    0.00000
   1        -2.59255008
   2       -10.77944384
   3        -0.00000000
   4        -0.00000000
   5        -2.09508418
   6         2.59255008
   7        10.77944384
   8         0.00000000
   9        -0.00000000
  10        -2.09508418
