[Molden Format]
[N_Atoms]
                     2
[Atoms] (AU)
LI1         1      3           0.00000000      0.00000000      0.00000000
LI2         2      3           0.00000000      0.00000000      1.70075351
[Charge] (Mulliken)
   1.00522861971516     
  0.994771380284831     
[GTO] (AU)
   1
   s  14
  9.497934400E+03  9.668999974E-05
  1.416811200E+03  6.087099984E-04
  3.214599400E+02  3.101519992E-03
  9.112416300E+01  1.266904997E-02
  2.999989100E+01  4.248012989E-02
  1.101763100E+01  1.150183297E-01
  4.372801000E+00  2.398650094E-01
  1.831256000E+00  3.584300090E-01
  8.022610000E-01  3.048527792E-01
  3.626480000E-01  8.824261976E-02
  1.139950000E-01 -8.445899977E-04
  5.123700000E-02 -7.943959979E-03
  2.246800000E-02 -3.764419990E-03
  7.860000000E-03 -8.868999976E-05
   s  14
  9.497934400E+03 -1.244999993E-05
  1.416811200E+03 -7.838999954E-05
  3.214599400E+02 -4.007099976E-04
  9.112416300E+01 -1.645249990E-03
  2.999989100E+01 -5.634599967E-03
  1.101763100E+01 -1.590780991E-02
  4.372801000E+00 -3.612581979E-02
  1.831256000E+00 -6.459927962E-02
  8.022610000E-01 -1.008321794E-01
  3.626480000E-01 -9.757613942E-02
  1.139950000E-01  2.301215886E-01
  5.123700000E-02  6.102389764E-01
  2.246800000E-02  2.849406083E-01
  7.860000000E-03  4.026899976E-03
   p   9
  1.311950400E+01  1.524940000E-03
  3.077424200E+00  8.314830000E-03
  1.098800500E+00  1.933203000E-02
  4.357784000E-01  4.934293000E-02
  1.802432000E-01  1.623554000E-01
  7.613330000E-02  3.847505400E-01
  3.254650000E-02  4.336100400E-01
  1.401820000E-02  1.287005900E-01
  4.906400000E-03 -1.018520000E-03
 
   2
   s  14
  9.497934400E+03  9.668999974E-05
  1.416811200E+03  6.087099984E-04
  3.214599400E+02  3.101519992E-03
  9.112416300E+01  1.266904997E-02
  2.999989100E+01  4.248012989E-02
  1.101763100E+01  1.150183297E-01
  4.372801000E+00  2.398650094E-01
  1.831256000E+00  3.584300090E-01
  8.022610000E-01  3.048527792E-01
  3.626480000E-01  8.824261976E-02
  1.139950000E-01 -8.445899977E-04
  5.123700000E-02 -7.943959979E-03
  2.246800000E-02 -3.764419990E-03
  7.860000000E-03 -8.868999976E-05
   s  14
  9.497934400E+03 -1.244999993E-05
  1.416811200E+03 -7.838999954E-05
  3.214599400E+02 -4.007099976E-04
  9.112416300E+01 -1.645249990E-03
  2.999989100E+01 -5.634599967E-03
  1.101763100E+01 -1.590780991E-02
  4.372801000E+00 -3.612581979E-02
  1.831256000E+00 -6.459927962E-02
  8.022610000E-01 -1.008321794E-01
  3.626480000E-01 -9.757613942E-02
  1.139950000E-01  2.301215886E-01
  5.123700000E-02  6.102389764E-01
  2.246800000E-02  2.849406083E-01
  7.860000000E-03  4.026899976E-03
   p   9
  1.311950400E+01  1.524940000E-03
  3.077424200E+00  8.314830000E-03
  1.098800500E+00  1.933203000E-02
  4.357784000E-01  4.934293000E-02
  1.802432000E-01  1.623554000E-01
  7.613330000E-02  3.847505400E-01
  3.254650000E-02  4.336100400E-01
  1.401820000E-02  1.287005900E-01
  4.906400000E-03 -1.018520000E-03
 
[MO]
Sym=     1a  
Ene=    -3.4610
Spin= Alpha
Occup=    2.00000
   1         0.17992710
   2         0.02352676
   3        -0.00000000
   4        -0.00000000
   5         0.00807416
   6         0.95321091
   7        -0.02349936
   8        -0.00000000
   9         0.00000000
  10         0.00219993
Sym=     2a  
Ene=    -3.2630
Spin= Alpha
Occup=    1.99950
   1        -0.98298491
   2         0.04855692
   3         0.00000000
   4        -0.00000000
   5         0.00814350
   6         0.30585146
   7        -0.04880146
   8         0.00000000
   9        -0.00000000
  10         0.01308083
Sym=     3a  
Ene=    -0.0231
Spin= Alpha
Occup=    0.00050
   1        -2.40124191
   2        -9.27324762
   3        -0.00000000
   4        -0.00000000
   5        -1.34110747
   6         2.15015073
   7         9.39822456
   8        -0.00000000
   9        -0.00000000
  10        -2.52075193
Sym=     4a  
Ene=    -0.4047
Spin= Alpha
Occup=    0.00000
   1         0.19991074
   2         1.05183611
   3         0.00000000
   4         0.00000000
   5         0.16200510
   6        -0.23664920
   7        -0.12781428
   8         0.00000000
   9         0.00000000
  10         0.64237131
Sym=     5a  
Ene=    -0.3869
Spin= Alpha
Occup=    0.00000
   1        -0.00000000
   2         0.00000000
   3        -0.22814527
   4         0.45720255
   5        -0.00000000
   6         0.00000000
   7        -0.00000000
   8        -0.22789660
   9         0.45670420
  10        -0.00000000
Sym=     6a  
Ene=    -0.3869
Spin= Alpha
Occup=    0.00000
   1        -0.00000000
   2        -0.00000000
   3         0.45720255
   4         0.22814527
   5         0.00000000
   6         0.00000000
   7         0.00000000
   8         0.45670420
   9         0.22789660
  10        -0.00000000
Sym=     7a  
Ene=    -0.2915
Spin= Alpha
Occup=    0.00000
   1        -0.37503939
   2        -1.72947935
   3        -0.00000000
   4         0.00000000
   5         1.09831669
   6         0.08565778
   7         1.08087745
   8        -0.00000000
   9         0.00000000
  10        -0.83789652
Sym=     8a  
Ene=    -0.2131
Spin= Alpha
Occup=    0.00000
   1        -0.00000000
   2        -0.00000000
   3        -2.45326850
   4         0.13513173
   5        -0.00000000
   6         0.00000000
   7         0.00000000
   8         2.45338409
   9        -0.13513810
  10        -0.00000000
Sym=     9a  
Ene=    -0.2131
Spin= Alpha
Occup=    0.00000
   1         0.00000000
   2         0.00000000
   3        -0.13513173
   4        -2.45326850
   5         0.00000000
   6        -0.00000000
   7        -0.00000000
   8         0.13513810
   9         2.45338409
  10        -0.00000000
Sym=    10a  
Ene=     0.0677
Spin= Alpha
Occup=    0.00000
   1        -0.93683054
   2        -5.16757798
   3         0.00000000
   4        -0.00000000
   5        -2.17141772
   6         1.46089756
   7         5.22332861
   8        -0.00000000
   9         0.00000000
  10         0.52651985
