[Molden Format]
[N_Atoms]
                     2
[Atoms] (AU)
LI1         1      3           0.00000000      0.00000000      0.00000000
O2          2      8           0.00000000      0.00000000      4.72431531
[Charge] (Mulliken)
  0.583496070269283     
 -0.583496070269295     
[GTO] (AU)
   1
   s  14
  9.497934400E+03  9.668999974E-05
  1.416811200E+03  6.087099984E-04
  3.214599400E+02  3.101519992E-03
  9.112416300E+01  1.266904997E-02
  2.999989100E+01  4.248012989E-02
  1.101763100E+01  1.150183297E-01
  4.372801000E+00  2.398650094E-01
  1.831256000E+00  3.584300090E-01
  8.022610000E-01  3.048527792E-01
  3.626480000E-01  8.824261976E-02
  1.139950000E-01 -8.445899977E-04
  5.123700000E-02 -7.943959979E-03
  2.246800000E-02 -3.764419990E-03
  7.860000000E-03 -8.868999976E-05
   s  14
  9.497934400E+03 -1.244999993E-05
  1.416811200E+03 -7.838999954E-05
  3.214599400E+02 -4.007099976E-04
  9.112416300E+01 -1.645249990E-03
  2.999989100E+01 -5.634599967E-03
  1.101763100E+01 -1.590780991E-02
  4.372801000E+00 -3.612581979E-02
  1.831256000E+00 -6.459927962E-02
  8.022610000E-01 -1.008321794E-01
  3.626480000E-01 -9.757613942E-02
  1.139950000E-01  2.301215886E-01
  5.123700000E-02  6.102389764E-01
  2.246800000E-02  2.849406083E-01
  7.860000000E-03  4.026899976E-03
   p   9
  1.311950400E+01  1.524940000E-03
  3.077424200E+00  8.314830000E-03
  1.098800500E+00  1.933203000E-02
  4.357784000E-01  4.934293000E-02
  1.802432000E-01  1.623554000E-01
  7.613330000E-02  3.847505400E-01
  3.254650000E-02  4.336100400E-01
  1.401820000E-02  1.287005900E-01
  4.906400000E-03 -1.018520000E-03
 
   2
   s  14
  1.053749500E+05  1.238600013E-04
  1.567924000E+04  5.120100053E-04
  3.534544700E+03  2.152910022E-03
  9.873651600E+02  8.528440089E-03
  3.159787500E+02  3.018049031E-02
  1.116542800E+02  9.099702095E-02
  4.269945100E+01  2.177936423E-01
  1.739559600E+01  3.686245738E-01
  7.438309000E+00  3.366707335E-01
  3.222862000E+00  9.657630101E-02
  1.253877000E+00  2.144520022E-03
  4.951550000E-01  1.194350012E-03
  1.916650000E-01  5.390200056E-04
  6.708300000E-02  2.103400022E-04
   s  14
  1.053749500E+05 -2.815000008E-05
  1.567924000E+04 -1.163000003E-04
  3.534544700E+03 -4.909200013E-04
  9.873651600E+02 -1.946160005E-03
  3.159787500E+02 -7.005300019E-03
  1.116542800E+02 -2.167814006E-02
  4.269945100E+01 -5.641213015E-02
  1.739559600E+01 -1.127053003E-01
  7.438309000E+00 -1.589119704E-01
  3.222862000E+00 -3.355083009E-02
  1.253877000E+00  3.531902810E-01
  4.951550000E-01  5.534199315E-01
  1.916650000E-01  2.301839106E-01
  6.708300000E-02  1.127267003E-02
   p   9
  2.000000000E+02  9.173000030E-04
  4.653336700E+01  7.377140024E-03
  1.462180900E+01  3.483515011E-02
  5.313064000E+00  1.144397004E-01
  2.102525000E+00  2.554966408E-01
  8.502230000E-01  3.722557412E-01
  3.375970000E-01  3.323314911E-01
  1.288920000E-01  1.400847905E-01
  4.511200000E-02  2.395784008E-02
 
[MO]
Sym=     1a  
Ene=   -20.2580
Spin= Alpha
Occup=    1.00000
   1        -0.00002602
   2        -0.00043861
   3        -0.00000000
   4        -0.00000000
   5        -0.00049999
   6         1.00002296
   7         0.00080976
   8        -0.00000000
   9         0.00000000
  10        -0.00024327
Sym=     1a  
Ene=   -20.2580
Spin= Beta
Occup=    1.00000
   1        -0.00002602
   2        -0.00043861
   3        -0.00000000
   4        -0.00000000
   5        -0.00049999
   6         1.00002296
   7         0.00080976
   8        -0.00000000
   9         0.00000000
  10        -0.00024327
Sym=     2a  
Ene=    -2.5317
Spin= Alpha
Occup=    1.00000
   1         0.99986456
   2         0.01273064
   3         0.00000000
   4        -0.00000000
   5        -0.00194142
   6         0.00003558
   7         0.00096944
   8        -0.00000000
   9        -0.00000000
  10        -0.00198612
Sym=     2a  
Ene=    -2.5317
Spin= Beta
Occup=    1.00000
   1         0.99986456
   2         0.01273064
   3         0.00000000
   4        -0.00000000
   5        -0.00194142
   6         0.00003558
   7         0.00096944
   8        -0.00000000
   9        -0.00000000
  10        -0.00198612
Sym=     3a  
Ene=    -0.9856
Spin= Alpha
Occup=    1.00000
   1        -0.00813340
   2         0.05217998
   3        -0.00000000
   4        -0.00000000
   5         0.04534711
   6        -0.00288167
   7         0.97054193
   8         0.00000000
   9         0.00000000
  10        -0.07606521
Sym=     3a  
Ene=    -0.9856
Spin= Beta
Occup=    1.00000
   1        -0.00813340
   2         0.05217998
   3        -0.00000000
   4        -0.00000000
   5         0.04534711
   6        -0.00288167
   7         0.97054193
   8         0.00000000
   9         0.00000000
  10        -0.07606521
Sym=     4a  
Ene=    -0.2944
Spin= Alpha
Occup=    1.00000
   1         0.00000000
   2        -0.00000000
   3         0.11649473
   4         0.03061254
   5        -0.00000000
   6         0.00000000
   7         0.00000000
   8         0.94617905
   9         0.24863737
  10         0.00000000
Sym=     4a  
Ene=    -0.2944
Spin= Beta
Occup=    1.00000
   1         0.00000000
   2        -0.00000000
   3         0.11649473
   4         0.03061254
   5        -0.00000000
   6         0.00000000
   7         0.00000000
   8         0.94617905
   9         0.24863737
  10         0.00000000
Sym=     5a  
Ene=    -0.0072
Spin= Alpha
Occup=    1.00000
   1         0.00000000
   2        -0.00000000
   3        -0.01246699
   4         0.04744259
   5         0.00000000
   6        -0.00000000
   7        -0.00000000
   8        -0.25234716
   9         0.96029650
  10         0.00000000
Sym=     5a  
Ene=    -0.0072
Spin= Beta
Occup=    0.00000
   1         0.00000000
   2        -0.00000000
   3        -0.01246699
   4         0.04744259
   5         0.00000000
   6        -0.00000000
   7        -0.00000000
   8        -0.25234716
   9         0.96029650
  10         0.00000000
Sym=     6a  
Ene=     0.0033
Spin= Alpha
Occup=    1.00000
   1        -0.02452021
   2         0.30376748
   3         0.00000000
   4         0.00000000
   5         0.15917756
   6        -0.01021232
   7        -0.20865816
   8         0.00000000
   9         0.00000000
  10        -0.88358474
Sym=     6a  
Ene=     0.0033
Spin= Beta
Occup=    1.00000
   1        -0.02452021
   2         0.30376748
   3         0.00000000
   4         0.00000000
   5         0.15917756
   6        -0.01021232
   7        -0.20865816
   8         0.00000000
   9         0.00000000
  10        -0.88358474
Sym=     7a  
Ene=    -0.0135
Spin= Alpha
Occup=    0.00000
   1        -0.00626359
   2         0.81933571
   3        -0.00000000
   4         0.00000000
   5        -0.54931730
   6         0.00273019
   7         0.00889456
   8         0.00000000
   9         0.00000000
  10         0.21594965
Sym=     7a  
Ene=    -0.0135
Spin= Beta
Occup=    0.00000
   1        -0.00626359
   2         0.81933571
   3        -0.00000000
   4         0.00000000
   5        -0.54931730
   6         0.00273019
   7         0.00889456
   8         0.00000000
   9         0.00000000
  10         0.21594965
Sym=     8a  
Ene=     0.0613
Spin= Alpha
Occup=    0.00000
   1        -0.00000000
   2         0.00000000
   3         0.96728277
   4         0.25418302
   5        -0.00000000
   6         0.00000000
   7         0.00000000
   8        -0.23227612
   9        -0.06103763
  10         0.00000000
Sym=     8a  
Ene=     0.0613
Spin= Beta
Occup=    0.00000
   1        -0.00000000
   2         0.00000000
   3         0.96728277
   4         0.25418302
   5        -0.00000000
   6         0.00000000
   7         0.00000000
   8        -0.23227612
   9        -0.06103763
  10         0.00000000
Sym=     9a  
Ene=     0.0618
Spin= Alpha
Occup=    0.00000
   1         0.00000000
   2        -0.00000000
   3        -0.25571607
   4         0.97311674
   5        -0.00000000
   6         0.00000000
   7         0.00000000
   8         0.04320931
   9        -0.16443121
  10         0.00000000
Sym=     9a  
Ene=     0.0618
Spin= Beta
Occup=    0.00000
   1         0.00000000
   2        -0.00000000
   3        -0.25571607
   4         0.97311674
   5        -0.00000000
   6         0.00000000
   7         0.00000000
   8         0.04320931
   9        -0.16443121
  10         0.00000000
Sym=    10a  
Ene=     0.1741
Spin= Alpha
Occup=    0.00000
   1        -0.00763391
   2        -0.54424648
   3        -0.00000000
   4        -0.00000000
   5        -0.89172992
   6         0.03676098
   7         0.40562176
   8         0.00000000
   9         0.00000000
  10        -0.45026161
Sym=    10a  
Ene=     0.1741
Spin= Beta
Occup=    0.00000
   1        -0.00763391
   2        -0.54424648
   3        -0.00000000
   4        -0.00000000
   5        -0.89172992
   6         0.03676098
   7         0.40562176
   8         0.00000000
   9         0.00000000
  10        -0.45026161
