[Molden Format]
[N_Atoms]
                     2
[Atoms] (AU)
LI1         1      3           0.00000000      0.00000000      0.00000000
O2          2      8           0.00000000      0.00000000      4.72431531
[Charge] (Mulliken)
  0.106972865908538     
 -0.106972865908578     
[GTO] (AU)
   1
   s  14
  9.497934400E+03  9.668999974E-05
  1.416811200E+03  6.087099984E-04
  3.214599400E+02  3.101519992E-03
  9.112416300E+01  1.266904997E-02
  2.999989100E+01  4.248012989E-02
  1.101763100E+01  1.150183297E-01
  4.372801000E+00  2.398650094E-01
  1.831256000E+00  3.584300090E-01
  8.022610000E-01  3.048527792E-01
  3.626480000E-01  8.824261976E-02
  1.139950000E-01 -8.445899977E-04
  5.123700000E-02 -7.943959979E-03
  2.246800000E-02 -3.764419990E-03
  7.860000000E-03 -8.868999976E-05
   s  14
  9.497934400E+03 -1.244999993E-05
  1.416811200E+03 -7.838999954E-05
  3.214599400E+02 -4.007099976E-04
  9.112416300E+01 -1.645249990E-03
  2.999989100E+01 -5.634599967E-03
  1.101763100E+01 -1.590780991E-02
  4.372801000E+00 -3.612581979E-02
  1.831256000E+00 -6.459927962E-02
  8.022610000E-01 -1.008321794E-01
  3.626480000E-01 -9.757613942E-02
  1.139950000E-01  2.301215886E-01
  5.123700000E-02  6.102389764E-01
  2.246800000E-02  2.849406083E-01
  7.860000000E-03  4.026899976E-03
   p   9
  1.311950400E+01  1.524940000E-03
  3.077424200E+00  8.314830000E-03
  1.098800500E+00  1.933203000E-02
  4.357784000E-01  4.934293000E-02
  1.802432000E-01  1.623554000E-01
  7.613330000E-02  3.847505400E-01
  3.254650000E-02  4.336100400E-01
  1.401820000E-02  1.287005900E-01
  4.906400000E-03 -1.018520000E-03
 
   2
   s  14
  1.053749500E+05  1.238600013E-04
  1.567924000E+04  5.120100053E-04
  3.534544700E+03  2.152910022E-03
  9.873651600E+02  8.528440089E-03
  3.159787500E+02  3.018049031E-02
  1.116542800E+02  9.099702095E-02
  4.269945100E+01  2.177936423E-01
  1.739559600E+01  3.686245738E-01
  7.438309000E+00  3.366707335E-01
  3.222862000E+00  9.657630101E-02
  1.253877000E+00  2.144520022E-03
  4.951550000E-01  1.194350012E-03
  1.916650000E-01  5.390200056E-04
  6.708300000E-02  2.103400022E-04
   s  14
  1.053749500E+05 -2.815000008E-05
  1.567924000E+04 -1.163000003E-04
  3.534544700E+03 -4.909200013E-04
  9.873651600E+02 -1.946160005E-03
  3.159787500E+02 -7.005300019E-03
  1.116542800E+02 -2.167814006E-02
  4.269945100E+01 -5.641213015E-02
  1.739559600E+01 -1.127053003E-01
  7.438309000E+00 -1.589119704E-01
  3.222862000E+00 -3.355083009E-02
  1.253877000E+00  3.531902810E-01
  4.951550000E-01  5.534199315E-01
  1.916650000E-01  2.301839106E-01
  6.708300000E-02  1.127267003E-02
   p   9
  2.000000000E+02  9.173000030E-04
  4.653336700E+01  7.377140024E-03
  1.462180900E+01  3.483515011E-02
  5.313064000E+00  1.144397004E-01
  2.102525000E+00  2.554966408E-01
  8.502230000E-01  3.722557412E-01
  3.375970000E-01  3.323314911E-01
  1.288920000E-01  1.400847905E-01
  4.511200000E-02  2.395784008E-02
 
[MO]
Sym=     1a  
Ene=   -20.6970
Spin= Alpha
Occup=    1.00000
   1        -0.00003411
   2        -0.00043085
   3         0.00000000
   4         0.00000000
   5        -0.00058307
   6         1.00002416
   7         0.00191696
   8         0.00000000
   9         0.00000000
  10        -0.00025814
Sym=     1a  
Ene=   -20.6300
Spin= Beta
Occup=    1.00000
   1        -0.00001734
   2        -0.00005458
   3         0.00000000
   4         0.00000000
   5        -0.00005386
   6         1.00000076
   7        -0.00190876
   8        -0.00000000
   9        -0.00000000
  10        -0.00012642
Sym=     2a  
Ene=    -2.4817
Spin= Alpha
Occup=    1.00000
   1         0.99989186
   2         0.01296603
   3         0.00000000
   4        -0.00000000
   5         0.00010095
   6        -0.00003083
   7         0.00087307
   8         0.00000000
   9         0.00000000
  10        -0.00080355
Sym=     2a  
Ene=    -2.4943
Spin= Beta
Occup=    1.00000
   1         0.99992271
   2         0.01185476
   3         0.00000000
   4        -0.00000000
   5        -0.00000067
   6        -0.00000340
   7         0.00065484
   8        -0.00000000
   9        -0.00000000
  10        -0.00014619
Sym=     3a  
Ene=    -1.3917
Spin= Alpha
Occup=    1.00000
   1        -0.00688201
   2        -0.00890543
   3         0.00000000
   4         0.00000000
   5        -0.01011681
   6        -0.00119926
   7         1.00437737
   8        -0.00000000
   9        -0.00000000
  10        -0.02593616
Sym=     3a  
Ene=    -1.0945
Spin= Beta
Occup=    1.00000
   1        -0.00615389
   2         0.01543302
   3         0.00000000
   4        -0.00000000
   5         0.01249605
   6         0.00127209
   7         0.99311406
   8         0.00000000
   9         0.00000000
  10        -0.00470891
Sym=     4a  
Ene=    -0.6796
Spin= Alpha
Occup=    1.00000
   1         0.00000000
   2         0.00000000
   3         0.00018474
   4        -0.01407885
   5        -0.00000000
   6         0.00000000
   7         0.00000000
   8        -0.01314149
   9         1.00151382
  10         0.00000000
Sym=     4a  
Ene=    -0.5230
Spin= Beta
Occup=    1.00000
   1         0.00000000
   2        -0.00000000
   3         0.01827443
   4         0.00023979
   5         0.00000000
   6         0.00000000
   7        -0.00000000
   8         0.99754588
   9         0.01308942
  10        -0.00000000
Sym=     5a  
Ene=    -0.6781
Spin= Alpha
Occup=    1.00000
   1         0.02364676
   2         0.01063751
   3        -0.00000000
   4         0.00000000
   5        -0.00738615
   6         0.00014260
   7         0.02380144
   8         0.00000000
   9        -0.00000000
  10         1.00042566
Sym=     5a  
Ene=    -0.1988
Spin= Beta
Occup=    1.00000
   1         0.01653422
   2        -0.94072516
   3         0.00000000
   4        -0.00000000
   5         0.04757769
   6         0.01518213
   7         0.17851255
   8        -0.00000000
   9        -0.00000000
  10         0.27306273
Sym=     6a  
Ene=    -0.5999
Spin= Alpha
Occup=    1.00000
   1         0.00000000
   2         0.00000000
   3         0.00406860
   4         0.00005339
   5        -0.00000000
   6         0.00000000
   7        -0.00000000
   8        -1.00039634
   9        -0.01312683
  10         0.00000000
Sym=     6a  
Ene=     0.0305
Spin= Beta
Occup=    0.00000
   1         0.00000000
   2         0.00000000
   3        -0.01241488
   4         0.94613851
   5        -0.00000000
   6         0.00000000
   7         0.00000000
   8        -0.00300407
   9         0.22894069
  10         0.00000000
Sym=     7a  
Ene=     0.0418
Spin= Alpha
Occup=    0.00000
   1        -0.01010091
   2         0.97437167
   3         0.00000000
   4        -0.00000000
   5        -0.26578772
   6        -0.00873159
   7        -0.09838372
   8        -0.00000000
   9        -0.00000000
  10         0.08569528
Sym=     7a  
Ene=     0.0316
Spin= Beta
Occup=    0.00000
   1         0.00917415
   2         0.16316410
   3        -0.00000000
   4        -0.00000000
   5        -0.81365408
   6         0.02252050
   7         0.22584314
   8         0.00000000
   9        -0.00000000
  10         0.53181922
Sym=     8a  
Ene=     0.0839
Spin= Alpha
Occup=    0.00000
   1        -0.00000000
   2        -0.00000000
   3        -0.01321564
   4         1.00716444
   5        -0.00000000
   6         0.00000000
   7         0.00000000
   8         0.00141010
   9        -0.10746397
  10        -0.00000000
Sym=     8a  
Ene=     0.0455
Spin= Beta
Occup=    0.00000
   1         0.00000000
   2        -0.00000000
   3        -1.00709705
   4        -0.01321475
   5         0.00000000
   6         0.00000000
   7         0.00000000
   8         0.13957308
   9         0.00183143
  10         0.00000000
Sym=     9a  
Ene=     0.0862
Spin= Alpha
Occup=    0.00000
   1         0.00000000
   2        -0.00000000
   3         1.00725462
   4         0.01321682
   5         0.00000000
   6        -0.00000000
   7        -0.00000000
   8        -0.11741206
   9        -0.00154064
  10         0.00000000
Sym=     9a  
Ene=     0.1713
Spin= Beta
Occup=    0.00000
   1        -0.00000000
   2        -0.00000000
   3         0.00453409
   4        -0.34554357
   5        -0.00000000
   6         0.00000000
   7         0.00000000
   8        -0.01287100
   9         0.98089989
  10        -0.00000000
Sym=    10a  
Ene=     0.1220
Spin= Alpha
Occup=    0.00000
   1         0.00131957
   2         0.33602681
   3        -0.00000000
   4         0.00000000
   5         1.02641573
   6        -0.03730035
   7        -0.36204332
   8        -0.00000000
   9        -0.00000000
  10         0.16435663
Sym=    10a  
Ene=     0.1792
Spin= Beta
Occup=    0.00000
   1        -0.01591192
   2        -0.38821369
   3        -0.00000000
   4         0.00000000
   5        -0.67814221
   6         0.02786642
   7         0.28451383
   8        -0.00000000
   9        -0.00000000
  10        -0.82368958
