[Molden Format]
[N_Atoms]
                     2
[Atoms] (AU)
LI1         1      3           0.00000000      0.00000000      0.00000000
O2          2      8           0.00000000      0.00000000      3.40150702
[Charge] (Mulliken)
  0.642002260986211     
 -0.642002260986212     
[GTO] (AU)
   1
   s  14
  9.497934400E+03  9.668999974E-05
  1.416811200E+03  6.087099984E-04
  3.214599400E+02  3.101519992E-03
  9.112416300E+01  1.266904997E-02
  2.999989100E+01  4.248012989E-02
  1.101763100E+01  1.150183297E-01
  4.372801000E+00  2.398650094E-01
  1.831256000E+00  3.584300090E-01
  8.022610000E-01  3.048527792E-01
  3.626480000E-01  8.824261976E-02
  1.139950000E-01 -8.445899977E-04
  5.123700000E-02 -7.943959979E-03
  2.246800000E-02 -3.764419990E-03
  7.860000000E-03 -8.868999976E-05
   s  14
  9.497934400E+03 -1.244999993E-05
  1.416811200E+03 -7.838999954E-05
  3.214599400E+02 -4.007099976E-04
  9.112416300E+01 -1.645249990E-03
  2.999989100E+01 -5.634599967E-03
  1.101763100E+01 -1.590780991E-02
  4.372801000E+00 -3.612581979E-02
  1.831256000E+00 -6.459927962E-02
  8.022610000E-01 -1.008321794E-01
  3.626480000E-01 -9.757613942E-02
  1.139950000E-01  2.301215886E-01
  5.123700000E-02  6.102389764E-01
  2.246800000E-02  2.849406083E-01
  7.860000000E-03  4.026899976E-03
   p   9
  1.311950400E+01  1.524940000E-03
  3.077424200E+00  8.314830000E-03
  1.098800500E+00  1.933203000E-02
  4.357784000E-01  4.934293000E-02
  1.802432000E-01  1.623554000E-01
  7.613330000E-02  3.847505400E-01
  3.254650000E-02  4.336100400E-01
  1.401820000E-02  1.287005900E-01
  4.906400000E-03 -1.018520000E-03
 
   2
   s  14
  1.053749500E+05  1.238600013E-04
  1.567924000E+04  5.120100053E-04
  3.534544700E+03  2.152910022E-03
  9.873651600E+02  8.528440089E-03
  3.159787500E+02  3.018049031E-02
  1.116542800E+02  9.099702095E-02
  4.269945100E+01  2.177936423E-01
  1.739559600E+01  3.686245738E-01
  7.438309000E+00  3.366707335E-01
  3.222862000E+00  9.657630101E-02
  1.253877000E+00  2.144520022E-03
  4.951550000E-01  1.194350012E-03
  1.916650000E-01  5.390200056E-04
  6.708300000E-02  2.103400022E-04
   s  14
  1.053749500E+05 -2.815000008E-05
  1.567924000E+04 -1.163000003E-04
  3.534544700E+03 -4.909200013E-04
  9.873651600E+02 -1.946160005E-03
  3.159787500E+02 -7.005300019E-03
  1.116542800E+02 -2.167814006E-02
  4.269945100E+01 -5.641213015E-02
  1.739559600E+01 -1.127053003E-01
  7.438309000E+00 -1.589119704E-01
  3.222862000E+00 -3.355083009E-02
  1.253877000E+00  3.531902810E-01
  4.951550000E-01  5.534199315E-01
  1.916650000E-01  2.301839106E-01
  6.708300000E-02  1.127267003E-02
   p   9
  2.000000000E+02  9.173000030E-04
  4.653336700E+01  7.377140024E-03
  1.462180900E+01  3.483515011E-02
  5.313064000E+00  1.144397004E-01
  2.102525000E+00  2.554966408E-01
  8.502230000E-01  3.722557412E-01
  3.375970000E-01  3.323314911E-01
  1.288920000E-01  1.400847905E-01
  4.511200000E-02  2.395784008E-02
 
[MO]
Sym=     1a  
Ene=   -20.2920
Spin= Alpha
Occup=    2.00000
   1        -0.00013274
   2        -0.00046536
   3        -0.00000000
   4         0.00000000
   5        -0.00051775
   6         1.00003768
   7         0.00099529
   8         0.00000000
   9         0.00000000
  10        -0.00032583
Sym=     2a  
Ene=    -2.5107
Spin= Alpha
Occup=    2.00000
   1         0.99950407
   2         0.01238906
   3        -0.00000000
   4        -0.00000000
   5        -0.00221309
   6        -0.00034201
   7         0.00714914
   8         0.00000000
   9         0.00000000
  10        -0.00186985
Sym=     3a  
Ene=    -1.0392
Spin= Alpha
Occup=    2.00000
   1        -0.04531597
   2         0.03672709
   3         0.00000000
   4         0.00000000
   5         0.04525527
   6        -0.00384226
   7         0.96758177
   8        -0.00000000
   9        -0.00000000
  10        -0.07219245
Sym=     4a  
Ene=    -0.3273
Spin= Alpha
Occup=    2.00000
   1        -0.00000000
   2        -0.00000000
   3         0.18499628
   4         0.00196017
   5        -0.00000000
   6         0.00000000
   7         0.00000000
   8         0.94592889
   9         0.01002282
  10        -0.00000000
Sym=     5a  
Ene=    -0.3273
Spin= Alpha
Occup=    2.00000
   1         0.00000000
   2         0.00000000
   3        -0.00196017
   4         0.18499628
   5         0.00000000
   6        -0.00000000
   7        -0.00000000
   8        -0.01002282
   9         0.94592889
  10         0.00000000
Sym=     6a  
Ene=    -0.0705
Spin= Alpha
Occup=    1.00000
   1        -0.07926906
   2         0.06368692
   3        -0.00000000
   4         0.00000000
   5         0.07710378
   6        -0.00561487
   7        -0.13015706
   8         0.00000000
   9         0.00000000
  10        -0.98325480
Sym=     7a  
Ene=    -0.0000
Spin= Alpha
Occup=    0.00000
   1        -0.00000000
   2        -0.00000000
   3         0.99365984
   4         0.14555191
   5        -0.00000000
   6         0.00000000
   7         0.00000000
   8        -0.38050520
   9        -0.05573664
  10        -0.00000000
Sym=     8a  
Ene=     0.0005
Spin= Alpha
Occup=    0.00000
   1        -0.00289391
   2         0.83505801
   3         0.00000000
   4        -0.00000000
   5        -0.55691933
   6         0.00014138
   7        -0.02864634
   8        -0.00000000
   9         0.00000000
  10         0.09277768
Sym=     9a  
Ene=     0.0926
Spin= Alpha
Occup=    0.00000
   1         0.00000000
   2        -0.00000000
   3        -0.14555191
   4         0.99365984
   5        -0.00000000
   6         0.00000000
   7         0.00000000
   8         0.05573664
   9        -0.38050520
  10         0.00000000
Sym=    10a  
Ene=     0.2172
Spin= Alpha
Occup=    0.00000
   1        -0.03357870
   2        -0.66157259
   3        -0.00000000
   4        -0.00000000
   5        -0.94719307
   6         0.06322661
   7         0.61012200
   8        -0.00000000
   9         0.00000000
  10        -0.23100411
