[Molden Format]
[N_Atoms]
                     2
[Atoms] (AU)
LI1         1      3           0.00000000      0.00000000      0.00000000
O2          2      8           0.00000000      0.00000000      3.40150702
[Charge] (Mulliken)
  0.629445296135368     
 -0.629445296135387     
[GTO] (AU)
   1
   s  14
  9.497934400E+03  9.668999974E-05
  1.416811200E+03  6.087099984E-04
  3.214599400E+02  3.101519992E-03
  9.112416300E+01  1.266904997E-02
  2.999989100E+01  4.248012989E-02
  1.101763100E+01  1.150183297E-01
  4.372801000E+00  2.398650094E-01
  1.831256000E+00  3.584300090E-01
  8.022610000E-01  3.048527792E-01
  3.626480000E-01  8.824261976E-02
  1.139950000E-01 -8.445899977E-04
  5.123700000E-02 -7.943959979E-03
  2.246800000E-02 -3.764419990E-03
  7.860000000E-03 -8.868999976E-05
   s  14
  9.497934400E+03 -1.244999993E-05
  1.416811200E+03 -7.838999954E-05
  3.214599400E+02 -4.007099976E-04
  9.112416300E+01 -1.645249990E-03
  2.999989100E+01 -5.634599967E-03
  1.101763100E+01 -1.590780991E-02
  4.372801000E+00 -3.612581979E-02
  1.831256000E+00 -6.459927962E-02
  8.022610000E-01 -1.008321794E-01
  3.626480000E-01 -9.757613942E-02
  1.139950000E-01  2.301215886E-01
  5.123700000E-02  6.102389764E-01
  2.246800000E-02  2.849406083E-01
  7.860000000E-03  4.026899976E-03
   p   9
  1.311950400E+01  1.524940000E-03
  3.077424200E+00  8.314830000E-03
  1.098800500E+00  1.933203000E-02
  4.357784000E-01  4.934293000E-02
  1.802432000E-01  1.623554000E-01
  7.613330000E-02  3.847505400E-01
  3.254650000E-02  4.336100400E-01
  1.401820000E-02  1.287005900E-01
  4.906400000E-03 -1.018520000E-03
 
   2
   s  14
  1.053749500E+05  1.238600013E-04
  1.567924000E+04  5.120100053E-04
  3.534544700E+03  2.152910022E-03
  9.873651600E+02  8.528440089E-03
  3.159787500E+02  3.018049031E-02
  1.116542800E+02  9.099702095E-02
  4.269945100E+01  2.177936423E-01
  1.739559600E+01  3.686245738E-01
  7.438309000E+00  3.366707335E-01
  3.222862000E+00  9.657630101E-02
  1.253877000E+00  2.144520022E-03
  4.951550000E-01  1.194350012E-03
  1.916650000E-01  5.390200056E-04
  6.708300000E-02  2.103400022E-04
   s  14
  1.053749500E+05 -2.815000008E-05
  1.567924000E+04 -1.163000003E-04
  3.534544700E+03 -4.909200013E-04
  9.873651600E+02 -1.946160005E-03
  3.159787500E+02 -7.005300019E-03
  1.116542800E+02 -2.167814006E-02
  4.269945100E+01 -5.641213015E-02
  1.739559600E+01 -1.127053003E-01
  7.438309000E+00 -1.589119704E-01
  3.222862000E+00 -3.355083009E-02
  1.253877000E+00  3.531902810E-01
  4.951550000E-01  5.534199315E-01
  1.916650000E-01  2.301839106E-01
  6.708300000E-02  1.127267003E-02
   p   9
  2.000000000E+02  9.173000030E-04
  4.653336700E+01  7.377140024E-03
  1.462180900E+01  3.483515011E-02
  5.313064000E+00  1.144397004E-01
  2.102525000E+00  2.554966408E-01
  8.502230000E-01  3.722557412E-01
  3.375970000E-01  3.323314911E-01
  1.288920000E-01  1.400847905E-01
  4.511200000E-02  2.395784008E-02
 
[MO]
Sym=     1a  
Ene=   -20.3230
Spin= Alpha
Occup=    1.00000
   1        -0.00014802
   2        -0.00063319
   3         0.00000000
   4         0.00000000
   5        -0.00072508
   6         1.00005100
   7         0.00216968
   8        -0.00000000
   9         0.00000000
  10        -0.00015747
Sym=     1a  
Ene=   -20.2820
Spin= Beta
Occup=    1.00000
   1        -0.00009191
   2        -0.00030692
   3         0.00000000
   4         0.00000000
   5        -0.00032312
   6         1.00002412
   7        -0.00017899
   8        -0.00000000
   9         0.00000000
  10        -0.00019028
Sym=     2a  
Ene=    -2.5128
Spin= Alpha
Occup=    1.00000
   1         0.99921004
   2         0.01212646
   3        -0.00000000
   4        -0.00000000
   5        -0.00205982
   6        -0.00035700
   7         0.00787845
   8         0.00000000
   9        -0.00000000
  10        -0.00497586
Sym=     2a  
Ene=    -2.5094
Spin= Beta
Occup=    1.00000
   1         0.99954174
   2         0.01285758
   3        -0.00000000
   4        -0.00000000
   5        -0.00206322
   6        -0.00034836
   7         0.00615926
   8        -0.00000000
   9         0.00000000
  10        -0.00180415
Sym=     3a  
Ene=    -1.1343
Spin= Alpha
Occup=    1.00000
   1        -0.04216327
   2         0.02277115
   3         0.00000000
   4        -0.00000000
   5         0.02936702
   6        -0.00371469
   7         0.98135030
   8        -0.00000000
   9         0.00000000
  10        -0.02188632
Sym=     3a  
Ene=    -0.9583
Spin= Beta
Occup=    1.00000
   1        -0.04418924
   2         0.04706132
   3         0.00000000
   4        -0.00000000
   5         0.05673488
   6        -0.00363941
   7         0.95929638
   8        -0.00000000
   9         0.00000000
  10        -0.06995424
Sym=     4a  
Ene=    -0.4737
Spin= Alpha
Occup=    1.00000
   1         0.08489369
   2        -0.05596698
   3        -0.00000000
   4         0.00000000
   5        -0.07471498
   6         0.00505822
   7         0.07245434
   8        -0.00000000
   9         0.00000000
  10         0.98799429
Sym=     4a  
Ene=    -0.2944
Spin= Beta
Occup=    1.00000
   1        -0.00000000
   2         0.00000000
   3         0.11738917
   4         0.21170500
   5         0.00000000
   6        -0.00000000
   7        -0.00000000
   8         0.44733607
   9         0.80674631
  10        -0.00000000
Sym=     5a  
Ene=    -0.3706
Spin= Alpha
Occup=    1.00000
   1         0.00000000
   2        -0.00000000
   3         0.13018955
   4        -0.01823915
   5         0.00000000
   6        -0.00000000
   7         0.00000000
   8         0.95572063
   9        -0.13389347
  10         0.00000000
Sym=     5a  
Ene=    -0.2944
Spin= Beta
Occup=    1.00000
   1        -0.00000000
   2         0.00000000
   3        -0.21170500
   4         0.11738917
   5        -0.00000000
   6         0.00000000
   7        -0.00000000
   8        -0.80674631
   9         0.44733607
  10        -0.00000000
Sym=     6a  
Ene=    -0.3706
Spin= Alpha
Occup=    1.00000
   1        -0.00000000
   2        -0.00000000
   3         0.01823915
   4         0.13018955
   5        -0.00000000
   6        -0.00000000
   7        -0.00000000
   8         0.13389347
   9         0.95572063
  10        -0.00000000
Sym=     6a  
Ene=    -0.0042
Spin= Beta
Occup=    0.00000
   1         0.01220712
   2        -0.85366678
   3         0.00000000
   4         0.00000000
   5         0.51734844
   6         0.00227961
   7         0.06339254
   8        -0.00000000
   9         0.00000000
  10         0.02592603
Sym=     7a  
Ene=     0.0008
Spin= Alpha
Occup=    0.00000
   1         0.00266198
   2        -0.84378524
   3         0.00000000
   4         0.00000000
   5         0.54435087
   6         0.00067531
   7         0.03478724
   8        -0.00000000
   9        -0.00000000
  10        -0.09050856
Sym=     7a  
Ene=     0.0968
Spin= Beta
Occup=    0.00000
   1         0.00000000
   2        -0.00000000
   3        -0.99091177
   4        -0.04761658
   5         0.00000000
   6         0.00000000
   7         0.00000000
   8         0.43747183
   9         0.02102197
  10         0.00000000
Sym=     8a  
Ene=     0.0888
Spin= Alpha
Occup=    0.00000
   1         0.00000000
   2         0.00000000
   3         1.01265000
   4         0.00553977
   5        -0.00000000
   6        -0.00000000
   7        -0.00000000
   8        -0.33382626
   9        -0.00182622
  10         0.00000000
Sym=     8a  
Ene=     0.0968
Spin= Beta
Occup=    0.00000
   1         0.00000000
   2        -0.00000000
   3        -0.04761658
   4         0.99091177
   5        -0.00000000
   6         0.00000000
   7         0.00000000
   8         0.02102197
   9        -0.43747183
  10         0.00000000
Sym=     9a  
Ene=     0.0888
Spin= Alpha
Occup=    0.00000
   1        -0.00000000
   2        -0.00000000
   3        -0.00553977
   4         1.01265000
   5        -0.00000000
   6         0.00000000
   7         0.00000000
   8         0.00182622
   9        -0.33382626
  10         0.00000000
Sym=     9a  
Ene=     0.1953
Spin= Beta
Occup=    0.00000
   1         0.00289926
   2        -0.55799089
   3         0.00000000
   4        -0.00000000
   5        -0.93030252
   6         0.05964109
   7         0.61512745
   8        -0.00000000
   9         0.00000000
  10         0.21491979
Sym=    10a  
Ene=     0.2063
Spin= Alpha
Occup=    0.00000
   1         0.03269461
   2         0.65175684
   3        -0.00000000
   4         0.00000000
   5         0.95528250
   6        -0.06306677
   7        -0.59724529
   8         0.00000000
   9        -0.00000000
  10         0.22169267
Sym=    10a  
Ene=     0.3557
Spin= Beta
Occup=    0.00000
   1         0.08536757
   2         0.31317376
   3         0.00000000
   4        -0.00000000
   5         0.28106344
   6        -0.02226037
   7        -0.15358711
   8        -0.00000000
   9         0.00000000
  10         0.99106831
