[Molden Format]
[N_Atoms]
                     2
[Atoms] (AU)
LI1         1      3           0.00000000      0.00000000      0.00000000
O2          2      8           0.00000000      0.00000000      3.40150702
[Charge] (Mulliken)
  0.658825754704603     
 -0.658825754704626     
[GTO] (AU)
   1
   s  14
  9.497934400E+03  9.668999974E-05
  1.416811200E+03  6.087099984E-04
  3.214599400E+02  3.101519992E-03
  9.112416300E+01  1.266904997E-02
  2.999989100E+01  4.248012989E-02
  1.101763100E+01  1.150183297E-01
  4.372801000E+00  2.398650094E-01
  1.831256000E+00  3.584300090E-01
  8.022610000E-01  3.048527792E-01
  3.626480000E-01  8.824261976E-02
  1.139950000E-01 -8.445899977E-04
  5.123700000E-02 -7.943959979E-03
  2.246800000E-02 -3.764419990E-03
  7.860000000E-03 -8.868999976E-05
   s  14
  9.497934400E+03 -1.244999993E-05
  1.416811200E+03 -7.838999954E-05
  3.214599400E+02 -4.007099976E-04
  9.112416300E+01 -1.645249990E-03
  2.999989100E+01 -5.634599967E-03
  1.101763100E+01 -1.590780991E-02
  4.372801000E+00 -3.612581979E-02
  1.831256000E+00 -6.459927962E-02
  8.022610000E-01 -1.008321794E-01
  3.626480000E-01 -9.757613942E-02
  1.139950000E-01  2.301215886E-01
  5.123700000E-02  6.102389764E-01
  2.246800000E-02  2.849406083E-01
  7.860000000E-03  4.026899976E-03
   p   9
  1.311950400E+01  1.524940000E-03
  3.077424200E+00  8.314830000E-03
  1.098800500E+00  1.933203000E-02
  4.357784000E-01  4.934293000E-02
  1.802432000E-01  1.623554000E-01
  7.613330000E-02  3.847505400E-01
  3.254650000E-02  4.336100400E-01
  1.401820000E-02  1.287005900E-01
  4.906400000E-03 -1.018520000E-03
 
   2
   s  14
  1.053749500E+05  1.238600013E-04
  1.567924000E+04  5.120100053E-04
  3.534544700E+03  2.152910022E-03
  9.873651600E+02  8.528440089E-03
  3.159787500E+02  3.018049031E-02
  1.116542800E+02  9.099702095E-02
  4.269945100E+01  2.177936423E-01
  1.739559600E+01  3.686245738E-01
  7.438309000E+00  3.366707335E-01
  3.222862000E+00  9.657630101E-02
  1.253877000E+00  2.144520022E-03
  4.951550000E-01  1.194350012E-03
  1.916650000E-01  5.390200056E-04
  6.708300000E-02  2.103400022E-04
   s  14
  1.053749500E+05 -2.815000008E-05
  1.567924000E+04 -1.163000003E-04
  3.534544700E+03 -4.909200013E-04
  9.873651600E+02 -1.946160005E-03
  3.159787500E+02 -7.005300019E-03
  1.116542800E+02 -2.167814006E-02
  4.269945100E+01 -5.641213015E-02
  1.739559600E+01 -1.127053003E-01
  7.438309000E+00 -1.589119704E-01
  3.222862000E+00 -3.355083009E-02
  1.253877000E+00  3.531902810E-01
  4.951550000E-01  5.534199315E-01
  1.916650000E-01  2.301839106E-01
  6.708300000E-02  1.127267003E-02
   p   9
  2.000000000E+02  9.173000030E-04
  4.653336700E+01  7.377140024E-03
  1.462180900E+01  3.483515011E-02
  5.313064000E+00  1.144397004E-01
  2.102525000E+00  2.554966408E-01
  8.502230000E-01  3.722557412E-01
  3.375970000E-01  3.323314911E-01
  1.288920000E-01  1.400847905E-01
  4.511200000E-02  2.395784008E-02
 
[MO]
Sym=     1a  
Ene=   -20.2620
Spin= Alpha
Occup=    1.00000
   1        -0.00013254
   2        -0.00057307
   3        -0.00000000
   4        -0.00000000
   5        -0.00058877
   6         1.00004412
   7         0.00113620
   8        -0.00000000
   9         0.00000000
  10        -0.00033277
Sym=     1a  
Ene=   -20.2620
Spin= Beta
Occup=    1.00000
   1        -0.00013254
   2        -0.00057307
   3        -0.00000000
   4        -0.00000000
   5        -0.00058877
   6         1.00004412
   7         0.00113620
   8        -0.00000000
   9         0.00000000
  10        -0.00033277
Sym=     2a  
Ene=    -2.4845
Spin= Alpha
Occup=    1.00000
   1         0.99941697
   2         0.01246705
   3         0.00000000
   4        -0.00000000
   5        -0.00282596
   6        -0.00032132
   7         0.00728588
   8        -0.00000000
   9        -0.00000000
  10        -0.00281585
Sym=     2a  
Ene=    -2.4845
Spin= Beta
Occup=    1.00000
   1         0.99941697
   2         0.01246705
   3         0.00000000
   4        -0.00000000
   5        -0.00282596
   6        -0.00032132
   7         0.00728588
   8        -0.00000000
   9        -0.00000000
  10        -0.00281585
Sym=     3a  
Ene=    -1.0258
Spin= Alpha
Occup=    1.00000
   1        -0.04579594
   2         0.03972993
   3         0.00000000
   4        -0.00000000
   5         0.04705223
   6        -0.00409055
   7         0.96528434
   8        -0.00000000
   9        -0.00000000
  10        -0.07866317
Sym=     3a  
Ene=    -1.0258
Spin= Beta
Occup=    1.00000
   1        -0.04579594
   2         0.03972993
   3         0.00000000
   4        -0.00000000
   5         0.04705223
   6        -0.00409055
   7         0.96528434
   8        -0.00000000
   9        -0.00000000
  10        -0.07866317
Sym=     4a  
Ene=    -0.3054
Spin= Alpha
Occup=    1.00000
   1         0.00000000
   2        -0.00000000
   3         0.20950161
   4         0.05505293
   5        -0.00000000
   6         0.00000000
   7         0.00000000
   8         0.90272379
   9         0.23721818
  10         0.00000000
Sym=     4a  
Ene=    -0.3054
Spin= Beta
Occup=    1.00000
   1         0.00000000
   2        -0.00000000
   3         0.20950161
   4         0.05505293
   5        -0.00000000
   6         0.00000000
   7         0.00000000
   8         0.90272379
   9         0.23721818
  10         0.00000000
Sym=     5a  
Ene=    -0.0404
Spin= Alpha
Occup=    1.00000
   1         0.00000000
   2         0.00000000
   3        -0.02407939
   4         0.09163312
   5         0.00000000
   6        -0.00000000
   7         0.00000000
   8        -0.24817884
   9         0.94443411
  10         0.00000000
Sym=     5a  
Ene=    -0.0404
Spin= Beta
Occup=    0.00000
   1         0.00000000
   2         0.00000000
   3        -0.02407939
   4         0.09163312
   5         0.00000000
   6        -0.00000000
   7         0.00000000
   8        -0.24817884
   9         0.94443411
  10         0.00000000
Sym=     6a  
Ene=    -0.0032
Spin= Alpha
Occup=    1.00000
   1        -0.07842705
   2         0.13356924
   3         0.00000000
   4         0.00000000
   5         0.08648987
   6        -0.00811738
   7        -0.16342181
   8        -0.00000000
   9         0.00000000
  10        -0.96630068
Sym=     6a  
Ene=    -0.0032
Spin= Beta
Occup=    1.00000
   1        -0.07842705
   2         0.13356924
   3         0.00000000
   4         0.00000000
   5         0.08648987
   6        -0.00811738
   7        -0.16342181
   8        -0.00000000
   9         0.00000000
  10        -0.96630068
Sym=     7a  
Ene=     0.0030
Spin= Alpha
Occup=    0.00000
   1         0.00101169
   2         0.83245629
   3        -0.00000000
   4        -0.00000000
   5        -0.55752259
   6         0.00030368
   7        -0.02454815
   8         0.00000000
   9        -0.00000000
  10         0.14447392
Sym=     7a  
Ene=     0.0030
Spin= Beta
Occup=    0.00000
   1         0.00101169
   2         0.83245629
   3        -0.00000000
   4        -0.00000000
   5        -0.55752259
   6         0.00030368
   7        -0.02454815
   8         0.00000000
   9        -0.00000000
  10         0.14447392
Sym=     8a  
Ene=     0.0980
Spin= Alpha
Occup=    0.00000
   1         0.00000000
   2        -0.00000000
   3        -0.25841090
   4         0.98337178
   5        -0.00000000
   6         0.00000000
   7         0.00000000
   8         0.07591623
   9        -0.28889602
  10         0.00000000
Sym=     8a  
Ene=     0.0980
Spin= Beta
Occup=    0.00000
   1         0.00000000
   2        -0.00000000
   3        -0.25841090
   4         0.98337178
   5        -0.00000000
   6         0.00000000
   7         0.00000000
   8         0.07591623
   9        -0.28889602
  10         0.00000000
Sym=     9a  
Ene=     0.0980
Spin= Alpha
Occup=    0.00000
   1        -0.00000000
   2         0.00000000
   3         0.96515582
   4         0.25362410
   5        -0.00000000
   6        -0.00000000
   7        -0.00000000
   8        -0.40063256
   9        -0.10527841
  10         0.00000000
Sym=     9a  
Ene=     0.0980
Spin= Beta
Occup=    0.00000
   1        -0.00000000
   2         0.00000000
   3         0.96515582
   4         0.25362410
   5        -0.00000000
   6        -0.00000000
   7        -0.00000000
   8        -0.40063256
   9        -0.10527841
  10         0.00000000
Sym=    10a  
Ene=     0.2186
Spin= Alpha
Occup=    0.00000
   1        -0.03739015
   2        -0.65421735
   3         0.00000000
   4        -0.00000000
   5        -0.94593756
   6         0.06283569
   7         0.60592027
   8        -0.00000000
   9         0.00000000
  10        -0.27050009
Sym=    10a  
Ene=     0.2186
Spin= Beta
Occup=    0.00000
   1        -0.03739015
   2        -0.65421735
   3         0.00000000
   4        -0.00000000
   5        -0.94593756
   6         0.06283569
   7         0.60592027
   8        -0.00000000
   9         0.00000000
  10        -0.27050009
