[Molden Format]
[N_Atoms]
                     2
[Atoms] (AU)
C1          1      6           0.00000000      0.00000000      0.00000000
N2          2      7           0.00000000      0.00000000      1.51178090
[Charge] (Mulliken)
  0.470327490015696     
 -0.470327490015732     
[GTO] (AU)
   1
   s  14
  5.055750100E+04  1.128874000E-04
  7.524785600E+03  5.295373000E-04
  1.694327600E+03  2.450038300E-03
  4.728227900E+02  1.005398470E-02
  1.517107500E+02  3.545398060E-02
  5.391874600E+01  1.044071086E-01
  2.065931100E+01  2.412894918E-01
  8.383976000E+00  3.834225483E-01
  3.577015000E+00  3.078514393E-01
  1.547118000E+00  6.872442990E-02
  6.130130000E-01  2.224445000E-04
  2.460680000E-01  1.976748900E-03
  9.908700000E-02  2.057859400E-03
  3.468000000E-02  4.182020000E-04
   s  14
  5.055750100E+04 -2.507420000E-05
  7.524785600E+03 -1.175945000E-04
  1.694327600E+03 -5.456275000E-04
  4.728227900E+02 -2.245077100E-03
  1.517107500E+02 -8.043471800E-03
  5.391874600E+01 -2.442588710E-02
  2.065931100E+01 -6.136791180E-02
  8.383976000E+00 -1.177767835E-01
  3.577015000E+00 -1.550487783E-01
  1.547118000E+00 -1.933316860E-02
  6.130130000E-01  3.996930678E-01
  2.460680000E-01  5.589420949E-01
  9.908700000E-02  1.711195023E-01
  3.468000000E-02  7.456244600E-03
   p   9
  8.333315500E+01  1.344656000E-03
  1.955761100E+01  1.023555500E-02
  6.080365000E+00  4.520067100E-02
  2.179317000E+00  1.410756198E-01
  8.651500000E-01  3.047388085E-01
  3.619440000E-01  3.995281011E-01
  1.547400000E-01  2.719163432E-01
  6.542900000E-02  5.857669330E-02
  2.290000000E-02 -1.263813000E-04
 
   2
   s  14
  7.476171500E+04  1.182599996E-04
  1.112365400E+04  5.172899983E-04
  2.512685700E+03  2.266659992E-03
  7.037772900E+02  9.145289970E-03
  2.254787900E+02  3.239342989E-02
  7.961581000E+01  9.770792967E-02
  3.023728300E+01  2.317036792E-01
  1.226362200E+01  3.768898887E-01
  5.265086000E+00  3.177420689E-01
  2.333471000E+00  8.211308973E-02
  9.018560000E-01  3.312089989E-03
  3.583360000E-01  3.720819988E-03
  1.410930000E-01  3.165419989E-03
  4.938300000E-02  4.595799985E-04
   s  14
  7.476171500E+04 -2.707000010E-05
  1.112365400E+04 -1.183700004E-04
  2.512685700E+03 -5.203800020E-04
  7.037772900E+02 -2.102930008E-03
  2.254787900E+02 -7.568200028E-03
  7.961581000E+01 -2.346767009E-02
  3.023728300E+01 -6.042901023E-02
  1.226362200E+01 -1.170549104E-01
  5.265086000E+00 -1.555321506E-01
  2.333471000E+00 -2.468935009E-02
  9.018560000E-01  3.625054514E-01
  3.583360000E-01  5.550845021E-01
  1.410930000E-01  2.148376908E-01
  4.938300000E-02  8.983850034E-03
   p   9
  1.266665700E+02  1.233630000E-03
  2.983738900E+01  9.493409996E-03
  9.394038000E+00  4.293961998E-02
  3.405104000E+00  1.362925399E-01
  1.350000000E+00  2.921362499E-01
  5.576960000E-01  3.887887598E-01
  2.324490000E-01  2.946801399E-01
  9.426400000E-02  8.012875997E-02
  3.299200000E-02  5.405199998E-04
 
[MO]
Sym=     1a  
Ene=   -15.8520
Spin= Alpha
Occup=    1.00000
   1        -0.00029172
   2        -0.01279830
   3         0.00000000
   4         0.00000000
   5        -0.00410603
   6         1.00232525
   7         0.00722431
   8         0.00000000
   9        -0.00000000
  10        -0.01192327
Sym=     1a  
Ene=   -15.8540
Spin= Beta
Occup=    1.00000
   1        -0.00070926
   2        -0.01339437
   3         0.00000000
   4         0.00000000
   5        -0.00464517
   6         1.00250500
   7         0.00831169
   8         0.00000000
   9        -0.00000000
  10        -0.01221996
Sym=     2a  
Ene=   -11.7230
Spin= Alpha
Occup=    1.00000
   1         0.99818556
   2        -0.00277235
   3        -0.00000000
   4        -0.00000000
   5         0.00533139
   6        -0.01082377
   7         0.00173943
   8        -0.00000000
   9        -0.00000000
  10        -0.00692230
Sym=     2a  
Ene=   -11.6880
Spin= Beta
Occup=    1.00000
   1         0.99859490
   2        -0.00306753
   3        -0.00000000
   4         0.00000000
   5         0.00689571
   6        -0.01089347
   7         0.00035866
   8        -0.00000000
   9        -0.00000000
  10        -0.00599804
Sym=     3a  
Ene=    -1.5541
Spin= Alpha
Occup=    1.00000
   1        -0.18739749
   2         0.20894058
   3        -0.00000000
   4        -0.00000000
   5         0.27986256
   6        -0.07691840
   7         0.56482170
   8         0.00000000
   9         0.00000000
  10        -0.44397486
Sym=     3a  
Ene=    -1.5397
Spin= Beta
Occup=    1.00000
   1        -0.18804978
   2         0.17889268
   3        -0.00000000
   4        -0.00000000
   5         0.29129060
   6        -0.07552104
   7         0.58993041
   8         0.00000000
   9        -0.00000000
  10        -0.43407661
Sym=     4a  
Ene=    -0.7956
Spin= Alpha
Occup=    1.00000
   1         0.00000000
   2         0.00000000
   3        -0.02203372
   4         0.60047312
   5        -0.00000000
   6         0.00000000
   7        -0.00000000
   8        -0.01958313
   9         0.53368840
  10         0.00000000
Sym=     4a  
Ene=    -0.7734
Spin= Beta
Occup=    1.00000
   1         0.00000000
   2         0.00000000
   3        -0.03034625
   4         0.51164188
   5        -0.00000000
   6         0.00000000
   7         0.00000000
   8        -0.03679394
   9         0.62035077
  10         0.00000000
Sym=     5a  
Ene=    -0.7956
Spin= Alpha
Occup=    1.00000
   1        -0.00000000
   2        -0.00000000
   3         0.60047312
   4         0.02203372
   5         0.00000000
   6        -0.00000000
   7         0.00000000
   8         0.53368840
   9         0.01958313
  10        -0.00000000
Sym=     5a  
Ene=    -0.7734
Spin= Beta
Occup=    1.00000
   1         0.00000000
   2        -0.00000000
   3         0.51164188
   4         0.03034625
   5         0.00000000
   6         0.00000000
   7         0.00000000
   8         0.62035077
   9         0.03679394
  10         0.00000000
Sym=     6a  
Ene=    -0.7806
Spin= Alpha
Occup=    1.00000
   1        -0.06082189
   2        -0.77539113
   3        -0.00000000
   4         0.00000000
   5         0.71151016
   6        -0.03853016
   7         0.13789131
   8        -0.00000000
   9         0.00000000
  10        -0.16248285
Sym=     6a  
Ene=    -0.6338
Spin= Beta
Occup=    1.00000
   1         0.08533549
   2        -0.11450975
   3        -0.00000000
   4        -0.00000000
   5        -0.16860440
   6         0.05202902
   7         0.67305731
   8        -0.00000000
   9        -0.00000000
  10         0.81302247
Sym=     7a  
Ene=    -0.6270
Spin= Alpha
Occup=    1.00000
   1         0.09075596
   2        -0.02307999
   3        -0.00000000
   4        -0.00000000
   5        -0.22341324
   6         0.05134951
   7         0.66395333
   8        -0.00000000
   9        -0.00000000
  10         0.82807574
Sym=     7a  
Ene=    -0.0629
Spin= Beta
Occup=    0.00000
   1        -0.09282968
   2        -0.87334217
   3         0.00000000
   4         0.00000000
   5         0.65577213
   6        -0.01633972
   7         0.16360364
   8        -0.00000000
   9         0.00000000
  10        -0.28029794
Sym=     8a  
Ene=     0.3863
Spin= Alpha
Occup=    0.00000
   1         0.00000000
   2         0.00000000
   3         0.03935093
   4        -1.03621930
   5        -0.00000000
   6        -0.00000000
   7        -0.00000000
   8        -0.04071510
   9         1.07214171
  10         0.00000000
Sym=     8a  
Ene=     0.4337
Spin= Beta
Occup=    0.00000
   1         0.00000000
   2         0.00000000
   3         0.01780701
   4        -1.08320680
   5        -0.00000000
   6        -0.00000000
   7        -0.00000000
   8        -0.01684416
   9         1.02463642
  10         0.00000000
Sym=     9a  
Ene=     0.3863
Spin= Alpha
Occup=    0.00000
   1         0.00000000
   2         0.00000000
   3        -1.03621930
   4        -0.03935093
   5         0.00000000
   6        -0.00000000
   7        -0.00000000
   8         1.07214171
   9         0.04071510
  10         0.00000000
Sym=     9a  
Ene=     0.4337
Spin= Beta
Occup=    0.00000
   1         0.00000000
   2        -0.00000000
   3        -1.08320680
   4        -0.01780701
   5         0.00000000
   6        -0.00000000
   7        -0.00000000
   8         1.02463642
   9         0.01684416
  10         0.00000000
Sym=    10a  
Ene=     1.9185
Spin= Alpha
Occup=    0.00000
   1         0.83472464
   2         3.04685434
   3        -0.00000000
   4         0.00000000
   5         2.02749024
   6        -0.76163831
   7        -3.27152503
   8        -0.00000000
   9         0.00000000
  10         1.55827830
Sym=    10a  
Ene=     1.9666
Spin= Beta
Occup=    0.00000
   1         0.83170848
   2         3.02007991
   3         0.00000000
   4         0.00000000
   5         2.04984422
   6        -0.76229350
   7        -3.26403791
   8        -0.00000000
   9        -0.00000000
  10         1.55224510
