[Molden Format]
[N_Atoms]
                     2
[Atoms] (AU)
B1          1      5           0.00000000      0.00000000      0.00000000
LI2         2      3           0.00000000      0.00000000      4.72431531
[Charge] (Mulliken)
  0.940822532302566     
   1.05917746769743     
[GTO] (AU)
   1
   s  14
  3.336021700E+04  1.039699991E-04
  4.972095200E+03  5.254399956E-04
  1.125641700E+03  2.509059979E-03
  3.164913600E+02  1.031887991E-02
  1.020072600E+02  3.636632969E-02
  3.629587300E+01  1.064607991E-01
  1.397141000E+01  2.403999880E-01
  5.741156000E+00  3.748581168E-01
  2.494268000E+00  3.100066974E-01
  1.114202000E+00  7.922455933E-02
  4.215490000E-01 -4.947589958E-03
  1.696330000E-01 -7.737119935E-03
  6.853500000E-02 -1.501079987E-03
  2.398700000E-02 -1.333299989E-04
   s  14
  3.336021700E+04 -2.030000008E-05
  4.972095200E+03 -1.025700004E-04
  1.125641700E+03 -4.911300020E-04
  3.164913600E+02 -2.026570008E-03
  1.020072600E+02 -7.261010030E-03
  3.629587300E+01 -2.197722009E-02
  1.397141000E+01 -5.408428022E-02
  5.741156000E+00 -1.022402604E-01
  2.494268000E+00 -1.423595206E-01
  1.114202000E+00 -4.658690019E-02
  4.215490000E-01  3.799402916E-01
  1.696330000E-01  5.890463624E-01
  6.853500000E-02  1.749075107E-01
  2.398700000E-02 -1.142030005E-03
   p   9
  5.500000000E+01  1.229800005E-03
  1.336610100E+01  8.827380035E-03
  4.135394000E+00  3.843340015E-02
  1.481256000E+00  1.150031805E-01
  6.021360000E-01  2.733674011E-01
  2.556360000E-01  4.061972116E-01
  1.111510000E-01  3.014967912E-01
  4.764800000E-02  7.684809030E-02
  1.667700000E-02 -8.170000032E-06
 
   2
   s  14
  9.497934400E+03  9.668999974E-05
  1.416811200E+03  6.087099984E-04
  3.214599400E+02  3.101519992E-03
  9.112416300E+01  1.266904997E-02
  2.999989100E+01  4.248012989E-02
  1.101763100E+01  1.150183297E-01
  4.372801000E+00  2.398650094E-01
  1.831256000E+00  3.584300090E-01
  8.022610000E-01  3.048527792E-01
  3.626480000E-01  8.824261976E-02
  1.139950000E-01 -8.445899977E-04
  5.123700000E-02 -7.943959979E-03
  2.246800000E-02 -3.764419990E-03
  7.860000000E-03 -8.868999976E-05
   s  14
  9.497934400E+03 -1.244999993E-05
  1.416811200E+03 -7.838999954E-05
  3.214599400E+02 -4.007099976E-04
  9.112416300E+01 -1.645249990E-03
  2.999989100E+01 -5.634599967E-03
  1.101763100E+01 -1.590780991E-02
  4.372801000E+00 -3.612581979E-02
  1.831256000E+00 -6.459927962E-02
  8.022610000E-01 -1.008321794E-01
  3.626480000E-01 -9.757613942E-02
  1.139950000E-01  2.301215886E-01
  5.123700000E-02  6.102389764E-01
  2.246800000E-02  2.849406083E-01
  7.860000000E-03  4.026899976E-03
   p   9
  1.311950400E+01  1.524940000E-03
  3.077424200E+00  8.314830000E-03
  1.098800500E+00  1.933203000E-02
  4.357784000E-01  4.934293000E-02
  1.802432000E-01  1.623554000E-01
  7.613330000E-02  3.847505400E-01
  3.254650000E-02  4.336100400E-01
  1.401820000E-02  1.287005900E-01
  4.906400000E-03 -1.018520000E-03
 
[MO]
Sym=     1a  
Ene=    -8.4395
Spin= Alpha
Occup=    2.00000
   1         0.99994470
   2         0.00034939
   3         0.00000000
   4        -0.00000000
   5        -0.00196173
   6         0.00040343
   7         0.00066553
   8         0.00000000
   9         0.00000000
  10        -0.00056170
Sym=     2a  
Ene=    -2.9870
Spin= Alpha
Occup=    2.00000
   1        -0.00014475
   2        -0.00038857
   3         0.00000000
   4        -0.00000000
   5         0.00048352
   6         0.99990656
   7         0.01198965
   8        -0.00000000
   9        -0.00000000
  10        -0.00190991
Sym=     3a  
Ene=    -1.0828
Spin= Alpha
Occup=    1.93598
   1         0.00260785
   2         1.02399446
   3         0.00000000
   4         0.00000000
   5         0.12585220
   6        -0.03411140
   7        -0.04232330
   8        -0.00000000
   9        -0.00000000
  10         0.03323437
Sym=     4a  
Ene=    -0.0000
Spin= Alpha
Occup=    0.06402
   1         0.00000000
   2         0.00000000
   3         0.96316612
   4        -0.32246140
   5        -0.00000000
   6        -0.00000000
   7        -0.00000000
   8        -0.07259702
   9         0.02430498
  10         0.00000000
Sym=     5a  
Ene=    -0.5095
Spin= Alpha
Occup=    0.00000
   1        -0.01103511
   2        -0.21805846
   3         0.00000000
   4         0.00000000
   5         0.91952534
   6        -0.05367819
   7         0.16289757
   8         0.00000000
   9         0.00000000
  10        -0.12956621
Sym=     6a  
Ene=    -0.4861
Spin= Alpha
Occup=    0.00000
   1         0.00000000
   2        -0.00000000
   3         0.30990863
   4         0.92567201
   5        -0.00000000
   6         0.00000000
   7        -0.00000000
   8         0.02689354
   9         0.08032883
  10         0.00000000
Sym=     7a  
Ene=    -0.3217
Spin= Alpha
Occup=    0.00000
   1        -0.03385494
   2        -0.31450807
   3         0.00000000
   4         0.00000000
   5        -0.38466626
   6         0.01917102
   7         1.08944112
   8         0.00000000
   9        -0.00000000
  10         0.02818438
Sym=     8a  
Ene=    -0.2756
Spin= Alpha
Occup=    0.00000
   1         0.00000000
   2         0.00000000
   3        -0.16470931
   4         0.05514354
   5         0.00000000
   6         0.00000000
   7        -0.00000000
   8         0.97444744
   9        -0.32623831
  10         0.00000000
Sym=     9a  
Ene=    -0.2705
Spin= Alpha
Occup=    0.00000
   1         0.00000000
   2         0.00000000
   3        -0.10477980
   4        -0.31296879
   5        -0.00000000
   6         0.00000000
   7         0.00000000
   8         0.32603513
   9         0.97384055
  10         0.00000000
Sym=    10a  
Ene=    -0.2241
Spin= Alpha
Occup=    0.00000
   1        -0.08014981
   2        -0.65295729
   3        -0.00000000
   4        -0.00000000
   5        -0.39880815
   6         0.03589952
   7         0.32057917
   8         0.00000000
   9         0.00000000
  10        -1.20624544
