[Molden Format]
[N_Atoms]
                     2
[Atoms] (AU)
LI1         1      3           0.00000000      0.00000000      0.00000000
N2          2      7           0.00000000      0.00000000      4.34637009
[Charge] (Mulliken)
  0.400574906232495     
 -0.400574906232529     
[GTO] (AU)
   1
   s  14
  9.497934400E+03  9.668999974E-05
  1.416811200E+03  6.087099984E-04
  3.214599400E+02  3.101519992E-03
  9.112416300E+01  1.266904997E-02
  2.999989100E+01  4.248012989E-02
  1.101763100E+01  1.150183297E-01
  4.372801000E+00  2.398650094E-01
  1.831256000E+00  3.584300090E-01
  8.022610000E-01  3.048527792E-01
  3.626480000E-01  8.824261976E-02
  1.139950000E-01 -8.445899977E-04
  5.123700000E-02 -7.943959979E-03
  2.246800000E-02 -3.764419990E-03
  7.860000000E-03 -8.868999976E-05
   s  14
  9.497934400E+03 -1.244999993E-05
  1.416811200E+03 -7.838999954E-05
  3.214599400E+02 -4.007099976E-04
  9.112416300E+01 -1.645249990E-03
  2.999989100E+01 -5.634599967E-03
  1.101763100E+01 -1.590780991E-02
  4.372801000E+00 -3.612581979E-02
  1.831256000E+00 -6.459927962E-02
  8.022610000E-01 -1.008321794E-01
  3.626480000E-01 -9.757613942E-02
  1.139950000E-01  2.301215886E-01
  5.123700000E-02  6.102389764E-01
  2.246800000E-02  2.849406083E-01
  7.860000000E-03  4.026899976E-03
   p   9
  1.311950400E+01  1.524940000E-03
  3.077424200E+00  8.314830000E-03
  1.098800500E+00  1.933203000E-02
  4.357784000E-01  4.934293000E-02
  1.802432000E-01  1.623554000E-01
  7.613330000E-02  3.847505400E-01
  3.254650000E-02  4.336100400E-01
  1.401820000E-02  1.287005900E-01
  4.906400000E-03 -1.018520000E-03
 
   2
   s  14
  7.476171500E+04  1.182599996E-04
  1.112365400E+04  5.172899983E-04
  2.512685700E+03  2.266659992E-03
  7.037772900E+02  9.145289970E-03
  2.254787900E+02  3.239342989E-02
  7.961581000E+01  9.770792967E-02
  3.023728300E+01  2.317036792E-01
  1.226362200E+01  3.768898887E-01
  5.265086000E+00  3.177420689E-01
  2.333471000E+00  8.211308973E-02
  9.018560000E-01  3.312089989E-03
  3.583360000E-01  3.720819988E-03
  1.410930000E-01  3.165419989E-03
  4.938300000E-02  4.595799985E-04
   s  14
  7.476171500E+04 -2.707000010E-05
  1.112365400E+04 -1.183700004E-04
  2.512685700E+03 -5.203800020E-04
  7.037772900E+02 -2.102930008E-03
  2.254787900E+02 -7.568200028E-03
  7.961581000E+01 -2.346767009E-02
  3.023728300E+01 -6.042901023E-02
  1.226362200E+01 -1.170549104E-01
  5.265086000E+00 -1.555321506E-01
  2.333471000E+00 -2.468935009E-02
  9.018560000E-01  3.625054514E-01
  3.583360000E-01  5.550845021E-01
  1.410930000E-01  2.148376908E-01
  4.938300000E-02  8.983850034E-03
   p   9
  1.266665700E+02  1.233630000E-03
  2.983738900E+01  9.493409996E-03
  9.394038000E+00  4.293961998E-02
  3.405104000E+00  1.362925399E-01
  1.350000000E+00  2.921362499E-01
  5.576960000E-01  3.887887598E-01
  2.324490000E-01  2.946801399E-01
  9.426400000E-02  8.012875997E-02
  3.299200000E-02  5.405199998E-04
 
[MO]
Sym=     1a  
Ene=   -15.3150
Spin= Alpha
Occup=    2.00000
   1         0.00006249
   2        -0.00175468
   3        -0.00000000
   4         0.00000000
   5        -0.00204817
   6         0.99995014
   7        -0.01823223
   8        -0.00000001
   9         0.00000000
  10         0.00012759
Sym=     2a  
Ene=    -2.5520
Spin= Alpha
Occup=    2.00000
   1        -0.99992111
   2        -0.01256579
   3        -0.00000000
   4         0.00000000
   5         0.00108707
   6         0.00001555
   7         0.00075143
   8         0.00000000
   9        -0.00000000
  10         0.00028730
Sym=     3a  
Ene=    -0.2364
Spin= Alpha
Occup=    2.00000
   1         0.00000006
   2        -0.00000060
   3         0.30398114
   4         0.00108847
   5        -0.00000030
   6         0.00000003
   7        -0.00000003
   8         0.90967746
   9         0.00325730
  10         0.00000138
Sym=     4a  
Ene=    -0.2364
Spin= Alpha
Occup=    2.00000
   1        -0.00000000
   2         0.00000002
   3        -0.00108847
   4         0.30398114
   5         0.00000001
   6        -0.00000000
   7         0.00000000
   8        -0.00325730
   9         0.90967746
  10        -0.00000005
Sym=     5a  
Ene=    -0.7818
Spin= Alpha
Occup=    1.96933
   1         0.01448529
   2        -0.04662290
   3        -0.00000010
   4         0.00000000
   5        -0.05046957
   6        -0.01597586
   7        -0.96587663
   8        -0.00000037
   9         0.00000001
  10         0.02549556
Sym=     6a  
Ene=    -0.0001
Spin= Alpha
Occup=    0.03067
   1         0.03381288
   2         0.03073634
   3        -0.00000002
   4         0.00000000
   5         0.01090309
   6        -0.00119688
   7         0.02405222
   8        -0.00000153
   9         0.00000005
  10         1.00508288
Sym=     7a  
Ene=    -0.0107
Spin= Alpha
Occup=    0.00000
   1        -0.00912063
   2         0.87780668
   3         0.00000053
   4        -0.00000002
   5        -0.48487483
   6        -0.00190018
   7        -0.05646174
   8         0.00000017
   9        -0.00000001
  10         0.04836408
Sym=     8a  
Ene=     0.0752
Spin= Alpha
Occup=    0.00000
   1         0.00000001
   2         0.00000000
   3        -0.96364357
   4         0.01987099
   5        -0.00000085
   6         0.00000004
   7         0.00000035
   8         0.44023108
   9        -0.00907786
  10         0.00000035
Sym=     9a  
Ene=     0.0752
Spin= Alpha
Occup=    0.00000
   1        -0.00000000
   2        -0.00000000
   3        -0.01987099
   4        -0.96364357
   5         0.00000001
   6        -0.00000000
   7        -0.00000000
   8         0.00907786
   9         0.44023108
  10        -0.00000000
Sym=    10a  
Ene=     0.1669
Spin= Alpha
Occup=    0.00000
   1         0.00829238
   2         0.58611540
   3        -0.00000048
   4         0.00000002
   5         0.98992773
   6        -0.06054941
   7        -0.59137077
   8         0.00000073
   9        -0.00000002
  10         0.18080491
