[Molden Format]
[N_Atoms]
                     2
[Atoms] (AU)
LI1         1      3           0.00000000      0.00000000      0.00000000
N2          2      7           0.00000000      0.00000000      4.34637009
[Charge] (Mulliken)
  0.325219852829535     
 -0.325219852829552     
[GTO] (AU)
   1
   s  14
  9.497934400E+03  9.668999974E-05
  1.416811200E+03  6.087099984E-04
  3.214599400E+02  3.101519992E-03
  9.112416300E+01  1.266904997E-02
  2.999989100E+01  4.248012989E-02
  1.101763100E+01  1.150183297E-01
  4.372801000E+00  2.398650094E-01
  1.831256000E+00  3.584300090E-01
  8.022610000E-01  3.048527792E-01
  3.626480000E-01  8.824261976E-02
  1.139950000E-01 -8.445899977E-04
  5.123700000E-02 -7.943959979E-03
  2.246800000E-02 -3.764419990E-03
  7.860000000E-03 -8.868999976E-05
   s  14
  9.497934400E+03 -1.244999993E-05
  1.416811200E+03 -7.838999954E-05
  3.214599400E+02 -4.007099976E-04
  9.112416300E+01 -1.645249990E-03
  2.999989100E+01 -5.634599967E-03
  1.101763100E+01 -1.590780991E-02
  4.372801000E+00 -3.612581979E-02
  1.831256000E+00 -6.459927962E-02
  8.022610000E-01 -1.008321794E-01
  3.626480000E-01 -9.757613942E-02
  1.139950000E-01  2.301215886E-01
  5.123700000E-02  6.102389764E-01
  2.246800000E-02  2.849406083E-01
  7.860000000E-03  4.026899976E-03
   p   9
  1.311950400E+01  1.524940000E-03
  3.077424200E+00  8.314830000E-03
  1.098800500E+00  1.933203000E-02
  4.357784000E-01  4.934293000E-02
  1.802432000E-01  1.623554000E-01
  7.613330000E-02  3.847505400E-01
  3.254650000E-02  4.336100400E-01
  1.401820000E-02  1.287005900E-01
  4.906400000E-03 -1.018520000E-03
 
   2
   s  14
  7.476171500E+04  1.182599996E-04
  1.112365400E+04  5.172899983E-04
  2.512685700E+03  2.266659992E-03
  7.037772900E+02  9.145289970E-03
  2.254787900E+02  3.239342989E-02
  7.961581000E+01  9.770792967E-02
  3.023728300E+01  2.317036792E-01
  1.226362200E+01  3.768898887E-01
  5.265086000E+00  3.177420689E-01
  2.333471000E+00  8.211308973E-02
  9.018560000E-01  3.312089989E-03
  3.583360000E-01  3.720819988E-03
  1.410930000E-01  3.165419989E-03
  4.938300000E-02  4.595799985E-04
   s  14
  7.476171500E+04 -2.707000010E-05
  1.112365400E+04 -1.183700004E-04
  2.512685700E+03 -5.203800020E-04
  7.037772900E+02 -2.102930008E-03
  2.254787900E+02 -7.568200028E-03
  7.961581000E+01 -2.346767009E-02
  3.023728300E+01 -6.042901023E-02
  1.226362200E+01 -1.170549104E-01
  5.265086000E+00 -1.555321506E-01
  2.333471000E+00 -2.468935009E-02
  9.018560000E-01  3.625054514E-01
  3.583360000E-01  5.550845021E-01
  1.410930000E-01  2.148376908E-01
  4.938300000E-02  8.983850034E-03
   p   9
  1.266665700E+02  1.233630000E-03
  2.983738900E+01  9.493409996E-03
  9.394038000E+00  4.293961998E-02
  3.405104000E+00  1.362925399E-01
  1.350000000E+00  2.921362499E-01
  5.576960000E-01  3.887887598E-01
  2.324490000E-01  2.946801399E-01
  9.426400000E-02  8.012875997E-02
  3.299200000E-02  5.405199998E-04
 
[MO]
Sym=     1a  
Ene=   -15.3480
Spin= Alpha
Occup=    1.00000
   1        -0.00016662
   2        -0.00112407
   3         0.00000000
   4        -0.00000000
   5        -0.00134546
   6         1.00007782
   7        -0.00441402
   8        -0.00000000
   9         0.00000000
  10        -0.00110043
Sym=     1a  
Ene=   -15.3480
Spin= Beta
Occup=    1.00000
   1        -0.00016662
   2        -0.00112407
   3         0.00000000
   4        -0.00000000
   5        -0.00134546
   6         1.00007782
   7        -0.00441402
   8        -0.00000000
   9         0.00000000
  10        -0.00110043
Sym=     2a  
Ene=    -2.4952
Spin= Alpha
Occup=    1.00000
   1         0.99985121
   2         0.01257868
   3        -0.00000000
   4         0.00000000
   5        -0.00212746
   6         0.00003504
   7         0.00195365
   8         0.00000000
   9         0.00000000
  10        -0.00111122
Sym=     2a  
Ene=    -2.4952
Spin= Beta
Occup=    1.00000
   1         0.99985121
   2         0.01257868
   3        -0.00000000
   4         0.00000000
   5        -0.00212746
   6         0.00003504
   7         0.00195365
   8         0.00000000
   9         0.00000000
  10        -0.00111122
Sym=     3a  
Ene=    -0.7968
Spin= Alpha
Occup=    1.00000
   1        -0.01668543
   2         0.04908904
   3        -0.00000000
   4         0.00000000
   5         0.04786655
   6         0.00171257
   7         0.96654223
   8         0.00000000
   9         0.00000000
  10        -0.02165854
Sym=     3a  
Ene=    -0.7968
Spin= Beta
Occup=    1.00000
   1        -0.01668543
   2         0.04908904
   3        -0.00000000
   4         0.00000000
   5         0.04786655
   6         0.00171257
   7         0.96654223
   8         0.00000000
   9         0.00000000
  10        -0.02165854
Sym=     4a  
Ene=    -0.2614
Spin= Alpha
Occup=    1.00000
   1         0.00000000
   2        -0.00000000
   3         0.07924791
   4         0.20972033
   5        -0.00000000
   6         0.00000000
   7         0.00000000
   8         0.33319922
   9         0.88177274
  10         0.00000000
Sym=     4a  
Ene=    -0.2614
Spin= Beta
Occup=    1.00000
   1         0.00000000
   2        -0.00000000
   3         0.07924791
   4         0.20972033
   5        -0.00000000
   6         0.00000000
   7         0.00000000
   8         0.33319922
   9         0.88177274
  10         0.00000000
Sym=     5a  
Ene=    -0.2453
Spin= Alpha
Occup=    1.00000
   1        -0.03099538
   2         0.40762348
   3        -0.00000000
   4        -0.00000000
   5         0.16854889
   6        -0.01951887
   7        -0.22347411
   8        -0.00000000
   9         0.00000000
  10        -0.83793368
Sym=     5a  
Ene=    -0.2453
Spin= Beta
Occup=    1.00000
   1        -0.03099538
   2         0.40762348
   3        -0.00000000
   4        -0.00000000
   5         0.16854889
   6        -0.01951887
   7        -0.22347411
   8        -0.00000000
   9         0.00000000
  10        -0.83793368
Sym=     6a  
Ene=     0.0061
Spin= Alpha
Occup=    0.00000
   1        -0.00173692
   2         0.76898986
   3        -0.00000000
   4         0.00000000
   5        -0.59651784
   6         0.00631285
   7         0.02808617
   8        -0.00000000
   9        -0.00000000
  10         0.27513447
Sym=     6a  
Ene=     0.0061
Spin= Beta
Occup=    0.00000
   1        -0.00173692
   2         0.76898986
   3        -0.00000000
   4         0.00000000
   5        -0.59651784
   6         0.00631285
   7         0.02808617
   8        -0.00000000
   9        -0.00000000
  10         0.27513447
Sym=     7a  
Ene=     0.0505
Spin= Alpha
Occup=    0.00000
   1        -0.00000000
   2         0.00000000
   3         0.90431401
   4        -0.34171699
   5        -0.00000000
   6         0.00000000
   7         0.00000000
   8         0.14185647
   9        -0.05360391
  10         0.00000000
Sym=     7a  
Ene=     0.0505
Spin= Beta
Occup=    0.00000
   1        -0.00000000
   2         0.00000000
   3         0.90431401
   4        -0.34171699
   5        -0.00000000
   6         0.00000000
   7         0.00000000
   8         0.14185647
   9        -0.05360391
  10         0.00000000
Sym=     8a  
Ene=     0.0809
Spin= Alpha
Occup=    0.00000
   1        -0.00000000
   2        -0.00000000
   3         0.34834269
   4         0.92184816
   5         0.00000000
   6        -0.00000000
   7        -0.00000000
   8        -0.12884542
   9        -0.34097432
  10        -0.00000000
Sym=     8a  
Ene=     0.0809
Spin= Beta
Occup=    0.00000
   1        -0.00000000
   2        -0.00000000
   3         0.34834269
   4         0.92184816
   5         0.00000000
   6        -0.00000000
   7        -0.00000000
   8        -0.12884542
   9        -0.34097432
  10        -0.00000000
Sym=     9a  
Ene=     0.2034
Spin= Alpha
Occup=    0.00000
   1         0.02006744
   2         0.59773212
   3         0.00000000
   4        -0.00000000
   5         0.91169740
   6        -0.05698571
   7        -0.54934485
   8         0.00000000
   9         0.00000000
  10         0.51726962
Sym=     9a  
Ene=     0.2034
Spin= Beta
Occup=    0.00000
   1         0.02006744
   2         0.59773212
   3         0.00000000
   4        -0.00000000
   5         0.91169740
   6        -0.05698571
   7        -0.54934485
   8         0.00000000
   9         0.00000000
  10         0.51726962
Sym=    10a  
Ene=     0.2791
Spin= Alpha
Occup=    0.00000
   1        -0.00000000
   2        -0.00000000
   3        -0.27568608
   4         0.10417467
   5        -0.00000000
   6         0.00000000
   7         0.00000000
   8         0.93469962
   9        -0.35319893
  10        -0.00000000
Sym=    10a  
Ene=     0.2791
Spin= Beta
Occup=    0.00000
   1        -0.00000000
   2        -0.00000000
   3        -0.27568608
   4         0.10417467
   5        -0.00000000
   6         0.00000000
   7         0.00000000
   8         0.93469962
   9        -0.35319893
  10        -0.00000000
