[Molden Format]
[N_Atoms]
                     2
[Atoms] (AU)
B1          1      5           0.00000000      0.00000000      0.00000000
B2          2      5           0.00000000      0.00000000      5.10226054
[Charge] (Mulliken)
  3.688120341380774E-003
 -3.688120341402978E-003
[GTO] (AU)
   1
   s  14
  3.336021700E+04  1.039699991E-04
  4.972095200E+03  5.254399956E-04
  1.125641700E+03  2.509059979E-03
  3.164913600E+02  1.031887991E-02
  1.020072600E+02  3.636632969E-02
  3.629587300E+01  1.064607991E-01
  1.397141000E+01  2.403999880E-01
  5.741156000E+00  3.748581168E-01
  2.494268000E+00  3.100066974E-01
  1.114202000E+00  7.922455933E-02
  4.215490000E-01 -4.947589958E-03
  1.696330000E-01 -7.737119935E-03
  6.853500000E-02 -1.501079987E-03
  2.398700000E-02 -1.333299989E-04
   s  14
  3.336021700E+04 -2.030000008E-05
  4.972095200E+03 -1.025700004E-04
  1.125641700E+03 -4.911300020E-04
  3.164913600E+02 -2.026570008E-03
  1.020072600E+02 -7.261010030E-03
  3.629587300E+01 -2.197722009E-02
  1.397141000E+01 -5.408428022E-02
  5.741156000E+00 -1.022402604E-01
  2.494268000E+00 -1.423595206E-01
  1.114202000E+00 -4.658690019E-02
  4.215490000E-01  3.799402916E-01
  1.696330000E-01  5.890463624E-01
  6.853500000E-02  1.749075107E-01
  2.398700000E-02 -1.142030005E-03
   p   9
  5.500000000E+01  1.229800005E-03
  1.336610100E+01  8.827380035E-03
  4.135394000E+00  3.843340015E-02
  1.481256000E+00  1.150031805E-01
  6.021360000E-01  2.733674011E-01
  2.556360000E-01  4.061972116E-01
  1.111510000E-01  3.014967912E-01
  4.764800000E-02  7.684809030E-02
  1.667700000E-02 -8.170000032E-06
 
   2
   s  14
  3.336021700E+04  1.039699991E-04
  4.972095200E+03  5.254399956E-04
  1.125641700E+03  2.509059979E-03
  3.164913600E+02  1.031887991E-02
  1.020072600E+02  3.636632969E-02
  3.629587300E+01  1.064607991E-01
  1.397141000E+01  2.403999880E-01
  5.741156000E+00  3.748581168E-01
  2.494268000E+00  3.100066974E-01
  1.114202000E+00  7.922455933E-02
  4.215490000E-01 -4.947589958E-03
  1.696330000E-01 -7.737119935E-03
  6.853500000E-02 -1.501079987E-03
  2.398700000E-02 -1.333299989E-04
   s  14
  3.336021700E+04 -2.030000008E-05
  4.972095200E+03 -1.025700004E-04
  1.125641700E+03 -4.911300020E-04
  3.164913600E+02 -2.026570008E-03
  1.020072600E+02 -7.261010030E-03
  3.629587300E+01 -2.197722009E-02
  1.397141000E+01 -5.408428022E-02
  5.741156000E+00 -1.022402604E-01
  2.494268000E+00 -1.423595206E-01
  1.114202000E+00 -4.658690019E-02
  4.215490000E-01  3.799402916E-01
  1.696330000E-01  5.890463624E-01
  6.853500000E-02  1.749075107E-01
  2.398700000E-02 -1.142030005E-03
   p   9
  5.500000000E+01  1.229800005E-03
  1.336610100E+01  8.827380035E-03
  4.135394000E+00  3.843340015E-02
  1.481256000E+00  1.150031805E-01
  6.021360000E-01  2.733674011E-01
  2.556360000E-01  4.061972116E-01
  1.111510000E-01  3.014967912E-01
  4.764800000E-02  7.684809030E-02
  1.667700000E-02 -8.170000032E-06
 
[MO]
Sym=     1a  
Ene=    -7.6544
Spin= Alpha
Occup=    2.00000
   1         0.99998068
   2         0.00322480
   3        -0.00000000
   4         0.00000000
   5         0.00032013
   6         0.00645922
   7         0.00130567
   8         0.00000000
   9         0.00000000
  10         0.00087722
Sym=     2a  
Ene=    -7.6505
Spin= Alpha
Occup=    2.00000
   1        -0.00645244
   2        -0.00019195
   3        -0.00000000
   4        -0.00000000
   5        -0.00020887
   6         0.99988382
   7         0.01415482
   8        -0.00000000
   9        -0.00000000
  10        -0.00016095
Sym=     3a  
Ene=    -0.4910
Spin= Alpha
Occup=    2.00000
   1        -0.00656608
   2         0.00698763
   3         0.00000000
   4         0.00000000
   5         0.06656749
   6        -0.01514034
   7         0.98321475
   8         0.00000000
   9        -0.00000000
  10         0.00141421
Sym=     4a  
Ene=    -0.1794
Spin= Alpha
Occup=    2.00000
   1        -0.00000000
   2         0.00000000
   3        -0.08456004
   4         0.66670249
   5        -0.00000000
   6         0.00000000
   7         0.00000000
   8        -0.08551148
   9         0.67420397
  10         0.00000000
Sym=     5a  
Ene=     0.0987
Spin= Alpha
Occup=    0.06795
   1        -0.00000000
   2        -0.00000000
   3         0.99347033
   4         0.12600506
   5        -0.00000000
   6         0.00000000
   7         0.00000000
   8        -0.01639159
   9        -0.00207900
  10         0.00000000
Sym=     6a  
Ene=    -0.0003
Spin= Alpha
Occup=    1.93205
   1         0.00324220
   2        -0.99393056
   3         0.00000000
   4         0.00000000
   5         0.01289720
   6         0.00453209
   7         0.12946978
   8         0.00000000
   9         0.00000000
  10         0.05936680
Sym=     7a  
Ene=     0.0541
Spin= Alpha
Occup=    0.00000
   1         0.00871184
   2         0.15344069
   3        -0.00000000
   4         0.00000000
   5        -0.65047668
   6         0.00873802
   7         0.16428111
   8        -0.00000000
   9        -0.00000000
  10         0.64429610
Sym=     8a  
Ene=     0.0558
Spin= Alpha
Occup=    0.00000
   1         0.00000000
   2         0.00000000
   3         0.09394053
   4        -0.74066175
   5        -0.00000000
   6         0.00000000
   7         0.00000000
   8        -0.09307530
   9         0.73383992
  10         0.00000000
Sym=     9a  
Ene=     0.1158
Spin= Alpha
Occup=    0.00000
   1         0.00000000
   2         0.00000000
   3        -0.07803042
   4        -0.00989685
   5        -0.00000000
   6         0.00000000
   7         0.00000000
   8         0.99639518
   9         0.12637603
  10         0.00000000
Sym=    10a  
Ene=     0.2292
Spin= Alpha
Occup=    0.00000
   1        -0.01350577
   2        -0.23987760
   3        -0.00000000
   4        -0.00000000
   5        -0.82619360
   6         0.01339477
   7         0.24161648
   8         0.00000000
   9         0.00000000
  10        -0.83166628
