[Molden Format]
[N_Atoms]
                     2
[Atoms] (AU)
B1          1      5           0.00000000      0.00000000      0.00000000
B2          2      5           0.00000000      0.00000000      5.10226054
[Charge] (Mulliken)
 -1.634248292248230E-013
  1.589839371263224E-013
[GTO] (AU)
   1
   s  14
  3.336021700E+04  1.039699991E-04
  4.972095200E+03  5.254399956E-04
  1.125641700E+03  2.509059979E-03
  3.164913600E+02  1.031887991E-02
  1.020072600E+02  3.636632969E-02
  3.629587300E+01  1.064607991E-01
  1.397141000E+01  2.403999880E-01
  5.741156000E+00  3.748581168E-01
  2.494268000E+00  3.100066974E-01
  1.114202000E+00  7.922455933E-02
  4.215490000E-01 -4.947589958E-03
  1.696330000E-01 -7.737119935E-03
  6.853500000E-02 -1.501079987E-03
  2.398700000E-02 -1.333299989E-04
   s  14
  3.336021700E+04 -2.030000008E-05
  4.972095200E+03 -1.025700004E-04
  1.125641700E+03 -4.911300020E-04
  3.164913600E+02 -2.026570008E-03
  1.020072600E+02 -7.261010030E-03
  3.629587300E+01 -2.197722009E-02
  1.397141000E+01 -5.408428022E-02
  5.741156000E+00 -1.022402604E-01
  2.494268000E+00 -1.423595206E-01
  1.114202000E+00 -4.658690019E-02
  4.215490000E-01  3.799402916E-01
  1.696330000E-01  5.890463624E-01
  6.853500000E-02  1.749075107E-01
  2.398700000E-02 -1.142030005E-03
   p   9
  5.500000000E+01  1.229800005E-03
  1.336610100E+01  8.827380035E-03
  4.135394000E+00  3.843340015E-02
  1.481256000E+00  1.150031805E-01
  6.021360000E-01  2.733674011E-01
  2.556360000E-01  4.061972116E-01
  1.111510000E-01  3.014967912E-01
  4.764800000E-02  7.684809030E-02
  1.667700000E-02 -8.170000032E-06
 
   2
   s  14
  3.336021700E+04  1.039699991E-04
  4.972095200E+03  5.254399956E-04
  1.125641700E+03  2.509059979E-03
  3.164913600E+02  1.031887991E-02
  1.020072600E+02  3.636632969E-02
  3.629587300E+01  1.064607991E-01
  1.397141000E+01  2.403999880E-01
  5.741156000E+00  3.748581168E-01
  2.494268000E+00  3.100066974E-01
  1.114202000E+00  7.922455933E-02
  4.215490000E-01 -4.947589958E-03
  1.696330000E-01 -7.737119935E-03
  6.853500000E-02 -1.501079987E-03
  2.398700000E-02 -1.333299989E-04
   s  14
  3.336021700E+04 -2.030000008E-05
  4.972095200E+03 -1.025700004E-04
  1.125641700E+03 -4.911300020E-04
  3.164913600E+02 -2.026570008E-03
  1.020072600E+02 -7.261010030E-03
  3.629587300E+01 -2.197722009E-02
  1.397141000E+01 -5.408428022E-02
  5.741156000E+00 -1.022402604E-01
  2.494268000E+00 -1.423595206E-01
  1.114202000E+00 -4.658690019E-02
  4.215490000E-01  3.799402916E-01
  1.696330000E-01  5.890463624E-01
  6.853500000E-02  1.749075107E-01
  2.398700000E-02 -1.142030005E-03
   p   9
  5.500000000E+01  1.229800005E-03
  1.336610100E+01  8.827380035E-03
  4.135394000E+00  3.843340015E-02
  1.481256000E+00  1.150031805E-01
  6.021360000E-01  2.733674011E-01
  2.556360000E-01  4.061972116E-01
  1.111510000E-01  3.014967912E-01
  4.764800000E-02  7.684809030E-02
  1.667700000E-02 -8.170000032E-06
 
[MO]
Sym=     1a  
Ene=    -7.6477
Spin= Alpha
Occup=    1.00000
   1         0.70701275
   2         0.00980342
   3        -0.00000000
   4        -0.00000000
   5         0.00066595
   6         0.70701274
   7         0.00980342
   8         0.00000000
   9         0.00000000
  10        -0.00066595
Sym=     1a  
Ene=    -7.6477
Spin= Beta
Occup=    1.00000
   1         0.70701275
   2         0.00980342
   3        -0.00000000
   4        -0.00000000
   5         0.00066595
   6         0.70701274
   7         0.00980342
   8         0.00000000
   9         0.00000000
  10        -0.00066595
Sym=     2a  
Ene=    -7.6476
Spin= Alpha
Occup=    1.00000
   1        -0.70706505
   2        -0.01017871
   3        -0.00000000
   4        -0.00000000
   5        -0.00086066
   6         0.70706506
   7         0.01017871
   8        -0.00000000
   9         0.00000000
  10        -0.00086066
Sym=     2a  
Ene=    -7.6476
Spin= Beta
Occup=    1.00000
   1        -0.70706505
   2        -0.01017871
   3        -0.00000000
   4        -0.00000000
   5        -0.00086066
   6         0.70706506
   7         0.01017871
   8        -0.00000000
   9         0.00000000
  10        -0.00086066
Sym=     3a  
Ene=    -0.5303
Spin= Alpha
Occup=    1.00000
   1        -0.01519818
   2         0.64150666
   3        -0.00000000
   4        -0.00000000
   5         0.09412853
   6        -0.01519818
   7         0.64150666
   8         0.00000000
   9        -0.00000000
  10        -0.09412853
Sym=     3a  
Ene=    -0.5303
Spin= Beta
Occup=    1.00000
   1        -0.01519818
   2         0.64150666
   3        -0.00000000
   4        -0.00000000
   5         0.09412853
   6        -0.01519818
   7         0.64150666
   8         0.00000000
   9        -0.00000000
  10        -0.09412853
Sym=     4a  
Ene=    -0.4417
Spin= Alpha
Occup=    1.00000
   1         0.00733554
   2        -0.72312297
   3         0.00000000
   4        -0.00000000
   5         0.11397930
   6        -0.00733554
   7         0.72312297
   8         0.00000000
   9        -0.00000000
  10         0.11397930
Sym=     4a  
Ene=    -0.4417
Spin= Beta
Occup=    1.00000
   1         0.00733554
   2        -0.72312297
   3         0.00000000
   4        -0.00000000
   5         0.11397930
   6        -0.00733554
   7         0.72312297
   8         0.00000000
   9        -0.00000000
  10         0.11397930
Sym=     5a  
Ene=    -0.2141
Spin= Alpha
Occup=    1.00000
   1         0.00823476
   2         0.21357155
   3         0.00000000
   4         0.00000000
   5        -0.64176099
   6         0.00823476
   7         0.21357155
   8        -0.00000000
   9         0.00000000
  10         0.64176099
Sym=     5a  
Ene=    -0.2141
Spin= Beta
Occup=    1.00000
   1         0.00823476
   2         0.21357155
   3         0.00000000
   4         0.00000000
   5        -0.64176099
   6         0.00823476
   7         0.21357155
   8        -0.00000000
   9         0.00000000
  10         0.64176099
Sym=     6a  
Ene=     0.0885
Spin= Alpha
Occup=    0.00000
   1        -0.00000000
   2        -0.00000000
   3        -0.38210037
   4         0.55744932
   5         0.00000000
   6        -0.00000000
   7         0.00000000
   8        -0.38210037
   9         0.55744932
  10        -0.00000000
Sym=     6a  
Ene=     0.0885
Spin= Beta
Occup=    0.00000
   1        -0.00000000
   2        -0.00000000
   3        -0.38210037
   4         0.55744932
   5         0.00000000
   6        -0.00000000
   7         0.00000000
   8        -0.38210037
   9         0.55744932
  10        -0.00000000
Sym=     7a  
Ene=     0.0885
Spin= Alpha
Occup=    0.00000
   1        -0.00000000
   2         0.00000000
   3         0.55744932
   4         0.38210037
   5         0.00000000
   6        -0.00000000
   7        -0.00000000
   8         0.55744932
   9         0.38210037
  10        -0.00000000
Sym=     7a  
Ene=     0.0885
Spin= Beta
Occup=    0.00000
   1        -0.00000000
   2         0.00000000
   3         0.55744932
   4         0.38210037
   5         0.00000000
   6        -0.00000000
   7        -0.00000000
   8         0.55744932
   9         0.38210037
  10        -0.00000000
Sym=     8a  
Ene=     0.1493
Spin= Alpha
Occup=    0.00000
   1        -0.00000000
   2         0.00000000
   3         0.39360856
   4        -0.63037221
   5        -0.00000000
   6         0.00000000
   7        -0.00000000
   8        -0.39360856
   9         0.63037221
  10        -0.00000000
Sym=     8a  
Ene=     0.1493
Spin= Beta
Occup=    0.00000
   1        -0.00000000
   2         0.00000000
   3         0.39360856
   4        -0.63037221
   5        -0.00000000
   6         0.00000000
   7        -0.00000000
   8        -0.39360856
   9         0.63037221
  10        -0.00000000
Sym=     9a  
Ene=     0.1493
Spin= Alpha
Occup=    0.00000
   1        -0.00000000
   2        -0.00000000
   3        -0.63037221
   4        -0.39360856
   5        -0.00000000
   6         0.00000000
   7         0.00000000
   8         0.63037221
   9         0.39360856
  10        -0.00000000
Sym=     9a  
Ene=     0.1493
Spin= Beta
Occup=    0.00000
   1        -0.00000000
   2        -0.00000000
   3        -0.63037221
   4        -0.39360856
   5        -0.00000000
   6         0.00000000
   7         0.00000000
   8         0.63037221
   9         0.39360856
  10        -0.00000000
Sym=    10a  
Ene=     0.1626
Spin= Alpha
Occup=    0.00000
   1         0.01242171
   2         0.29798052
   3        -0.00000000
   4        -0.00000000
   5         0.82255922
   6        -0.01242171
   7        -0.29798052
   8         0.00000000
   9         0.00000000
  10         0.82255922
Sym=    10a  
Ene=     0.1626
Spin= Beta
Occup=    0.00000
   1         0.01242171
   2         0.29798052
   3        -0.00000000
   4        -0.00000000
   5         0.82255922
   6        -0.01242171
   7        -0.29798052
   8         0.00000000
   9         0.00000000
  10         0.82255922
