[Molden Format]
[N_Atoms]
                     2
[Atoms] (AU)
F1          1      9           0.00000000      0.00000000      0.00000000
F2          2      9           0.00000000      0.00000000      3.40150702
[Charge] (Mulliken)
  2.184918912462308E-013
 -2.273736754432321E-013
[GTO] (AU)
   1
   s  14
  1.031094600E+05  1.713099991E-04
  1.528100700E+04  7.123999962E-04
  3.441539200E+03  2.990479984E-03
  9.670948300E+02  1.164036994E-02
  3.140353400E+02  3.968642979E-02
  1.134423000E+02  1.128546094E-01
  4.464472700E+01  2.473650687E-01
  1.894287400E+01  3.672702681E-01
  8.532743000E+00  2.896286985E-01
  3.919401000E+00  7.786681959E-02
  1.568157000E+00  4.562139976E-03
  6.232900000E-01  2.468879987E-03
  2.408610000E-01  1.106309994E-03
  8.430100000E-02  1.739699991E-04
   s  14
  1.031094600E+05 -4.044999995E-05
  1.528100700E+04 -1.682299998E-04
  3.441539200E+03 -7.084299991E-04
  9.670948300E+02 -2.767999996E-03
  3.140353400E+02 -9.611379987E-03
  1.134423000E+02 -2.833957996E-02
  4.464472700E+01 -6.839343991E-02
  1.894287400E+01 -1.237379298E-01
  8.532743000E+00 -1.512859698E-01
  3.919401000E+00 -9.099909988E-03
  1.568157000E+00  3.716257695E-01
  6.232900000E-01  5.500214393E-01
  2.408610000E-01  2.092318697E-01
  8.430100000E-02  8.074639989E-03
   p   9
  2.453302900E+02  1.024860004E-03
  5.691900500E+01  8.344290032E-03
  1.760456800E+01  4.078927016E-02
  6.274995000E+00  1.351370605E-01
  2.447030000E+00  2.798830811E-01
  9.950600000E-01  3.597966414E-01
  4.039730000E-01  3.055347412E-01
  1.548100000E-01  1.354703905E-01
  5.418400000E-02  2.804449011E-02
 
   2
   s  14
  1.031094600E+05  1.713099991E-04
  1.528100700E+04  7.123999962E-04
  3.441539200E+03  2.990479984E-03
  9.670948300E+02  1.164036994E-02
  3.140353400E+02  3.968642979E-02
  1.134423000E+02  1.128546094E-01
  4.464472700E+01  2.473650687E-01
  1.894287400E+01  3.672702681E-01
  8.532743000E+00  2.896286985E-01
  3.919401000E+00  7.786681959E-02
  1.568157000E+00  4.562139976E-03
  6.232900000E-01  2.468879987E-03
  2.408610000E-01  1.106309994E-03
  8.430100000E-02  1.739699991E-04
   s  14
  1.031094600E+05 -4.044999995E-05
  1.528100700E+04 -1.682299998E-04
  3.441539200E+03 -7.084299991E-04
  9.670948300E+02 -2.767999996E-03
  3.140353400E+02 -9.611379987E-03
  1.134423000E+02 -2.833957996E-02
  4.464472700E+01 -6.839343991E-02
  1.894287400E+01 -1.237379298E-01
  8.532743000E+00 -1.512859698E-01
  3.919401000E+00 -9.099909988E-03
  1.568157000E+00  3.716257695E-01
  6.232900000E-01  5.500214393E-01
  2.408610000E-01  2.092318697E-01
  8.430100000E-02  8.074639989E-03
   p   9
  2.453302900E+02  1.024860004E-03
  5.691900500E+01  8.344290032E-03
  1.760456800E+01  4.078927016E-02
  6.274995000E+00  1.351370605E-01
  2.447030000E+00  2.798830811E-01
  9.950600000E-01  3.597966414E-01
  4.039730000E-01  3.055347412E-01
  1.548100000E-01  1.354703905E-01
  5.418400000E-02  2.804449011E-02
 
[MO]
Sym=     1a  
Ene=   -26.5040
Spin= Alpha
Occup=    1.00000
   1         0.70709502
   2        -0.00250374
   3        -0.00000000
   4         0.00000000
   5         0.00022250
   6         0.70709492
   7        -0.00250374
   8        -0.00000000
   9        -0.00000000
  10        -0.00022250
Sym=     1a  
Ene=   -26.5040
Spin= Beta
Occup=    1.00000
   1         0.70709502
   2        -0.00250374
   3        -0.00000000
   4         0.00000000
   5         0.00022250
   6         0.70709492
   7        -0.00250374
   8        -0.00000000
   9        -0.00000000
  10        -0.00022250
Sym=     2a  
Ene=   -26.5040
Spin= Alpha
Occup=    1.00000
   1        -0.70711079
   2         0.00237061
   3        -0.00000000
   4         0.00000000
   5        -0.00026245
   6         0.70711089
   7        -0.00237061
   8        -0.00000000
   9        -0.00000000
  10        -0.00026245
Sym=     2a  
Ene=   -26.5040
Spin= Beta
Occup=    1.00000
   1        -0.70711079
   2         0.00237061
   3        -0.00000000
   4         0.00000000
   5        -0.00026245
   6         0.70711089
   7        -0.00237061
   8        -0.00000000
   9        -0.00000000
  10        -0.00026245
Sym=     3a  
Ene=    -1.6848
Spin= Alpha
Occup=    1.00000
   1         0.00036840
   2         0.68225072
   3         0.00000000
   4         0.00000000
   5         0.03630680
   6         0.00036840
   7         0.68225072
   8         0.00000000
   9         0.00000000
  10        -0.03630680
Sym=     3a  
Ene=    -1.6848
Spin= Beta
Occup=    1.00000
   1         0.00036840
   2         0.68225072
   3         0.00000000
   4         0.00000000
   5         0.03630680
   6         0.00036840
   7         0.68225072
   8         0.00000000
   9         0.00000000
  10        -0.03630680
Sym=     4a  
Ene=    -1.5942
Spin= Alpha
Occup=    1.00000
   1        -0.00389083
   2        -0.72360878
   3         0.00000000
   4         0.00000000
   5         0.03103183
   6         0.00389083
   7         0.72360878
   8        -0.00000000
   9         0.00000000
  10         0.03103183
Sym=     4a  
Ene=    -1.5942
Spin= Beta
Occup=    1.00000
   1        -0.00389083
   2        -0.72360878
   3         0.00000000
   4         0.00000000
   5         0.03103183
   6         0.00389083
   7         0.72360878
   8        -0.00000000
   9         0.00000000
  10         0.03103183
Sym=     5a  
Ene=    -0.7830
Spin= Alpha
Occup=    1.00000
   1         0.00000000
   2         0.00000000
   3         0.67028099
   4        -0.14751224
   5        -0.00000000
   6         0.00000000
   7        -0.00000000
   8         0.67028099
   9        -0.14751224
  10         0.00000000
Sym=     5a  
Ene=    -0.7830
Spin= Beta
Occup=    1.00000
   1         0.00000000
   2         0.00000000
   3         0.67028099
   4        -0.14751224
   5        -0.00000000
   6         0.00000000
   7        -0.00000000
   8         0.67028099
   9        -0.14751224
  10         0.00000000
Sym=     6a  
Ene=    -0.7830
Spin= Alpha
Occup=    1.00000
   1         0.00000000
   2         0.00000000
   3         0.14751224
   4         0.67028099
   5        -0.00000000
   6        -0.00000000
   7        -0.00000000
   8         0.14751224
   9         0.67028099
  10         0.00000000
Sym=     6a  
Ene=    -0.7830
Spin= Beta
Occup=    1.00000
   1         0.00000000
   2         0.00000000
   3         0.14751224
   4         0.67028099
   5        -0.00000000
   6        -0.00000000
   7        -0.00000000
   8         0.14751224
   9         0.67028099
  10         0.00000000
Sym=     7a  
Ene=    -0.7350
Spin= Alpha
Occup=    1.00000
   1        -0.00000000
   2        -0.00000000
   3        -0.70008966
   4         0.20647821
   5         0.00000000
   6        -0.00000000
   7        -0.00000000
   8         0.70008966
   9        -0.20647821
  10        -0.00000000
Sym=     7a  
Ene=    -0.7350
Spin= Beta
Occup=    1.00000
   1        -0.00000000
   2        -0.00000000
   3        -0.70008966
   4         0.20647821
   5         0.00000000
   6        -0.00000000
   7        -0.00000000
   8         0.70008966
   9        -0.20647821
  10        -0.00000000
Sym=     8a  
Ene=    -0.7350
Spin= Alpha
Occup=    1.00000
   1        -0.00000000
   2        -0.00000000
   3        -0.20647821
   4        -0.70008966
   5        -0.00000000
   6         0.00000000
   7         0.00000000
   8         0.20647821
   9         0.70008966
  10        -0.00000000
Sym=     8a  
Ene=    -0.7350
Spin= Beta
Occup=    1.00000
   1        -0.00000000
   2        -0.00000000
   3        -0.20647821
   4        -0.70008966
   5        -0.00000000
   6         0.00000000
   7         0.00000000
   8         0.20647821
   9         0.70008966
  10        -0.00000000
Sym=     9a  
Ene=    -0.6567
Spin= Alpha
Occup=    1.00000
   1         0.00721456
   2         0.11696816
   3        -0.00000000
   4        -0.00000000
   5        -0.66585870
   6         0.00721456
   7         0.11696816
   8         0.00000000
   9        -0.00000000
  10         0.66585870
Sym=     9a  
Ene=    -0.6567
Spin= Beta
Occup=    1.00000
   1         0.00721456
   2         0.11696816
   3        -0.00000000
   4        -0.00000000
   5        -0.66585870
   6         0.00721456
   7         0.11696816
   8         0.00000000
   9        -0.00000000
  10         0.66585870
Sym=    10a  
Ene=    -0.1408
Spin= Alpha
Occup=    0.00000
   1         0.00845286
   2         0.13251044
   3        -0.00000000
   4        -0.00000000
   5         0.76935698
   6        -0.00845286
   7        -0.13251044
   8        -0.00000000
   9         0.00000000
  10         0.76935698
Sym=    10a  
Ene=    -0.1408
Spin= Beta
Occup=    0.00000
   1         0.00845286
   2         0.13251044
   3        -0.00000000
   4        -0.00000000
   5         0.76935698
   6        -0.00845286
   7        -0.13251044
   8        -0.00000000
   9         0.00000000
  10         0.76935698
