[Molden Format]
[N_Atoms]
                     2
[Atoms] (AU)
F1          1      9           0.00000000      0.00000000      0.00000000
F2          2      9           0.00000000      0.00000000      3.40150702
[Charge] (Mulliken)
  1.048050535246148E-013
 -1.154631945610163E-013
[GTO] (AU)
   1
   s  14
  1.031094600E+05  1.713099991E-04
  1.528100700E+04  7.123999962E-04
  3.441539200E+03  2.990479984E-03
  9.670948300E+02  1.164036994E-02
  3.140353400E+02  3.968642979E-02
  1.134423000E+02  1.128546094E-01
  4.464472700E+01  2.473650687E-01
  1.894287400E+01  3.672702681E-01
  8.532743000E+00  2.896286985E-01
  3.919401000E+00  7.786681959E-02
  1.568157000E+00  4.562139976E-03
  6.232900000E-01  2.468879987E-03
  2.408610000E-01  1.106309994E-03
  8.430100000E-02  1.739699991E-04
   s  14
  1.031094600E+05 -4.044999995E-05
  1.528100700E+04 -1.682299998E-04
  3.441539200E+03 -7.084299991E-04
  9.670948300E+02 -2.767999996E-03
  3.140353400E+02 -9.611379987E-03
  1.134423000E+02 -2.833957996E-02
  4.464472700E+01 -6.839343991E-02
  1.894287400E+01 -1.237379298E-01
  8.532743000E+00 -1.512859698E-01
  3.919401000E+00 -9.099909988E-03
  1.568157000E+00  3.716257695E-01
  6.232900000E-01  5.500214393E-01
  2.408610000E-01  2.092318697E-01
  8.430100000E-02  8.074639989E-03
   p   9
  2.453302900E+02  1.024860004E-03
  5.691900500E+01  8.344290032E-03
  1.760456800E+01  4.078927016E-02
  6.274995000E+00  1.351370605E-01
  2.447030000E+00  2.798830811E-01
  9.950600000E-01  3.597966414E-01
  4.039730000E-01  3.055347412E-01
  1.548100000E-01  1.354703905E-01
  5.418400000E-02  2.804449011E-02
 
   2
   s  14
  1.031094600E+05  1.713099991E-04
  1.528100700E+04  7.123999962E-04
  3.441539200E+03  2.990479984E-03
  9.670948300E+02  1.164036994E-02
  3.140353400E+02  3.968642979E-02
  1.134423000E+02  1.128546094E-01
  4.464472700E+01  2.473650687E-01
  1.894287400E+01  3.672702681E-01
  8.532743000E+00  2.896286985E-01
  3.919401000E+00  7.786681959E-02
  1.568157000E+00  4.562139976E-03
  6.232900000E-01  2.468879987E-03
  2.408610000E-01  1.106309994E-03
  8.430100000E-02  1.739699991E-04
   s  14
  1.031094600E+05 -4.044999995E-05
  1.528100700E+04 -1.682299998E-04
  3.441539200E+03 -7.084299991E-04
  9.670948300E+02 -2.767999996E-03
  3.140353400E+02 -9.611379987E-03
  1.134423000E+02 -2.833957996E-02
  4.464472700E+01 -6.839343991E-02
  1.894287400E+01 -1.237379298E-01
  8.532743000E+00 -1.512859698E-01
  3.919401000E+00 -9.099909988E-03
  1.568157000E+00  3.716257695E-01
  6.232900000E-01  5.500214393E-01
  2.408610000E-01  2.092318697E-01
  8.430100000E-02  8.074639989E-03
   p   9
  2.453302900E+02  1.024860004E-03
  5.691900500E+01  8.344290032E-03
  1.760456800E+01  4.078927016E-02
  6.274995000E+00  1.351370605E-01
  2.447030000E+00  2.798830811E-01
  9.950600000E-01  3.597966414E-01
  4.039730000E-01  3.055347412E-01
  1.548100000E-01  1.354703905E-01
  5.418400000E-02  2.804449011E-02
 
[MO]
Sym=     1a  
Ene=   -26.5030
Spin= Alpha
Occup=    2.00000
   1         0.70709506
   2        -0.00250146
   3        -0.00000000
   4         0.00000000
   5         0.00021828
   6         0.70709497
   7        -0.00250146
   8         0.00000000
   9         0.00000000
  10        -0.00021828
Sym=     2a  
Ene=   -26.5030
Spin= Alpha
Occup=    2.00000
   1        -0.70711070
   2         0.00236996
   3        -0.00000000
   4         0.00000000
   5        -0.00025253
   6         0.70711079
   7        -0.00236996
   8         0.00000000
   9         0.00000000
  10        -0.00025253
Sym=     3a  
Ene=    -1.6841
Spin= Alpha
Occup=    2.00000
   1         0.00036786
   2         0.68226740
   3         0.00000000
   4         0.00000000
   5         0.03621182
   6         0.00036786
   7         0.68226740
   8         0.00000000
   9         0.00000000
  10        -0.03621182
Sym=     4a  
Ene=    -1.5936
Spin= Alpha
Occup=    2.00000
   1        -0.00387948
   2        -0.72346656
   3        -0.00000000
   4         0.00000000
   5         0.03185520
   6         0.00387948
   7         0.72346656
   8         0.00000000
   9         0.00000000
  10         0.03185520
Sym=     5a  
Ene=    -0.7824
Spin= Alpha
Occup=    2.00000
   1         0.00000000
   2         0.00000000
   3        -0.04167049
   4         0.68505477
   5        -0.00000000
   6        -0.00000000
   7        -0.00000000
   8        -0.04167049
   9         0.68505477
  10         0.00000000
Sym=     6a  
Ene=    -0.7783
Spin= Alpha
Occup=    2.00000
   1         0.00000000
   2         0.00000000
   3         0.68505477
   4         0.04167049
   5        -0.00000000
   6         0.00000000
   7         0.00000000
   8         0.68505477
   9         0.04167049
  10         0.00000000
Sym=     7a  
Ene=    -0.7343
Spin= Alpha
Occup=    2.00000
   1         0.00000000
   2         0.00000000
   3         0.04431663
   4        -0.72855666
   5        -0.00000000
   6         0.00000000
   7         0.00000000
   8        -0.04431663
   9         0.72855666
  10         0.00000000
Sym=     8a  
Ene=    -0.6601
Spin= Alpha
Occup=    2.00000
   1         0.00720994
   2         0.11687086
   3        -0.00000000
   4        -0.00000000
   5        -0.66586387
   6         0.00720994
   7         0.11687086
   8        -0.00000000
   9        -0.00000000
  10         0.66586387
Sym=     9a  
Ene=    -0.7243
Spin= Alpha
Occup=    1.95925
   1         0.00000000
   2         0.00000000
   3        -0.72855666
   4        -0.04431663
   5         0.00000000
   6        -0.00000000
   7        -0.00000000
   8         0.72855666
   9         0.04431663
  10         0.00000000
Sym=    10a  
Ene=     0.0003
Spin= Alpha
Occup=    0.04075
   1         0.00846605
   2         0.13328475
   3         0.00000000
   4         0.00000000
   5         0.76932333
   6        -0.00846605
   7        -0.13328475
   8        -0.00000000
   9        -0.00000000
  10         0.76932333
