[Molden Format]
[N_Atoms]
                     2
[Atoms] (AU)
F1          1      9           0.00000000      0.00000000      0.00000000
LI2         2      3           0.00000000      0.00000000      1.32280829
[Charge] (Mulliken)
 -0.100307746606994     
  0.100307746606983     
[GTO] (AU)
   1
   s  14
  1.031094600E+05  1.713099991E-04
  1.528100700E+04  7.123999962E-04
  3.441539200E+03  2.990479984E-03
  9.670948300E+02  1.164036994E-02
  3.140353400E+02  3.968642979E-02
  1.134423000E+02  1.128546094E-01
  4.464472700E+01  2.473650687E-01
  1.894287400E+01  3.672702681E-01
  8.532743000E+00  2.896286985E-01
  3.919401000E+00  7.786681959E-02
  1.568157000E+00  4.562139976E-03
  6.232900000E-01  2.468879987E-03
  2.408610000E-01  1.106309994E-03
  8.430100000E-02  1.739699991E-04
   s  14
  1.031094600E+05 -4.044999995E-05
  1.528100700E+04 -1.682299998E-04
  3.441539200E+03 -7.084299991E-04
  9.670948300E+02 -2.767999996E-03
  3.140353400E+02 -9.611379987E-03
  1.134423000E+02 -2.833957996E-02
  4.464472700E+01 -6.839343991E-02
  1.894287400E+01 -1.237379298E-01
  8.532743000E+00 -1.512859698E-01
  3.919401000E+00 -9.099909988E-03
  1.568157000E+00  3.716257695E-01
  6.232900000E-01  5.500214393E-01
  2.408610000E-01  2.092318697E-01
  8.430100000E-02  8.074639989E-03
   p   9
  2.453302900E+02  1.024860004E-03
  5.691900500E+01  8.344290032E-03
  1.760456800E+01  4.078927016E-02
  6.274995000E+00  1.351370605E-01
  2.447030000E+00  2.798830811E-01
  9.950600000E-01  3.597966414E-01
  4.039730000E-01  3.055347412E-01
  1.548100000E-01  1.354703905E-01
  5.418400000E-02  2.804449011E-02
 
   2
   s  14
  9.497934400E+03  9.668999974E-05
  1.416811200E+03  6.087099984E-04
  3.214599400E+02  3.101519992E-03
  9.112416300E+01  1.266904997E-02
  2.999989100E+01  4.248012989E-02
  1.101763100E+01  1.150183297E-01
  4.372801000E+00  2.398650094E-01
  1.831256000E+00  3.584300090E-01
  8.022610000E-01  3.048527792E-01
  3.626480000E-01  8.824261976E-02
  1.139950000E-01 -8.445899977E-04
  5.123700000E-02 -7.943959979E-03
  2.246800000E-02 -3.764419990E-03
  7.860000000E-03 -8.868999976E-05
   s  14
  9.497934400E+03 -1.244999993E-05
  1.416811200E+03 -7.838999954E-05
  3.214599400E+02 -4.007099976E-04
  9.112416300E+01 -1.645249990E-03
  2.999989100E+01 -5.634599967E-03
  1.101763100E+01 -1.590780991E-02
  4.372801000E+00 -3.612581979E-02
  1.831256000E+00 -6.459927962E-02
  8.022610000E-01 -1.008321794E-01
  3.626480000E-01 -9.757613942E-02
  1.139950000E-01  2.301215886E-01
  5.123700000E-02  6.102389764E-01
  2.246800000E-02  2.849406083E-01
  7.860000000E-03  4.026899976E-03
   p   9
  1.311950400E+01  1.524940000E-03
  3.077424200E+00  8.314830000E-03
  1.098800500E+00  1.933203000E-02
  4.357784000E-01  4.934293000E-02
  1.802432000E-01  1.623554000E-01
  7.613330000E-02  3.847505400E-01
  3.254650000E-02  4.336100400E-01
  1.401820000E-02  1.287005900E-01
  4.906400000E-03 -1.018520000E-03
 
[MO]
Sym=     1a  
Ene=   -26.6850
Spin= Alpha
Occup=    2.00000
   1         1.00003897
   2        -0.00213914
   3         0.00000001
   4         0.00000000
   5         0.00194061
   6        -0.00088359
   7        -0.00014934
   8         0.00000000
   9         0.00000000
  10        -0.00009014
Sym=     2a  
Ene=    -3.3396
Spin= Alpha
Occup=    2.00000
   1        -0.03917479
   2         0.23316580
   3        -0.00000020
   4        -0.00000013
   5         0.16169588
   6         0.80651288
   7        -0.03685702
   8        -0.00000000
   9        -0.00000000
  10        -0.02346015
Sym=     3a  
Ene=    -1.5927
Spin= Alpha
Occup=    2.00000
   1        -0.02676575
   2        -1.02942555
   3         0.00000006
   4         0.00000004
   5         0.17280486
   6         0.48330918
   7         0.02218971
   8         0.00000001
   9         0.00000001
  10         0.00511552
Sym=     4a  
Ene=    -1.0538
Spin= Alpha
Occup=    2.00000
   1        -0.00000000
   2         0.00000000
   3         0.57347769
   4        -0.83738616
   5         0.00000000
   6        -0.00000000
   7         0.00000000
   8        -0.02686922
   9         0.03923416
  10        -0.00000000
Sym=     5a  
Ene=    -1.0537
Spin= Alpha
Occup=    2.00000
   1         0.00000063
   2         0.00000678
   3         0.83728988
   4         0.57341175
   5         0.00001413
   6        -0.00001142
   7        -0.00001247
   8        -0.03890570
   9        -0.02664428
  10        -0.00000508
Sym=     6a  
Ene=    -0.2578
Spin= Alpha
Occup=    1.99594
   1        -0.03730174
   2        -0.38423964
   3         0.00001271
   4         0.00000870
   5        -0.81515854
   6         0.66882659
   7         0.72068941
   8         0.00000537
   9         0.00000368
  10         0.29376376
Sym=     7a  
Ene=    -0.0000
Spin= Alpha
Occup=    0.00406
   1         0.00000291
   2         0.00002512
   3        -0.25657807
   4        -0.17571559
   5         0.00010832
   6        -0.00007424
   7         0.00007272
   8         0.87485598
   9         0.59913862
  10         0.00002730
Sym=     8a  
Ene=     0.0650
Spin= Alpha
Occup=    0.00000
   1         0.02960307
   2         0.23801514
   3         0.00003220
   4         0.00002205
   5         0.77883112
   6        -0.55750958
   7         0.54676562
   8        -0.00010981
   9        -0.00007520
  10         0.36244331
Sym=     9a  
Ene=     0.0805
Spin= Alpha
Occup=    0.00000
   1        -0.00000000
   2        -0.00000000
   3         0.17550029
   4        -0.25626369
   5         0.00000000
   6         0.00000000
   7         0.00000000
   8        -0.59912858
   9         0.87484132
  10         0.00000000
Sym=    10a  
Ene=     0.1248
Spin= Alpha
Occup=    0.00000
   1         0.06437912
   2         0.45085277
   3        -0.00000423
   4        -0.00000290
   5        -0.29866520
   6        -0.02147623
   7        -0.55037200
   8         0.00001441
   9         0.00000987
  10         0.98115151
