   This run of MOLCAS is using the pymolcas driver

                             OPE
                             OPE          NMOL  CASOP  ENMOLC A   SO
                 OPE        NMOLC        AS  OP EN  MO LC     AS  OP
                OPENM       OL CA        SO  PE NM  OL CA     SOP EN
                OP EN      MO   LC       AS  OP ENMOL  CASO   PENMOL
                OP  EN     MO   LC       AS  OP EN     MO     LC ASO
               OP   E  NMOL  C  AS       OP  EN MO     LC     AS  OP
               OP  E   NMO   LC AS        OPEN  MO     LCASOP EN   M
               O  PEN   MO  LCA  SO
            OPE   NMO   L   CAS    OP
        OPENMOL  CASOP     ENMOL   CASOPE
     OPENMOLCA   SOPENMOLCASOPEN   MOLCASOPE
    OPENMOLCAS   OP           EN   MOL    CAS
    OPENMOLCAS       OP  ENM        O     LCA
    OPENMOLCAS    OPEN  MOLCASO     P  E  NMO
    OPENMOLCAS     OP               E  N  MOL
    OPENMOLCA   SO           PENM   O  L  CAS    OPEN    MO    LCAS
    OPENMOLCA   SOP           ENM   O  L  CAS   OP  EN  MOLC  AS   O
    OPENMOLCA   SOPE           NM      O  LCA   S      OP  EN MO
    OPENMOLC                AS         O  PEN   M      OL  CA  SOPE
    OPENMO        LCASOPE  NMOL        C  ASO   P      ENMOLC     AS
    OPE     NMO      LCA  SO     P     E   NM   OL  CA SO  PE N   MO
          OPENMOLCA            SOPE   NMO        LCAS  O    P  ENMO
     OPENMOLCASOPENMOLCASOPENMOLCASOPENMOLCA
        OPENMOLCASOPENMOLCASOPENMOLCASOPE
            OPENMOLCASOPENMOLCASOPENM
               OPENMOLCASOPENMOLCA        version: 1d1d16313-dirty
                   OPENMOLCASO
                       OPE                tag:

 OpenMolcas is free software; you can redistribute it and/or modify it
 under the terms of the GNU Lesser General Public License version 2.1.
 OpenMolcas is distributed in the hope that it will be useful, but it
 is provided "as is" and without any express or implied warranties.
 For more details see the full text of the license in the file
 LICENSE or in <http://www.gnu.org/licenses/>.

                 Copyright (C) The OpenMolcas Authors
           For the author list and the recommended citation,
                   consult the file CONTRIBUTORS.md

           *************************************************
           * pymolcas version py2.28                       *
           *   build c4a6d18ded8cb6cad61d2372a9abd97c      *
           *   (after the EMIL interpreter by V. Veryazov) *
           *************************************************

configuration info
------------------
C Compiler ID: IntelLLVM
C flags: -std=gnu99
Fortran Compiler ID: IntelLLVM
Fortran flags: -standard-semantics -fltconsistency -fpp -i8 -heap-arrays
Definitions: _MOLCAS_;_I8_;_LINUX_
Parallel: OFF (GA=OFF)


   --------------------------------------------------------------------------------
  |
  |              Project: ozone_106.75
  |       Submitted from: /home/grierjones/DDCASPT2/ozone/ANO-RCC-VDZP/ozone_106.75
  |         Scratch area: /tmp/ozone_106.75
  |      Save outputs to: /home/grierjones/DDCASPT2/ozone/ANO-RCC-VDZP/ozone_106.75
  |               Molcas: /home/grierjones/Test/build
  |
  | Scratch area is empty
  |
  |       MOLCAS_DRIVER = /usr/local/pymolcas
  | MOLCAS_KEEP_WORKDIR = NO
  |  MOLCAS_NEW_WORKDIR = YES
  |       MOLCAS_NPROCS = 1
  |        MOLCAS_PRINT = NORMAL
  |       MOLCAS_SOURCE = /home/grierjones/Test
  |    MOLCAS_STRUCTURE = 0
  |
   --------------------------------------------------------------------------------

++ ---------   Input file   ---------

&GATEWAY
coord=ozone_106.75.xyz
Basis = ANO-RCC-VDZP
Group = nosymm
Expert
End of Input

&SEWARD
End of Input

&SCF

>>> COPY $WorkDir/ozone_106.75.scf.h5 $CurrDir/

&RASSCF
Title= RASSCF
FileOrb
/home/grierjones/DDCASPT2/ozone/ANO-RCC-VDZP/ozone_106.50/ozone_106.50.RasOrb
NACTEL
4 0 0
Inactive
10
RAS2
3
Symmetry
1
Spin
1
orblisting
all
ITERation
300 200

>>> COPY $WorkDir/ozone_106.75.rasscf.h5 $CurrDir/

>>> COPY $WorkDir/GMJ_Fock_MO.csv $CurrDir/ozone_106.75.GMJ_Fock_MO.csv

>>> COPY $WorkDir/GMJ_PT2_Fock_MO.csv $CurrDir/ozone_106.75.GMJ_PT2_Fock_MO.csv

&MOTRA
Frozen=0
LUMORB

>>> COPY $WorkDir/GMJ_one_int_indx.csv $CurrDir/ozone_106.75.GMJ_one_int_indx.csv

>>> COPY $WorkDir/GMJ_one_int.csv $CurrDir/ozone_106.75.GMJ_one_int.csv

>>> COPY $WorkDir/GMJ_two_int_indx.csv $CurrDir/ozone_106.75.GMJ_two_int_indx.csv

>>> COPY $WorkDir/GMJ_two_int.csv $CurrDir/ozone_106.75.GMJ_two_int.csv

&CASPT2
Frozen
0
MAXITER
50

>>> FOREACH i IN (B,E,F,G,H)

  >>> FOREACH j IN (P,M)

    >>> IF (-FILE GMJ_e2_${i}_${j}.csv)

      >>> COPY $WorkDir/GMJ_RHS_${i}_${j}.csv $CurrDir/GMJ_RHS_${i}_${j}.csv

      >>> COPY $WorkDir/GMJ_IVECW_${i}_${j}.csv $CurrDir/GMJ_IVECW_${i}_${j}.csv

      >>> COPY $WorkDir/GMJ_IVECX_${i}_${j}.csv $CurrDir/GMJ_IVECX_${i}_${j}.csv

      >>> COPY $WorkDir/GMJ_IVECC2_${i}_${j}.csv $CurrDir/GMJ_IVECC2_${i}_${j}.csv

      >>> COPY $WorkDir/GMJ_e2_${i}_${j}.csv $CurrDir/GMJ_e2_${i}_${j}.csv

    >>> END IF

  >>> END FOREACH

>>> END FOREACH

>>> FOREACH i IN (A,C,D)

  >>> IF (-FILE GMJ_e2_$i.csv)

    >>> COPY $WorkDir/GMJ_RHS_$i.csv $CurrDir/GMJ_RHS_$i.csv

    >>> COPY $WorkDir/GMJ_IVECW_$i.csv $CurrDir/GMJ_IVECW_$i.csv

    >>> COPY $WorkDir/GMJ_IVECX_$i.csv $CurrDir/GMJ_IVECX_$i.csv

    >>> COPY $WorkDir/GMJ_IVECC2_$i.csv $CurrDir/GMJ_IVECC2_$i.csv

    >>> COPY $WorkDir/GMJ_e2_$i.csv $CurrDir/GMJ_e2_$i.csv

  >>> END IF

>>> END FOREACH

-- ----------------------------------

--- Start Module: gateway at Fri Jan 24 14:10:06 2025 ---
 
()()()()()()()()()()()()()()()()()()()()()()()()()()()()()()()()()()()()()()()()()()()()()()()()()()

                                              &GATEWAY

                                   only a single process is used
                       available to each process: 2.0 GB of memory, 1 thread?
()()()()()()()()()()()()()()()()()()()()()()()()()()()()()()()()()()()()()()()()()()()()()()()()()()
 
 ###############################################################################
 ###############################################################################
 ###                                                                         ###
 ###                                                                         ###
 ###                                                                         ###
 ###    WARNING: EXPERT option is ON!                                        ###
 ###                                                                         ###
 ###                                                                         ###
 ###############################################################################
 ###############################################################################
 
++    Symmetry information:
      ---------------------
 
                    Character Table for C1 
 
                             E  
                    a        1  x, y, xy, Rz, z, xz, Ry, yz, Rx, I
--
 
 
++    Basis set information:
      ----------------------
 
 
      Basis set label: O.ANO-RCC...3S2P1D.
 
      Electronic valence basis set:
      ------------------
      Associated Effective Charge   8.000000 au
      Associated Actual Charge      8.000000 au
      Nuclear Model: Point charge
 
      Shell  nPrim  nBasis  Cartesian Spherical Contaminant
         s      14       3        X                  
         p       9       2        X                  
         d       4       1                 X         
--
 
 
++    Molecular structure info:
      -------------------------
 
                    ************************************************ 
                    **** Cartesian Coordinates / Bohr, Angstrom **** 
                    ************************************************ 
 
     Center  Label                x              y              z                     x              y              z
        1      O1               1.440771       1.938232       0.000000              0.762423       1.025668       0.000000
        2      O2               0.000000       0.000000       0.000000              0.000000       0.000000       0.000000
        3      O3               1.440771      -1.938232       0.000000              0.762423      -1.025668       0.000000
 
                    *************************************** 
                    *    InterNuclear Distances / Bohr    * 
                    *************************************** 
 
               1 O1            2 O2            3 O3    
    1 O1       0.000000
    2 O2       2.415070        0.000000
    3 O3       3.876463        2.415070        0.000000
 
                    ******************************************* 
                    *    InterNuclear Distances / Angstrom    * 
                    ******************************************* 
 
               1 O1            2 O2            3 O3    
    1 O1       0.000000
    2 O2       1.278000        0.000000
    3 O3       2.051336        1.278000        0.000000
 
                    ************************************** 
                    *    Valence Bond Angles / Degree    * 
                    ************************************** 
                          Atom centers                 Phi
                      1 O1       2 O2       3 O3       106.75
--
 
 
            Nuclear Potential Energy             69.51043440 au
 
 ###############################################################################
 ###############################################################################
 ###                                                                         ###
 ###                                                                         ###
 ###    There were warnings during the execution                             ###
 ###    Please, check the output with care!                                  ###
 ###                                                                         ###
 ###                                                                         ###
 ###############################################################################
 ###############################################################################
--- Stop Module: gateway at Fri Jan 24 14:10:06 2025 /rc=_RC_ALL_IS_WELL_ ---
*** files: xmldump
    saved to directory /home/grierjones/DDCASPT2/ozone/ANO-RCC-VDZP/ozone_106.75

--- Start Module: seward at Fri Jan 24 14:10:06 2025 ---
 
()()()()()()()()()()()()()()()()()()()()()()()()()()()()()()()()()()()()()()()()()()()()()()()()()()

                                              &SEWARD

                                   only a single process is used
                       available to each process: 2.0 GB of memory, 1 thread?
()()()()()()()()()()()()()()()()()()()()()()()()()()()()()()()()()()()()()()()()()()()()()()()()()()
 
 ###############################################################################
 ###############################################################################
 ###                                                                         ###
 ###                                                                         ###
 ###                                                                         ###
 ###    WARNING: EXPERT option is ON!                                        ###
 ###                                                                         ###
 ###                                                                         ###
 ###############################################################################
 ###############################################################################
               SEWARD will generate:
                  Multipole Moment integrals up to order  2
                  Kinetic Energy integrals
                  Nuclear Attraction integrals (point charge)
                  One-Electron Hamiltonian integrals
                  Velocity integrals
                  Relativistic Douglas-Kroll-Hess integrals:
                    - Parametrization         : EXP
                    - DKH order of Hamiltonian: 2
                    - DKH order of Properties : 0
                         - multipole moment operators
                         - electric potential operators
                         - contact operators
                  Atomic mean-field integrals
                  Two-Electron Repulsion integrals
 
                   Integrals are discarded if absolute value <: 0.10E-13
                   Integral cutoff threshold is set to       <: 0.10E-15
 
            Nuclear Potential Energy             69.51043440 au
 
 
      Basis set specifications :
      Symmetry species         a  
      Basis functions           42
 
 
  Input file to MOLDEN was generated!
 
 ###############################################################################
 ###############################################################################
 ###                                                                         ###
 ###                                                                         ###
 ###    There were warnings during the execution                             ###
 ###    Please, check the output with care!                                  ###
 ###                                                                         ###
 ###                                                                         ###
 ###############################################################################
 ###############################################################################
forrtl: warning (525): IEEE_DIVIDE_BY_ZERO is signaling
forrtl: warning (526): IEEE_INVALID is signaling
forrtl: warning (528): IEEE_UNDERFLOW is signaling
--- Stop Module: seward at Fri Jan 24 14:10:08 2025 /rc=_RC_ALL_IS_WELL_ ---
*** files: ozone_106.75.GssOrb ozone_106.75.guessorb.h5 ozone_106.75.guessorb.molden xmldump
    saved to directory /home/grierjones/DDCASPT2/ozone/ANO-RCC-VDZP/ozone_106.75
--- Module seward spent 2 seconds ---

*** symbolic link created: INPORB -> ozone_106.75.GssOrb
--- Start Module: scf at Fri Jan 24 14:10:08 2025 ---
 
()()()()()()()()()()()()()()()()()()()()()()()()()()()()()()()()()()()()()()()()()()()()()()()()()()

                                                &SCF

                                   only a single process is used
                       available to each process: 2.0 GB of memory, 1 thread?
()()()()()()()()()()()()()()()()()()()()()()()()()()()()()()()()()()()()()()()()()()()()()()()()()()
 
++    Input section:
      --------------
 
      Header of the integral files:
      
       Integrals generated by seward 4.2.0  , Fri Jan 24 14:10:06 2025
 
 
      Cartesian coordinates in Angstrom:
      -----------------------------------------------------
      No.  Label        X            Y            Z        
      -----------------------------------------------------
       1   O1         0.76242300   1.02566800   0.00000000
       2   O2         0.00000000   0.00000000   0.00000000
       3   O3         0.76242300  -1.02566800   0.00000000
      -----------------------------------------------------
      Nuclear repulsion energy =   69.51043440
--
 
++    Orbital specifications:
      -----------------------
 
      Symmetry species               1
                                     a
      Frozen orbitals                0
      Occupied orbitals             12
      Secondary orbitals            30
      Deleted orbitals               0
      Total number of orbitals      42
      Number of basis functions     42
--
 
      Molecular charge                           0.000
 
++    Optimization specifications:
      ----------------------------
 
      SCF Algorithm: Conventional
      Minimized density differences are used
      Number of density matrices in core                5
      Maximum number of NDDO SCF iterations           400
      Maximum number of HF SCF iterations             400
      Threshold for SCF energy change            0.10E-08
      Threshold for density matrix               0.10E-03
      Threshold for Fock matrix                  0.15E-03
      Threshold for linear dependence            0.10E-08
      Threshold at which DIIS is turned on       0.15E+00
      Threshold at which QNR/C2DIIS is turned on 0.75E-01
      Threshold for Norm(delta) (QNR/C2DIIS)     0.20E-04
      DIIS extrapolation of the SCF procedure
      All orbitals punched on: SCFORB
--
 
      Input vectors read from INPORB
      Orbital file label: *Guess orbitals
 
 
++ Convergence information
                                   SCF        iterations: Energy and convergence statistics
 
Iter     Tot. SCF        One-elec.       Two-elec.     Energy      Max Dij or  Max Fij      DNorm      TNorm      AccCon     Time
         Energy          Energy          Energy        Change      Delta Norm                                                in Sec.
   1  -223.849203964  -442.773531266   149.413892899   0.00E+00    0.67E+00*   0.28E+00*    0.74E+01   0.77E+02   None         0.
   2  -224.062862559  -448.771565014   155.198268053  -0.21E+00*   0.21E+00*   0.18E+00*    0.27E+01   0.78E+02   EDIIS        0.
   3  -224.445301207  -446.478042844   152.522307234  -0.38E+00*   0.23E+00*   0.85E-01*    0.73E+00   0.78E+02   EDIIS        0.
   4  -224.444700398  -446.896426745   152.941291945   0.60E-03*   0.16E-01*   0.44E-01*    0.25E+00   0.78E+02   EDIIS        0.
   5  -224.482219186  -446.632495955   152.639842366  -0.38E-01*   0.66E-02*   0.28E-02*    0.38E-01   0.78E+02   c2DIIS       0.
   6  -224.482329025  -446.661142016   152.668378588  -0.11E-03*   0.25E-02*   0.11E-02*    0.71E-02   0.78E+02   QNRc2DIIS    0.
   7  -224.482347441  -446.654119182   152.661337338  -0.18E-04*   0.25E-02*   0.51E-03*    0.33E-02   0.78E+02   QNRc2DIIS    0.
   8  -224.482353322  -446.658906671   152.666118946  -0.59E-05*   0.31E-03*   0.23E-03*    0.21E-02   0.78E+02   QNRc2DIIS    0.
   9  -224.482353745  -446.658127345   152.665339198  -0.42E-06*   0.56E-03*   0.17E-03*    0.27E-03   0.78E+02   QNRc2DIIS    0.
  10  -224.482354028  -446.655835982   152.663047552  -0.28E-06*   0.11E-03*   0.54E-04     0.13E-03   0.78E+02   QNRc2DIIS    0.
  11  -224.482354055  -446.657382209   152.664593751  -0.27E-07*   0.29E-04*   0.94E-05     0.10E-03   0.78E+02   QNRc2DIIS    0.
  12  -224.482354057  -446.657387057   152.664598597  -0.21E-08*   0.15E-04    0.41E-05     0.11E-03   0.78E+02   QNRc2DIIS    0.
  13  -224.482354057  -446.657323971   152.664535511  -0.34E-09    0.46E-05    0.11E-05     0.30E-03   0.78E+02   QNRc2DIIS    0.
 
       Convergence after 13 Macro Iterations
--
 
 *****************************************************************************************************************************
 *                                                                                                                           *
 *                                             SCF/KS-DFT Program, Final results                                             *
 *                                                                                                                           *
 *                                                                                                                           *
 *                                                                                                                           *
 *                                                       Final Results                                                       *
 *                                                                                                                           *
 *****************************************************************************************************************************
 
::    Total SCF energy                               -224.4823540573
      One-electron energy                            -446.6573239714
      Two-electron energy                             152.6645355111
      Nuclear repulsion energy                         69.5104344029
      Kinetic energy (interpolated)                   225.4635413315
      Virial theorem                                    0.9956481333
      Total spin, S(S+1)                                0.0000000000
      Total spin, S                                     0.0000000000
      Max non-diagonal density matrix element           0.0000055325
      Max non-diagonal Fock matrix element              0.0000012020
 
 
      All orbitals with orbital energies smaller than  E(LUMO)+0.5 are printed
 
++    Molecular orbitals:
      -------------------
 
      Title: SCF orbitals

      Molecular orbitals for symmetry species 1: a  
 
          Orbital            1         2         3         4         5         6         7         8         9        10    
          Energy          -20.9225  -20.7128  -20.7127   -1.7639   -1.4185   -1.1123   -0.8342   -0.7976   -0.7854   -0.5739
          Occ. No.          2.0000    2.0000    2.0000    2.0000    2.0000    2.0000    2.0000    2.0000    2.0000    2.0000
 
        1 O1     1s         0.0017   -0.7072    0.7072   -0.0161    0.0096    0.0075   -0.0152   -0.0197   -0.0000    0.0066
        2 O1     2s        -0.0003   -0.0004    0.0006    0.3147   -0.5902    0.5607   -0.3136   -0.4041   -0.0000    0.0485
        3 O1     3s        -0.0002    0.0002   -0.0001   -0.0244    0.0111    0.0097   -0.0307   -0.0288   -0.0000    0.0207
        4 O1     2px        0.0001    0.0006   -0.0005   -0.0604    0.0709    0.1102    0.0755   -0.3544   -0.0000    0.6160
        5 O1     3px        0.0003   -0.0002    0.0003    0.0156   -0.0110   -0.0178   -0.0048    0.0258    0.0000    0.0014
        6 O1     2py        0.0002    0.0006   -0.0007   -0.0974    0.0584    0.0553   -0.3771   -0.2296   -0.0000   -0.2119
        7 O1     3py        0.0002   -0.0004    0.0003    0.0257   -0.0093   -0.0079    0.0376    0.0155    0.0000   -0.0228
        8 O1     2pz        0.0000    0.0000    0.0000    0.0000    0.0000   -0.0000   -0.0000   -0.0000    0.3596   -0.0000
        9 O1     3pz        0.0000    0.0000    0.0000   -0.0000    0.0000    0.0000   -0.0000   -0.0000   -0.0258    0.0000
       10 O1     3d2-      -0.0001    0.0001   -0.0001    0.0185   -0.0138   -0.0106    0.0136    0.0286    0.0000   -0.0153
       11 O1     3d1-      -0.0000    0.0000    0.0000   -0.0000   -0.0000    0.0000    0.0000    0.0000   -0.0241    0.0000
       12 O1     3d0        0.0001    0.0001   -0.0001   -0.0101    0.0082    0.0024   -0.0107   -0.0159   -0.0000    0.0051
       13 O1     3d1+       0.0000    0.0000   -0.0000   -0.0000   -0.0000    0.0000    0.0000    0.0000   -0.0184   -0.0000
       14 O1     3d2+       0.0001   -0.0000    0.0000   -0.0068    0.0013   -0.0024   -0.0219    0.0012   -0.0000   -0.0065
       15 O2     1s         1.0001   -0.0000   -0.0026   -0.0210   -0.0000   -0.0166   -0.0075    0.0000   -0.0000    0.0145
       16 O2     2s         0.0008   -0.0000   -0.0006    0.6481   -0.0000   -0.6807   -0.0860    0.0000   -0.0000    0.2000
       17 O2     3s         0.0000   -0.0000   -0.0006   -0.0410   -0.0000   -0.0049   -0.0137   -0.0000   -0.0000    0.0229
       18 O2     2px        0.0011   -0.0000   -0.0005    0.1364    0.0000    0.2734    0.6464   -0.0000    0.0000   -0.4729
       19 O2     3px       -0.0007   -0.0000   -0.0006   -0.0284   -0.0000   -0.0324   -0.0537    0.0000   -0.0000   -0.0113
       20 O2     2py        0.0000    0.0005   -0.0000    0.0000   -0.3271    0.0000    0.0000    0.5651    0.0000   -0.0000
       21 O2     3py        0.0000    0.0007   -0.0000    0.0000    0.0679    0.0000   -0.0000   -0.0678   -0.0000    0.0000
       22 O2     2pz        0.0000   -0.0000    0.0000    0.0000   -0.0000   -0.0000   -0.0000   -0.0000    0.7125    0.0000
       23 O2     3pz        0.0000    0.0000    0.0000   -0.0000    0.0000   -0.0000    0.0000    0.0000   -0.0276   -0.0000
       24 O2     3d2-       0.0000    0.0003   -0.0000   -0.0000   -0.0424    0.0000    0.0000    0.0307    0.0000   -0.0000
       25 O2     3d1-      -0.0000   -0.0000   -0.0000    0.0000    0.0000   -0.0000   -0.0000   -0.0000   -0.0000   -0.0000
       26 O2     3d0       -0.0003    0.0000    0.0003   -0.0186   -0.0000   -0.0077   -0.0165   -0.0000   -0.0000    0.0176
       27 O2     3d1+      -0.0000    0.0000    0.0000    0.0000   -0.0000   -0.0000   -0.0000   -0.0000    0.0373    0.0000
       28 O2     3d2+       0.0000    0.0000    0.0001   -0.0049   -0.0000    0.0052    0.0258   -0.0000    0.0000    0.0339
       29 O3     1s         0.0017    0.7072    0.7072   -0.0161   -0.0096    0.0075   -0.0152    0.0197    0.0000    0.0066
       30 O3     2s        -0.0003    0.0004    0.0006    0.3147    0.5902    0.5607   -0.3136    0.4041    0.0000    0.0485
       31 O3     3s        -0.0002   -0.0002   -0.0001   -0.0244   -0.0111    0.0097   -0.0307    0.0288    0.0000    0.0207
       32 O3     2px        0.0001   -0.0006   -0.0005   -0.0604   -0.0709    0.1102    0.0755    0.3544    0.0000    0.6160
       33 O3     3px        0.0003    0.0002    0.0003    0.0156    0.0110   -0.0178   -0.0048   -0.0258   -0.0000    0.0014
       34 O3     2py       -0.0002    0.0006    0.0007    0.0974    0.0584   -0.0553    0.3771   -0.2296   -0.0000    0.2119
       35 O3     3py       -0.0002   -0.0004   -0.0003   -0.0257   -0.0093    0.0079   -0.0376    0.0155   -0.0000    0.0228
       36 O3     2pz       -0.0000    0.0000    0.0000    0.0000    0.0000   -0.0000   -0.0000   -0.0000    0.3596    0.0000
       37 O3     3pz       -0.0000    0.0000    0.0000   -0.0000   -0.0000    0.0000    0.0000    0.0000   -0.0258   -0.0000
       38 O3     3d2-       0.0001    0.0001    0.0001   -0.0185   -0.0138    0.0106   -0.0136    0.0286    0.0000    0.0153
       39 O3     3d1-      -0.0000    0.0000   -0.0000    0.0000    0.0000   -0.0000   -0.0000   -0.0000    0.0241    0.0000
       40 O3     3d0        0.0001   -0.0001   -0.0001   -0.0101   -0.0082    0.0024   -0.0107    0.0159    0.0000    0.0051
       41 O3     3d1+       0.0000    0.0000    0.0000    0.0000    0.0000   -0.0000    0.0000    0.0000   -0.0184   -0.0000
       42 O3     3d2+       0.0001    0.0000    0.0000   -0.0068   -0.0013   -0.0024   -0.0219   -0.0012   -0.0000   -0.0065
 
          Orbital           11        12        13        14        15    
          Energy           -0.5481   -0.4822   -0.0570    0.2566    0.2642
          Occ. No.          2.0000    2.0000    0.0000    0.0000    0.0000
 
        1 O1     1s         0.0013   -0.0000    0.0000   -0.0707   -0.1148
        2 O1     2s         0.0015   -0.0000    0.0000   -0.5930   -0.9093
        3 O1     3s         0.0033   -0.0000    0.0000   -0.1841   -0.2805
        4 O1     2px       -0.4830   -0.0000    0.0000    0.3350    0.5795
        5 O1     3px       -0.0208   -0.0000    0.0000    0.2395    0.3109
        6 O1     2py        0.5759    0.0000   -0.0000    0.6873    0.4363
        7 O1     3py        0.0077   -0.0000   -0.0000    0.3683    0.3812
        8 O1     2pz        0.0000   -0.7241    0.6531   -0.0000    0.0000
        9 O1     3pz        0.0000   -0.0522    0.1262    0.0000    0.0000
       10 O1     3d2-      -0.0065   -0.0000    0.0000    0.0009   -0.0161
       11 O1     3d1-      -0.0000    0.0191    0.0047   -0.0000    0.0000
       12 O1     3d0        0.0034    0.0000    0.0000    0.0056    0.0081
       13 O1     3d1+       0.0000    0.0156    0.0053    0.0000   -0.0000
       14 O1     3d2+       0.0165    0.0000    0.0000    0.0025    0.0090
       15 O2     1s        -0.0000    0.0000   -0.0000    0.1817    0.0000
       16 O2     2s        -0.0000    0.0000   -0.0000    1.4295    0.0000
       17 O2     3s         0.0000    0.0000   -0.0000    0.3968    0.0000
       18 O2     2px        0.0000    0.0000   -0.0000    0.7586    0.0000
       19 O2     3px        0.0000    0.0000   -0.0000    0.5020    0.0000
       20 O2     2py       -0.1380    0.0000   -0.0000   -0.0000    1.2009
       21 O2     3py        0.0036   -0.0000   -0.0000   -0.0000    0.7349
       22 O2     2pz       -0.0000    0.0000   -0.8280   -0.0000   -0.0000
       23 O2     3pz        0.0000    0.0000   -0.1364    0.0000   -0.0000
       24 O2     3d2-      -0.0329   -0.0000    0.0000   -0.0000    0.0128
       25 O2     3d1-       0.0000   -0.0479   -0.0000   -0.0000    0.0000
       26 O2     3d0       -0.0000   -0.0000   -0.0000   -0.0008   -0.0000
       27 O2     3d1+      -0.0000    0.0000    0.0074   -0.0000   -0.0000
       28 O2     3d2+      -0.0000   -0.0000   -0.0000   -0.0010   -0.0000
       29 O3     1s        -0.0013   -0.0000   -0.0000   -0.0707    0.1148
       30 O3     2s        -0.0015    0.0000   -0.0000   -0.5930    0.9093
       31 O3     3s        -0.0033   -0.0000   -0.0000   -0.1841    0.2805
       32 O3     2px        0.4830   -0.0000   -0.0000    0.3350   -0.5795
       33 O3     3px        0.0208   -0.0000    0.0000    0.2395   -0.3109
       34 O3     2py        0.5759    0.0000   -0.0000   -0.6873    0.4363
       35 O3     3py        0.0077   -0.0000   -0.0000   -0.3683    0.3812
       36 O3     2pz       -0.0000    0.7241    0.6531   -0.0000   -0.0000
       37 O3     3pz       -0.0000    0.0522    0.1262    0.0000   -0.0000
       38 O3     3d2-      -0.0065   -0.0000    0.0000   -0.0009   -0.0161
       39 O3     3d1-      -0.0000    0.0191   -0.0047   -0.0000   -0.0000
       40 O3     3d0       -0.0034   -0.0000    0.0000    0.0056   -0.0081
       41 O3     3d1+       0.0000   -0.0156    0.0053    0.0000    0.0000
       42 O3     3d2+      -0.0165   -0.0000    0.0000    0.0025   -0.0090
--
 
 
++    Molecular charges:
      ------------------
 
      Mulliken charges per centre and basis function type
      ---------------------------------------------------
 
                O1      O2      O3    
      1s       2.0003  2.0003  2.0003
      2s       1.9228  1.7860  1.9228
      2px      1.5767  1.5083  1.5767
      2pz      1.3685  1.2330  1.3685
      2py      1.2811  1.0630  1.2811
      3s      -0.0073 -0.0098 -0.0073
      3px     -0.0137 -0.0168 -0.0137
      3pz     -0.0181 -0.0083 -0.0181
      3py     -0.0020  0.0100 -0.0020
      3d2+     0.0069  0.0343  0.0069
      3d1+     0.0054  0.0116  0.0054
      3d0      0.0055  0.0078  0.0055
      3d1-     0.0085  0.0350  0.0085
      3d2-     0.0192  0.0378  0.0192
      Total    8.1539  7.6922  8.1539
 
      N-E     -0.1539  0.3078 -0.1539
 
      Total electronic charge=   24.000000
 
      Total            charge=   -0.000000
--
 
 
  Input file to MOLDEN was generated!
 
 
++    Static properties:
      ------------------
 
 
      LoProp Charges per center
 

                   O1       O2       O3    
      Nuclear      8.0000   8.0000   8.0000
      Electronic  -8.2038  -7.5924  -8.2038
 
      Total       -0.2038   0.4076  -0.2038
--
 
 
++    Natural Bond Order analysis
      ---------------------------
      Based on LoProp computed density
      -------------------------------------------------------------------------------------
      Atom A       Atom B       Bond Order | Atom A       Atom B       Bond Order
        O1           O2             2.000  |   O2           O3             2.000
      -------------------------------------------------------------------------------------
      NBO located     12.000 core electrons.
      NBO located      3.970 lone pair electrons.
      NBO located      8.000 electrons involved in    2 bonds.
      The remaining    0.030 electrons are to be considered as diffuse
--
 
 
++    Molecular properties:
      ---------------------
 
      Charge (e):
                      =   -0.0000
      Dipole Moment (Debye):
      Origin of the operator (Ang)=    0.0000    0.0000    0.0000
                   X= -9.9114E-01               Y= -8.8355E-11               Z=  1.1724E-14           Total=  9.9114E-01
      Quadrupole Moment (Debye*Ang):
      Origin of the operator (Ang)=    0.5083    0.0000    0.0000
                  XX= -1.5645E+01              XY= -4.2764E-11              XZ=  6.9601E-15              YY= -1.7884E+01
                  YZ= -1.3629E-13              ZZ= -1.5119E+01
      In traceless form (Debye*Ang)
                  XX=  8.5629E-01              XY= -6.4147E-11              XZ=  1.0440E-14              YY= -2.5017E+00
                  YZ= -2.0443E-13              ZZ=  1.6454E+00
--
 
 
  Input file to MOLDEN was generated!
 
forrtl: warning (528): IEEE_UNDERFLOW is signaling
 ###############################################################################
 ###############################################################################
 ###                                                                         ###
 ###                                                                         ###
 ###    RunFile label nBas                                                   ###
 ###    was used       78 times                                              ###
 ###                                                                         ###
 ###                                                                         ###
 ###############################################################################
 ###############################################################################
--- Stop Module: scf at Fri Jan 24 14:10:09 2025 /rc=_RC_ALL_IS_WELL_ ---
*** files: ozone_106.75.LprOrb ozone_106.75.LoProp.molden ozone_106.75.scf.molden ozone_106.75.ScfOrb ozone_106.75.scf.h5 xmldump
    saved to directory /home/grierjones/DDCASPT2/ozone/ANO-RCC-VDZP/ozone_106.75

>>> COPY /tmp/ozone_106.75/ozone_106.75.scf.h5 /home/grierjones/DDCASPT2/ozone/ANO-RCC-VDZP/ozone_106.75/

*** symbolic link created: INPORB -> ozone_106.75.ScfOrb
--- Start Module: rasscf at Fri Jan 24 14:10:09 2025 ---
 
()()()()()()()()()()()()()()()()()()()()()()()()()()()()()()()()()()()()()()()()()()()()()()()()()()

                                              &RASSCF

                                   only a single process is used
                       available to each process: 2.0 GB of memory, 1 thread?
()()()()()()()()()()()()()()()()()()()()()()()()()()()()()()()()()()()()()()()()()()()()()()()()()()
 
 
 *************** WARNING ****************
 ###############################################################################
 ###############################################################################
 ###                                                                         ###
 ###                                                                         ###
 ###    Too many macro-iterations.                                           ###
 ###                                                                         ###
 ###                                                                         ###
 ###############################################################################
 ###############################################################################
 Too many macro-iterations requested.
 Reset to maximum, new MAXIT=     200
 ****************************************
 
 *************** WARNING ****************
 ###############################################################################
 ###############################################################################
 ###                                                                         ###
 ###                                                                         ###
 ###    Too many SX-iterations.                                              ###
 ###                                                                         ###
 ###                                                                         ###
 ###############################################################################
 ###############################################################################
 Too many SX-iterations requested.
 Reset to maximum, new ITMAX=     100
 ****************************************
 
      Header of the ONEINT file:
      --------------------------
      
      Integrals generated by seward 4.2.0  , Fri Jan 24 14:10:06 2025
 
 
      OrdInt status: non-squared
 
 
      Cartesian coordinates in Angstrom:
      -----------------------------------------------------
      No.  Label        X            Y            Z        
      -----------------------------------------------------
       1   O1         0.76242300   1.02566800   0.00000000
       2   O2         0.00000000   0.00000000   0.00000000
       3   O3         0.76242300  -1.02566800   0.00000000
      -----------------------------------------------------
      Nuclear repulsion energy =   69.51043440
 
++    Wave function specifications:
      -----------------------------
 
      Number of closed shell electrons          20
      Number of electrons in active shells       4
      Max number of holes in RAS1 space          0
      Max nr of electrons in RAS3 space          0
      Number of inactive orbitals               10
      Number of active orbitals                  3
      Number of secondary orbitals              29
      Spin quantum number                      0.0
      State symmetry                             1
--
 
++    Orbital specifications:
      -----------------------
 
      Symmetry species                           1
                                                 a
      Frozen orbitals                            0
      Inactive orbitals                         10
      Active orbitals                            3
      RAS1 orbitals                              0
      RAS2 orbitals                              3
      RAS3 orbitals                              0
      Secondary orbitals                        29
      Deleted orbitals                           0
      Number of basis functions                 42
--
 
++    CI expansion specifications:
      ----------------------------
 
      Number of CSFs                             6
      Number of determinants                     6
      Number of root(s) required                 1
      Root chosen for geometry opt.              1
      CI root used                               1
         
      highest root included in the CI            1
      max. size of the explicit Hamiltonian      6
--
 
++    Optimization specifications:
      ----------------------------
 
      RASSCF algorithm: Conventional
      Maximum number of macro iterations       200
      Maximum number of SX iterations          100
      Threshold for RASSCF energy            0.100E-07
      Threshold for max MO rotation          0.100E+00
      Threshold for max BLB element          0.100E-03
      Level shift parameter                  0.500E+00
      Make Quasi-Newton update
--
 
      The MO-coefficients are taken from the file:
      /home/grierjones/DDCASPT2/ozone/ANO-RCC-VDZP/ozone_106.50/ozone_106.50.RasOrb                                                   
      Title: RASSCF average (pseudo-natural) orbitals                                      
 
      Total molecular charge    0.00
 
      ************************************************************************************************************************
      *                                                                                                                      *
      *                                            Wave function control section                                             *
      *                                                                                                                      *
      ************************************************************************************************************************
 
 
                                         RASSCF iterations: Energy and convergence statistics
                                         ----------------------------------------------------
 
      Iter CI   SX   CI       RASSCF       Energy    max ROT     max BLB   max BLB  Level Ln srch  Step   QN   Walltime
          iter iter root      energy       change     param      element    value   shift minimum  type update hh:mm:ss
 Nr of preliminary CI iterations:   1
        1   1    4    1  -224.58543385    0.00E+00  -0.47E-03    4  42 1  0.12E-02*  0.18   0.00    SX    NO    0:00:00
        2   1    4    1  -224.58543921   -0.54E-05* -0.28E-03    9  14 1 -0.57E-03*  0.18   0.00    SX    NO    0:00:00
        3   1    4    1  -224.58544045   -0.12E-05*  0.16E-03   10  18 1 -0.38E-03*  0.18   0.00    SX    NO    0:00:00
        4   1    3    1  -224.58544087   -0.41E-06*  0.98E-04   10  18 1 -0.21E-03*  0.18   0.00    SX    NO    0:00:00
        5   1    3    1  -224.58544101   -0.14E-06*  0.14E-03   10  18 1 -0.15E-03*  0.18   2.44    LS   YES    0:00:00
        6   1    3    1  -224.58544107   -0.67E-07* -0.34E-04    8  18 1  0.11E-03*  0.18   0.90    QN   YES    0:00:00
        7   1    3    1  -224.58544109   -0.14E-07*  0.11E-04    8  18 1 -0.54E-04   0.18   0.73    QN   YES    0:00:00
        8   1    3    1  -224.58544109   -0.34E-09  -0.73E-05    8  18 1  0.36E-04   0.18   0.46    QN   YES    0:00:00
      Convergence after  8 iterations
 
  Dmat in MO in SXCTL bf call to SXHAM                                                                                    
  mat. size =     3x    3
 
        1.9937744012267644
       -0.0000000000238739      1.5601383243800118
        0.0005957829052961     -0.0000000000306792      0.4460872743932228
        9   1    3    1  -224.58544109   -0.50E-09  -0.73E-05    6  14 1  0.20E-05   0.18   0.46    QN   YES    0:00:00
 
      ************************************************************************************************************************
                                                      Wave function printout:
                       occupation of active orbitals, and spin coupling of open shells (u,d: Spin up or down)
      ************************************************************************************************************************
 
      Note: transformation to natural orbitals
      has been made, which may change the order of the CSFs.
 
      printout of CI-coefficients larger than  0.05 for root  1
      energy=    -224.585441
      conf/sym  111     Coeff  Weight
             1  220  -0.88145 0.77696
             3  202   0.46897 0.21993
             6  022   0.05579 0.00311
 
      Natural orbitals and occupation numbers for root  1
      sym 1:   1.993775   1.560138   0.446087
 
      ************************************************************************************************************************
      *                                                                                                                      *
      *                                                    Final results                                                     *
      *                                                                                                                      *
      ************************************************************************************************************************
 
 
++    Wave function specifications:
      -----------------------------
 
      Number of closed shell electrons          20
      Number of electrons in active shells       4
      Max number of holes in RAS1 space          0
      Max nr of electrons in RAS3 space          0
      Number of inactive orbitals               10
      Number of active orbitals                  3
      Number of secondary orbitals              29
      Spin quantum number                      0.0
      State symmetry                             1
--
 
++    Orbital specifications:
      -----------------------
 
      Symmetry species                           1
                                                 a
      Frozen orbitals                            0
      Inactive orbitals                         10
      Active orbitals                            3
      RAS1 orbitals                              0
      RAS2 orbitals                              3
      RAS3 orbitals                              0
      Secondary orbitals                        29
      Deleted orbitals                           0
      Number of basis functions                 42
--
 
++    CI expansion specifications:
      ----------------------------
 
      Number of CSFs                             6
      Number of determinants                     6
      Number of root(s) required                 1
      CI root used                               1
      highest root included in the CI            1
      Root passed to geometry opt.               1
--
 
++    Final optimization conditions:
      ------------------------------
 
      Average CI energy                            -224.58544109
      RASSCF energy for state  1                   -224.58544109
      Super-CI energy                                -0.00000000
      RASSCF energy change                           -0.00000000
      Max change in MO coefficients               0.604E-05
      Max non-diagonal density matrix element    -0.734E-05
      Maximum BLB matrix element                  0.203E-05
      (orbital pair   6,  14 in symmetry   1)
      Norm of electronic gradient            0.144E-04
--
 
 
      Final state energy(ies):
      ------------------------
 
::    RASSCF root number  1 Total energy:   -224.58544109
 
++    Molecular orbitals:
      -------------------
 
      Pseudonatural active orbitals and approximate occupation numbers
 
 
 
 
      Molecular orbitals for symmetry species 1: a  
 
 
      Orbital                1         2         3         4         5         6         7         8         9        10
      Energy          -20.8151  -20.7056  -20.7055   -1.7276   -1.4014   -1.0876   -0.8011   -0.7776   -0.5601   -0.5499
      Occ. No.          2.0000    2.0000    2.0000    2.0000    2.0000    2.0000    2.0000    2.0000    2.0000    2.0000
 
    1 O1     1s         0.0030   -0.7072    0.7072   -0.0159    0.0084    0.0096   -0.0133   -0.0184    0.0069    0.0015
    2 O1     2s        -0.0002   -0.0004    0.0006    0.3358   -0.6101    0.5760   -0.2534   -0.3646    0.0442    0.0017
    3 O1     3s        -0.0002    0.0003   -0.0002   -0.0249    0.0098    0.0138   -0.0283   -0.0270    0.0249    0.0036
    4 O1     2px        0.0002    0.0005   -0.0005   -0.0622    0.0688    0.1259    0.1259   -0.3880    0.6169   -0.4730
    5 O1     3px        0.0003   -0.0002    0.0003    0.0155   -0.0102   -0.0181   -0.0090    0.0236    0.0053   -0.0219
    6 O1     2py        0.0001    0.0006   -0.0007   -0.1023    0.0572    0.0845   -0.4108   -0.2485   -0.1592    0.5863
    7 O1     3py        0.0002   -0.0005    0.0003    0.0260   -0.0086   -0.0121    0.0334    0.0135   -0.0263    0.0095
    8 O1     2pz       -0.0000    0.0000    0.0000   -0.0000    0.0000    0.0000   -0.0000    0.0000   -0.0000    0.0000
    9 O1     3pz       -0.0000   -0.0000   -0.0000    0.0000   -0.0000    0.0000    0.0000   -0.0000   -0.0000   -0.0000
   10 O1     3d2-      -0.0001    0.0001   -0.0001    0.0184   -0.0132   -0.0127    0.0110    0.0289   -0.0156   -0.0064
   11 O1     3d1-      -0.0000   -0.0000    0.0000    0.0000   -0.0000    0.0000    0.0000   -0.0000    0.0000   -0.0000
   12 O1     3d0        0.0001    0.0002   -0.0001   -0.0112    0.0090    0.0036   -0.0104   -0.0162    0.0059    0.0038
   13 O1     3d1+       0.0000    0.0000   -0.0000   -0.0000    0.0000   -0.0000    0.0000   -0.0000    0.0000   -0.0000
   14 O1     3d2+       0.0001   -0.0000    0.0000   -0.0073    0.0014   -0.0010   -0.0229    0.0008   -0.0033    0.0160
   15 O2     1s         1.0001   -0.0000   -0.0045   -0.0226   -0.0000   -0.0145   -0.0107    0.0000    0.0185    0.0000
   16 O2     2s         0.0009   -0.0000   -0.0006    0.6161   -0.0000   -0.6846   -0.1520    0.0000    0.2646    0.0000
   17 O2     3s        -0.0002   -0.0000   -0.0006   -0.0352   -0.0000   -0.0121   -0.0176   -0.0000    0.0314    0.0000
   18 O2     2px        0.0011   -0.0000   -0.0004    0.1366    0.0000    0.2012    0.5962   -0.0000   -0.5183   -0.0000
   19 O2     3px       -0.0009   -0.0000   -0.0006   -0.0273   -0.0000   -0.0228   -0.0402    0.0000   -0.0213   -0.0000
   20 O2     2py        0.0000    0.0005   -0.0000    0.0000   -0.2905    0.0000    0.0000    0.5241    0.0000   -0.1371
   21 O2     3py        0.0000    0.0006   -0.0000    0.0000    0.0628    0.0000   -0.0000   -0.0610    0.0000   -0.0027
   22 O2     2pz       -0.0000    0.0000   -0.0000   -0.0000    0.0000   -0.0000    0.0000    0.0000   -0.0000    0.0000
   23 O2     3pz       -0.0000   -0.0000    0.0000   -0.0000    0.0000   -0.0000   -0.0000   -0.0000   -0.0000   -0.0000
   24 O2     3d2-       0.0000    0.0003   -0.0000   -0.0000   -0.0412    0.0000    0.0000    0.0346    0.0000   -0.0328
   25 O2     3d1-      -0.0000    0.0000   -0.0000   -0.0000   -0.0000    0.0000   -0.0000    0.0000   -0.0000   -0.0000
   26 O2     3d0       -0.0000    0.0000    0.0003   -0.0182   -0.0000   -0.0074   -0.0178   -0.0000    0.0216    0.0000
   27 O2     3d1+      -0.0000   -0.0000    0.0000   -0.0000    0.0000   -0.0000    0.0000    0.0000   -0.0000    0.0000
   28 O2     3d2+       0.0000    0.0000    0.0001   -0.0041   -0.0000    0.0054    0.0297   -0.0000    0.0274    0.0000
   29 O3     1s         0.0030    0.7072    0.7072   -0.0159   -0.0084    0.0096   -0.0133    0.0184    0.0069   -0.0015
   30 O3     2s        -0.0002    0.0004    0.0006    0.3358    0.6101    0.5760   -0.2534    0.3646    0.0442   -0.0017
   31 O3     3s        -0.0002   -0.0003   -0.0002   -0.0249   -0.0098    0.0138   -0.0283    0.0270    0.0249   -0.0036
   32 O3     2px        0.0002   -0.0005   -0.0005   -0.0622   -0.0688    0.1259    0.1259    0.3880    0.6169    0.4730
   33 O3     3px        0.0003    0.0002    0.0003    0.0155    0.0102   -0.0181   -0.0090   -0.0236    0.0053    0.0219
   34 O3     2py       -0.0001    0.0006    0.0007    0.1023    0.0572   -0.0845    0.4108   -0.2485    0.1592    0.5863
   35 O3     3py       -0.0002   -0.0005   -0.0003   -0.0260   -0.0086    0.0121   -0.0334    0.0135    0.0263    0.0095
   36 O3     2pz        0.0000    0.0000   -0.0000    0.0000    0.0000   -0.0000    0.0000    0.0000    0.0000    0.0000
   37 O3     3pz        0.0000   -0.0000    0.0000   -0.0000   -0.0000   -0.0000   -0.0000   -0.0000    0.0000   -0.0000
   38 O3     3d2-       0.0001    0.0001    0.0001   -0.0184   -0.0132    0.0127   -0.0110    0.0289    0.0156   -0.0064
   39 O3     3d1-      -0.0000    0.0000    0.0000    0.0000    0.0000    0.0000    0.0000    0.0000    0.0000    0.0000
   40 O3     3d0        0.0001   -0.0002   -0.0001   -0.0112   -0.0090    0.0036   -0.0104    0.0162    0.0059   -0.0038
   41 O3     3d1+      -0.0000    0.0000    0.0000    0.0000    0.0000    0.0000   -0.0000   -0.0000   -0.0000   -0.0000
   42 O3     3d2+       0.0001    0.0000    0.0000   -0.0073   -0.0014   -0.0010   -0.0229   -0.0008   -0.0033   -0.0160
 
 
      Orbital               11        12        13        14        15        16        17        18        19        20
      Energy            0.0000    0.0000    0.0000    0.2695    0.2774    0.4673    0.4885    0.5304    0.6709    0.6856
      Occ. No.          1.9938    1.5601    0.4461    0.0000    0.0000    0.0000    0.0000    0.0000    0.0000    0.0000
 
    1 O1     1s         0.0000    0.0000   -0.0000   -0.0733   -0.1196   -0.0000   -0.0327   -0.0421    0.0255    0.0013
    2 O1     2s         0.0000    0.0000   -0.0000   -0.6120   -0.9357   -0.0000   -0.1395   -0.2029    0.1052    0.0415
    3 O1     3s         0.0000   -0.0000   -0.0000   -0.1868   -0.2926   -0.0000   -0.1441   -0.1520    0.1859    0.0301
    4 O1     2px        0.0000   -0.0000    0.0000    0.3234    0.5573    0.0000   -0.1638   -0.2246    0.0083   -0.0764
    5 O1     3px        0.0000   -0.0000   -0.0000    0.2487    0.3242    0.0000    0.3946    0.0119    0.2598   -0.7613
    6 O1     2py       -0.0000    0.0000   -0.0000    0.6815    0.4096   -0.0000   -0.1790   -0.1916   -0.0150   -0.1289
    7 O1     3py       -0.0000    0.0000    0.0000    0.3791    0.4085    0.0000    0.0268    0.4253   -0.7225   -0.2477
    8 O1     2pz        0.2398   -0.7219    0.6929   -0.0000   -0.0000   -0.0245    0.0000    0.0000   -0.0000   -0.0000
    9 O1     3pz       -0.0308   -0.0108   -0.0426   -0.0000   -0.0000    0.4600    0.0000   -0.0000   -0.0000   -0.0000
   10 O1     3d2-       0.0000    0.0000    0.0000    0.0020   -0.0174   -0.0000   -0.0466   -0.0740    0.0223   -0.0387
   11 O1     3d1-      -0.0232    0.0146    0.0049    0.0000   -0.0000    0.0256    0.0000   -0.0000   -0.0000    0.0000
   12 O1     3d0       -0.0000    0.0000   -0.0000    0.0053    0.0090    0.0000    0.0299    0.0449   -0.0048    0.0067
   13 O1     3d1+      -0.0166    0.0114    0.0013    0.0000   -0.0000    0.0211   -0.0000   -0.0000    0.0000    0.0000
   14 O1     3d2+      -0.0000    0.0000   -0.0000    0.0016    0.0090   -0.0000    0.0624   -0.0165   -0.0128    0.0088
   15 O2     1s         0.0000   -0.0000   -0.0000    0.1834    0.0000    0.0000    0.0451   -0.0000   -0.0901   -0.0000
   16 O2     2s         0.0000   -0.0000   -0.0000    1.4505    0.0000    0.0000    0.1596    0.0000   -0.4795   -0.0000
   17 O2     3s         0.0000   -0.0000   -0.0000    0.4218    0.0000    0.0000    0.2275   -0.0000   -0.2375   -0.0000
   18 O2     2px       -0.0000    0.0000    0.0000    0.7840    0.0000    0.0000   -0.2522    0.0000   -0.1423   -0.0000
   19 O2     3px       -0.0000    0.0000    0.0000    0.5116    0.0000    0.0000    0.5223   -0.0000   -0.6000   -0.0000
   20 O2     2py        0.0000   -0.0000    0.0000   -0.0000    1.2047    0.0000   -0.0000   -0.3808    0.0000    0.0280
   21 O2     3py       -0.0000    0.0000    0.0000   -0.0000    0.7807    0.0000    0.0000    0.5475    0.0000    0.2659
   22 O2     2pz        0.8414    0.0000   -0.6015    0.0000    0.0000   -0.2071    0.0000   -0.0000    0.0000    0.0000
   23 O2     3pz       -0.0173    0.0000   -0.0659   -0.0000    0.0000    0.3793   -0.0000   -0.0000    0.0000    0.0000
   24 O2     3d2-       0.0000    0.0000    0.0000   -0.0000    0.0280    0.0000    0.0000    0.1275    0.0000   -0.1176
   25 O2     3d1-      -0.0000   -0.0361   -0.0000   -0.0000    0.0000   -0.0000   -0.0000   -0.0000    0.0000    0.0000
   26 O2     3d0        0.0000   -0.0000   -0.0000   -0.0042   -0.0000   -0.0000   -0.0661    0.0000    0.0947    0.0000
   27 O2     3d1+       0.0352    0.0000   -0.0069    0.0000    0.0000   -0.0495    0.0000    0.0000   -0.0000   -0.0000
   28 O2     3d2+      -0.0000   -0.0000    0.0000   -0.0011   -0.0000    0.0000   -0.0903    0.0000   -0.0116   -0.0000
   29 O3     1s        -0.0000    0.0000    0.0000   -0.0733    0.1196    0.0000   -0.0327    0.0421    0.0255   -0.0013
   30 O3     2s        -0.0000    0.0000    0.0000   -0.6120    0.9357    0.0000   -0.1395    0.2029    0.1052   -0.0415
   31 O3     3s        -0.0000   -0.0000    0.0000   -0.1868    0.2926    0.0000   -0.1441    0.1520    0.1859   -0.0301
   32 O3     2px       -0.0000   -0.0000   -0.0000    0.3234   -0.5573   -0.0000   -0.1638    0.2246    0.0083    0.0764
   33 O3     3px       -0.0000   -0.0000    0.0000    0.2487   -0.3242   -0.0000    0.3946   -0.0119    0.2598    0.7613
   34 O3     2py       -0.0000   -0.0000   -0.0000   -0.6815    0.4096   -0.0000    0.1790   -0.1916    0.0150   -0.1289
   35 O3     3py       -0.0000   -0.0000    0.0000   -0.3791    0.4085    0.0000   -0.0268    0.4253    0.7225   -0.2477
   36 O3     2pz        0.2398    0.7219    0.6929    0.0000   -0.0000   -0.0245   -0.0000    0.0000    0.0000   -0.0000
   37 O3     3pz       -0.0308    0.0108   -0.0426    0.0000   -0.0000    0.4600   -0.0000   -0.0000    0.0000   -0.0000
   38 O3     3d2-       0.0000   -0.0000    0.0000   -0.0020   -0.0174   -0.0000    0.0466   -0.0740   -0.0223   -0.0387
   39 O3     3d1-       0.0232    0.0146   -0.0049    0.0000    0.0000   -0.0256    0.0000    0.0000   -0.0000   -0.0000
   40 O3     3d0        0.0000    0.0000    0.0000    0.0053   -0.0090   -0.0000    0.0299   -0.0449   -0.0048   -0.0067
   41 O3     3d1+      -0.0166   -0.0114    0.0013   -0.0000   -0.0000    0.0211    0.0000   -0.0000   -0.0000    0.0000
   42 O3     3d2+       0.0000    0.0000    0.0000    0.0016   -0.0090    0.0000    0.0624    0.0165   -0.0128   -0.0088
 
 
      Orbital               21        22        23        24        25        26        27        28        29        30
      Energy            0.7361    0.8167    0.8598    0.8786    1.0393    1.6763    1.6996    1.7028    1.7797    1.7885
      Occ. No.          0.0000    0.0000    0.0000    0.0000    0.0000    0.0000    0.0000    0.0000    0.0000    0.0000
 
    1 O1     1s        -0.0000    0.0325   -0.0000   -0.0500    0.0801   -0.0314    0.0000   -0.0000   -0.1415   -0.0640
    2 O1     2s        -0.0000    0.1679   -0.0000   -0.2843    0.4200   -0.2159    0.0000   -0.0000   -1.0570   -0.4745
    3 O1     3s        -0.0000    0.3432   -0.0000    0.3616    0.1191   -0.2161    0.0000   -0.0000   -1.3300   -0.5995
    4 O1     2px       -0.0000    0.1751    0.0000   -0.1760   -0.3654    0.2125   -0.0000   -0.0000    0.3874    0.1171
    5 O1     3px       -0.0000    0.5363   -0.0000   -0.3547   -0.7248    0.0750   -0.0000    0.0000    0.4160    0.2629
    6 O1     2py       -0.0000   -0.0466   -0.0000    0.0774    0.3134    0.0295   -0.0000    0.0000    0.3266    0.2861
    7 O1     3py        0.0000    0.3602   -0.0000    0.0475    0.7283    0.1206   -0.0000   -0.0000    0.2348    0.2855
    8 O1     2pz       -0.1395    0.0000    0.3854    0.0000   -0.0000   -0.0000   -0.1370   -0.1554   -0.0000    0.0000
    9 O1     3pz       -0.8929   -0.0000    0.7860    0.0000    0.0000   -0.0000   -0.0788   -0.0098   -0.0000    0.0000
   10 O1     3d2-      -0.0000   -0.0124   -0.0000   -0.0892    0.0628    0.2599   -0.0000   -0.0000    0.0414    0.0651
   11 O1     3d1-      -0.0358   -0.0000   -0.0390    0.0000    0.0000   -0.0000   -0.4612   -0.2072   -0.0000    0.0000
   12 O1     3d0        0.0000   -0.0308   -0.0000    0.0898   -0.0741    0.2204    0.0000    0.0000   -0.2217    0.2384
   13 O1     3d1+      -0.0015   -0.0000    0.0237    0.0000    0.0000   -0.0000    0.0922   -0.3980   -0.0000    0.0000
   14 O1     3d2+       0.0000   -0.0122   -0.0000    0.0064   -0.0975    0.3039   -0.0000   -0.0000    0.0062   -0.2847
   15 O2     1s         0.0000    0.0517    0.0000   -0.0376   -0.0000    0.0630   -0.0000    0.0000   -0.0000    0.1673
   16 O2     2s         0.0000    0.2180    0.0000   -0.1290   -0.0000    0.4614   -0.0000    0.0000   -0.0000    1.1660
   17 O2     3s         0.0000    0.3915   -0.0000    0.3208   -0.0000    0.5164   -0.0000    0.0000   -0.0000    1.1692
   18 O2     2px        0.0000   -0.3683   -0.0000    0.3776   -0.0000    0.2710   -0.0000   -0.0000   -0.0000    0.1907
   19 O2     3px        0.0000   -0.9317   -0.0000    0.7108    0.0000    0.0186    0.0000    0.0000   -0.0000    0.1951
   20 O2     2py       -0.0000    0.0000    0.0000    0.0000   -0.7283   -0.0000   -0.0000   -0.0000    0.9785    0.0000
   21 O2     3py       -0.0000    0.0000    0.0000    0.0000   -1.4507   -0.0000   -0.0000   -0.0000    1.1585    0.0000
   22 O2     2pz        0.0000    0.0000   -0.5986   -0.0000    0.0000   -0.0000   -0.1108    0.0000   -0.0000    0.0000
   23 O2     3pz        0.0000    0.0000   -1.4883   -0.0000   -0.0000    0.0000    0.1923   -0.0000    0.0000   -0.0000
   24 O2     3d2-       0.0000   -0.0000   -0.0000   -0.0000    0.0998   -0.0000   -0.0000   -0.0000    0.0707    0.0000
   25 O2     3d1-       0.0498    0.0000    0.0000   -0.0000   -0.0000    0.0000    0.0000    0.6074    0.0000   -0.0000
   26 O2     3d0       -0.0000   -0.0637   -0.0000    0.1625   -0.0000    0.2925   -0.0000   -0.0000   -0.0000    0.2468
   27 O2     3d1+      -0.0000   -0.0000    0.0455    0.0000   -0.0000    0.0000    0.5741   -0.0000    0.0000   -0.0000
   28 O2     3d2+       0.0000    0.0009   -0.0000    0.0472   -0.0000   -0.4292    0.0000    0.0000   -0.0000    0.3562
   29 O3     1s        -0.0000    0.0325    0.0000   -0.0500   -0.0801   -0.0314   -0.0000   -0.0000    0.1415   -0.0640
   30 O3     2s        -0.0000    0.1679    0.0000   -0.2843   -0.4200   -0.2159   -0.0000   -0.0000    1.0570   -0.4745
   31 O3     3s        -0.0000    0.3432    0.0000    0.3616   -0.1191   -0.2161   -0.0000   -0.0000    1.3300   -0.5995
   32 O3     2px       -0.0000    0.1751   -0.0000   -0.1760    0.3654    0.2125    0.0000   -0.0000   -0.3874    0.1171
   33 O3     3px       -0.0000    0.5363    0.0000   -0.3547    0.7248    0.0750    0.0000    0.0000   -0.4160    0.2629
   34 O3     2py        0.0000    0.0466   -0.0000   -0.0774    0.3134   -0.0295   -0.0000   -0.0000    0.3266   -0.2861
   35 O3     3py       -0.0000   -0.3602   -0.0000   -0.0475    0.7283   -0.1206   -0.0000    0.0000    0.2348   -0.2855
   36 O3     2pz        0.1395   -0.0000    0.3854   -0.0000   -0.0000    0.0000   -0.1370    0.1554   -0.0000   -0.0000
   37 O3     3pz        0.8929    0.0000    0.7860   -0.0000    0.0000    0.0000   -0.0788    0.0098   -0.0000   -0.0000
   38 O3     3d2-       0.0000    0.0124   -0.0000    0.0892    0.0628   -0.2599   -0.0000    0.0000    0.0414   -0.0651
   39 O3     3d1-      -0.0358   -0.0000    0.0390    0.0000   -0.0000   -0.0000    0.4612   -0.2072    0.0000    0.0000
   40 O3     3d0        0.0000   -0.0308    0.0000    0.0898    0.0741    0.2204   -0.0000    0.0000    0.2217    0.2384
   41 O3     3d1+       0.0015    0.0000    0.0237   -0.0000    0.0000    0.0000    0.0922    0.3980   -0.0000   -0.0000
   42 O3     3d2+       0.0000   -0.0122    0.0000    0.0064    0.0975    0.3039    0.0000   -0.0000   -0.0062   -0.2847
 
 
      Orbital               31        32        33        34        35        36        37        38        39        40
      Energy            2.1819    2.1897    2.2351    2.2715    2.7248    2.7454    2.7975    3.1074    3.1713    3.2887
      Occ. No.          0.0000    0.0000    0.0000    0.0000    0.0000    0.0000    0.0000    0.0000    0.0000    0.0000
 
    1 O1     1s        -0.0824   -0.0000    0.1276    0.0000    0.1048    0.0099   -0.0684   -0.1508   -0.0000    0.0000
    2 O1     2s        -0.5603   -0.0000    0.8730    0.0000    0.5842    0.2102   -0.3127   -1.0468   -0.0000    0.0000
    3 O1     3s        -0.4501   -0.0000    0.6694    0.0000    0.1325    0.4562    0.0728   -0.6718   -0.0000    0.0000
    4 O1     2px        0.2004    0.0000   -0.2314   -0.0000   -0.0343   -0.1957    0.3141    0.2991    0.0000   -0.0000
    5 O1     3px        0.1223    0.0000   -0.0578   -0.0000    0.1989   -0.3325    0.3320    0.0883    0.0000   -0.0000
    6 O1     2py        0.1553    0.0000   -0.4195   -0.0000   -0.1888   -0.1246   -0.1991    0.6904    0.0000   -0.0000
    7 O1     3py       -0.0413    0.0000   -0.2670   -0.0000    0.1110   -0.2537   -0.5345    0.4055   -0.0000   -0.0000
    8 O1     2pz        0.0000   -0.0415    0.0000   -0.0193   -0.0000   -0.0000    0.0000   -0.0000   -0.3681   -0.2903
    9 O1     3pz        0.0000   -0.1498    0.0000   -0.1207   -0.0000   -0.0000    0.0000   -0.0000   -0.3626   -0.2404
   10 O1     3d2-       0.3206    0.0000    0.2282    0.0000   -0.4347    0.5382   -0.2349   -0.4410   -0.0000    0.0000
   11 O1     3d1-       0.0000   -0.1018   -0.0000    0.5878    0.0000    0.0000   -0.0000    0.0000    0.6150    0.4722
   12 O1     3d0        0.5160    0.0000    0.4875    0.0000    0.0541   -0.3371   -0.3101    0.4018    0.0000   -0.0000
   13 O1     3d1+      -0.0000    0.6705    0.0000   -0.4312   -0.0000    0.0000    0.0000    0.0000    0.3284    0.4777
   14 O1     3d2+      -0.3008   -0.0000   -0.1433   -0.0000    0.0972    0.1968   -0.6702    0.4784   -0.0000   -0.0000
   15 O2     1s        -0.0000    0.0000   -0.1872   -0.0000    0.0286    0.0000   -0.0000    0.3318    0.0000   -0.0000
   16 O2     2s        -0.0000    0.0000   -1.4496   -0.0000   -0.1202   -0.0000   -0.0000    2.2527    0.0000   -0.0000
   17 O2     3s        -0.0000    0.0000   -1.4724   -0.0000   -0.7096   -0.0000   -0.0000    1.3199    0.0000   -0.0000
   18 O2     2px       -0.0000    0.0000   -0.6805   -0.0000   -0.3436   -0.0000   -0.0000    1.1331    0.0000   -0.0000
   19 O2     3px       -0.0000    0.0000   -0.6131   -0.0000   -0.6522   -0.0000   -0.0000    0.5525    0.0000   -0.0000
   20 O2     2py        0.5939    0.0000   -0.0000    0.0000    0.0000   -0.5668    0.7004    0.0000    0.0000   -0.0000
   21 O2     3py        0.6588    0.0000   -0.0000    0.0000    0.0000    0.0344    0.9176    0.0000    0.0000   -0.0000
   22 O2     2pz       -0.0000    0.2915    0.0000    0.0000    0.0000    0.0000   -0.0000   -0.0000    0.7142   -0.0000
   23 O2     3pz       -0.0000    0.2115    0.0000    0.0000    0.0000    0.0000    0.0000   -0.0000    0.6998   -0.0000
   24 O2     3d2-       0.2517    0.0000   -0.0000    0.0000   -0.0000    0.5034    0.2919    0.0000    0.0000   -0.0000
   25 O2     3d1-       0.0000    0.0000    0.0000   -0.1397    0.0000   -0.0000    0.0000    0.0000    0.0000    0.9926
   26 O2     3d0       -0.0000    0.0000   -0.1205   -0.0000    0.7986    0.0000    0.0000   -0.6395   -0.0000    0.0000
   27 O2     3d1+       0.0000   -0.3499   -0.0000   -0.0000    0.0000    0.0000   -0.0000   -0.0000    0.9097   -0.0000
   28 O2     3d2+       0.0000   -0.0000    0.1163    0.0000    0.0624    0.0000   -0.0000    0.3630   -0.0000    0.0000
   29 O3     1s         0.0824    0.0000    0.1276    0.0000    0.1048   -0.0099    0.0684   -0.1508    0.0000    0.0000
   30 O3     2s         0.5603    0.0000    0.8730    0.0000    0.5842   -0.2102    0.3127   -1.0468    0.0000    0.0000
   31 O3     3s         0.4501    0.0000    0.6694    0.0000    0.1325   -0.4562   -0.0728   -0.6718    0.0000    0.0000
   32 O3     2px       -0.2004   -0.0000   -0.2314   -0.0000   -0.0343    0.1957   -0.3141    0.2991   -0.0000   -0.0000
   33 O3     3px       -0.1223   -0.0000   -0.0578   -0.0000    0.1989    0.3325   -0.3320    0.0883   -0.0000   -0.0000
   34 O3     2py        0.1553    0.0000    0.4195    0.0000    0.1888   -0.1246   -0.1991   -0.6904    0.0000    0.0000
   35 O3     3py       -0.0413    0.0000    0.2670    0.0000   -0.1110   -0.2537   -0.5345   -0.4055   -0.0000    0.0000
   36 O3     2pz        0.0000   -0.0415   -0.0000    0.0193    0.0000   -0.0000    0.0000    0.0000   -0.3681    0.2903
   37 O3     3pz        0.0000   -0.1498   -0.0000    0.1207    0.0000   -0.0000    0.0000    0.0000   -0.3626    0.2404
   38 O3     3d2-       0.3206    0.0000   -0.2282   -0.0000    0.4347    0.5382   -0.2349    0.4410   -0.0000   -0.0000
   39 O3     3d1-      -0.0000    0.1018   -0.0000    0.5878    0.0000   -0.0000    0.0000    0.0000   -0.6150    0.4722
   40 O3     3d0       -0.5160   -0.0000    0.4875    0.0000    0.0541    0.3371    0.3101    0.4018   -0.0000   -0.0000
   41 O3     3d1+      -0.0000    0.6705   -0.0000    0.4312    0.0000    0.0000    0.0000   -0.0000    0.3284   -0.4777
   42 O3     3d2+       0.3008    0.0000   -0.1433   -0.0000    0.0972   -0.1968    0.6702    0.4784    0.0000   -0.0000
 
 
      Orbital               41        42
      Energy            3.4346    3.6774
      Occ. No.          0.0000    0.0000
 
    1 O1     1s        -0.1760    0.0795
    2 O1     2s        -1.1862    0.5832
    3 O1     3s        -0.6901    0.3836
    4 O1     2px        0.4475   -0.5535
    5 O1     3px        0.2247   -0.3159
    6 O1     2py        0.5869   -0.2213
    7 O1     3py        0.1200   -0.1277
    8 O1     2pz        0.0000    0.0000
    9 O1     3pz        0.0000    0.0000
   10 O1     3d2-      -0.5085    0.4663
   11 O1     3d1-      -0.0000   -0.0000
   12 O1     3d0        0.2241   -0.2626
   13 O1     3d1+      -0.0000   -0.0000
   14 O1     3d2+       0.3115    0.4818
   15 O2     1s        -0.0000   -0.2093
   16 O2     2s         0.0000   -1.4042
   17 O2     3s         0.0000   -0.7970
   18 O2     2px        0.0000   -0.0703
   19 O2     3px        0.0000    0.2396
   20 O2     2py        1.2305   -0.0000
   21 O2     3py        0.6766   -0.0000
   22 O2     2pz       -0.0000    0.0000
   23 O2     3pz       -0.0000    0.0000
   24 O2     3d2-       1.1588   -0.0000
   25 O2     3d1-       0.0000   -0.0000
   26 O2     3d0        0.0000    0.3004
   27 O2     3d1+      -0.0000    0.0000
   28 O2     3d2+       0.0000    1.0502
   29 O3     1s         0.1760    0.0795
   30 O3     2s         1.1862    0.5832
   31 O3     3s         0.6901    0.3836
   32 O3     2px       -0.4475   -0.5535
   33 O3     3px       -0.2247   -0.3159
   34 O3     2py        0.5869    0.2213
   35 O3     3py        0.1200    0.1277
   36 O3     2pz        0.0000   -0.0000
   37 O3     3pz        0.0000   -0.0000
   38 O3     3d2-      -0.5085   -0.4663
   39 O3     3d1-       0.0000   -0.0000
   40 O3     3d0       -0.2241   -0.2626
   41 O3     3d1+      -0.0000    0.0000
   42 O3     3d2+      -0.3115    0.4818
--
 
      Von Neumann Entropy (Root  1) =  0.76680
 

      Mulliken population analysis for root number:  1
      -----------------------------------------------
 
 
++    Molecular charges:
      ------------------
 
      Mulliken charges per centre and basis function type
      ---------------------------------------------------
 
                O1      O2      O3    
      1s       2.0002  2.0003  2.0002
      2s       1.9188  1.7876  1.9188
      2px      1.6258  1.4322  1.6258
      2pz      1.1563  1.6669  1.1563
      2py      1.3434  0.9529  1.3434
      3s      -0.0057 -0.0140 -0.0057
      3px     -0.0155 -0.0283 -0.0155
      3pz     -0.0123 -0.0111 -0.0123
      3py     -0.0022 -0.0019 -0.0022
      3d2+     0.0071  0.0317  0.0071
      3d1+     0.0052  0.0075  0.0052
      3d0      0.0055  0.0092  0.0055
      3d1-     0.0096  0.0193  0.0096
      3d2-     0.0181  0.0392  0.0181
      Total    8.0542  7.8916  8.0542
 
      N-E     -0.0542  0.1084 -0.0542
 
      Total electronic charge=   24.000000
 
      Total            charge=   -0.000000
--
 
 

      Expectation values of various properties for root number:  1
      -----------------------------------------------------------
 
 
++    Molecular properties:
      ---------------------
 
      Charge (e):
                      =   -0.0000
      Dipole Moment (Debye):
      Origin of the operator (Ang)=    0.0000    0.0000    0.0000
                   X= -2.7952E-01               Y= -4.5678E-11               Z=  9.8442E-13           Total=  2.7952E-01
      Quadrupole Moment (Debye*Ang):
      Origin of the operator (Ang)=    0.5083    0.0000    0.0000
                  XX= -1.6069E+01              XY= -3.0850E-11              XZ= -3.4741E-10              YY= -1.6923E+01
                  YZ= -4.5019E-05              ZZ= -1.4541E+01
      In traceless form (Debye*Ang)
                  XX= -3.3728E-01              XY= -4.6274E-11              XZ= -5.2112E-10              YY= -1.6179E+00
                  YZ= -6.7529E-05              ZZ=  1.9552E+00
--
 

      LoProp population analysis for root number:  1
      -----------------------------------------------
 
 
++    LoProp analysis:
      ----------------
 
 
 
  Input file to MOLDEN was generated!
 
 
++    Static properties:
      ------------------
 
 
      LoProp Charges per center
 

                   O1       O2       O3    
      Nuclear      8.0000   8.0000   8.0000
      Electronic  -8.0829  -7.8341  -8.0829
 
      Total       -0.0829   0.1659  -0.0829
--
 
 
      Natural Bond Order analysis for root number:  1
 
++    Natural Bond Order analysis
      ---------------------------
      Based on LoProp computed density
      -------------------------------------------------------------------------------------
      Atom A       Atom B       Bond Order | Atom A       Atom B       Bond Order
        O1           O2             1.967  |   O2           O3             1.967
      -------------------------------------------------------------------------------------
      NBO located     12.000 core electrons.
      NBO located      3.974 lone pair electrons.
      NBO located      7.867 electrons involved in    2 bonds.
      The remaining    0.159 electrons are to be considered as diffuse
--
 
--
 
 
  Input file to MOLDEN was generated!
 
      Average orbitals are written to the RASORB file
      Natural orbitals for root   1 are written to the RASORB.1 file
      Spin density orbitals for root   1 are written to the SPDORB.1 file
 
forrtl: warning (525): IEEE_DIVIDE_BY_ZERO is signaling
forrtl: warning (526): IEEE_INVALID is signaling
forrtl: warning (528): IEEE_UNDERFLOW is signaling
--- Stop Module: rasscf at Fri Jan 24 14:10:10 2025 /rc=_RC_ALL_IS_WELL_ ---
*** files: ozone_106.75.LprOrb ozone_106.75.rasscf.molden ozone_106.75.LoProp.molden ozone_106.75.RasOrb ozone_106.75.RasOrb.1 ozone_106.75.rasscf.h5 ozone_106.75.SpdOrb.1 xmldump
    saved to directory /home/grierjones/DDCASPT2/ozone/ANO-RCC-VDZP/ozone_106.75

>>> COPY /tmp/ozone_106.75/ozone_106.75.rasscf.h5 /home/grierjones/DDCASPT2/ozone/ANO-RCC-VDZP/ozone_106.75/

>>> COPY /tmp/ozone_106.75/GMJ_Fock_MO.csv /home/grierjones/DDCASPT2/ozone/ANO-RCC-VDZP/ozone_106.75/ozone_106.75.GMJ_Fock_MO.csv

>>> COPY /tmp/ozone_106.75/GMJ_PT2_Fock_MO.csv /home/grierjones/DDCASPT2/ozone/ANO-RCC-VDZP/ozone_106.75/ozone_106.75.GMJ_PT2_Fock_MO.csv

*** symbolic link created: INPORB -> ozone_106.75.RasOrb
--- Start Module: motra at Fri Jan 24 14:10:10 2025 ---
 
()()()()()()()()()()()()()()()()()()()()()()()()()()()()()()()()()()()()()()()()()()()()()()()()()()

                                               &MOTRA

                                   only a single process is used
                       available to each process: 2.0 GB of memory, 1 thread?
()()()()()()()()()()()()()()()()()()()()()()()()()()()()()()()()()()()()()()()()()()()()()()()()()()
 
 
      *** WARNING: Default frozen orbitals is overwritten by user input.
      *** Default values:   3
 
      Header of the integral files:
      
       Integrals generated by seward 4.2.0  , Fri Jan 24 14:10:06 2025
 
 
      Header of MO coefficients source file:
      * RASSCF average (pseudo-natural) orbitals                                      
 
 
      Cartesian coordinates in Angstrom:
      -----------------------------------------------------
      No.  Label        X            Y            Z        
      -----------------------------------------------------
       1   O1         0.76242300   1.02566800   0.00000000
       2   O2         0.00000000   0.00000000   0.00000000
       3   O3         0.76242300  -1.02566800   0.00000000
      -----------------------------------------------------
      Nuclear repulsion energy =   69.51043440
 
      Orbital specifications:
      -----------------------
 
      Symmetry species:              1
      Number of basis functions:    42
      Frozen orbitals:               0
      Deleted orbitals:              0
      Number of orbitals used:      42

       SYMMETRY  BASIS FUNCTIONS       ORBITALS      INTEGRALS   CPU(SEC)  I/O(SEC)
 
        1 1 1 1   42  42  42  42    42  42  42  42      408156       0.00      0.00

       TOTAL CPU TIME(SEC)    0.37TOTAL I/O TIME(SEC)    1.16
 
--- Stop Module: motra at Fri Jan 24 14:10:12 2025 /rc=_RC_ALL_IS_WELL_ ---
*** files: xmldump
    saved to directory /home/grierjones/DDCASPT2/ozone/ANO-RCC-VDZP/ozone_106.75
--- Module motra spent 1 second ---

>>> COPY /tmp/ozone_106.75/GMJ_one_int_indx.csv /home/grierjones/DDCASPT2/ozone/ANO-RCC-VDZP/ozone_106.75/ozone_106.75.GMJ_one_int_indx.csv

>>> COPY /tmp/ozone_106.75/GMJ_one_int.csv /home/grierjones/DDCASPT2/ozone/ANO-RCC-VDZP/ozone_106.75/ozone_106.75.GMJ_one_int.csv

>>> COPY /tmp/ozone_106.75/GMJ_two_int_indx.csv /home/grierjones/DDCASPT2/ozone/ANO-RCC-VDZP/ozone_106.75/ozone_106.75.GMJ_two_int_indx.csv

>>> COPY /tmp/ozone_106.75/GMJ_two_int.csv /home/grierjones/DDCASPT2/ozone/ANO-RCC-VDZP/ozone_106.75/ozone_106.75.GMJ_two_int.csv

*** symbolic link created: INPORB -> ozone_106.75.RasOrb
--- Start Module: caspt2 at Fri Jan 24 14:10:12 2025 ---
 
()()()()()()()()()()()()()()()()()()()()()()()()()()()()()()()()()()()()()()()()()()()()()()()()()()

                                              &CASPT2

                                   only a single process is used
                       available to each process: 2.0 GB of memory, 1 thread?
()()()()()()()()()()()()()()()()()()()()()()()()()()()()()()()()()()()()()()()()()()()()()()()()()()
 
 Cholesky algorithm in CASPT2 =    1
 
 ###############################################################################
 ###############################################################################
 ###                                                                         ###
 ###                                                                         ###
 ###    User changed nr of frozen orbitals.                                  ###
 ###                                                                         ###
 ###                                                                         ###
 ###############################################################################
 ###############################################################################
 
++    Wave function specifications:
      -----------------------------
 
      Number of closed shell electrons          20
      Number of electrons in active shells       4
      Max number of holes in RAS1 space          0
      Max number of electrons in RAS3 space      0
      Number of inactive orbitals               10
      Number of active orbitals                  3
      Number of secondary orbitals              29
      Spin quantum number                      0.0
      State symmetry                             1
      Number of CSFs                             6
      Number of root(s) available                1
      Root passed to geometry opt.               1
      A file JOBMIX will be created.
      This is a CASSCF or RASSCF reference function
--
 
++    Orbital specifications:
      -----------------------
 
      Symmetry species                           1
                                                 a
      Frozen orbitals                            0
      Inactive orbitals                         10
      Active orbitals                            3
      Secondary orbitals                        29
      Deleted orbitals                           0
      Number of basis functions                 42
--
 
      Type of Fock operator: STANDARD
      Type of 0-order Hamiltonian: STANDARD WITH DEFAULT IPEA
        "IP-EA" denominator shift =      0.25
      The input orbitals and the CI vector will be transformed.
 
--------------------------------------------------------------------------------
 Estimated memory requirements:
  POLY3 :                   250202
  RHS:                      279634
  SIGMA :                   302200
  PRPCTL:                        0
 Available workspace:    230396563
 
++ CASPT2 computation for group   1
 
********************************************************************************
 Multi-State initialization phase begins for group   1
--------------------------------------------------------------------------------
********************************************************************************
 Compute H0 matrices for state    1
--------------------------------------------------------------------------------
--------------------------------------------------------------------------------
 H0 matrices have been computed.
 
********************************************************************************
  CASPT2 EQUATION SOLUTION
--------------------------------------------------------------------------------
 
  Total nr of CASPT2 parameters:
   Before reduction:       86691
   After  reduction:       82880
 
 The contributions to the second order correlation energy in atomic units.
-----------------------------------------------------------------------------------------------------------------------------
  IT.      VJTU        VJTI        ATVX        AIVX        VJAI        BVAT        BJAT        BJAI        TOTAL       RNORM  
-----------------------------------------------------------------------------------------------------------------------------
   1    -0.000000   -0.000965   -0.010868   -0.083880   -0.017533   -0.016689   -0.126825   -0.271661   -0.528422    0.002130
   2    -0.000000   -0.000979   -0.010909   -0.084153   -0.017549   -0.016694   -0.126874   -0.271664   -0.528823    0.000166
   3    -0.000000   -0.000979   -0.010910   -0.084158   -0.017549   -0.016694   -0.126875   -0.271664   -0.528830    0.000020
   4    -0.000000   -0.000979   -0.010910   -0.084157   -0.017549   -0.016694   -0.126875   -0.271664   -0.528828    0.000003
-------------------------------------------------------------------------------------------------------------------
 
  FINAL CASPT2 RESULT:
 
  Correlation energy /Case, /Symm, and sums:
 VJTU     -0.00000000 -0.00000000
 VJTIP    -0.00097907 -0.00097907
 VJTIM     0.00000000  0.00000000
 ATVX     -0.01090976 -0.01090976
 AIVX     -0.08415643 -0.08415643
 VJAIP    -0.01227279 -0.01227279
 VJAIM    -0.00527605 -0.00527605
 BVATP    -0.01566219 -0.01566219
 BVATM    -0.00103196 -0.00103196
 BJATP    -0.04668840 -0.04668840
 BJATM    -0.08018666 -0.08018666
 BJAIP    -0.18294098 -0.18294098
 BJAIM    -0.08872342 -0.08872342
 Summed:  -0.52882769 -0.52882769
 
      Reference energy:        -224.5854410889
      E2 (Non-variational):      -0.5288276940
      E2 (Variational):          -0.5288277175
      Total energy:            -225.1142688064
      Residual norm:              0.0000002494
      Reference weight:           0.86059
 
      Contributions to the CASPT2 correlation energy
      Active & Virtual Only:         -0.0276039090
      One Inactive Excited:          -0.2110314911
      Two Inactive Excited:          -0.2901922939
 
 
++ Denominators, etc.
----------------------------------------------------------------------------------------------------
 Report on small energy denominators, large coefficients, and large energy contributions.
CASE  SYMM ACTIVE-MIX  NON-ACTIVE INDICES          DENOMINATOR     RHS VALUE       COEFFICIENT     CONTRIBUTION
ATVX     1  Mu1.0007  Se1.016                       1.87099422     -0.05531732      0.03016521     -0.00166866
ATVX     1  Mu1.0005  Se1.021                       1.79780613      0.08715173     -0.04759246     -0.00414777
AIVX     1  Mu1.0004  In1.007 Se1.014               1.64268797     -0.04512901      0.02818418     -0.00127192
AIVX     1  Mu1.0002  In1.008 Se1.014               1.27576004     -0.03720009      0.02877224     -0.00107033
AIVX     1  Mu1.0002  In1.010 Se1.014               1.04808396      0.03175075     -0.02944197     -0.00093480
AIVX     1  Mu1.0004  In1.008 Se1.015               1.62705078     -0.05549364      0.03481820     -0.00193219
AIVX     1  Mu1.0002  In1.009 Se1.015               1.06615805      0.04041914     -0.03705366     -0.00149768
AIVX     1  Mu1.0004  In1.007 Se1.017               1.86160765      0.06109791     -0.03333039     -0.00203642
AIVX     1  Mu1.0002  In1.008 Se1.017               1.49467973      0.05684467     -0.03704236     -0.00210566
AIVX     1  Mu1.0004  In1.009 Se1.017               1.62065931     -0.05269149      0.03339218     -0.00175948
AIVX     1  Mu1.0002  In1.007 Se1.018               1.56006274      0.04365065     -0.02716035     -0.00118557
AIVX     1  Mu1.0004  In1.008 Se1.018               1.88000712      0.09604141     -0.05212625     -0.00500628
AIVX     1  Mu1.0006  In1.008 Se1.018               2.05646319      0.06373208     -0.03120483     -0.00198875
AIVX     1  Mu1.0004  In1.007 Se1.019               2.04407084     -0.05211331      0.02612171     -0.00136129
AIVX     1  Mu1.0002  In1.010 Se1.019               1.44946684      0.06615051     -0.04399306     -0.00291016
AIVX     1  Mu1.0003  In1.010 Se1.019               1.52910868      0.04745943     -0.03005794     -0.00142653
AIVX     1  Mu1.0002  In1.009 Se1.020               1.47439041      0.04868846     -0.03185458     -0.00155095
BJAIP    1  Se1.017 In1.007 Se1.018 In1.008         2.59748691      0.07827116     -0.03013341     -0.00235858
BJAIP    1  Se1.015 In1.008 Se1.018 In1.008         2.36293003     -0.06734251      0.02849956     -0.00191923
BJAIP    1  Se1.018 In1.008 Se1.018 In1.008         2.61588638      0.09525491     -0.03641400     -0.00346861
BJAIP    1  Se1.017 In1.008 Se1.018 In1.009         2.35653856     -0.06803462      0.02887057     -0.00196420
BJAIP    1  Se1.019 In1.010 Se1.019 In1.010         2.44167811      0.06857805     -0.02808644     -0.00192611
--
 
   (Skipping property calculation,
    use PROP keyword to activate)
--
 
  Total CASPT2 energies:
::    CASPT2 Root  1     Total energy:   -225.11426881
 
  A NEW JOBIPH FILE NAMED 'JOBMIX' IS PREPARED.
********************************************************************************
forrtl: warning (528): IEEE_UNDERFLOW is signaling
--- Stop Module: caspt2 at Fri Jan 24 14:10:12 2025 /rc=_RC_ALL_IS_WELL_ ---
*** files: xmldump
    saved to directory /home/grierjones/DDCASPT2/ozone/ANO-RCC-VDZP/ozone_106.75

>>> EXPORT i = B

>>> EXPORT j = P

>>> IF (-FILE GMJ_e2_${i}_${j}.csv)

>>> COPY /tmp/ozone_106.75/GMJ_RHS_B_P.csv /home/grierjones/DDCASPT2/ozone/ANO-RCC-VDZP/ozone_106.75/GMJ_RHS_B_P.csv

>>> COPY /tmp/ozone_106.75/GMJ_IVECW_B_P.csv /home/grierjones/DDCASPT2/ozone/ANO-RCC-VDZP/ozone_106.75/GMJ_IVECW_B_P.csv

>>> COPY /tmp/ozone_106.75/GMJ_IVECX_B_P.csv /home/grierjones/DDCASPT2/ozone/ANO-RCC-VDZP/ozone_106.75/GMJ_IVECX_B_P.csv

>>> COPY /tmp/ozone_106.75/GMJ_IVECC2_B_P.csv /home/grierjones/DDCASPT2/ozone/ANO-RCC-VDZP/ozone_106.75/GMJ_IVECC2_B_P.csv

>>> COPY /tmp/ozone_106.75/GMJ_e2_B_P.csv /home/grierjones/DDCASPT2/ozone/ANO-RCC-VDZP/ozone_106.75/GMJ_e2_B_P.csv

>>> END FOREACH

>>> EXPORT j = M

>>> IF (-FILE GMJ_e2_${i}_${j}.csv)
(Skipped)

>>> END FOREACH

>>> END FOREACH

>>> EXPORT i = E

>>> EXPORT j = P

>>> IF (-FILE GMJ_e2_${i}_${j}.csv)

>>> COPY /tmp/ozone_106.75/GMJ_RHS_E_P.csv /home/grierjones/DDCASPT2/ozone/ANO-RCC-VDZP/ozone_106.75/GMJ_RHS_E_P.csv

>>> COPY /tmp/ozone_106.75/GMJ_IVECW_E_P.csv /home/grierjones/DDCASPT2/ozone/ANO-RCC-VDZP/ozone_106.75/GMJ_IVECW_E_P.csv

>>> COPY /tmp/ozone_106.75/GMJ_IVECX_E_P.csv /home/grierjones/DDCASPT2/ozone/ANO-RCC-VDZP/ozone_106.75/GMJ_IVECX_E_P.csv

>>> COPY /tmp/ozone_106.75/GMJ_IVECC2_E_P.csv /home/grierjones/DDCASPT2/ozone/ANO-RCC-VDZP/ozone_106.75/GMJ_IVECC2_E_P.csv

>>> COPY /tmp/ozone_106.75/GMJ_e2_E_P.csv /home/grierjones/DDCASPT2/ozone/ANO-RCC-VDZP/ozone_106.75/GMJ_e2_E_P.csv

>>> END FOREACH

>>> EXPORT j = M

>>> IF (-FILE GMJ_e2_${i}_${j}.csv)

>>> COPY /tmp/ozone_106.75/GMJ_RHS_E_M.csv /home/grierjones/DDCASPT2/ozone/ANO-RCC-VDZP/ozone_106.75/GMJ_RHS_E_M.csv

>>> COPY /tmp/ozone_106.75/GMJ_IVECW_E_M.csv /home/grierjones/DDCASPT2/ozone/ANO-RCC-VDZP/ozone_106.75/GMJ_IVECW_E_M.csv

>>> COPY /tmp/ozone_106.75/GMJ_IVECX_E_M.csv /home/grierjones/DDCASPT2/ozone/ANO-RCC-VDZP/ozone_106.75/GMJ_IVECX_E_M.csv

>>> COPY /tmp/ozone_106.75/GMJ_IVECC2_E_M.csv /home/grierjones/DDCASPT2/ozone/ANO-RCC-VDZP/ozone_106.75/GMJ_IVECC2_E_M.csv

>>> COPY /tmp/ozone_106.75/GMJ_e2_E_M.csv /home/grierjones/DDCASPT2/ozone/ANO-RCC-VDZP/ozone_106.75/GMJ_e2_E_M.csv

>>> END FOREACH

>>> END FOREACH

>>> EXPORT i = F

>>> EXPORT j = P

>>> IF (-FILE GMJ_e2_${i}_${j}.csv)

>>> COPY /tmp/ozone_106.75/GMJ_RHS_F_P.csv /home/grierjones/DDCASPT2/ozone/ANO-RCC-VDZP/ozone_106.75/GMJ_RHS_F_P.csv

>>> COPY /tmp/ozone_106.75/GMJ_IVECW_F_P.csv /home/grierjones/DDCASPT2/ozone/ANO-RCC-VDZP/ozone_106.75/GMJ_IVECW_F_P.csv

>>> COPY /tmp/ozone_106.75/GMJ_IVECX_F_P.csv /home/grierjones/DDCASPT2/ozone/ANO-RCC-VDZP/ozone_106.75/GMJ_IVECX_F_P.csv

>>> COPY /tmp/ozone_106.75/GMJ_IVECC2_F_P.csv /home/grierjones/DDCASPT2/ozone/ANO-RCC-VDZP/ozone_106.75/GMJ_IVECC2_F_P.csv

>>> COPY /tmp/ozone_106.75/GMJ_e2_F_P.csv /home/grierjones/DDCASPT2/ozone/ANO-RCC-VDZP/ozone_106.75/GMJ_e2_F_P.csv

>>> END FOREACH

>>> EXPORT j = M

>>> IF (-FILE GMJ_e2_${i}_${j}.csv)

>>> COPY /tmp/ozone_106.75/GMJ_RHS_F_M.csv /home/grierjones/DDCASPT2/ozone/ANO-RCC-VDZP/ozone_106.75/GMJ_RHS_F_M.csv

>>> COPY /tmp/ozone_106.75/GMJ_IVECW_F_M.csv /home/grierjones/DDCASPT2/ozone/ANO-RCC-VDZP/ozone_106.75/GMJ_IVECW_F_M.csv

>>> COPY /tmp/ozone_106.75/GMJ_IVECX_F_M.csv /home/grierjones/DDCASPT2/ozone/ANO-RCC-VDZP/ozone_106.75/GMJ_IVECX_F_M.csv

>>> COPY /tmp/ozone_106.75/GMJ_IVECC2_F_M.csv /home/grierjones/DDCASPT2/ozone/ANO-RCC-VDZP/ozone_106.75/GMJ_IVECC2_F_M.csv

>>> COPY /tmp/ozone_106.75/GMJ_e2_F_M.csv /home/grierjones/DDCASPT2/ozone/ANO-RCC-VDZP/ozone_106.75/GMJ_e2_F_M.csv

>>> END FOREACH

>>> END FOREACH

>>> EXPORT i = G

>>> EXPORT j = P

>>> IF (-FILE GMJ_e2_${i}_${j}.csv)

>>> COPY /tmp/ozone_106.75/GMJ_RHS_G_P.csv /home/grierjones/DDCASPT2/ozone/ANO-RCC-VDZP/ozone_106.75/GMJ_RHS_G_P.csv

>>> COPY /tmp/ozone_106.75/GMJ_IVECW_G_P.csv /home/grierjones/DDCASPT2/ozone/ANO-RCC-VDZP/ozone_106.75/GMJ_IVECW_G_P.csv

>>> COPY /tmp/ozone_106.75/GMJ_IVECX_G_P.csv /home/grierjones/DDCASPT2/ozone/ANO-RCC-VDZP/ozone_106.75/GMJ_IVECX_G_P.csv

>>> COPY /tmp/ozone_106.75/GMJ_IVECC2_G_P.csv /home/grierjones/DDCASPT2/ozone/ANO-RCC-VDZP/ozone_106.75/GMJ_IVECC2_G_P.csv

>>> COPY /tmp/ozone_106.75/GMJ_e2_G_P.csv /home/grierjones/DDCASPT2/ozone/ANO-RCC-VDZP/ozone_106.75/GMJ_e2_G_P.csv

>>> END FOREACH

>>> EXPORT j = M

>>> IF (-FILE GMJ_e2_${i}_${j}.csv)

>>> COPY /tmp/ozone_106.75/GMJ_RHS_G_M.csv /home/grierjones/DDCASPT2/ozone/ANO-RCC-VDZP/ozone_106.75/GMJ_RHS_G_M.csv

>>> COPY /tmp/ozone_106.75/GMJ_IVECW_G_M.csv /home/grierjones/DDCASPT2/ozone/ANO-RCC-VDZP/ozone_106.75/GMJ_IVECW_G_M.csv

>>> COPY /tmp/ozone_106.75/GMJ_IVECX_G_M.csv /home/grierjones/DDCASPT2/ozone/ANO-RCC-VDZP/ozone_106.75/GMJ_IVECX_G_M.csv

>>> COPY /tmp/ozone_106.75/GMJ_IVECC2_G_M.csv /home/grierjones/DDCASPT2/ozone/ANO-RCC-VDZP/ozone_106.75/GMJ_IVECC2_G_M.csv

>>> COPY /tmp/ozone_106.75/GMJ_e2_G_M.csv /home/grierjones/DDCASPT2/ozone/ANO-RCC-VDZP/ozone_106.75/GMJ_e2_G_M.csv

>>> END FOREACH

>>> END FOREACH

>>> EXPORT i = H

>>> EXPORT j = P

>>> IF (-FILE GMJ_e2_${i}_${j}.csv)

>>> COPY /tmp/ozone_106.75/GMJ_RHS_H_P.csv /home/grierjones/DDCASPT2/ozone/ANO-RCC-VDZP/ozone_106.75/GMJ_RHS_H_P.csv

>>> COPY /tmp/ozone_106.75/GMJ_IVECW_H_P.csv /home/grierjones/DDCASPT2/ozone/ANO-RCC-VDZP/ozone_106.75/GMJ_IVECW_H_P.csv

>>> COPY /tmp/ozone_106.75/GMJ_IVECX_H_P.csv /home/grierjones/DDCASPT2/ozone/ANO-RCC-VDZP/ozone_106.75/GMJ_IVECX_H_P.csv

>>> COPY /tmp/ozone_106.75/GMJ_IVECC2_H_P.csv /home/grierjones/DDCASPT2/ozone/ANO-RCC-VDZP/ozone_106.75/GMJ_IVECC2_H_P.csv

>>> COPY /tmp/ozone_106.75/GMJ_e2_H_P.csv /home/grierjones/DDCASPT2/ozone/ANO-RCC-VDZP/ozone_106.75/GMJ_e2_H_P.csv

>>> END FOREACH

>>> EXPORT j = M

>>> IF (-FILE GMJ_e2_${i}_${j}.csv)

>>> COPY /tmp/ozone_106.75/GMJ_RHS_H_M.csv /home/grierjones/DDCASPT2/ozone/ANO-RCC-VDZP/ozone_106.75/GMJ_RHS_H_M.csv

>>> COPY /tmp/ozone_106.75/GMJ_IVECW_H_M.csv /home/grierjones/DDCASPT2/ozone/ANO-RCC-VDZP/ozone_106.75/GMJ_IVECW_H_M.csv

>>> COPY /tmp/ozone_106.75/GMJ_IVECX_H_M.csv /home/grierjones/DDCASPT2/ozone/ANO-RCC-VDZP/ozone_106.75/GMJ_IVECX_H_M.csv

>>> COPY /tmp/ozone_106.75/GMJ_IVECC2_H_M.csv /home/grierjones/DDCASPT2/ozone/ANO-RCC-VDZP/ozone_106.75/GMJ_IVECC2_H_M.csv

>>> COPY /tmp/ozone_106.75/GMJ_e2_H_M.csv /home/grierjones/DDCASPT2/ozone/ANO-RCC-VDZP/ozone_106.75/GMJ_e2_H_M.csv

>>> END FOREACH

>>> END FOREACH

>>> EXPORT i = A

>>> IF (-FILE GMJ_e2_$i.csv)

>>> COPY /tmp/ozone_106.75/GMJ_RHS_A.csv /home/grierjones/DDCASPT2/ozone/ANO-RCC-VDZP/ozone_106.75/GMJ_RHS_A.csv

>>> COPY /tmp/ozone_106.75/GMJ_IVECW_A.csv /home/grierjones/DDCASPT2/ozone/ANO-RCC-VDZP/ozone_106.75/GMJ_IVECW_A.csv

>>> COPY /tmp/ozone_106.75/GMJ_IVECX_A.csv /home/grierjones/DDCASPT2/ozone/ANO-RCC-VDZP/ozone_106.75/GMJ_IVECX_A.csv

>>> COPY /tmp/ozone_106.75/GMJ_IVECC2_A.csv /home/grierjones/DDCASPT2/ozone/ANO-RCC-VDZP/ozone_106.75/GMJ_IVECC2_A.csv

>>> COPY /tmp/ozone_106.75/GMJ_e2_A.csv /home/grierjones/DDCASPT2/ozone/ANO-RCC-VDZP/ozone_106.75/GMJ_e2_A.csv

>>> END FOREACH

>>> EXPORT i = C

>>> IF (-FILE GMJ_e2_$i.csv)

>>> COPY /tmp/ozone_106.75/GMJ_RHS_C.csv /home/grierjones/DDCASPT2/ozone/ANO-RCC-VDZP/ozone_106.75/GMJ_RHS_C.csv

>>> COPY /tmp/ozone_106.75/GMJ_IVECW_C.csv /home/grierjones/DDCASPT2/ozone/ANO-RCC-VDZP/ozone_106.75/GMJ_IVECW_C.csv

>>> COPY /tmp/ozone_106.75/GMJ_IVECX_C.csv /home/grierjones/DDCASPT2/ozone/ANO-RCC-VDZP/ozone_106.75/GMJ_IVECX_C.csv

>>> COPY /tmp/ozone_106.75/GMJ_IVECC2_C.csv /home/grierjones/DDCASPT2/ozone/ANO-RCC-VDZP/ozone_106.75/GMJ_IVECC2_C.csv

>>> COPY /tmp/ozone_106.75/GMJ_e2_C.csv /home/grierjones/DDCASPT2/ozone/ANO-RCC-VDZP/ozone_106.75/GMJ_e2_C.csv

>>> END FOREACH

>>> EXPORT i = D

>>> IF (-FILE GMJ_e2_$i.csv)

>>> COPY /tmp/ozone_106.75/GMJ_RHS_D.csv /home/grierjones/DDCASPT2/ozone/ANO-RCC-VDZP/ozone_106.75/GMJ_RHS_D.csv

>>> COPY /tmp/ozone_106.75/GMJ_IVECW_D.csv /home/grierjones/DDCASPT2/ozone/ANO-RCC-VDZP/ozone_106.75/GMJ_IVECW_D.csv

>>> COPY /tmp/ozone_106.75/GMJ_IVECX_D.csv /home/grierjones/DDCASPT2/ozone/ANO-RCC-VDZP/ozone_106.75/GMJ_IVECX_D.csv

>>> COPY /tmp/ozone_106.75/GMJ_IVECC2_D.csv /home/grierjones/DDCASPT2/ozone/ANO-RCC-VDZP/ozone_106.75/GMJ_IVECC2_D.csv

>>> COPY /tmp/ozone_106.75/GMJ_e2_D.csv /home/grierjones/DDCASPT2/ozone/ANO-RCC-VDZP/ozone_106.75/GMJ_e2_D.csv

>>> END FOREACH

.########################.
.# Non-zero return code #.
.########################.

    Timing: Wall=6.39 User=2.80 System=1.00
********************************************
*** WorkDir at /tmp/ozone_106.75 cleaned ***
********************************************
