[Molden Format]
[N_Atoms]
                     2
[Atoms] (AU)
BE1         1      4           0.00000000      0.00000000      0.00000000
N2          2      7           0.00000000      0.00000000      1.51178090
[Charge] (Mulliken)
  0.795126718041860     
 -0.795126718041903     
[GTO] (AU)
   1
   s  14
  2.262859900E+04  8.443999941E-05
  3.372318100E+03  4.601499968E-04
  7.603504000E+02  2.285389984E-03
  2.117404800E+02  9.648129932E-03
  6.722346800E+01  3.494469975E-02
  2.337217700E+01  1.061099893E-01
  8.721373000E+00  2.458240383E-01
  3.468091000E+00  3.862428773E-01
  1.452144000E+00  3.105526078E-01
  6.086150000E-01  6.415933955E-02
  2.576860000E-01 -2.265049984E-03
  1.041760000E-01 -5.217499963E-04
  4.242700000E-02 -8.757499938E-04
  1.484900000E-02  1.242199991E-04
   s  14
  2.262859900E+04 -1.586999994E-05
  3.372318100E+03 -8.656999968E-05
  7.603504000E+02 -4.302199984E-04
  2.117404800E+02 -1.825079993E-03
  6.722346800E+01 -6.682749976E-03
  2.337217700E+01 -2.095119992E-02
  8.721373000E+00 -5.200308981E-02
  3.468091000E+00 -9.849176964E-02
  1.452144000E+00 -1.355800695E-01
  6.086150000E-01 -6.429875976E-02
  2.576860000E-01  3.125414989E-01
  1.041760000E-01  6.270468577E-01
  4.242700000E-02  2.110231492E-01
  1.484900000E-02 -4.104669985E-03
   p   9
  3.371018400E+01  1.069960000E-03
  8.057649500E+00  6.828550001E-03
  2.836471400E+00  2.119065000E-02
  1.099965700E+00  5.843696001E-02
  4.433964000E-01  2.020920800E-01
  1.822264000E-01  4.582953101E-01
  7.572410000E-02  3.691239601E-01
  3.168540000E-02  6.611471001E-02
  1.108990000E-02  1.405160000E-03
 
   2
   s  14
  7.476171500E+04  1.182599996E-04
  1.112365400E+04  5.172899983E-04
  2.512685700E+03  2.266659992E-03
  7.037772900E+02  9.145289970E-03
  2.254787900E+02  3.239342989E-02
  7.961581000E+01  9.770792967E-02
  3.023728300E+01  2.317036792E-01
  1.226362200E+01  3.768898887E-01
  5.265086000E+00  3.177420689E-01
  2.333471000E+00  8.211308973E-02
  9.018560000E-01  3.312089989E-03
  3.583360000E-01  3.720819988E-03
  1.410930000E-01  3.165419989E-03
  4.938300000E-02  4.595799985E-04
   s  14
  7.476171500E+04 -2.707000010E-05
  1.112365400E+04 -1.183700004E-04
  2.512685700E+03 -5.203800020E-04
  7.037772900E+02 -2.102930008E-03
  2.254787900E+02 -7.568200028E-03
  7.961581000E+01 -2.346767009E-02
  3.023728300E+01 -6.042901023E-02
  1.226362200E+01 -1.170549104E-01
  5.265086000E+00 -1.555321506E-01
  2.333471000E+00 -2.468935009E-02
  9.018560000E-01  3.625054514E-01
  3.583360000E-01  5.550845021E-01
  1.410930000E-01  2.148376908E-01
  4.938300000E-02  8.983850034E-03
   p   9
  1.266665700E+02  1.233630000E-03
  2.983738900E+01  9.493409996E-03
  9.394038000E+00  4.293961998E-02
  3.405104000E+00  1.362925399E-01
  1.350000000E+00  2.921362499E-01
  5.576960000E-01  3.887887598E-01
  2.324490000E-01  2.946801399E-01
  9.426400000E-02  8.012875997E-02
  3.299200000E-02  5.405199998E-04
 
[MO]
Sym=     1a  
Ene=   -15.6360
Spin= Alpha
Occup=    1.00000
   1        -0.00217317
   2        -0.00589125
   3         0.00000000
   4        -0.00000000
   5        -0.00191010
   6         1.00086684
   7         0.00277478
   8         0.00000000
   9        -0.00000000
  10        -0.00468144
Sym=     1a  
Ene=   -15.5890
Spin= Beta
Occup=    1.00000
   1        -0.00123257
   2        -0.00404763
   3         0.00000000
   4        -0.00000000
   5        -0.00071144
   6         1.00048976
   7        -0.00190967
   8         0.00000000
   9        -0.00000000
  10        -0.00479781
Sym=     2a  
Ene=    -5.0362
Spin= Alpha
Occup=    1.00000
   1         0.97715103
   2        -0.01778300
   3         0.00000000
   4        -0.00000000
   5         0.00526163
   6        -0.02280459
   7         0.03485221
   8        -0.00000000
   9         0.00000000
  10        -0.03697000
Sym=     2a  
Ene=    -4.9780
Spin= Beta
Occup=    1.00000
   1         0.97705583
   2        -0.01670151
   3         0.00000000
   4         0.00000000
   5         0.00355586
   6        -0.02235683
   7         0.03768739
   8        -0.00000000
   9        -0.00000000
  10        -0.03521397
Sym=     3a  
Ene=    -1.0421
Spin= Alpha
Occup=    1.00000
   1        -0.32320185
   2        -0.01203974
   3         0.00000000
   4        -0.00000000
   5         0.09729983
   6        -0.00294761
   7         0.98948080
   8        -0.00000000
   9        -0.00000000
  10        -0.12428241
Sym=     3a  
Ene=    -0.8901
Spin= Beta
Occup=    1.00000
   1        -0.32338602
   2         0.07847878
   3        -0.00000000
   4        -0.00000000
   5         0.15958454
   6        -0.01797936
   7         0.88857393
   8         0.00000000
   9        -0.00000000
  10        -0.18713963
Sym=     4a  
Ene=    -0.5499
Spin= Alpha
Occup=    1.00000
   1        -0.00000000
   2        -0.00000000
   3         0.29768021
   4        -0.00164596
   5         0.00000000
   6        -0.00000000
   7         0.00000000
   8         0.80320168
   9        -0.00444113
  10        -0.00000000
Sym=     4a  
Ene=    -0.4956
Spin= Beta
Occup=    1.00000
   1         0.00000000
   2        -0.00000000
   3         0.37927713
   4        -0.04844354
   5         0.00000000
   6         0.00000000
   7         0.00000000
   8         0.72942242
   9        -0.09316618
  10         0.00000000
Sym=     5a  
Ene=    -0.5499
Spin= Alpha
Occup=    1.00000
   1         0.00000000
   2         0.00000000
   3         0.00164596
   4         0.29768021
   5        -0.00000000
   6         0.00000000
   7        -0.00000000
   8         0.00444113
   9         0.80320168
  10         0.00000000
Sym=     5a  
Ene=    -0.4956
Spin= Beta
Occup=    1.00000
   1         0.00000000
   2         0.00000000
   3         0.04844354
   4         0.37927713
   5        -0.00000000
   6         0.00000000
   7         0.00000000
   8         0.09316618
   9         0.72942242
  10         0.00000000
Sym=     6a  
Ene=    -0.4508
Spin= Alpha
Occup=    1.00000
   1         0.40065804
   2         0.02983711
   3         0.00000000
   4         0.00000000
   5        -0.20726271
   6         0.02102845
   7         0.10474880
   8         0.00000000
   9        -0.00000000
  10         1.10137686
Sym=     6a  
Ene=    -0.0301
Spin= Beta
Occup=    0.00000
   1        -0.08519153
   2        -0.84202801
   3        -0.00000000
   4         0.00000000
   5         0.60779803
   6        -0.00706436
   7         0.18840789
   8        -0.00000000
   9         0.00000000
  10        -0.08494459
Sym=     7a  
Ene=    -0.0276
Spin= Alpha
Occup=    0.00000
   1        -0.10772118
   2        -0.86130517
   3        -0.00000000
   4         0.00000000
   5         0.60416787
   6        -0.00495661
   7         0.16899813
   8        -0.00000000
   9         0.00000000
  10        -0.15314407
Sym=     7a  
Ene=     0.3500
Spin= Beta
Occup=    0.00000
   1         0.44027856
   2         0.24034470
   3         0.00000000
   4         0.00000000
   5        -0.08865530
   6        -0.01560822
   7        -0.03978750
   8        -0.00000000
   9        -0.00000000
  10         1.11311566
Sym=     8a  
Ene=     0.3445
Spin= Alpha
Occup=    0.00000
   1         0.00000000
   2         0.00000000
   3         0.00174737
   4        -1.16642041
   5         0.00000000
   6        -0.00000000
   7        -0.00000000
   8        -0.00134326
   9         0.89666124
  10         0.00000000
Sym=     8a  
Ene=     0.3773
Spin= Beta
Occup=    0.00000
   1         0.00000000
   2         0.00000000
   3         0.00508973
   4        -1.14146048
   5         0.00000000
   6        -0.00000000
   7        -0.00000000
   8        -0.00424984
   9         0.95310061
  10         0.00000000
Sym=     9a  
Ene=     0.3445
Spin= Alpha
Occup=    0.00000
   1         0.00000000
   2         0.00000000
   3        -1.16642041
   4        -0.00174737
   5         0.00000000
   6        -0.00000000
   7        -0.00000000
   8         0.89666124
   9         0.00134326
  10         0.00000000
Sym=     9a  
Ene=     0.3773
Spin= Beta
Occup=    0.00000
   1         0.00000000
   2         0.00000000
   3        -1.14146048
   4        -0.00508973
   5        -0.00000000
   6        -0.00000000
   7        -0.00000000
   8         0.95310061
   9         0.00424984
  10         0.00000000
Sym=    10a  
Ene=     0.5053
Spin= Alpha
Occup=    0.00000
   1        -0.53357640
   2        -1.40948339
   3        -0.00000000
   4        -0.00000000
   5        -1.37319018
   6         0.34007081
   7         1.76712977
   8         0.00000000
   9         0.00000000
  10        -0.18669109
Sym=    10a  
Ene=     0.5347
Spin= Beta
Occup=    0.00000
   1        -0.50576856
   2        -1.39880134
   3        -0.00000000
   4        -0.00000000
   5        -1.37853833
   6         0.34100104
   7         1.82057868
   8        -0.00000000
   9         0.00000000
  10        -0.07514061
