[Molden Format]
[N_Atoms]
                     2
[Atoms] (AU)
F1          1      9           0.00000000      0.00000000      0.00000000
LI2         2      3           0.00000000      0.00000000      3.59047964
[Charge] (Mulliken)
 -0.692832043899042     
  0.692832043899011     
[GTO] (AU)
   1
   s  14
  1.031094600E+05  1.713099991E-04
  1.528100700E+04  7.123999962E-04
  3.441539200E+03  2.990479984E-03
  9.670948300E+02  1.164036994E-02
  3.140353400E+02  3.968642979E-02
  1.134423000E+02  1.128546094E-01
  4.464472700E+01  2.473650687E-01
  1.894287400E+01  3.672702681E-01
  8.532743000E+00  2.896286985E-01
  3.919401000E+00  7.786681959E-02
  1.568157000E+00  4.562139976E-03
  6.232900000E-01  2.468879987E-03
  2.408610000E-01  1.106309994E-03
  8.430100000E-02  1.739699991E-04
   s  14
  1.031094600E+05 -4.044999995E-05
  1.528100700E+04 -1.682299998E-04
  3.441539200E+03 -7.084299991E-04
  9.670948300E+02 -2.767999996E-03
  3.140353400E+02 -9.611379987E-03
  1.134423000E+02 -2.833957996E-02
  4.464472700E+01 -6.839343991E-02
  1.894287400E+01 -1.237379298E-01
  8.532743000E+00 -1.512859698E-01
  3.919401000E+00 -9.099909988E-03
  1.568157000E+00  3.716257695E-01
  6.232900000E-01  5.500214393E-01
  2.408610000E-01  2.092318697E-01
  8.430100000E-02  8.074639989E-03
   p   9
  2.453302900E+02  1.024860004E-03
  5.691900500E+01  8.344290032E-03
  1.760456800E+01  4.078927016E-02
  6.274995000E+00  1.351370605E-01
  2.447030000E+00  2.798830811E-01
  9.950600000E-01  3.597966414E-01
  4.039730000E-01  3.055347412E-01
  1.548100000E-01  1.354703905E-01
  5.418400000E-02  2.804449011E-02
 
   2
   s  14
  9.497934400E+03  9.668999974E-05
  1.416811200E+03  6.087099984E-04
  3.214599400E+02  3.101519992E-03
  9.112416300E+01  1.266904997E-02
  2.999989100E+01  4.248012989E-02
  1.101763100E+01  1.150183297E-01
  4.372801000E+00  2.398650094E-01
  1.831256000E+00  3.584300090E-01
  8.022610000E-01  3.048527792E-01
  3.626480000E-01  8.824261976E-02
  1.139950000E-01 -8.445899977E-04
  5.123700000E-02 -7.943959979E-03
  2.246800000E-02 -3.764419990E-03
  7.860000000E-03 -8.868999976E-05
   s  14
  9.497934400E+03 -1.244999993E-05
  1.416811200E+03 -7.838999954E-05
  3.214599400E+02 -4.007099976E-04
  9.112416300E+01 -1.645249990E-03
  2.999989100E+01 -5.634599967E-03
  1.101763100E+01 -1.590780991E-02
  4.372801000E+00 -3.612581979E-02
  1.831256000E+00 -6.459927962E-02
  8.022610000E-01 -1.008321794E-01
  3.626480000E-01 -9.757613942E-02
  1.139950000E-01  2.301215886E-01
  5.123700000E-02  6.102389764E-01
  2.246800000E-02  2.849406083E-01
  7.860000000E-03  4.026899976E-03
   p   9
  1.311950400E+01  1.524940000E-03
  3.077424200E+00  8.314830000E-03
  1.098800500E+00  1.933203000E-02
  4.357784000E-01  4.934293000E-02
  1.802432000E-01  1.623554000E-01
  7.613330000E-02  3.847505400E-01
  3.254650000E-02  4.336100400E-01
  1.401820000E-02  1.287005900E-01
  4.906400000E-03 -1.018520000E-03
 
[MO]
Sym=     1a  
Ene=   -25.8480
Spin= Alpha
Occup=    2.00000
   1         1.00001840
   2        -0.00218860
   3        -0.00000000
   4        -0.00000000
   5         0.00040146
   6        -0.00007066
   7        -0.00031263
   8        -0.00000000
   9        -0.00000000
  10         0.00036546
Sym=     2a  
Ene=    -2.5032
Spin= Alpha
Occup=    2.00000
   1        -0.00012645
   2         0.00568458
   3        -0.00000002
   4        -0.00000002
   5         0.00287653
   6         0.99964363
   7         0.01263533
   8        -0.00000000
   9        -0.00000000
  10         0.00253536
Sym=     3a  
Ene=    -1.2685
Spin= Alpha
Occup=    2.00000
   1         0.00004849
   2         0.97702364
   3        -0.00000076
   4        -0.00000052
   5         0.03315699
   6        -0.02393876
   7         0.03324502
   8        -0.00000013
   9        -0.00000009
  10        -0.04048927
Sym=     4a  
Ene=    -0.3883
Spin= Alpha
Occup=    2.00000
   1         0.00668107
   2         0.10223015
   3         0.00000149
   4         0.00000102
   5        -0.97166125
   6         0.05621750
   7        -0.11717676
   8         0.00000023
   9         0.00000016
  10         0.09104859
Sym=     5a  
Ene=    -0.3697
Spin= Alpha
Occup=    2.00000
   1         0.00000000
   2         0.00000000
   3         0.54911928
   4        -0.80185165
   5        -0.00000000
   6        -0.00000000
   7        -0.00000000
   8         0.07194041
   9        -0.10505101
  10         0.00000000
Sym=     6a  
Ene=    -0.3571
Spin= Alpha
Occup=    1.99506
   1         0.00000001
   2        -0.00000072
   3        -0.79000216
   4        -0.54100459
   5        -0.00000183
   6         0.00000010
   7        -0.00000032
   8        -0.14360502
   9        -0.09834274
  10         0.00000024
Sym=     7a  
Ene=    -0.0000
Spin= Alpha
Occup=    0.00494
   1         0.00000012
   2         0.00000121
   3         0.27248548
   4         0.18660189
   5         0.00000079
   6        -0.00000004
   7        -0.00000227
   8        -0.82324319
   9        -0.56376851
  10         0.00000172
Sym=     8a  
Ene=    -0.0034
Spin= Alpha
Occup=    0.00000
   1        -0.00016154
   2        -0.02009340
   3         0.00000023
   4         0.00000015
   5        -0.11328747
   6        -0.00521947
   7         0.84136583
   8        -0.00000080
   9        -0.00000055
  10         0.54243932
Sym=     9a  
Ene=     0.0816
Spin= Alpha
Occup=    0.00000
   1        -0.00000000
   2        -0.00000000
   3         0.16116526
   4        -0.23534163
   5        -0.00000000
   6        -0.00000000
   7         0.00000000
   8        -0.56774185
   9         0.82904526
  10         0.00000000
Sym=    10a  
Ene=     0.2088
Spin= Alpha
Occup=    0.00000
   1         0.04870235
   2         0.48463446
   3        -0.00000062
   4        -0.00000043
   5         0.25700790
   6        -0.01757705
   7        -0.60058319
   8         0.00000203
   9         0.00000139
  10         0.91421346
