[Molden Format]
[N_Atoms]
                     2
[Atoms] (AU)
F1          1      9           0.00000000      0.00000000      0.00000000
F2          2      9           0.00000000      0.00000000      5.10226054
[Charge] (Mulliken)
 -1.714539621389122E-011
  1.714361985705182E-011
[GTO] (AU)
   1
   s  14
  1.031094600E+05  1.713099991E-04
  1.528100700E+04  7.123999962E-04
  3.441539200E+03  2.990479984E-03
  9.670948300E+02  1.164036994E-02
  3.140353400E+02  3.968642979E-02
  1.134423000E+02  1.128546094E-01
  4.464472700E+01  2.473650687E-01
  1.894287400E+01  3.672702681E-01
  8.532743000E+00  2.896286985E-01
  3.919401000E+00  7.786681959E-02
  1.568157000E+00  4.562139976E-03
  6.232900000E-01  2.468879987E-03
  2.408610000E-01  1.106309994E-03
  8.430100000E-02  1.739699991E-04
   s  14
  1.031094600E+05 -4.044999995E-05
  1.528100700E+04 -1.682299998E-04
  3.441539200E+03 -7.084299991E-04
  9.670948300E+02 -2.767999996E-03
  3.140353400E+02 -9.611379987E-03
  1.134423000E+02 -2.833957996E-02
  4.464472700E+01 -6.839343991E-02
  1.894287400E+01 -1.237379298E-01
  8.532743000E+00 -1.512859698E-01
  3.919401000E+00 -9.099909988E-03
  1.568157000E+00  3.716257695E-01
  6.232900000E-01  5.500214393E-01
  2.408610000E-01  2.092318697E-01
  8.430100000E-02  8.074639989E-03
   p   9
  2.453302900E+02  1.024860004E-03
  5.691900500E+01  8.344290032E-03
  1.760456800E+01  4.078927016E-02
  6.274995000E+00  1.351370605E-01
  2.447030000E+00  2.798830811E-01
  9.950600000E-01  3.597966414E-01
  4.039730000E-01  3.055347412E-01
  1.548100000E-01  1.354703905E-01
  5.418400000E-02  2.804449011E-02
 
   2
   s  14
  1.031094600E+05  1.713099991E-04
  1.528100700E+04  7.123999962E-04
  3.441539200E+03  2.990479984E-03
  9.670948300E+02  1.164036994E-02
  3.140353400E+02  3.968642979E-02
  1.134423000E+02  1.128546094E-01
  4.464472700E+01  2.473650687E-01
  1.894287400E+01  3.672702681E-01
  8.532743000E+00  2.896286985E-01
  3.919401000E+00  7.786681959E-02
  1.568157000E+00  4.562139976E-03
  6.232900000E-01  2.468879987E-03
  2.408610000E-01  1.106309994E-03
  8.430100000E-02  1.739699991E-04
   s  14
  1.031094600E+05 -4.044999995E-05
  1.528100700E+04 -1.682299998E-04
  3.441539200E+03 -7.084299991E-04
  9.670948300E+02 -2.767999996E-03
  3.140353400E+02 -9.611379987E-03
  1.134423000E+02 -2.833957996E-02
  4.464472700E+01 -6.839343991E-02
  1.894287400E+01 -1.237379298E-01
  8.532743000E+00 -1.512859698E-01
  3.919401000E+00 -9.099909988E-03
  1.568157000E+00  3.716257695E-01
  6.232900000E-01  5.500214393E-01
  2.408610000E-01  2.092318697E-01
  8.430100000E-02  8.074639989E-03
   p   9
  2.453302900E+02  1.024860004E-03
  5.691900500E+01  8.344290032E-03
  1.760456800E+01  4.078927016E-02
  6.274995000E+00  1.351370605E-01
  2.447030000E+00  2.798830811E-01
  9.950600000E-01  3.597966414E-01
  4.039730000E-01  3.055347412E-01
  1.548100000E-01  1.354703905E-01
  5.418400000E-02  2.804449011E-02
 
[MO]
Sym=     1a  
Ene=   -26.4760
Spin= Alpha
Occup=    1.00000
   1         0.70710159
   2        -0.00242151
   3        -0.00000000
   4        -0.00000000
   5         0.00006448
   6         0.70710172
   7        -0.00242151
   8         0.00000000
   9         0.00000000
  10        -0.00006448
Sym=     1a  
Ene=   -26.4760
Spin= Beta
Occup=    1.00000
   1         0.70710159
   2        -0.00242151
   3        -0.00000000
   4        -0.00000000
   5         0.00006448
   6         0.70710172
   7        -0.00242151
   8         0.00000000
   9         0.00000000
  10        -0.00006448
Sym=     2a  
Ene=   -26.4760
Spin= Alpha
Occup=    1.00000
   1        -0.70710370
   2         0.00240658
   3        -0.00000000
   4        -0.00000000
   5        -0.00005068
   6         0.70710358
   7        -0.00240658
   8         0.00000000
   9         0.00000000
  10        -0.00005068
Sym=     2a  
Ene=   -26.4760
Spin= Beta
Occup=    1.00000
   1        -0.70710370
   2         0.00240658
   3        -0.00000000
   4        -0.00000000
   5        -0.00005068
   6         0.70710358
   7        -0.00240658
   8         0.00000000
   9         0.00000000
  10        -0.00005068
Sym=     3a  
Ene=    -1.6219
Spin= Alpha
Occup=    1.00000
   1         0.00229610
   2         0.70480988
   3        -0.00000000
   4         0.00000000
   5         0.00703000
   6         0.00229610
   7         0.70480988
   8         0.00000000
   9        -0.00000000
  10        -0.00703000
Sym=     3a  
Ene=    -1.6219
Spin= Beta
Occup=    1.00000
   1         0.00229610
   2         0.70480988
   3        -0.00000000
   4         0.00000000
   5         0.00703000
   6         0.00229610
   7         0.70480988
   8         0.00000000
   9        -0.00000000
  10        -0.00703000
Sym=     4a  
Ene=    -1.6118
Spin= Alpha
Occup=    1.00000
   1        -0.00250036
   2        -0.70887397
   3        -0.00000000
   4         0.00000000
   5         0.00929463
   6         0.00250036
   7         0.70887397
   8         0.00000000
   9        -0.00000000
  10         0.00929463
Sym=     4a  
Ene=    -1.6118
Spin= Beta
Occup=    1.00000
   1        -0.00250036
   2        -0.70887397
   3        -0.00000000
   4         0.00000000
   5         0.00929463
   6         0.00250036
   7         0.70887397
   8         0.00000000
   9        -0.00000000
  10         0.00929463
Sym=     5a  
Ene=    -0.7457
Spin= Alpha
Occup=    1.00000
   1        -0.00000000
   2         0.00000000
   3         0.67810488
   4        -0.18404450
   5         0.00000000
   6         0.00000000
   7        -0.00000000
   8         0.67810488
   9        -0.18404450
  10         0.00000000
Sym=     5a  
Ene=    -0.7457
Spin= Beta
Occup=    1.00000
   1        -0.00000000
   2         0.00000000
   3         0.67810488
   4        -0.18404450
   5         0.00000000
   6         0.00000000
   7        -0.00000000
   8         0.67810488
   9        -0.18404450
  10         0.00000000
Sym=     6a  
Ene=    -0.7457
Spin= Alpha
Occup=    1.00000
   1         0.00000000
   2         0.00000000
   3         0.18404450
   4         0.67810488
   5        -0.00000000
   6         0.00000000
   7        -0.00000000
   8         0.18404450
   9         0.67810488
  10         0.00000000
Sym=     6a  
Ene=    -0.7457
Spin= Beta
Occup=    1.00000
   1         0.00000000
   2         0.00000000
   3         0.18404450
   4         0.67810488
   5        -0.00000000
   6         0.00000000
   7        -0.00000000
   8         0.18404450
   9         0.67810488
  10         0.00000000
Sym=     7a  
Ene=    -0.7408
Spin= Alpha
Occup=    1.00000
   1        -0.00000000
   2         0.00000000
   3        -0.52306044
   4         0.48256824
   5        -0.00000000
   6        -0.00000000
   7        -0.00000000
   8         0.52306044
   9        -0.48256824
  10         0.00000000
Sym=     7a  
Ene=    -0.7408
Spin= Beta
Occup=    1.00000
   1        -0.00000000
   2         0.00000000
   3        -0.52306044
   4         0.48256824
   5        -0.00000000
   6        -0.00000000
   7        -0.00000000
   8         0.52306044
   9        -0.48256824
  10         0.00000000
Sym=     8a  
Ene=    -0.7408
Spin= Alpha
Occup=    1.00000
   1        -0.00000000
   2         0.00000000
   3        -0.48256824
   4        -0.52306044
   5         0.00000000
   6        -0.00000000
   7         0.00000000
   8         0.48256824
   9         0.52306044
  10         0.00000000
Sym=     8a  
Ene=    -0.7408
Spin= Beta
Occup=    1.00000
   1        -0.00000000
   2         0.00000000
   3        -0.48256824
   4        -0.52306044
   5         0.00000000
   6        -0.00000000
   7         0.00000000
   8         0.48256824
   9         0.52306044
  10         0.00000000
Sym=     9a  
Ene=    -0.5194
Spin= Alpha
Occup=    1.00000
   1         0.00142587
   2         0.02589355
   3         0.00000000
   4        -0.00000000
   5        -0.69188708
   6         0.00142587
   7         0.02589355
   8        -0.00000000
   9        -0.00000000
  10         0.69188708
Sym=     9a  
Ene=    -0.5194
Spin= Beta
Occup=    1.00000
   1         0.00142587
   2         0.02589355
   3         0.00000000
   4        -0.00000000
   5        -0.69188708
   6         0.00142587
   7         0.02589355
   8        -0.00000000
   9        -0.00000000
  10         0.69188708
Sym=    10a  
Ene=    -0.2749
Spin= Alpha
Occup=    0.00000
   1         0.00138758
   2         0.02893333
   3        -0.00000000
   4         0.00000000
   5         0.72384148
   6        -0.00138758
   7        -0.02893333
   8        -0.00000000
   9         0.00000000
  10         0.72384148
Sym=    10a  
Ene=    -0.2749
Spin= Beta
Occup=    0.00000
   1         0.00138758
   2         0.02893333
   3        -0.00000000
   4         0.00000000
   5         0.72384148
   6        -0.00138758
   7        -0.02893333
   8        -0.00000000
   9         0.00000000
  10         0.72384148
