[Molden Format]
[N_Atoms]
                     2
[Atoms] (AU)
C1          1      6           0.00000000      0.00000000      0.00000000
C2          2      6           0.00000000      0.00000000      1.70075351
[Charge] (Mulliken)
  0.999999999999917     
   1.00000000000007     
[GTO] (AU)
   1
   s  14
  5.055750100E+04  1.128874000E-04
  7.524785600E+03  5.295373000E-04
  1.694327600E+03  2.450038300E-03
  4.728227900E+02  1.005398470E-02
  1.517107500E+02  3.545398060E-02
  5.391874600E+01  1.044071086E-01
  2.065931100E+01  2.412894918E-01
  8.383976000E+00  3.834225483E-01
  3.577015000E+00  3.078514393E-01
  1.547118000E+00  6.872442990E-02
  6.130130000E-01  2.224445000E-04
  2.460680000E-01  1.976748900E-03
  9.908700000E-02  2.057859400E-03
  3.468000000E-02  4.182020000E-04
   s  14
  5.055750100E+04 -2.507420000E-05
  7.524785600E+03 -1.175945000E-04
  1.694327600E+03 -5.456275000E-04
  4.728227900E+02 -2.245077100E-03
  1.517107500E+02 -8.043471800E-03
  5.391874600E+01 -2.442588710E-02
  2.065931100E+01 -6.136791180E-02
  8.383976000E+00 -1.177767835E-01
  3.577015000E+00 -1.550487783E-01
  1.547118000E+00 -1.933316860E-02
  6.130130000E-01  3.996930678E-01
  2.460680000E-01  5.589420949E-01
  9.908700000E-02  1.711195023E-01
  3.468000000E-02  7.456244600E-03
   p   9
  8.333315500E+01  1.344656000E-03
  1.955761100E+01  1.023555500E-02
  6.080365000E+00  4.520067100E-02
  2.179317000E+00  1.410756198E-01
  8.651500000E-01  3.047388085E-01
  3.619440000E-01  3.995281011E-01
  1.547400000E-01  2.719163432E-01
  6.542900000E-02  5.857669330E-02
  2.290000000E-02 -1.263813000E-04
 
   2
   s  14
  5.055750100E+04  1.128874000E-04
  7.524785600E+03  5.295373000E-04
  1.694327600E+03  2.450038300E-03
  4.728227900E+02  1.005398470E-02
  1.517107500E+02  3.545398060E-02
  5.391874600E+01  1.044071086E-01
  2.065931100E+01  2.412894918E-01
  8.383976000E+00  3.834225483E-01
  3.577015000E+00  3.078514393E-01
  1.547118000E+00  6.872442990E-02
  6.130130000E-01  2.224445000E-04
  2.460680000E-01  1.976748900E-03
  9.908700000E-02  2.057859400E-03
  3.468000000E-02  4.182020000E-04
   s  14
  5.055750100E+04 -2.507420000E-05
  7.524785600E+03 -1.175945000E-04
  1.694327600E+03 -5.456275000E-04
  4.728227900E+02 -2.245077100E-03
  1.517107500E+02 -8.043471800E-03
  5.391874600E+01 -2.442588710E-02
  2.065931100E+01 -6.136791180E-02
  8.383976000E+00 -1.177767835E-01
  3.577015000E+00 -1.550487783E-01
  1.547118000E+00 -1.933316860E-02
  6.130130000E-01  3.996930678E-01
  2.460680000E-01  5.589420949E-01
  9.908700000E-02  1.711195023E-01
  3.468000000E-02  7.456244600E-03
   p   9
  8.333315500E+01  1.344656000E-03
  1.955761100E+01  1.023555500E-02
  6.080365000E+00  4.520067100E-02
  2.179317000E+00  1.410756198E-01
  8.651500000E-01  3.047388085E-01
  3.619440000E-01  3.995281011E-01
  1.547400000E-01  2.719163432E-01
  6.542900000E-02  5.857669330E-02
  2.290000000E-02 -1.263813000E-04
 
[MO]
Sym=     1a  
Ene=   -12.7350
Spin= Alpha
Occup=    2.00000
   1         0.70487310
   2        -0.00226243
   3         0.00000000
   4         0.00000000
   5         0.00412977
   6         0.70487310
   7        -0.00226243
   8         0.00000000
   9        -0.00000000
  10        -0.00412977
Sym=     2a  
Ene=   -12.7020
Spin= Alpha
Occup=    2.00000
   1        -0.70888637
   2         0.00128766
   3         0.00000000
   4         0.00000000
   5        -0.00117568
   6         0.70888637
   7        -0.00128766
   8         0.00000000
   9        -0.00000000
  10        -0.00117568
Sym=     3a  
Ene=    -2.1679
Spin= Alpha
Occup=    2.00000
   1        -0.12233995
   2         0.37121648
   3         0.00000000
   4         0.00000000
   5         0.38079270
   6        -0.12233995
   7         0.37121648
   8        -0.00000000
   9        -0.00000000
  10        -0.38079270
Sym=     4a  
Ene=    -1.4852
Spin= Alpha
Occup=    2.00000
   1         0.00000000
   2        -0.00000000
   3        -0.21639439
   4         0.52653545
   5         0.00000000
   6        -0.00000000
   7         0.00000000
   8        -0.21639439
   9         0.52653545
  10         0.00000000
Sym=     5a  
Ene=    -1.4800
Spin= Alpha
Occup=    1.97389
   1         0.00000000
   2         0.00000000
   3         0.52653545
   4         0.21639439
   5        -0.00000000
   6        -0.00000000
   7        -0.00000000
   8         0.52653545
   9         0.21639439
  10        -0.00000000
Sym=     6a  
Ene=    -0.0008
Spin= Alpha
Occup=    0.02611
   1        -0.11606136
   2        -1.05358154
   3         0.00000000
   4         0.00000000
   5         0.10722215
   6         0.11606136
   7         1.05358154
   8         0.00000000
   9         0.00000000
  10         0.10722215
Sym=     7a  
Ene=    -0.9522
Spin= Alpha
Occup=    0.00000
   1         0.07568060
   2         0.46704879
   3         0.00000000
   4        -0.00000000
   5        -0.67115361
   6         0.07568060
   7         0.46704879
   8        -0.00000000
   9        -0.00000000
  10         0.67115361
Sym=     8a  
Ene=    -0.5420
Spin= Alpha
Occup=    0.00000
   1         0.00000000
   2        -0.00000000
   3         0.39756324
   4        -0.96735935
   5         0.00000000
   6        -0.00000000
   7        -0.00000000
   8        -0.39756324
   9         0.96735935
  10         0.00000000
Sym=     9a  
Ene=    -0.5415
Spin= Alpha
Occup=    0.00000
   1        -0.00000000
   2         0.00000000
   3        -0.96735935
   4        -0.39756324
   5        -0.00000000
   6         0.00000000
   7         0.00000000
   8         0.96735935
   9         0.39756324
  10         0.00000000
Sym=    10a  
Ene=     0.8843
Spin= Alpha
Occup=    0.00000
   1        -0.78450011
   2        -3.11299077
   3         0.00000000
   4         0.00000000
   5        -1.95002890
   6         0.78450011
   7         3.11299077
   8        -0.00000000
   9         0.00000000
  10        -1.95002890
