[Molden Format]
[N_Atoms]
                     2
[Atoms] (AU)
C1          1      6           0.00000000      0.00000000      0.00000000
C2          2      6           0.00000000      0.00000000      1.70075351
[Charge] (Mulliken)
  2.686828537434849E-011
 -2.687805533696519E-011
[GTO] (AU)
   1
   s  14
  5.055750100E+04  1.128874000E-04
  7.524785600E+03  5.295373000E-04
  1.694327600E+03  2.450038300E-03
  4.728227900E+02  1.005398470E-02
  1.517107500E+02  3.545398060E-02
  5.391874600E+01  1.044071086E-01
  2.065931100E+01  2.412894918E-01
  8.383976000E+00  3.834225483E-01
  3.577015000E+00  3.078514393E-01
  1.547118000E+00  6.872442990E-02
  6.130130000E-01  2.224445000E-04
  2.460680000E-01  1.976748900E-03
  9.908700000E-02  2.057859400E-03
  3.468000000E-02  4.182020000E-04
   s  14
  5.055750100E+04 -2.507420000E-05
  7.524785600E+03 -1.175945000E-04
  1.694327600E+03 -5.456275000E-04
  4.728227900E+02 -2.245077100E-03
  1.517107500E+02 -8.043471800E-03
  5.391874600E+01 -2.442588710E-02
  2.065931100E+01 -6.136791180E-02
  8.383976000E+00 -1.177767835E-01
  3.577015000E+00 -1.550487783E-01
  1.547118000E+00 -1.933316860E-02
  6.130130000E-01  3.996930678E-01
  2.460680000E-01  5.589420949E-01
  9.908700000E-02  1.711195023E-01
  3.468000000E-02  7.456244600E-03
   p   9
  8.333315500E+01  1.344656000E-03
  1.955761100E+01  1.023555500E-02
  6.080365000E+00  4.520067100E-02
  2.179317000E+00  1.410756198E-01
  8.651500000E-01  3.047388085E-01
  3.619440000E-01  3.995281011E-01
  1.547400000E-01  2.719163432E-01
  6.542900000E-02  5.857669330E-02
  2.290000000E-02 -1.263813000E-04
 
   2
   s  14
  5.055750100E+04  1.128874000E-04
  7.524785600E+03  5.295373000E-04
  1.694327600E+03  2.450038300E-03
  4.728227900E+02  1.005398470E-02
  1.517107500E+02  3.545398060E-02
  5.391874600E+01  1.044071086E-01
  2.065931100E+01  2.412894918E-01
  8.383976000E+00  3.834225483E-01
  3.577015000E+00  3.078514393E-01
  1.547118000E+00  6.872442990E-02
  6.130130000E-01  2.224445000E-04
  2.460680000E-01  1.976748900E-03
  9.908700000E-02  2.057859400E-03
  3.468000000E-02  4.182020000E-04
   s  14
  5.055750100E+04 -2.507420000E-05
  7.524785600E+03 -1.175945000E-04
  1.694327600E+03 -5.456275000E-04
  4.728227900E+02 -2.245077100E-03
  1.517107500E+02 -8.043471800E-03
  5.391874600E+01 -2.442588710E-02
  2.065931100E+01 -6.136791180E-02
  8.383976000E+00 -1.177767835E-01
  3.577015000E+00 -1.550487783E-01
  1.547118000E+00 -1.933316860E-02
  6.130130000E-01  3.996930678E-01
  2.460680000E-01  5.589420949E-01
  9.908700000E-02  1.711195023E-01
  3.468000000E-02  7.456244600E-03
   p   9
  8.333315500E+01  1.344656000E-03
  1.955761100E+01  1.023555500E-02
  6.080365000E+00  4.520067100E-02
  2.179317000E+00  1.410756198E-01
  8.651500000E-01  3.047388085E-01
  3.619440000E-01  3.995281011E-01
  1.547400000E-01  2.719163432E-01
  6.542900000E-02  5.857669330E-02
  2.290000000E-02 -1.263813000E-04
 
[MO]
Sym=     1a  
Ene=   -11.6020
Spin= Alpha
Occup=    1.00000
   1         0.70452234
   2        -0.00184875
   3         0.00000000
   4        -0.00000000
   5         0.00561764
   6         0.70452234
   7        -0.00184875
   8         0.00000000
   9         0.00000000
  10        -0.00561764
Sym=     1a  
Ene=   -11.6020
Spin= Beta
Occup=    1.00000
   1         0.70452234
   2        -0.00184875
   3         0.00000000
   4        -0.00000000
   5         0.00561764
   6         0.70452234
   7        -0.00184875
   8         0.00000000
   9         0.00000000
  10        -0.00561764
Sym=     2a  
Ene=   -11.5690
Spin= Alpha
Occup=    1.00000
   1        -0.71086638
   2        -0.00663129
   3         0.00000000
   4        -0.00000000
   5        -0.00606749
   6         0.71086638
   7         0.00663129
   8         0.00000000
   9         0.00000000
  10        -0.00606749
Sym=     2a  
Ene=   -11.5690
Spin= Beta
Occup=    1.00000
   1        -0.71086638
   2        -0.00663129
   3         0.00000000
   4        -0.00000000
   5        -0.00606749
   6         0.71086638
   7         0.00663129
   8         0.00000000
   9         0.00000000
  10        -0.00606749
Sym=     3a  
Ene=    -1.2717
Spin= Alpha
Occup=    1.00000
   1        -0.11567068
   2         0.41616120
   3        -0.00000000
   4        -0.00000000
   5         0.31159930
   6        -0.11567068
   7         0.41616120
   8        -0.00000000
   9        -0.00000000
  10        -0.31159930
Sym=     3a  
Ene=    -1.2717
Spin= Beta
Occup=    1.00000
   1        -0.11567068
   2         0.41616120
   3        -0.00000000
   4        -0.00000000
   5         0.31159930
   6        -0.11567068
   7         0.41616120
   8        -0.00000000
   9        -0.00000000
  10        -0.31159930
Sym=     4a  
Ene=    -0.6500
Spin= Alpha
Occup=    1.00000
   1         0.00000000
   2         0.00000000
   3         0.06048610
   4         0.56604554
   5        -0.00000000
   6        -0.00000000
   7         0.00000000
   8         0.06048610
   9         0.56604554
  10         0.00000000
Sym=     4a  
Ene=    -0.6500
Spin= Beta
Occup=    1.00000
   1         0.00000000
   2         0.00000000
   3         0.06048610
   4         0.56604554
   5        -0.00000000
   6        -0.00000000
   7         0.00000000
   8         0.06048610
   9         0.56604554
  10         0.00000000
Sym=     5a  
Ene=    -0.6500
Spin= Alpha
Occup=    1.00000
   1         0.00000000
   2         0.00000000
   3         0.56604554
   4        -0.06048610
   5        -0.00000000
   6         0.00000000
   7         0.00000000
   8         0.56604554
   9        -0.06048610
  10         0.00000000
Sym=     5a  
Ene=    -0.6500
Spin= Beta
Occup=    1.00000
   1         0.00000000
   2         0.00000000
   3         0.56604554
   4        -0.06048610
   5        -0.00000000
   6         0.00000000
   7         0.00000000
   8         0.56604554
   9        -0.06048610
  10         0.00000000
Sym=     6a  
Ene=    -0.5083
Spin= Alpha
Occup=    1.00000
   1        -0.01385082
   2        -0.64235838
   3         0.00000000
   4         0.00000000
   5         0.35838242
   6         0.01385082
   7         0.64235838
   8         0.00000000
   9         0.00000000
  10         0.35838242
Sym=     6a  
Ene=    -0.5083
Spin= Beta
Occup=    1.00000
   1        -0.01385082
   2        -0.64235838
   3         0.00000000
   4         0.00000000
   5         0.35838242
   6         0.01385082
   7         0.64235838
   8         0.00000000
   9         0.00000000
  10         0.35838242
Sym=     7a  
Ene=    -0.1547
Spin= Alpha
Occup=    0.00000
   1         0.08837006
   2         0.42749012
   3        -0.00000000
   4        -0.00000000
   5        -0.70593316
   6         0.08837006
   7         0.42749012
   8        -0.00000000
   9        -0.00000000
  10         0.70593316
Sym=     7a  
Ene=    -0.1547
Spin= Beta
Occup=    0.00000
   1         0.08837006
   2         0.42749012
   3        -0.00000000
   4        -0.00000000
   5        -0.70593316
   6         0.08837006
   7         0.42749012
   8        -0.00000000
   9        -0.00000000
  10         0.70593316
Sym=     8a  
Ene=     0.3423
Spin= Alpha
Occup=    0.00000
   1         0.00000000
   2         0.00000000
   3        -0.93541743
   4        -0.46779789
   5        -0.00000000
   6         0.00000000
   7         0.00000000
   8         0.93541743
   9         0.46779789
  10         0.00000000
Sym=     8a  
Ene=     0.3423
Spin= Beta
Occup=    0.00000
   1         0.00000000
   2         0.00000000
   3        -0.93541743
   4        -0.46779789
   5        -0.00000000
   6         0.00000000
   7         0.00000000
   8         0.93541743
   9         0.46779789
  10         0.00000000
Sym=     9a  
Ene=     0.3423
Spin= Alpha
Occup=    0.00000
   1         0.00000000
   2         0.00000000
   3         0.46779789
   4        -0.93541743
   5         0.00000000
   6        -0.00000000
   7        -0.00000000
   8        -0.46779789
   9         0.93541743
  10        -0.00000000
Sym=     9a  
Ene=     0.3423
Spin= Beta
Occup=    0.00000
   1         0.00000000
   2         0.00000000
   3         0.46779789
   4        -0.93541743
   5         0.00000000
   6        -0.00000000
   7        -0.00000000
   8        -0.46779789
   9         0.93541743
  10        -0.00000000
Sym=    10a  
Ene=     1.8558
Spin= Alpha
Occup=    0.00000
   1         0.79114329
   2         3.22305430
   3         0.00000000
   4        -0.00000000
   5         1.91980101
   6        -0.79114329
   7        -3.22305430
   8         0.00000000
   9        -0.00000000
  10         1.91980101
Sym=    10a  
Ene=     1.8558
Spin= Beta
Occup=    0.00000
   1         0.79114329
   2         3.22305430
   3         0.00000000
   4        -0.00000000
   5         1.91980101
   6        -0.79114329
   7        -3.22305430
   8         0.00000000
   9        -0.00000000
  10         1.91980101
