[Molden Format]
[N_Atoms]
                     2
[Atoms] (AU)
BE1         1      4           0.00000000      0.00000000      0.00000000
LI2         2      3           0.00000000      0.00000000      3.02356180
[Charge] (Mulliken)
 -0.249286988557669     
  0.249286988557655     
[GTO] (AU)
   1
   s  14
  2.262859900E+04  8.443999941E-05
  3.372318100E+03  4.601499968E-04
  7.603504000E+02  2.285389984E-03
  2.117404800E+02  9.648129932E-03
  6.722346800E+01  3.494469975E-02
  2.337217700E+01  1.061099893E-01
  8.721373000E+00  2.458240383E-01
  3.468091000E+00  3.862428773E-01
  1.452144000E+00  3.105526078E-01
  6.086150000E-01  6.415933955E-02
  2.576860000E-01 -2.265049984E-03
  1.041760000E-01 -5.217499963E-04
  4.242700000E-02 -8.757499938E-04
  1.484900000E-02  1.242199991E-04
   s  14
  2.262859900E+04 -1.586999994E-05
  3.372318100E+03 -8.656999968E-05
  7.603504000E+02 -4.302199984E-04
  2.117404800E+02 -1.825079993E-03
  6.722346800E+01 -6.682749976E-03
  2.337217700E+01 -2.095119992E-02
  8.721373000E+00 -5.200308981E-02
  3.468091000E+00 -9.849176964E-02
  1.452144000E+00 -1.355800695E-01
  6.086150000E-01 -6.429875976E-02
  2.576860000E-01  3.125414989E-01
  1.041760000E-01  6.270468577E-01
  4.242700000E-02  2.110231492E-01
  1.484900000E-02 -4.104669985E-03
   p   9
  3.371018400E+01  1.069960000E-03
  8.057649500E+00  6.828550001E-03
  2.836471400E+00  2.119065000E-02
  1.099965700E+00  5.843696001E-02
  4.433964000E-01  2.020920800E-01
  1.822264000E-01  4.582953101E-01
  7.572410000E-02  3.691239601E-01
  3.168540000E-02  6.611471001E-02
  1.108990000E-02  1.405160000E-03
 
   2
   s  14
  9.497934400E+03  9.668999974E-05
  1.416811200E+03  6.087099984E-04
  3.214599400E+02  3.101519992E-03
  9.112416300E+01  1.266904997E-02
  2.999989100E+01  4.248012989E-02
  1.101763100E+01  1.150183297E-01
  4.372801000E+00  2.398650094E-01
  1.831256000E+00  3.584300090E-01
  8.022610000E-01  3.048527792E-01
  3.626480000E-01  8.824261976E-02
  1.139950000E-01 -8.445899977E-04
  5.123700000E-02 -7.943959979E-03
  2.246800000E-02 -3.764419990E-03
  7.860000000E-03 -8.868999976E-05
   s  14
  9.497934400E+03 -1.244999993E-05
  1.416811200E+03 -7.838999954E-05
  3.214599400E+02 -4.007099976E-04
  9.112416300E+01 -1.645249990E-03
  2.999989100E+01 -5.634599967E-03
  1.101763100E+01 -1.590780991E-02
  4.372801000E+00 -3.612581979E-02
  1.831256000E+00 -6.459927962E-02
  8.022610000E-01 -1.008321794E-01
  3.626480000E-01 -9.757613942E-02
  1.139950000E-01  2.301215886E-01
  5.123700000E-02  6.102389764E-01
  2.246800000E-02  2.849406083E-01
  7.860000000E-03  4.026899976E-03
   p   9
  1.311950400E+01  1.524940000E-03
  3.077424200E+00  8.314830000E-03
  1.098800500E+00  1.933203000E-02
  4.357784000E-01  4.934293000E-02
  1.802432000E-01  1.623554000E-01
  7.613330000E-02  3.847505400E-01
  3.254650000E-02  4.336100400E-01
  1.401820000E-02  1.287005900E-01
  4.906400000E-03 -1.018520000E-03
 
[MO]
Sym=     1a  
Ene=    -4.7472
Spin= Alpha
Occup=    1.00000
   1         1.00024496
   2         0.00507491
   3         0.00000000
   4        -0.00000000
   5         0.00167952
   6         0.00014570
   7        -0.00151688
   8        -0.00000000
   9         0.00000000
  10         0.00073675
Sym=     1a  
Ene=    -4.7434
Spin= Beta
Occup=    1.00000
   1         1.00014250
   2         0.00377640
   3         0.00000000
   4         0.00000000
   5         0.00266293
   6         0.00019507
   7        -0.00137507
   8         0.00000000
   9         0.00000000
  10         0.00010621
Sym=     2a  
Ene=    -2.4903
Spin= Alpha
Occup=    1.00000
   1        -0.00603354
   2         0.00726999
   3        -0.00000000
   4        -0.00000000
   5         0.00633984
   6         0.99717949
   7         0.00734014
   8         0.00000000
   9        -0.00000000
  10        -0.00070237
Sym=     2a  
Ene=    -2.4840
Spin= Beta
Occup=    1.00000
   1        -0.00575979
   2         0.01151200
   3        -0.00000000
   4        -0.00000000
   5         0.00906121
   6         0.99580038
   7         0.00530971
   8         0.00000000
   9        -0.00000000
  10         0.00053230
Sym=     3a  
Ene=    -0.3622
Spin= Alpha
Occup=    1.00000
   1        -0.02077057
   2         0.89406094
   3         0.00000000
   4        -0.00000000
   5        -0.08558794
   6        -0.12676723
   7         0.13957135
   8        -0.00000000
   9         0.00000000
  10        -0.02914564
Sym=     3a  
Ene=    -0.3456
Spin= Beta
Occup=    1.00000
   1        -0.02582457
   2         0.85778681
   3        -0.00000000
   4         0.00000000
   5         0.32999343
   6        -0.23060254
   7         0.04558698
   8         0.00000000
   9        -0.00000000
  10        -0.13450497
Sym=     4a  
Ene=    -0.1836
Spin= Alpha
Occup=    1.00000
   1        -0.03649583
   2        -0.30959736
   3        -0.00000000
   4         0.00000000
   5         0.58694520
   6        -0.11025572
   7         0.66745902
   8        -0.00000000
   9         0.00000000
  10         0.20808680
Sym=     4a  
Ene=     0.0215
Spin= Beta
Occup=    0.00000
   1        -0.00000000
   2        -0.00000000
   3         0.48513344
   4         0.03449496
   5         0.00000000
   6         0.00000000
   7         0.00000000
   8         0.64160643
   9         0.04562082
  10         0.00000000
Sym=     5a  
Ene=     0.0049
Spin= Alpha
Occup=    0.00000
   1         0.00000000
   2        -0.00000000
   3         0.44037362
   4         0.02947016
   5         0.00000000
   6         0.00000000
   7         0.00000000
   8         0.68240427
   9         0.04566704
  10         0.00000000
Sym=     5a  
Ene=     0.0215
Spin= Beta
Occup=    0.00000
   1         0.00000000
   2         0.00000000
   3        -0.03449496
   4         0.48513344
   5        -0.00000000
   6        -0.00000000
   7        -0.00000000
   8        -0.04562082
   9         0.64160643
  10        -0.00000000
Sym=     6a  
Ene=     0.0049
Spin= Alpha
Occup=    0.00000
   1        -0.00000000
   2         0.00000000
   3        -0.02947016
   4         0.44037362
   5        -0.00000000
   6        -0.00000000
   7        -0.00000000
   8        -0.04566704
   9         0.68240427
  10        -0.00000000
Sym=     6a  
Ene=     0.0606
Spin= Beta
Occup=    0.00000
   1         0.00626376
   2        -0.25032894
   3        -0.00000000
   4         0.00000000
   5         0.07751758
   6         0.01188137
   7         0.78597537
   8        -0.00000000
   9         0.00000000
  10         0.59132529
Sym=     7a  
Ene=     0.0531
Spin= Alpha
Occup=    0.00000
   1         0.07806770
   2         0.12678861
   3         0.00000000
   4         0.00000000
   5        -0.79456987
   6         0.18347846
   7         0.38609491
   8        -0.00000000
   9         0.00000000
  10         0.81769718
Sym=     7a  
Ene=     0.1420
Spin= Beta
Occup=    0.00000
   1        -0.04587939
   2        -0.07400130
   3        -0.00000000
   4         0.00000000
   5        -1.09738099
   6         0.29148503
   7         0.58832284
   8         0.00000000
   9        -0.00000000
  10         0.08365525
Sym=     8a  
Ene=     0.1678
Spin= Alpha
Occup=    0.00000
   1         0.00000000
   2         0.00000000
   3        -0.98178828
   4        -0.54374334
   5        -0.00000000
   6         0.00000000
   7         0.00000000
   8         0.86891723
   9         0.48123202
  10         0.00000000
Sym=     8a  
Ene=     0.1960
Spin= Beta
Occup=    0.00000
   1         0.00000000
   2        -0.00000000
   3        -0.96606376
   4        -0.53342190
   5         0.00000000
   6        -0.00000000
   7        -0.00000000
   8         0.89301995
   9         0.49309002
  10        -0.00000000
Sym=     9a  
Ene=     0.1678
Spin= Alpha
Occup=    0.00000
   1         0.00000000
   2        -0.00000000
   3         0.54374334
   4        -0.98178828
   5         0.00000000
   6        -0.00000000
   7        -0.00000000
   8        -0.48123202
   9         0.86891723
  10        -0.00000000
Sym=     9a  
Ene=     0.1960
Spin= Beta
Occup=    0.00000
   1        -0.00000000
   2        -0.00000000
   3         0.53342190
   4        -0.96606376
   5        -0.00000000
   6         0.00000000
   7         0.00000000
   8        -0.49309002
   9         0.89301995
  10         0.00000000
Sym=    10a  
Ene=     0.2296
Spin= Alpha
Occup=    0.00000
   1         0.40843213
   2         2.28536174
   3        -0.00000000
   4         0.00000000
   5         0.69460368
   6        -0.52506526
   7        -1.94684874
   8         0.00000000
   9        -0.00000000
  10         1.52514256
Sym=    10a  
Ene=     0.2317
Spin= Beta
Occup=    0.00000
   1         0.41481547
   2         2.30871002
   3         0.00000000
   4        -0.00000000
   5         0.38268741
   6        -0.44950021
   7        -1.85427556
   8         0.00000000
   9         0.00000000
  10         1.63220202
