[Molden Format]
[N_Atoms]
                     2
[Atoms] (AU)
BE1         1      4           0.00000000      0.00000000      0.00000000
LI2         2      3           0.00000000      0.00000000      3.02356180
[Charge] (Mulliken)
 -0.229188398743347     
  0.229188398743338     
[GTO] (AU)
   1
   s  14
  2.262859900E+04  8.443999941E-05
  3.372318100E+03  4.601499968E-04
  7.603504000E+02  2.285389984E-03
  2.117404800E+02  9.648129932E-03
  6.722346800E+01  3.494469975E-02
  2.337217700E+01  1.061099893E-01
  8.721373000E+00  2.458240383E-01
  3.468091000E+00  3.862428773E-01
  1.452144000E+00  3.105526078E-01
  6.086150000E-01  6.415933955E-02
  2.576860000E-01 -2.265049984E-03
  1.041760000E-01 -5.217499963E-04
  4.242700000E-02 -8.757499938E-04
  1.484900000E-02  1.242199991E-04
   s  14
  2.262859900E+04 -1.586999994E-05
  3.372318100E+03 -8.656999968E-05
  7.603504000E+02 -4.302199984E-04
  2.117404800E+02 -1.825079993E-03
  6.722346800E+01 -6.682749976E-03
  2.337217700E+01 -2.095119992E-02
  8.721373000E+00 -5.200308981E-02
  3.468091000E+00 -9.849176964E-02
  1.452144000E+00 -1.355800695E-01
  6.086150000E-01 -6.429875976E-02
  2.576860000E-01  3.125414989E-01
  1.041760000E-01  6.270468577E-01
  4.242700000E-02  2.110231492E-01
  1.484900000E-02 -4.104669985E-03
   p   9
  3.371018400E+01  1.069960000E-03
  8.057649500E+00  6.828550001E-03
  2.836471400E+00  2.119065000E-02
  1.099965700E+00  5.843696001E-02
  4.433964000E-01  2.020920800E-01
  1.822264000E-01  4.582953101E-01
  7.572410000E-02  3.691239601E-01
  3.168540000E-02  6.611471001E-02
  1.108990000E-02  1.405160000E-03
 
   2
   s  14
  9.497934400E+03  9.668999974E-05
  1.416811200E+03  6.087099984E-04
  3.214599400E+02  3.101519992E-03
  9.112416300E+01  1.266904997E-02
  2.999989100E+01  4.248012989E-02
  1.101763100E+01  1.150183297E-01
  4.372801000E+00  2.398650094E-01
  1.831256000E+00  3.584300090E-01
  8.022610000E-01  3.048527792E-01
  3.626480000E-01  8.824261976E-02
  1.139950000E-01 -8.445899977E-04
  5.123700000E-02 -7.943959979E-03
  2.246800000E-02 -3.764419990E-03
  7.860000000E-03 -8.868999976E-05
   s  14
  9.497934400E+03 -1.244999993E-05
  1.416811200E+03 -7.838999954E-05
  3.214599400E+02 -4.007099976E-04
  9.112416300E+01 -1.645249990E-03
  2.999989100E+01 -5.634599967E-03
  1.101763100E+01 -1.590780991E-02
  4.372801000E+00 -3.612581979E-02
  1.831256000E+00 -6.459927962E-02
  8.022610000E-01 -1.008321794E-01
  3.626480000E-01 -9.757613942E-02
  1.139950000E-01  2.301215886E-01
  5.123700000E-02  6.102389764E-01
  2.246800000E-02  2.849406083E-01
  7.860000000E-03  4.026899976E-03
   p   9
  1.311950400E+01  1.524940000E-03
  3.077424200E+00  8.314830000E-03
  1.098800500E+00  1.933203000E-02
  4.357784000E-01  4.934293000E-02
  1.802432000E-01  1.623554000E-01
  7.613330000E-02  3.847505400E-01
  3.254650000E-02  4.336100400E-01
  1.401820000E-02  1.287005900E-01
  4.906400000E-03 -1.018520000E-03
 
[MO]
Sym=     1a  
Ene=    -4.7115
Spin= Alpha
Occup=    2.00000
   1         1.00014598
   2         0.00384985
   3        -0.00000000
   4        -0.00000000
   5         0.00126089
   6         0.00057165
   7        -0.00110668
   8         0.00000000
   9         0.00000000
  10         0.00031726
Sym=     2a  
Ene=    -2.5162
Spin= Alpha
Occup=    2.00000
   1        -0.00578857
   2         0.00562226
   3         0.00000000
   4         0.00000000
   5         0.00545410
   6         0.99768665
   7         0.00699713
   8         0.00000000
   9         0.00000000
  10         0.00159966
Sym=     3a  
Ene=    -0.3229
Spin= Alpha
Occup=    2.00000
   1        -0.03875657
   2         0.79983226
   3         0.00000000
   4         0.00000000
   5         0.13597373
   6        -0.16649950
   7         0.17497290
   8        -0.00000000
   9        -0.00000000
  10        -0.13628606
Sym=     4a  
Ene=     0.0000
Spin= Alpha
Occup=    1.00000
   1         0.00000000
   2         0.00000001
   3         0.64756013
   4         0.23267354
   5        -0.00000003
   6         0.00000000
   7        -0.00000002
   8         0.41092485
   9         0.14764859
  10        -0.00000001
Sym=     5a  
Ene=     0.0179
Spin= Alpha
Occup=    0.00000
   1        -0.02176135
   2         0.17270801
   3        -0.00000001
   4        -0.00000000
   5        -0.12043774
   6         0.01168054
   7        -0.70652589
   8        -0.00000002
   9        -0.00000001
  10        -0.64327594
Sym=     6a  
Ene=     0.0223
Spin= Alpha
Occup=    0.00000
   1         0.00000000
   2        -0.00000000
   3        -0.12816820
   4         0.35670844
   5         0.00000000
   6        -0.00000000
   7         0.00000000
   8        -0.24936883
   9         0.69402526
  10         0.00000000
Sym=     7a  
Ene=     0.1281
Spin= Alpha
Occup=    0.00000
   1         0.05806906
   2         0.33776136
   3         0.00000001
   4         0.00000000
   5        -1.01102993
   6         0.20673661
   7         0.12828235
   8        -0.00000004
   9        -0.00000001
  10         0.50218320
Sym=     8a  
Ene=     0.1736
Spin= Alpha
Occup=    0.00000
   1         0.00000000
   2         0.00000001
   3        -0.93205990
   4        -0.33489658
   5        -0.00000003
   6         0.00000001
   7         0.00000000
   8         1.05792748
   9         0.38012181
  10         0.00000000
Sym=     9a  
Ene=     0.1944
Spin= Alpha
Occup=    0.00000
   1         0.00000000
   2         0.00000000
   3         0.38712480
   4        -1.07741768
   5         0.00000000
   6        -0.00000000
   7        -0.00000000
   8        -0.32265753
   9         0.89799705
  10         0.00000000
Sym=    10a  
Ene=     0.2414
Spin= Alpha
Occup=    0.00000
   1        -0.41173777
   2        -2.31312318
   3         0.00000000
   4         0.00000000
   5        -0.64068835
   6         0.51572625
   7         1.96418590
   8        -0.00000000
   9        -0.00000000
  10        -1.53436328
