[Molden Format]
[N_Atoms]
                     2
[Atoms] (AU)
F1          1      9           0.00000000      0.00000000      0.00000000
F2          2      9           0.00000000      0.00000000      4.34637009
[Charge] (Mulliken)
 -8.526512829121202E-014
  7.460698725481052E-014
[GTO] (AU)
   1
   s  14
  1.031094600E+05  1.713099991E-04
  1.528100700E+04  7.123999962E-04
  3.441539200E+03  2.990479984E-03
  9.670948300E+02  1.164036994E-02
  3.140353400E+02  3.968642979E-02
  1.134423000E+02  1.128546094E-01
  4.464472700E+01  2.473650687E-01
  1.894287400E+01  3.672702681E-01
  8.532743000E+00  2.896286985E-01
  3.919401000E+00  7.786681959E-02
  1.568157000E+00  4.562139976E-03
  6.232900000E-01  2.468879987E-03
  2.408610000E-01  1.106309994E-03
  8.430100000E-02  1.739699991E-04
   s  14
  1.031094600E+05 -4.044999995E-05
  1.528100700E+04 -1.682299998E-04
  3.441539200E+03 -7.084299991E-04
  9.670948300E+02 -2.767999996E-03
  3.140353400E+02 -9.611379987E-03
  1.134423000E+02 -2.833957996E-02
  4.464472700E+01 -6.839343991E-02
  1.894287400E+01 -1.237379298E-01
  8.532743000E+00 -1.512859698E-01
  3.919401000E+00 -9.099909988E-03
  1.568157000E+00  3.716257695E-01
  6.232900000E-01  5.500214393E-01
  2.408610000E-01  2.092318697E-01
  8.430100000E-02  8.074639989E-03
   p   9
  2.453302900E+02  1.024860004E-03
  5.691900500E+01  8.344290032E-03
  1.760456800E+01  4.078927016E-02
  6.274995000E+00  1.351370605E-01
  2.447030000E+00  2.798830811E-01
  9.950600000E-01  3.597966414E-01
  4.039730000E-01  3.055347412E-01
  1.548100000E-01  1.354703905E-01
  5.418400000E-02  2.804449011E-02
 
   2
   s  14
  1.031094600E+05  1.713099991E-04
  1.528100700E+04  7.123999962E-04
  3.441539200E+03  2.990479984E-03
  9.670948300E+02  1.164036994E-02
  3.140353400E+02  3.968642979E-02
  1.134423000E+02  1.128546094E-01
  4.464472700E+01  2.473650687E-01
  1.894287400E+01  3.672702681E-01
  8.532743000E+00  2.896286985E-01
  3.919401000E+00  7.786681959E-02
  1.568157000E+00  4.562139976E-03
  6.232900000E-01  2.468879987E-03
  2.408610000E-01  1.106309994E-03
  8.430100000E-02  1.739699991E-04
   s  14
  1.031094600E+05 -4.044999995E-05
  1.528100700E+04 -1.682299998E-04
  3.441539200E+03 -7.084299991E-04
  9.670948300E+02 -2.767999996E-03
  3.140353400E+02 -9.611379987E-03
  1.134423000E+02 -2.833957996E-02
  4.464472700E+01 -6.839343991E-02
  1.894287400E+01 -1.237379298E-01
  8.532743000E+00 -1.512859698E-01
  3.919401000E+00 -9.099909988E-03
  1.568157000E+00  3.716257695E-01
  6.232900000E-01  5.500214393E-01
  2.408610000E-01  2.092318697E-01
  8.430100000E-02  8.074639989E-03
   p   9
  2.453302900E+02  1.024860004E-03
  5.691900500E+01  8.344290032E-03
  1.760456800E+01  4.078927016E-02
  6.274995000E+00  1.351370605E-01
  2.447030000E+00  2.798830811E-01
  9.950600000E-01  3.597966414E-01
  4.039730000E-01  3.055347412E-01
  1.548100000E-01  1.354703905E-01
  5.418400000E-02  2.804449011E-02
 
[MO]
Sym=     1a  
Ene=   -26.4900
Spin= Alpha
Occup=    1.00000
   1         0.70710034
   2        -0.00245261
   3        -0.00000000
   4        -0.00000000
   5         0.00010467
   6         0.70710021
   7        -0.00245261
   8        -0.00000000
   9        -0.00000000
  10        -0.00010467
Sym=     1a  
Ene=   -26.4900
Spin= Beta
Occup=    1.00000
   1         0.70710034
   2        -0.00245261
   3        -0.00000000
   4        -0.00000000
   5         0.00010467
   6         0.70710021
   7        -0.00245261
   8        -0.00000000
   9        -0.00000000
  10        -0.00010467
Sym=     2a  
Ene=   -26.4890
Spin= Alpha
Occup=    1.00000
   1        -0.70710485
   2         0.00241273
   3        -0.00000000
   4        -0.00000000
   5        -0.00010218
   6         0.70710498
   7        -0.00241273
   8        -0.00000000
   9        -0.00000000
  10        -0.00010218
Sym=     2a  
Ene=   -26.4890
Spin= Beta
Occup=    1.00000
   1        -0.70710485
   2         0.00241273
   3        -0.00000000
   4        -0.00000000
   5        -0.00010218
   6         0.70710498
   7        -0.00241273
   8        -0.00000000
   9        -0.00000000
  10        -0.00010218
Sym=     3a  
Ene=    -1.6363
Spin= Alpha
Occup=    1.00000
   1         0.00202556
   2         0.70055081
   3         0.00000000
   4        -0.00000000
   5         0.01245850
   6         0.00202556
   7         0.70055081
   8        -0.00000000
   9         0.00000000
  10        -0.01245850
Sym=     3a  
Ene=    -1.6363
Spin= Beta
Occup=    1.00000
   1         0.00202556
   2         0.70055081
   3         0.00000000
   4        -0.00000000
   5         0.01245850
   6         0.00202556
   7         0.70055081
   8        -0.00000000
   9         0.00000000
  10        -0.01245850
Sym=     4a  
Ene=    -1.6117
Spin= Alpha
Occup=    1.00000
   1        -0.00273682
   2        -0.71208028
   3        -0.00000000
   4        -0.00000000
   5         0.01460333
   6         0.00273682
   7         0.71208028
   8        -0.00000000
   9         0.00000000
  10         0.01460333
Sym=     4a  
Ene=    -1.6117
Spin= Beta
Occup=    1.00000
   1        -0.00273682
   2        -0.71208028
   3        -0.00000000
   4        -0.00000000
   5         0.01460333
   6         0.00273682
   7         0.71208028
   8        -0.00000000
   9         0.00000000
  10         0.01460333
Sym=     5a  
Ene=    -0.7561
Spin= Alpha
Occup=    1.00000
   1         0.00000000
   2         0.00000000
   3        -0.40234432
   4         0.57078190
   5         0.00000000
   6        -0.00000000
   7        -0.00000000
   8        -0.40234432
   9         0.57078190
  10         0.00000000
Sym=     5a  
Ene=    -0.7561
Spin= Beta
Occup=    1.00000
   1         0.00000000
   2         0.00000000
   3        -0.40234432
   4         0.57078190
   5         0.00000000
   6        -0.00000000
   7        -0.00000000
   8        -0.40234432
   9         0.57078190
  10         0.00000000
Sym=     6a  
Ene=    -0.7561
Spin= Alpha
Occup=    1.00000
   1        -0.00000000
   2        -0.00000000
   3         0.57078190
   4         0.40234432
   5        -0.00000000
   6         0.00000000
   7         0.00000000
   8         0.57078190
   9         0.40234432
  10        -0.00000000
Sym=     6a  
Ene=    -0.7561
Spin= Beta
Occup=    1.00000
   1        -0.00000000
   2        -0.00000000
   3         0.57078190
   4         0.40234432
   5        -0.00000000
   6         0.00000000
   7         0.00000000
   8         0.57078190
   9         0.40234432
  10        -0.00000000
Sym=     7a  
Ene=    -0.7428
Spin= Alpha
Occup=    1.00000
   1         0.00000000
   2        -0.00000000
   3         0.47606058
   4        -0.53510069
   5         0.00000000
   6         0.00000000
   7        -0.00000000
   8        -0.47606058
   9         0.53510069
  10         0.00000000
Sym=     7a  
Ene=    -0.7428
Spin= Beta
Occup=    1.00000
   1         0.00000000
   2        -0.00000000
   3         0.47606058
   4        -0.53510069
   5         0.00000000
   6         0.00000000
   7        -0.00000000
   8        -0.47606058
   9         0.53510069
  10         0.00000000
Sym=     8a  
Ene=    -0.7428
Spin= Alpha
Occup=    1.00000
   1        -0.00000000
   2         0.00000000
   3        -0.53510069
   4        -0.47606058
   5         0.00000000
   6        -0.00000000
   7        -0.00000000
   8         0.53510069
   9         0.47606058
  10        -0.00000000
Sym=     8a  
Ene=    -0.7428
Spin= Beta
Occup=    1.00000
   1        -0.00000000
   2         0.00000000
   3        -0.53510069
   4        -0.47606058
   5         0.00000000
   6        -0.00000000
   7        -0.00000000
   8         0.53510069
   9         0.47606058
  10        -0.00000000
Sym=     9a  
Ene=    -0.5628
Spin= Alpha
Occup=    1.00000
   1         0.00286473
   2         0.04902445
   3         0.00000000
   4         0.00000000
   5        -0.68255066
   6         0.00286473
   7         0.04902445
   8         0.00000000
   9         0.00000000
  10         0.68255066
Sym=     9a  
Ene=    -0.5628
Spin= Beta
Occup=    1.00000
   1         0.00286473
   2         0.04902445
   3         0.00000000
   4         0.00000000
   5        -0.68255066
   6         0.00286473
   7         0.04902445
   8         0.00000000
   9         0.00000000
  10         0.68255066
Sym=    10a  
Ene=    -0.2391
Spin= Alpha
Occup=    0.00000
   1         0.00293510
   2         0.05454422
   3         0.00000000
   4         0.00000000
   5         0.73656337
   6        -0.00293510
   7        -0.05454422
   8         0.00000000
   9         0.00000000
  10         0.73656337
Sym=    10a  
Ene=    -0.2391
Spin= Beta
Occup=    0.00000
   1         0.00293510
   2         0.05454422
   3         0.00000000
   4         0.00000000
   5         0.73656337
   6        -0.00293510
   7        -0.05454422
   8         0.00000000
   9         0.00000000
  10         0.73656337
