[Molden Format]
[N_Atoms]
                     2
[Atoms] (AU)
F1          1      9           0.00000000      0.00000000      0.00000000
F2          2      9           0.00000000      0.00000000      4.34637009
[Charge] (Mulliken)
   1.00255267002633     
  0.997447329973646     
[GTO] (AU)
   1
   s  14
  1.031094600E+05  1.713099991E-04
  1.528100700E+04  7.123999962E-04
  3.441539200E+03  2.990479984E-03
  9.670948300E+02  1.164036994E-02
  3.140353400E+02  3.968642979E-02
  1.134423000E+02  1.128546094E-01
  4.464472700E+01  2.473650687E-01
  1.894287400E+01  3.672702681E-01
  8.532743000E+00  2.896286985E-01
  3.919401000E+00  7.786681959E-02
  1.568157000E+00  4.562139976E-03
  6.232900000E-01  2.468879987E-03
  2.408610000E-01  1.106309994E-03
  8.430100000E-02  1.739699991E-04
   s  14
  1.031094600E+05 -4.044999995E-05
  1.528100700E+04 -1.682299998E-04
  3.441539200E+03 -7.084299991E-04
  9.670948300E+02 -2.767999996E-03
  3.140353400E+02 -9.611379987E-03
  1.134423000E+02 -2.833957996E-02
  4.464472700E+01 -6.839343991E-02
  1.894287400E+01 -1.237379298E-01
  8.532743000E+00 -1.512859698E-01
  3.919401000E+00 -9.099909988E-03
  1.568157000E+00  3.716257695E-01
  6.232900000E-01  5.500214393E-01
  2.408610000E-01  2.092318697E-01
  8.430100000E-02  8.074639989E-03
   p   9
  2.453302900E+02  1.024860004E-03
  5.691900500E+01  8.344290032E-03
  1.760456800E+01  4.078927016E-02
  6.274995000E+00  1.351370605E-01
  2.447030000E+00  2.798830811E-01
  9.950600000E-01  3.597966414E-01
  4.039730000E-01  3.055347412E-01
  1.548100000E-01  1.354703905E-01
  5.418400000E-02  2.804449011E-02
 
   2
   s  14
  1.031094600E+05  1.713099991E-04
  1.528100700E+04  7.123999962E-04
  3.441539200E+03  2.990479984E-03
  9.670948300E+02  1.164036994E-02
  3.140353400E+02  3.968642979E-02
  1.134423000E+02  1.128546094E-01
  4.464472700E+01  2.473650687E-01
  1.894287400E+01  3.672702681E-01
  8.532743000E+00  2.896286985E-01
  3.919401000E+00  7.786681959E-02
  1.568157000E+00  4.562139976E-03
  6.232900000E-01  2.468879987E-03
  2.408610000E-01  1.106309994E-03
  8.430100000E-02  1.739699991E-04
   s  14
  1.031094600E+05 -4.044999995E-05
  1.528100700E+04 -1.682299998E-04
  3.441539200E+03 -7.084299991E-04
  9.670948300E+02 -2.767999996E-03
  3.140353400E+02 -9.611379987E-03
  1.134423000E+02 -2.833957996E-02
  4.464472700E+01 -6.839343991E-02
  1.894287400E+01 -1.237379298E-01
  8.532743000E+00 -1.512859698E-01
  3.919401000E+00 -9.099909988E-03
  1.568157000E+00  3.716257695E-01
  6.232900000E-01  5.500214393E-01
  2.408610000E-01  2.092318697E-01
  8.430100000E-02  8.074639989E-03
   p   9
  2.453302900E+02  1.024860004E-03
  5.691900500E+01  8.344290032E-03
  1.760456800E+01  4.078927016E-02
  6.274995000E+00  1.351370605E-01
  2.447030000E+00  2.798830811E-01
  9.950600000E-01  3.597966414E-01
  4.039730000E-01  3.055347412E-01
  1.548100000E-01  1.354703905E-01
  5.418400000E-02  2.804449011E-02
 
[MO]
Sym=     1a  
Ene=   -27.9140
Spin= Alpha
Occup=    2.00000
   1        -0.99998811
   2         0.00487416
   3        -0.00000000
   4        -0.00000000
   5        -0.00012967
   6        -0.00002207
   7         0.00002150
   8        -0.00000000
   9         0.00000000
  10         0.00000330
Sym=     2a  
Ene=   -27.8920
Spin= Alpha
Occup=    2.00000
   1        -0.00002649
   2        -0.00001714
   3         0.00000000
   4         0.00000000
   5        -0.00000098
   6         0.99998815
   7        -0.00487124
   8         0.00000000
   9        -0.00000000
  10         0.00002919
Sym=     3a  
Ene=    -2.6348
Spin= Alpha
Occup=    2.00000
   1         0.00460255
   2         0.96838070
   3        -0.00000000
   4         0.00000000
   5         0.04185148
   6         0.00051143
   7         0.22785552
   8         0.00000000
   9        -0.00000000
  10        -0.00195655
Sym=     4a  
Ene=    -2.6109
Spin= Alpha
Occup=    2.00000
   1        -0.00174780
   2        -0.24727142
   3        -0.00000000
   4         0.00000000
   5        -0.01277949
   6         0.00490490
   7         0.97368166
   8         0.00000000
   9        -0.00000000
  10        -0.02540393
Sym=     5a  
Ene=    -1.7752
Spin= Alpha
Occup=    2.00000
   1         0.00036722
   2         0.04312062
   3         0.00000000
   4         0.00000000
   5        -0.99936108
   6         0.00398381
   7         0.05337890
   8        -0.00000000
   9         0.00000000
  10         0.01407796
Sym=     6a  
Ene=    -1.7423
Spin= Alpha
Occup=    2.00000
   1         0.00000000
   2         0.00000000
   3         0.00752145
   4         0.00008133
   5         0.00000000
   6        -0.00000000
   7         0.00000000
   8        -1.00010340
   9        -0.01081394
  10         0.00000000
Sym=     7a  
Ene=    -1.7423
Spin= Alpha
Occup=    2.00000
   1         0.00000000
   2         0.00000000
   3         0.00008133
   4        -0.00752145
   5         0.00000000
   6        -0.00000000
   7        -0.00000000
   8        -0.01081394
   9         1.00010340
  10         0.00000000
Sym=     8a  
Ene=    -1.4185
Spin= Alpha
Occup=    1.00000
   1         0.00000000
   2         0.00000000
   3        -0.99844590
   4        -0.06073344
   5        -0.00000000
   6         0.00000000
   7         0.00000000
   8         0.01773245
   9         0.00107863
  10         0.00000000
Sym=     9a  
Ene=    -0.0000
Spin= Alpha
Occup=    1.00000
   1        -0.00000000
   2        -0.00000000
   3        -0.06073344
   4         0.99844590
   5         0.00000000
   6        -0.00000000
   7        -0.00000000
   8         0.00107863
   9        -0.01773245
  10        -0.00000000
Sym=    10a  
Ene=    -1.0650
Spin= Alpha
Occup=    0.00000
   1         0.00399720
   2         0.04932138
   3        -0.00000000
   4         0.00000000
   5         0.09017794
   6        -0.00029660
   7         0.01931132
   8         0.00000000
   9        -0.00000000
  10         1.00395325
