[Molden Format]
[N_Atoms]
                     2
[Atoms] (AU)
C1          1      6           0.00000000      0.00000000      0.00000000
LI2         2      3           0.00000000      0.00000000      1.13383567
[Charge] (Mulliken)
 -0.721708325469439     
  0.721708325469423     
[GTO] (AU)
   1
   s  14
  5.055750100E+04  1.128874000E-04
  7.524785600E+03  5.295373000E-04
  1.694327600E+03  2.450038300E-03
  4.728227900E+02  1.005398470E-02
  1.517107500E+02  3.545398060E-02
  5.391874600E+01  1.044071086E-01
  2.065931100E+01  2.412894918E-01
  8.383976000E+00  3.834225483E-01
  3.577015000E+00  3.078514393E-01
  1.547118000E+00  6.872442990E-02
  6.130130000E-01  2.224445000E-04
  2.460680000E-01  1.976748900E-03
  9.908700000E-02  2.057859400E-03
  3.468000000E-02  4.182020000E-04
   s  14
  5.055750100E+04 -2.507420000E-05
  7.524785600E+03 -1.175945000E-04
  1.694327600E+03 -5.456275000E-04
  4.728227900E+02 -2.245077100E-03
  1.517107500E+02 -8.043471800E-03
  5.391874600E+01 -2.442588710E-02
  2.065931100E+01 -6.136791180E-02
  8.383976000E+00 -1.177767835E-01
  3.577015000E+00 -1.550487783E-01
  1.547118000E+00 -1.933316860E-02
  6.130130000E-01  3.996930678E-01
  2.460680000E-01  5.589420949E-01
  9.908700000E-02  1.711195023E-01
  3.468000000E-02  7.456244600E-03
   p   9
  8.333315500E+01  1.344656000E-03
  1.955761100E+01  1.023555500E-02
  6.080365000E+00  4.520067100E-02
  2.179317000E+00  1.410756198E-01
  8.651500000E-01  3.047388085E-01
  3.619440000E-01  3.995281011E-01
  1.547400000E-01  2.719163432E-01
  6.542900000E-02  5.857669330E-02
  2.290000000E-02 -1.263813000E-04
 
   2
   s  14
  9.497934400E+03  9.668999974E-05
  1.416811200E+03  6.087099984E-04
  3.214599400E+02  3.101519992E-03
  9.112416300E+01  1.266904997E-02
  2.999989100E+01  4.248012989E-02
  1.101763100E+01  1.150183297E-01
  4.372801000E+00  2.398650094E-01
  1.831256000E+00  3.584300090E-01
  8.022610000E-01  3.048527792E-01
  3.626480000E-01  8.824261976E-02
  1.139950000E-01 -8.445899977E-04
  5.123700000E-02 -7.943959979E-03
  2.246800000E-02 -3.764419990E-03
  7.860000000E-03 -8.868999976E-05
   s  14
  9.497934400E+03 -1.244999993E-05
  1.416811200E+03 -7.838999954E-05
  3.214599400E+02 -4.007099976E-04
  9.112416300E+01 -1.645249990E-03
  2.999989100E+01 -5.634599967E-03
  1.101763100E+01 -1.590780991E-02
  4.372801000E+00 -3.612581979E-02
  1.831256000E+00 -6.459927962E-02
  8.022610000E-01 -1.008321794E-01
  3.626480000E-01 -9.757613942E-02
  1.139950000E-01  2.301215886E-01
  5.123700000E-02  6.102389764E-01
  2.246800000E-02  2.849406083E-01
  7.860000000E-03  4.026899976E-03
   p   9
  1.311950400E+01  1.524940000E-03
  3.077424200E+00  8.314830000E-03
  1.098800500E+00  1.933203000E-02
  4.357784000E-01  4.934293000E-02
  1.802432000E-01  1.623554000E-01
  7.613330000E-02  3.847505400E-01
  3.254650000E-02  4.336100400E-01
  1.401820000E-02  1.287005900E-01
  4.906400000E-03 -1.018520000E-03
 
[MO]
Sym=     1a  
Ene=   -11.5710
Spin= Alpha
Occup=    1.00000
   1         0.99759870
   2        -0.00242857
   3        -0.00000000
   4        -0.00000000
   5         0.00751737
   6         0.01379342
   7        -0.00202001
   8         0.00000000
   9        -0.00000000
  10        -0.00378199
Sym=     1a  
Ene=   -11.5440
Spin= Beta
Occup=    1.00000
   1         0.99742799
   2        -0.00585564
   3        -0.00000000
   4         0.00000000
   5         0.00703671
   6         0.01465829
   7        -0.00105254
   8         0.00000000
   9        -0.00000000
  10        -0.00393216
Sym=     2a  
Ene=    -3.4240
Spin= Alpha
Occup=    1.00000
   1        -0.16668779
   2        -0.03865542
   3         0.00000000
   4        -0.00000000
   5         0.04177425
   6         1.00549302
   7         0.01050892
   8         0.00000000
   9         0.00000000
  10        -0.03854082
Sym=     2a  
Ene=    -3.4076
Spin= Beta
Occup=    1.00000
   1        -0.16715700
   2        -0.05243318
   3         0.00000000
   4        -0.00000000
   5         0.03676067
   6         1.01443055
   7         0.01304175
   8         0.00000000
   9         0.00000000
  10        -0.03804836
Sym=     3a  
Ene=    -0.6259
Spin= Alpha
Occup=    1.00000
   1        -0.04258279
   2        -0.96458658
   3        -0.00000000
   4        -0.00000000
   5         0.23349935
   6         0.29355589
   7        -0.10150267
   8         0.00000000
   9        -0.00000000
  10         0.00584587
Sym=     3a  
Ene=    -0.5091
Spin= Beta
Occup=    1.00000
   1         0.03245478
   2         0.89236332
   3         0.00000000
   4         0.00000000
   5        -0.25949893
   6        -0.23707906
   7         0.17646258
   8         0.00000000
   9         0.00000000
  10        -0.01819176
Sym=     4a  
Ene=    -0.5583
Spin= Alpha
Occup=    1.00000
   1         0.00000000
   2        -0.00000000
   3        -0.72868132
   4         0.66398536
   5         0.00000000
   6        -0.00000000
   7        -0.00000000
   8        -0.01994771
   9         0.01817666
  10         0.00000000
Sym=     4a  
Ene=    -0.4515
Spin= Beta
Occup=    1.00000
   1        -0.00000000
   2        -0.00000000
   3         0.63268439
   4         0.69433050
   5         0.00000000
   6         0.00000000
   7        -0.00000000
   8         0.07353531
   9         0.08070028
  10        -0.00000000
Sym=     5a  
Ene=    -0.4939
Spin= Alpha
Occup=    1.00000
   1        -0.00000000
   2        -0.00000000
   3         0.64933487
   4         0.71260334
   5         0.00000000
   6         0.00000000
   7         0.00000000
   8         0.04482914
   9         0.04919711
  10        -0.00000000
Sym=     5a  
Ene=    -0.0161
Spin= Beta
Occup=    0.00000
   1        -0.00000000
   2         0.00000000
   3        -0.40106738
   4         0.36545862
   5         0.00000000
   6        -0.00000000
   7        -0.00000000
   8        -0.44770910
   9         0.40795925
  10        -0.00000000
Sym=     6a  
Ene=    -0.0059
Spin= Alpha
Occup=    0.00000
   1         0.02579361
   2        -0.13713976
   3        -0.00000000
   4        -0.00000000
   5         0.05716336
   6         0.03800113
   7         0.70758560
   8         0.00000000
   9        -0.00000000
  10         0.69835954
Sym=     6a  
Ene=    -0.0026
Spin= Beta
Occup=    0.00000
   1         0.02867020
   2        -0.13653188
   3        -0.00000000
   4         0.00000000
   5         0.05429781
   6         0.03853196
   7         0.67714832
   8        -0.00000000
   9         0.00000000
  10         0.72407401
Sym=     7a  
Ene=     0.1339
Spin= Alpha
Occup=    0.00000
   1         0.00000000
   2         0.00000000
   3        -0.46141540
   4         0.42044864
   5        -0.00000000
   6        -0.00000000
   7        -0.00000000
   8         0.86225444
   9        -0.78569920
  10         0.00000000
Sym=     7a  
Ene=     0.1570
Spin= Beta
Occup=    0.00000
   1         0.00000000
   2         0.00000000
   3        -0.46622322
   4        -0.51165005
   5        -0.00000000
   6        -0.00000000
   7        -0.00000000
   8         0.78246162
   9         0.85870140
  10         0.00000000
Sym=     8a  
Ene=     0.1505
Spin= Alpha
Occup=    0.00000
   1         0.00000000
   2         0.00000000
   3        -0.44273904
   4        -0.48587767
   5        -0.00000000
   6        -0.00000000
   7        -0.00000000
   8         0.78462983
   9         0.86108087
  10         0.00000000
Sym=     8a  
Ene=     0.2335
Spin= Beta
Occup=    0.00000
   1         0.00000000
   2         0.00000000
   3        -0.76356112
   4         0.69576837
   5        -0.00000000
   6        -0.00000000
   7        -0.00000000
   8         0.73718193
   9        -0.67173125
  10         0.00000000
Sym=     9a  
Ene=     0.2246
Spin= Alpha
Occup=    0.00000
   1         0.15573371
   2         0.96102785
   3         0.00000000
   4         0.00000000
   5        -0.34051516
   6        -0.25258972
   7        -0.98413327
   8        -0.00000000
   9         0.00000000
  10         0.94885500
Sym=     9a  
Ene=     0.2395
Spin= Beta
Occup=    0.00000
   1         0.15593179
   2         0.99820081
   3         0.00000000
   4        -0.00000000
   5        -0.36254726
   6        -0.25524728
   7        -0.99369131
   8        -0.00000000
   9         0.00000000
  10         0.93110733
Sym=    10a  
Ene=     0.9212
Spin= Alpha
Occup=    0.00000
   1        -0.15016030
   2        -0.78313168
   3        -0.00000000
   4         0.00000000
   5        -1.31967295
   6         1.09873750
   7         0.41063708
   8        -0.00000000
   9        -0.00000000
  10         0.26324481
Sym=    10a  
Ene=     0.9679
Spin= Beta
Occup=    0.00000
   1        -0.15255696
   2        -0.82064782
   3        -0.00000000
   4         0.00000000
   5        -1.30917880
   6         1.10350564
   7         0.41348918
   8        -0.00000000
   9        -0.00000000
  10         0.25656468
