[Molden Format]
[N_Atoms]
                     2
[Atoms] (AU)
B1          1      5           0.00000000      0.00000000      0.00000000
B2          2      5           0.00000000      0.00000000      3.02356180
[Charge] (Mulliken)
 -3.229416734029655E-012
  3.224087663511455E-012
[GTO] (AU)
   1
   s  14
  3.336021700E+04  1.039699991E-04
  4.972095200E+03  5.254399956E-04
  1.125641700E+03  2.509059979E-03
  3.164913600E+02  1.031887991E-02
  1.020072600E+02  3.636632969E-02
  3.629587300E+01  1.064607991E-01
  1.397141000E+01  2.403999880E-01
  5.741156000E+00  3.748581168E-01
  2.494268000E+00  3.100066974E-01
  1.114202000E+00  7.922455933E-02
  4.215490000E-01 -4.947589958E-03
  1.696330000E-01 -7.737119935E-03
  6.853500000E-02 -1.501079987E-03
  2.398700000E-02 -1.333299989E-04
   s  14
  3.336021700E+04 -2.030000008E-05
  4.972095200E+03 -1.025700004E-04
  1.125641700E+03 -4.911300020E-04
  3.164913600E+02 -2.026570008E-03
  1.020072600E+02 -7.261010030E-03
  3.629587300E+01 -2.197722009E-02
  1.397141000E+01 -5.408428022E-02
  5.741156000E+00 -1.022402604E-01
  2.494268000E+00 -1.423595206E-01
  1.114202000E+00 -4.658690019E-02
  4.215490000E-01  3.799402916E-01
  1.696330000E-01  5.890463624E-01
  6.853500000E-02  1.749075107E-01
  2.398700000E-02 -1.142030005E-03
   p   9
  5.500000000E+01  1.229800005E-03
  1.336610100E+01  8.827380035E-03
  4.135394000E+00  3.843340015E-02
  1.481256000E+00  1.150031805E-01
  6.021360000E-01  2.733674011E-01
  2.556360000E-01  4.061972116E-01
  1.111510000E-01  3.014967912E-01
  4.764800000E-02  7.684809030E-02
  1.667700000E-02 -8.170000032E-06
 
   2
   s  14
  3.336021700E+04  1.039699991E-04
  4.972095200E+03  5.254399956E-04
  1.125641700E+03  2.509059979E-03
  3.164913600E+02  1.031887991E-02
  1.020072600E+02  3.636632969E-02
  3.629587300E+01  1.064607991E-01
  1.397141000E+01  2.403999880E-01
  5.741156000E+00  3.748581168E-01
  2.494268000E+00  3.100066974E-01
  1.114202000E+00  7.922455933E-02
  4.215490000E-01 -4.947589958E-03
  1.696330000E-01 -7.737119935E-03
  6.853500000E-02 -1.501079987E-03
  2.398700000E-02 -1.333299989E-04
   s  14
  3.336021700E+04 -2.030000008E-05
  4.972095200E+03 -1.025700004E-04
  1.125641700E+03 -4.911300020E-04
  3.164913600E+02 -2.026570008E-03
  1.020072600E+02 -7.261010030E-03
  3.629587300E+01 -2.197722009E-02
  1.397141000E+01 -5.408428022E-02
  5.741156000E+00 -1.022402604E-01
  2.494268000E+00 -1.423595206E-01
  1.114202000E+00 -4.658690019E-02
  4.215490000E-01  3.799402916E-01
  1.696330000E-01  5.890463624E-01
  6.853500000E-02  1.749075107E-01
  2.398700000E-02 -1.142030005E-03
   p   9
  5.500000000E+01  1.229800005E-03
  1.336610100E+01  8.827380035E-03
  4.135394000E+00  3.843340015E-02
  1.481256000E+00  1.150031805E-01
  6.021360000E-01  2.733674011E-01
  2.556360000E-01  4.061972116E-01
  1.111510000E-01  3.014967912E-01
  4.764800000E-02  7.684809030E-02
  1.667700000E-02 -8.170000032E-06
 
[MO]
Sym=     1a  
Ene=    -7.7130
Spin= Alpha
Occup=    1.00000
   1         0.70683056
   2         0.01012725
   3         0.00000000
   4        -0.00000000
   5         0.00091522
   6         0.70683056
   7         0.01012725
   8        -0.00000000
   9         0.00000000
  10        -0.00091522
Sym=     1a  
Ene=    -7.7130
Spin= Beta
Occup=    1.00000
   1         0.70683056
   2         0.01012725
   3         0.00000000
   4        -0.00000000
   5         0.00091522
   6         0.70683056
   7         0.01012725
   8        -0.00000000
   9         0.00000000
  10        -0.00091522
Sym=     2a  
Ene=    -7.7123
Spin= Alpha
Occup=    1.00000
   1        -0.70734131
   2        -0.01131306
   3         0.00000000
   4        -0.00000000
   5        -0.00149553
   6         0.70734130
   7         0.01131306
   8        -0.00000000
   9         0.00000000
  10        -0.00149553
Sym=     2a  
Ene=    -7.7123
Spin= Beta
Occup=    1.00000
   1        -0.70734131
   2        -0.01131306
   3         0.00000000
   4        -0.00000000
   5        -0.00149553
   6         0.70734130
   7         0.01131306
   8        -0.00000000
   9         0.00000000
  10        -0.00149553
Sym=     3a  
Ene=    -0.7071
Spin= Alpha
Occup=    1.00000
   1        -0.05297231
   2         0.51249577
   3        -0.00000000
   4        -0.00000000
   5         0.17380229
   6        -0.05297231
   7         0.51249577
   8         0.00000000
   9        -0.00000000
  10        -0.17380229
Sym=     3a  
Ene=    -0.7071
Spin= Beta
Occup=    1.00000
   1        -0.05297231
   2         0.51249577
   3        -0.00000000
   4        -0.00000000
   5         0.17380229
   6        -0.05297231
   7         0.51249577
   8         0.00000000
   9        -0.00000000
  10        -0.17380229
Sym=     4a  
Ene=    -0.3622
Spin= Alpha
Occup=    1.00000
   1        -0.00461416
   2        -0.71939752
   3         0.00000000
   4        -0.00000000
   5         0.24458510
   6         0.00461416
   7         0.71939752
   8         0.00000000
   9        -0.00000000
  10         0.24458510
Sym=     4a  
Ene=    -0.3622
Spin= Beta
Occup=    1.00000
   1        -0.00461416
   2        -0.71939752
   3         0.00000000
   4        -0.00000000
   5         0.24458510
   6         0.00461416
   7         0.71939752
   8         0.00000000
   9        -0.00000000
  10         0.24458510
Sym=     5a  
Ene=    -0.3105
Spin= Alpha
Occup=    1.00000
   1         0.00000000
   2         0.00000000
   3         0.26134212
   4         0.55087690
   5        -0.00000000
   6         0.00000000
   7         0.00000000
   8         0.26134212
   9         0.55087690
  10         0.00000000
Sym=     5a  
Ene=    -0.3105
Spin= Beta
Occup=    1.00000
   1         0.00000000
   2         0.00000000
   3         0.26134212
   4         0.55087690
   5        -0.00000000
   6         0.00000000
   7         0.00000000
   8         0.26134212
   9         0.55087690
  10         0.00000000
Sym=     6a  
Ene=    -0.0120
Spin= Alpha
Occup=    0.00000
   1        -0.00000000
   2        -0.00000000
   3         0.55087690
   4        -0.26134212
   5         0.00000000
   6        -0.00000000
   7        -0.00000000
   8         0.55087690
   9        -0.26134212
  10        -0.00000000
Sym=     6a  
Ene=    -0.0120
Spin= Beta
Occup=    0.00000
   1        -0.00000000
   2        -0.00000000
   3         0.55087690
   4        -0.26134212
   5         0.00000000
   6        -0.00000000
   7        -0.00000000
   8         0.55087690
   9        -0.26134212
  10        -0.00000000
Sym=     7a  
Ene=    -0.0100
Spin= Alpha
Occup=    0.00000
   1        -0.04114775
   2        -0.36506949
   3        -0.00000000
   4         0.00000000
   5         0.65749879
   6        -0.04114775
   7        -0.36506949
   8        -0.00000000
   9         0.00000000
  10        -0.65749879
Sym=     7a  
Ene=    -0.0100
Spin= Beta
Occup=    0.00000
   1        -0.04114775
   2        -0.36506949
   3        -0.00000000
   4         0.00000000
   5         0.65749879
   6        -0.04114775
   7        -0.36506949
   8        -0.00000000
   9         0.00000000
  10        -0.65749879
Sym=     8a  
Ene=     0.1693
Spin= Alpha
Occup=    0.00000
   1         0.00000000
   2         0.00000000
   3        -0.37447090
   4        -0.78933838
   5        -0.00000000
   6        -0.00000000
   7        -0.00000000
   8         0.37447090
   9         0.78933838
  10         0.00000000
Sym=     8a  
Ene=     0.1693
Spin= Beta
Occup=    0.00000
   1         0.00000000
   2         0.00000000
   3        -0.37447090
   4        -0.78933838
   5        -0.00000000
   6        -0.00000000
   7        -0.00000000
   8         0.37447090
   9         0.78933838
  10         0.00000000
Sym=     9a  
Ene=     0.2165
Spin= Alpha
Occup=    0.00000
   1         0.00000000
   2         0.00000000
   3        -0.78933838
   4         0.37447090
   5         0.00000000
   6        -0.00000000
   7        -0.00000000
   8         0.78933838
   9        -0.37447090
  10         0.00000000
Sym=     9a  
Ene=     0.2165
Spin= Beta
Occup=    0.00000
   1         0.00000000
   2         0.00000000
   3        -0.78933838
   4         0.37447090
   5         0.00000000
   6        -0.00000000
   7        -0.00000000
   8         0.78933838
   9        -0.37447090
  10         0.00000000
Sym=    10a  
Ene=     0.6244
Spin= Alpha
Occup=    0.00000
   1         0.16732502
   2         1.22968367
   3         0.00000000
   4         0.00000000
   5         1.20073090
   6        -0.16732502
   7        -1.22968367
   8        -0.00000000
   9        -0.00000000
  10         1.20073090
Sym=    10a  
Ene=     0.6244
Spin= Beta
Occup=    0.00000
   1         0.16732502
   2         1.22968367
   3         0.00000000
   4         0.00000000
   5         1.20073090
   6        -0.16732502
   7        -1.22968367
   8        -0.00000000
   9        -0.00000000
  10         1.20073090
