[Molden Format]
[N_Atoms]
                     2
[Atoms] (AU)
B1          1      5           0.00000000      0.00000000      0.00000000
B2          2      5           0.00000000      0.00000000      3.02356180
[Charge] (Mulliken)
   1.00000000000093     
  0.999999999999063     
[GTO] (AU)
   1
   s  14
  3.336021700E+04  1.039699991E-04
  4.972095200E+03  5.254399956E-04
  1.125641700E+03  2.509059979E-03
  3.164913600E+02  1.031887991E-02
  1.020072600E+02  3.636632969E-02
  3.629587300E+01  1.064607991E-01
  1.397141000E+01  2.403999880E-01
  5.741156000E+00  3.748581168E-01
  2.494268000E+00  3.100066974E-01
  1.114202000E+00  7.922455933E-02
  4.215490000E-01 -4.947589958E-03
  1.696330000E-01 -7.737119935E-03
  6.853500000E-02 -1.501079987E-03
  2.398700000E-02 -1.333299989E-04
   s  14
  3.336021700E+04 -2.030000008E-05
  4.972095200E+03 -1.025700004E-04
  1.125641700E+03 -4.911300020E-04
  3.164913600E+02 -2.026570008E-03
  1.020072600E+02 -7.261010030E-03
  3.629587300E+01 -2.197722009E-02
  1.397141000E+01 -5.408428022E-02
  5.741156000E+00 -1.022402604E-01
  2.494268000E+00 -1.423595206E-01
  1.114202000E+00 -4.658690019E-02
  4.215490000E-01  3.799402916E-01
  1.696330000E-01  5.890463624E-01
  6.853500000E-02  1.749075107E-01
  2.398700000E-02 -1.142030005E-03
   p   9
  5.500000000E+01  1.229800005E-03
  1.336610100E+01  8.827380035E-03
  4.135394000E+00  3.843340015E-02
  1.481256000E+00  1.150031805E-01
  6.021360000E-01  2.733674011E-01
  2.556360000E-01  4.061972116E-01
  1.111510000E-01  3.014967912E-01
  4.764800000E-02  7.684809030E-02
  1.667700000E-02 -8.170000032E-06
 
   2
   s  14
  3.336021700E+04  1.039699991E-04
  4.972095200E+03  5.254399956E-04
  1.125641700E+03  2.509059979E-03
  3.164913600E+02  1.031887991E-02
  1.020072600E+02  3.636632969E-02
  3.629587300E+01  1.064607991E-01
  1.397141000E+01  2.403999880E-01
  5.741156000E+00  3.748581168E-01
  2.494268000E+00  3.100066974E-01
  1.114202000E+00  7.922455933E-02
  4.215490000E-01 -4.947589958E-03
  1.696330000E-01 -7.737119935E-03
  6.853500000E-02 -1.501079987E-03
  2.398700000E-02 -1.333299989E-04
   s  14
  3.336021700E+04 -2.030000008E-05
  4.972095200E+03 -1.025700004E-04
  1.125641700E+03 -4.911300020E-04
  3.164913600E+02 -2.026570008E-03
  1.020072600E+02 -7.261010030E-03
  3.629587300E+01 -2.197722009E-02
  1.397141000E+01 -5.408428022E-02
  5.741156000E+00 -1.022402604E-01
  2.494268000E+00 -1.423595206E-01
  1.114202000E+00 -4.658690019E-02
  4.215490000E-01  3.799402916E-01
  1.696330000E-01  5.890463624E-01
  6.853500000E-02  1.749075107E-01
  2.398700000E-02 -1.142030005E-03
   p   9
  5.500000000E+01  1.229800005E-03
  1.336610100E+01  8.827380035E-03
  4.135394000E+00  3.843340015E-02
  1.481256000E+00  1.150031805E-01
  6.021360000E-01  2.733674011E-01
  2.556360000E-01  4.061972116E-01
  1.111510000E-01  3.014967912E-01
  4.764800000E-02  7.684809030E-02
  1.667700000E-02 -8.170000032E-06
 
[MO]
Sym=     1a  
Ene=    -8.5892
Spin= Alpha
Occup=    2.00000
   1         0.70696317
   2         0.00983580
   3         0.00000000
   4        -0.00000000
   5        -0.00021281
   6         0.70696317
   7         0.00983580
   8        -0.00000000
   9        -0.00000000
  10         0.00021281
Sym=     2a  
Ene=    -8.5884
Spin= Alpha
Occup=    2.00000
   1        -0.70688848
   2        -0.00800220
   3         0.00000000
   4        -0.00000000
   5         0.00173490
   6         0.70688847
   7         0.00800220
   8        -0.00000000
   9         0.00000000
  10         0.00173490
Sym=     3a  
Ene=    -1.3476
Spin= Alpha
Occup=    2.00000
   1        -0.05698178
   2         0.45694462
   3         0.00000000
   4         0.00000000
   5         0.26328788
   6        -0.05698178
   7         0.45694462
   8        -0.00000000
   9         0.00000000
  10        -0.26328788
Sym=     4a  
Ene=    -0.7865
Spin= Alpha
Occup=    1.00000
   1         0.00000000
   2        -0.00000000
   3        -0.48196285
   4         0.37346603
   5         0.00000000
   6        -0.00000000
   7         0.00000000
   8        -0.48196285
   9         0.37346603
  10         0.00000000
Sym=     5a  
Ene=     0.0000
Spin= Alpha
Occup=    1.00000
   1         0.00000000
   2         0.00000000
   3         0.37346603
   4         0.48196285
   5        -0.00000000
   6         0.00000000
   7        -0.00000000
   8         0.37346603
   9         0.48196285
  10         0.00000000
Sym=     6a  
Ene=    -0.7151
Spin= Alpha
Occup=    0.00000
   1        -0.00235337
   2        -0.70289483
   3         0.00000000
   4        -0.00000000
   5         0.26061429
   6         0.00235337
   7         0.70289483
   8         0.00000000
   9        -0.00000000
  10         0.26061429
Sym=     7a  
Ene=    -0.6180
Spin= Alpha
Occup=    0.00000
   1         0.03263110
   2         0.43259112
   3         0.00000000
   4         0.00000000
   5        -0.62705038
   6         0.03263110
   7         0.43259112
   8        -0.00000000
   9        -0.00000000
  10         0.62705038
Sym=     8a  
Ene=    -0.4606
Spin= Alpha
Occup=    0.00000
   1         0.00000000
   2         0.00000000
   3        -0.69474557
   4        -0.52972835
   5        -0.00000000
   6         0.00000000
   7         0.00000000
   8         0.69474557
   9         0.52972835
  10         0.00000000
Sym=     9a  
Ene=    -0.4606
Spin= Alpha
Occup=    0.00000
   1        -0.00000000
   2        -0.00000000
   3         0.52972835
   4        -0.69474557
   5        -0.00000000
   6         0.00000000
   7         0.00000000
   8        -0.52972835
   9         0.69474557
  10        -0.00000000
Sym=    10a  
Ene=    -0.0712
Spin= Alpha
Occup=    0.00000
   1        -0.16927439
   2        -1.23921649
   3        -0.00000000
   4         0.00000000
   5        -1.19735375
   6         0.16927439
   7         1.23921649
   8        -0.00000000
   9        -0.00000000
  10        -1.19735375
