[Molden Format]
[N_Atoms]
                     2
[Atoms] (AU)
B1          1      5           0.00000000      0.00000000      0.00000000
B2          2      5           0.00000000      0.00000000      3.02356180
[Charge] (Mulliken)
  0.000000000000000E+000
  0.000000000000000E+000
[GTO] (AU)
   1
   s  14
  3.336021700E+04  1.039699991E-04
  4.972095200E+03  5.254399956E-04
  1.125641700E+03  2.509059979E-03
  3.164913600E+02  1.031887991E-02
  1.020072600E+02  3.636632969E-02
  3.629587300E+01  1.064607991E-01
  1.397141000E+01  2.403999880E-01
  5.741156000E+00  3.748581168E-01
  2.494268000E+00  3.100066974E-01
  1.114202000E+00  7.922455933E-02
  4.215490000E-01 -4.947589958E-03
  1.696330000E-01 -7.737119935E-03
  6.853500000E-02 -1.501079987E-03
  2.398700000E-02 -1.333299989E-04
   s  14
  3.336021700E+04 -2.030000008E-05
  4.972095200E+03 -1.025700004E-04
  1.125641700E+03 -4.911300020E-04
  3.164913600E+02 -2.026570008E-03
  1.020072600E+02 -7.261010030E-03
  3.629587300E+01 -2.197722009E-02
  1.397141000E+01 -5.408428022E-02
  5.741156000E+00 -1.022402604E-01
  2.494268000E+00 -1.423595206E-01
  1.114202000E+00 -4.658690019E-02
  4.215490000E-01  3.799402916E-01
  1.696330000E-01  5.890463624E-01
  6.853500000E-02  1.749075107E-01
  2.398700000E-02 -1.142030005E-03
   p   9
  5.500000000E+01  1.229800005E-03
  1.336610100E+01  8.827380035E-03
  4.135394000E+00  3.843340015E-02
  1.481256000E+00  1.150031805E-01
  6.021360000E-01  2.733674011E-01
  2.556360000E-01  4.061972116E-01
  1.111510000E-01  3.014967912E-01
  4.764800000E-02  7.684809030E-02
  1.667700000E-02 -8.170000032E-06
 
   2
   s  14
  3.336021700E+04  1.039699991E-04
  4.972095200E+03  5.254399956E-04
  1.125641700E+03  2.509059979E-03
  3.164913600E+02  1.031887991E-02
  1.020072600E+02  3.636632969E-02
  3.629587300E+01  1.064607991E-01
  1.397141000E+01  2.403999880E-01
  5.741156000E+00  3.748581168E-01
  2.494268000E+00  3.100066974E-01
  1.114202000E+00  7.922455933E-02
  4.215490000E-01 -4.947589958E-03
  1.696330000E-01 -7.737119935E-03
  6.853500000E-02 -1.501079987E-03
  2.398700000E-02 -1.333299989E-04
   s  14
  3.336021700E+04 -2.030000008E-05
  4.972095200E+03 -1.025700004E-04
  1.125641700E+03 -4.911300020E-04
  3.164913600E+02 -2.026570008E-03
  1.020072600E+02 -7.261010030E-03
  3.629587300E+01 -2.197722009E-02
  1.397141000E+01 -5.408428022E-02
  5.741156000E+00 -1.022402604E-01
  2.494268000E+00 -1.423595206E-01
  1.114202000E+00 -4.658690019E-02
  4.215490000E-01  3.799402916E-01
  1.696330000E-01  5.890463624E-01
  6.853500000E-02  1.749075107E-01
  2.398700000E-02 -1.142030005E-03
   p   9
  5.500000000E+01  1.229800005E-03
  1.336610100E+01  8.827380035E-03
  4.135394000E+00  3.843340015E-02
  1.481256000E+00  1.150031805E-01
  6.021360000E-01  2.733674011E-01
  2.556360000E-01  4.061972116E-01
  1.111510000E-01  3.014967912E-01
  4.764800000E-02  7.684809030E-02
  1.667700000E-02 -8.170000032E-06
 
[MO]
Sym=     1a  
Ene=    -7.7089
Spin= Alpha
Occup=    2.00000
   1        -0.70635074
   2         0.00216097
   3        -0.00000000
   4        -0.00000000
   5         0.00267566
   6         0.70635074
   7        -0.00216097
   8         0.00000000
   9         0.00000000
  10         0.00267566
Sym=     2a  
Ene=    -7.6916
Spin= Alpha
Occup=    2.00000
   1         0.70711170
   2         0.00249044
   3         0.00000000
   4        -0.00000000
   5         0.00283440
   6         0.70711170
   7         0.00249044
   8        -0.00000000
   9         0.00000000
  10        -0.00283440
Sym=     3a  
Ene=    -0.7954
Spin= Alpha
Occup=    2.00000
   1        -0.04580596
   2         0.50879330
   3        -0.00000000
   4        -0.00000000
   5         0.18055490
   6        -0.04580596
   7         0.50879330
   8        -0.00000000
   9        -0.00000000
  10        -0.18055490
Sym=     4a  
Ene=    -0.4423
Spin= Alpha
Occup=    2.00000
   1         0.01060105
   2        -0.55672028
   3        -0.00000000
   4        -0.00000000
   5         0.39574136
   6        -0.01060105
   7         0.55672028
   8        -0.00000000
   9        -0.00000000
  10         0.39574136
Sym=     5a  
Ene=    -0.4181
Spin= Alpha
Occup=    1.00000
   1        -0.00000000
   2        -0.00000000
   3         0.26134212
   4         0.55087690
   5        -0.00000000
   6         0.00000000
   7         0.00000000
   8         0.26134212
   9         0.55087690
  10         0.00000000
Sym=     6a  
Ene=    -0.4181
Spin= Alpha
Occup=    1.00000
   1         0.00000000
   2        -0.00000000
   3         0.55087690
   4        -0.26134212
   5         0.00000000
   6        -0.00000000
   7         0.00000000
   8         0.55087690
   9        -0.26134212
  10         0.00000000
Sym=     7a  
Ene=    -0.3011
Spin= Alpha
Occup=    0.00000
   1         0.04476048
   2         0.37034225
   3         0.00000000
   4        -0.00000000
   5        -0.65567113
   6         0.04476048
   7         0.37034225
   8        -0.00000000
   9         0.00000000
  10         0.65567113
Sym=     8a  
Ene=    -0.2037
Spin= Alpha
Occup=    0.00000
   1         0.00000000
   2         0.00000000
   3        -0.83325277
   4        -0.26262779
   5         0.00000000
   6        -0.00000000
   7        -0.00000000
   8         0.83325277
   9         0.26262779
  10         0.00000000
Sym=     9a  
Ene=    -0.2037
Spin= Alpha
Occup=    0.00000
   1        -0.00000000
   2        -0.00000000
   3         0.26262779
   4        -0.83325277
   5         0.00000000
   6        -0.00000000
   7        -0.00000000
   8        -0.26262779
   9         0.83325277
  10        -0.00000000
Sym=    10a  
Ene=    -0.0640
Spin= Alpha
Occup=    0.00000
   1         0.17119266
   2         1.31142692
   3         0.00000000
   4         0.00000000
   5         1.15972429
   6        -0.17119266
   7        -1.31142692
   8         0.00000000
   9         0.00000000
  10         1.15972429
