[Molden Format]
[N_Atoms]
                     2
[Atoms] (AU)
C1          1      6           0.00000000      0.00000000      0.00000000
F2          2      9           0.00000000      0.00000000      5.29123315
[Charge] (Mulliken)
  1.347528186899449E-002
 -1.347528186904867E-002
[GTO] (AU)
   1
   s  14
  5.055750100E+04  1.128874000E-04
  7.524785600E+03  5.295373000E-04
  1.694327600E+03  2.450038300E-03
  4.728227900E+02  1.005398470E-02
  1.517107500E+02  3.545398060E-02
  5.391874600E+01  1.044071086E-01
  2.065931100E+01  2.412894918E-01
  8.383976000E+00  3.834225483E-01
  3.577015000E+00  3.078514393E-01
  1.547118000E+00  6.872442990E-02
  6.130130000E-01  2.224445000E-04
  2.460680000E-01  1.976748900E-03
  9.908700000E-02  2.057859400E-03
  3.468000000E-02  4.182020000E-04
   s  14
  5.055750100E+04 -2.507420000E-05
  7.524785600E+03 -1.175945000E-04
  1.694327600E+03 -5.456275000E-04
  4.728227900E+02 -2.245077100E-03
  1.517107500E+02 -8.043471800E-03
  5.391874600E+01 -2.442588710E-02
  2.065931100E+01 -6.136791180E-02
  8.383976000E+00 -1.177767835E-01
  3.577015000E+00 -1.550487783E-01
  1.547118000E+00 -1.933316860E-02
  6.130130000E-01  3.996930678E-01
  2.460680000E-01  5.589420949E-01
  9.908700000E-02  1.711195023E-01
  3.468000000E-02  7.456244600E-03
   p   9
  8.333315500E+01  1.344656000E-03
  1.955761100E+01  1.023555500E-02
  6.080365000E+00  4.520067100E-02
  2.179317000E+00  1.410756198E-01
  8.651500000E-01  3.047388085E-01
  3.619440000E-01  3.995281011E-01
  1.547400000E-01  2.719163432E-01
  6.542900000E-02  5.857669330E-02
  2.290000000E-02 -1.263813000E-04
 
   2
   s  14
  1.031094600E+05  1.713099991E-04
  1.528100700E+04  7.123999962E-04
  3.441539200E+03  2.990479984E-03
  9.670948300E+02  1.164036994E-02
  3.140353400E+02  3.968642979E-02
  1.134423000E+02  1.128546094E-01
  4.464472700E+01  2.473650687E-01
  1.894287400E+01  3.672702681E-01
  8.532743000E+00  2.896286985E-01
  3.919401000E+00  7.786681959E-02
  1.568157000E+00  4.562139976E-03
  6.232900000E-01  2.468879987E-03
  2.408610000E-01  1.106309994E-03
  8.430100000E-02  1.739699991E-04
   s  14
  1.031094600E+05 -4.044999995E-05
  1.528100700E+04 -1.682299998E-04
  3.441539200E+03 -7.084299991E-04
  9.670948300E+02 -2.767999996E-03
  3.140353400E+02 -9.611379987E-03
  1.134423000E+02 -2.833957996E-02
  4.464472700E+01 -6.839343991E-02
  1.894287400E+01 -1.237379298E-01
  8.532743000E+00 -1.512859698E-01
  3.919401000E+00 -9.099909988E-03
  1.568157000E+00  3.716257695E-01
  6.232900000E-01  5.500214393E-01
  2.408610000E-01  2.092318697E-01
  8.430100000E-02  8.074639989E-03
   p   9
  2.453302900E+02  1.024860004E-03
  5.691900500E+01  8.344290032E-03
  1.760456800E+01  4.078927016E-02
  6.274995000E+00  1.351370605E-01
  2.447030000E+00  2.798830811E-01
  9.950600000E-01  3.597966414E-01
  4.039730000E-01  3.055347412E-01
  1.548100000E-01  1.354703905E-01
  5.418400000E-02  2.804449011E-02
 
[MO]
Sym=     1a  
Ene=   -26.4080
Spin= Alpha
Occup=    1.00000
   1        -0.00000174
   2        -0.00002297
   3         0.00000000
   4        -0.00000000
   5        -0.00002446
   6         0.99999133
   7        -0.00418706
   8         0.00000000
   9        -0.00000000
  10        -0.00001016
Sym=     1a  
Ene=   -26.4490
Spin= Beta
Occup=    1.00000
   1        -0.00000256
   2        -0.00004372
   3         0.00000000
   4        -0.00000000
   5        -0.00006220
   6         0.99999715
   7        -0.00248301
   8         0.00000000
   9        -0.00000000
  10        -0.00001747
Sym=     2a  
Ene=   -11.2690
Spin= Alpha
Occup=    1.00000
   1         1.00000067
   2         0.00004428
   3        -0.00000000
   4        -0.00000000
   5         0.00003057
   6        -0.00001644
   7        -0.00019099
   8        -0.00000000
   9        -0.00000000
  10         0.00019488
Sym=     2a  
Ene=   -11.2220
Spin= Beta
Occup=    1.00000
   1         0.99998820
   2        -0.00492572
   3        -0.00000000
   4         0.00000000
   5         0.00003207
   6        -0.00001080
   7        -0.00011815
   8         0.00000000
   9        -0.00000000
  10         0.00010229
Sym=     3a  
Ene=    -1.5025
Spin= Alpha
Occup=    1.00000
   1        -0.00020442
   2         0.00493789
   3        -0.00000000
   4         0.00000000
   5         0.00452076
   6         0.00416885
   7         0.99967370
   8         0.00000000
   9         0.00000000
  10         0.00205320
Sym=     3a  
Ene=    -1.6768
Spin= Beta
Occup=    1.00000
   1        -0.00018900
   2         0.00034432
   3        -0.00000000
   4         0.00000000
   5        -0.00039248
   6         0.00248745
   7         1.00000687
   8         0.00000000
   9         0.00000000
  10        -0.00110296
Sym=     4a  
Ene=    -0.8000
Spin= Alpha
Occup=    1.00000
   1        -0.00007532
   2         0.99921430
   3         0.00000000
   4         0.00000000
   5         0.00004068
   6        -0.00109802
   7        -0.02407710
   8         0.00000000
   9        -0.00000000
  10        -0.01641306
Sym=     4a  
Ene=    -0.8285
Spin= Beta
Occup=    1.00000
   1         0.00276110
   2        -0.02082942
   3         0.00000000
   4        -0.00000000
   5         0.00262535
   6         0.00002739
   7         0.00138575
   8         0.00000000
   9        -0.00000000
  10         0.99892003
Sym=     5a  
Ene=    -0.6942
Spin= Alpha
Occup=    1.00000
   1        -0.00000000
   2        -0.00000000
   3         0.00097998
   4        -0.00020053
   5         0.00000000
   6        -0.00000000
   7         0.00000000
   8         0.97968001
   9        -0.20046788
  10        -0.00000000
Sym=     5a  
Ene=    -0.7385
Spin= Beta
Occup=    1.00000
   1        -0.00000000
   2         0.00000000
   3        -0.00072841
   4         0.00014905
   5        -0.00000000
   6        -0.00000000
   7        -0.00000000
   8         0.97971329
   9        -0.20047469
  10        -0.00000000
Sym=     6a  
Ene=    -0.6941
Spin= Alpha
Occup=    1.00000
   1        -0.00000000
   2        -0.00000000
   3        -0.00176162
   4        -0.00860897
   5        -0.00000000
   6         0.00000000
   7         0.00000000
   8        -0.20043003
   9        -0.97949505
  10        -0.00000000
Sym=     6a  
Ene=    -0.7382
Spin= Beta
Occup=    1.00000
   1         0.00000000
   2        -0.00000000
   3        -0.00021077
   4        -0.00103003
   5         0.00000000
   6        -0.00000000
   7        -0.00000000
   8         0.20047582
   9         0.97971885
  10         0.00000000
Sym=     7a  
Ene=    -0.4147
Spin= Alpha
Occup=    1.00000
   1        -0.00000000
   2        -0.00000000
   3         0.20050166
   4         0.97984513
   5         0.00000000
   6        -0.00000000
   7        -0.00000000
   8        -0.00564127
   9        -0.02756870
  10        -0.00000000
Sym=     7a  
Ene=    -0.5620
Spin= Beta
Occup=    1.00000
   1         0.00514818
   2         1.00123709
   3         0.00000000
   4         0.00000000
   5         0.00544534
   6        -0.00107664
   7        -0.01987497
   8        -0.00000000
   9         0.00000000
  10         0.07157868
Sym=     8a  
Ene=    -0.4142
Spin= Alpha
Occup=    1.00000
   1        -0.00024340
   2        -0.00576759
   3        -0.00000000
   4        -0.00000000
   5         0.99199441
   6        -0.00315724
   7        -0.04774130
   8         0.00000000
   9         0.00000000
  10        -0.08108445
Sym=     8a  
Ene=     0.1623
Spin= Beta
Occup=    0.00000
   1         0.00000000
   2        -0.00000000
   3         0.97988268
   4        -0.20050935
   5         0.00000000
   6        -0.00000000
   7        -0.00000000
   8        -0.01823380
   9         0.00373111
  10         0.00000000
Sym=     9a  
Ene=     0.0814
Spin= Alpha
Occup=    0.00000
   1         0.00302464
   2         0.06669354
   3        -0.00000000
   4         0.00000000
   5         0.15118002
   6        -0.00055439
   7        -0.01041347
   8         0.00000000
   9        -0.00000000
  10         1.00034091
Sym=     9a  
Ene=     0.2245
Spin= Beta
Occup=    0.00000
   1         0.00000000
   2        -0.00000000
   3         0.20050929
   4         0.97988241
   5         0.00000000
   6        -0.00000000
   7        -0.00000000
   8        -0.00366940
   9        -0.01793223
  10         0.00000000
Sym=    10a  
Ene=     0.1008
Spin= Alpha
Occup=    0.00000
   1         0.00000000
   2         0.00000000
   3         0.97988246
   4        -0.20050930
   5         0.00000000
   6        -0.00000000
   7        -0.00000000
   8        -0.01994186
   9         0.00408062
  10         0.00000000
Sym=    10a  
Ene=     0.2258
Spin= Beta
Occup=    0.00000
   1        -0.00017742
   2         0.00096948
   3         0.00000000
   4         0.00000000
   5        -1.00344011
   6         0.00314166
   7         0.04376753
   8        -0.00000000
   9        -0.00000000
  10        -0.06755971
