   This run of MOLCAS is using the pymolcas driver

                             OPE
                             OPE          NMOL  CASOP  ENMOLC A   SO
                 OPE        NMOLC        AS  OP EN  MO LC     AS  OP
                OPENM       OL CA        SO  PE NM  OL CA     SOP EN
                OP EN      MO   LC       AS  OP ENMOL  CASO   PENMOL
                OP  EN     MO   LC       AS  OP EN     MO     LC ASO
               OP   E  NMOL  C  AS       OP  EN MO     LC     AS  OP
               OP  E   NMO   LC AS        OPEN  MO     LCASOP EN   M
               O  PEN   MO  LCA  SO
            OPE   NMO   L   CAS    OP
        OPENMOL  CASOP     ENMOL   CASOPE
     OPENMOLCA   SOPENMOLCASOPEN   MOLCASOPE
    OPENMOLCAS   OP           EN   MOL    CAS
    OPENMOLCAS       OP  ENM        O     LCA
    OPENMOLCAS    OPEN  MOLCASO     P  E  NMO
    OPENMOLCAS     OP               E  N  MOL
    OPENMOLCA   SO           PENM   O  L  CAS    OPEN    MO    LCAS
    OPENMOLCA   SOP           ENM   O  L  CAS   OP  EN  MOLC  AS   O
    OPENMOLCA   SOPE           NM      O  LCA   S      OP  EN MO
    OPENMOLC                AS         O  PEN   M      OL  CA  SOPE
    OPENMO        LCASOPE  NMOL        C  ASO   P      ENMOLC     AS
    OPE     NMO      LCA  SO     P     E   NM   OL  CA SO  PE N   MO
          OPENMOLCA            SOPE   NMO        LCAS  O    P  ENMO
     OPENMOLCASOPENMOLCASOPENMOLCASOPENMOLCA
        OPENMOLCASOPENMOLCASOPENMOLCASOPE
            OPENMOLCASOPENMOLCASOPENM
               OPENMOLCASOPENMOLCA        version: ea724fe96-dirty
                   OPENMOLCASO
                       OPE                tag:

 OpenMolcas is free software; you can redistribute it and/or modify it
 under the terms of the GNU Lesser General Public License version 2.1.
 OpenMolcas is distributed in the hope that it will be useful, but it
 is provided "as is" and without any express or implied warranties.
 For more details see the full text of the license in the file
 LICENSE or in <http://www.gnu.org/licenses/>.

                 Copyright (C) The OpenMolcas Authors
           For the author list and the recommended citation,
                   consult the file CONTRIBUTORS.md

           *************************************************
           * pymolcas version py2.28                       *
           *   build c4a6d18ded8cb6cad61d2372a9abd97c      *
           *   (after the EMIL interpreter by V. Veryazov) *
           *************************************************

configuration info
------------------
C Compiler ID: Intel
C flags: -std=gnu99
Fortran Compiler ID: Intel
Fortran flags: -fpp -i8 -r8 -heap-arrays
Definitions: _MOLCAS_;_I8_;_LINUX_
Parallel: OFF (GA=OFF)


   --------------------------------------------------------------------------------
  |
  |              Project: ozone_171.25
  |       Submitted from: /home/grierjones/DDCASPT2/ozone/ANO-RCC-VTZP/ozone_171.25
  |         Scratch area: /tmp/ozone_171.25
  |      Save outputs to: /home/grierjones/DDCASPT2/ozone/ANO-RCC-VTZP/ozone_171.25
  |               Molcas: /home/grierjones/Test/build
  |
  | Scratch area is empty
  |
  |       MOLCAS_DRIVER = /usr/local/pymolcas
  | MOLCAS_KEEP_WORKDIR = NO
  |  MOLCAS_NEW_WORKDIR = YES
  |       MOLCAS_NPROCS = 1
  |        MOLCAS_PRINT = NORMAL
  |       MOLCAS_SOURCE = /home/grierjones/Test/build
  |    MOLCAS_STRUCTURE = 0
  |
   --------------------------------------------------------------------------------

++ ---------   Input file   ---------

&GATEWAY
coord=ozone_171.25.xyz
Basis = ANO-RCC-VTZP
Group = nosymm
Expert
End of Input

&SEWARD
End of Input

&SCF

>>> COPY $WorkDir/ozone_171.25.scf.h5 $CurrDir/

&RASSCF
Title= RASSCF
FileOrb
/home/grierjones/DDCASPT2/ozone/ANO-RCC-VTZP/ozone_171.00/ozone_171.00.RasOrb
NACTEL
4 0 0
Inactive
10
RAS2
3
Symmetry
1
Spin
1
orblisting
all
ITERation
300 200

>>> COPY $WorkDir/ozone_171.25.rasscf.h5 $CurrDir/

>>> COPY $WorkDir/GMJ_Fock_MO.csv $CurrDir/ozone_171.25.GMJ_Fock_MO.csv

>>> COPY $WorkDir/GMJ_PT2_Fock_MO.csv $CurrDir/ozone_171.25.GMJ_PT2_Fock_MO.csv

&MOTRA
Frozen=0
LUMORB

>>> COPY $WorkDir/GMJ_one_int_indx.csv $CurrDir/ozone_171.25.GMJ_one_int_indx.csv

>>> COPY $WorkDir/GMJ_one_int.csv $CurrDir/ozone_171.25.GMJ_one_int.csv

>>> COPY $WorkDir/GMJ_two_int_indx.csv $CurrDir/ozone_171.25.GMJ_two_int_indx.csv

>>> COPY $WorkDir/GMJ_two_int.csv $CurrDir/ozone_171.25.GMJ_two_int.csv

&CASPT2
Frozen
0
MAXITER
50

>>> FOREACH i IN (B,E,F,G,H)

  >>> FOREACH j IN (P,M)

    >>> IF (-FILE GMJ_e2_${i}_${j}.csv)

      >>> COPY $WorkDir/GMJ_RHS_${i}_${j}.csv $CurrDir/GMJ_RHS_${i}_${j}.csv

      >>> COPY $WorkDir/GMJ_IVECW_${i}_${j}.csv $CurrDir/GMJ_IVECW_${i}_${j}.csv

      >>> COPY $WorkDir/GMJ_IVECX_${i}_${j}.csv $CurrDir/GMJ_IVECX_${i}_${j}.csv

      >>> COPY $WorkDir/GMJ_IVECC2_${i}_${j}.csv $CurrDir/GMJ_IVECC2_${i}_${j}.csv

      >>> COPY $WorkDir/GMJ_e2_${i}_${j}.csv $CurrDir/GMJ_e2_${i}_${j}.csv

    >>> END IF

  >>> END FOREACH

>>> END FOREACH

>>> FOREACH i IN (A,C,D)

  >>> IF (-FILE GMJ_e2_$i.csv)

    >>> COPY $WorkDir/GMJ_RHS_$i.csv $CurrDir/GMJ_RHS_$i.csv

    >>> COPY $WorkDir/GMJ_IVECW_$i.csv $CurrDir/GMJ_IVECW_$i.csv

    >>> COPY $WorkDir/GMJ_IVECX_$i.csv $CurrDir/GMJ_IVECX_$i.csv

    >>> COPY $WorkDir/GMJ_IVECC2_$i.csv $CurrDir/GMJ_IVECC2_$i.csv

    >>> COPY $WorkDir/GMJ_e2_$i.csv $CurrDir/GMJ_e2_$i.csv

  >>> END IF

>>> END FOREACH

-- ----------------------------------

--- Start Module: gateway at Sun Dec 22 05:30:10 2024 ---
 
()()()()()()()()()()()()()()()()()()()()()()()()()()()()()()()()()()()()()()()()()()()()()()()()()()

                                              &GATEWAY

                                   only a single process is used
                       available to each process: 2.0 GB of memory, 1 thread?
()()()()()()()()()()()()()()()()()()()()()()()()()()()()()()()()()()()()()()()()()()()()()()()()()()
 
 ###############################################################################
 ###############################################################################
 ###                                                                         ###
 ###                                                                         ###
 ###                                                                         ###
 ###    WARNING: EXPERT option is ON!                                        ###
 ###                                                                         ###
 ###                                                                         ###
 ###############################################################################
 ###############################################################################
 
++    Symmetry information:
      ---------------------
 
                    Character Table for C1 
 
                             E  
                    a        1  x, y, xy, Rz, z, xz, Ry, yz, Rx, I
--
 
 
++    Basis set information:
      ----------------------
 
 
      Basis set label: O.ANO-RCC...4S3P2D1F.
 
      Electronic valence basis set:
      ------------------
      Associated Effective Charge   8.000000 au
      Associated Actual Charge      8.000000 au
      Nuclear Model: Point charge
 
      Shell  nPrim  nBasis  Cartesian Spherical Contaminant
         s      14       4        X                  
         p       9       3        X                  
         d       4       2                 X         
         f       3       1                 X         
--
 
 
++    Molecular structure info:
      -------------------------
 
                    ************************************************ 
                    **** Cartesian Coordinates / Bohr, Angstrom **** 
                    ************************************************ 
 
     Center  Label                x              y              z                     x              y              z
        1      O1               0.184231       2.408033       0.000000              0.097491       1.274276       0.000000
        2      O2               0.000000       0.000000       0.000000              0.000000       0.000000       0.000000
        3      O3               0.184231      -2.408033       0.000000              0.097491      -1.274276       0.000000
 
                    *************************************** 
                    *    InterNuclear Distances / Bohr    * 
                    *************************************** 
 
               1 O1            2 O2            3 O3    
    1 O1       0.000000
    2 O2       2.415070        0.000000
    3 O3       4.816065        2.415070        0.000000
 
                    ******************************************* 
                    *    InterNuclear Distances / Angstrom    * 
                    ******************************************* 
 
               1 O1            2 O2            3 O3    
    1 O1       0.000000
    2 O2       1.278000        0.000000
    3 O3       2.548552        1.278000        0.000000
 
                    ************************************** 
                    *    Valence Bond Angles / Degree    * 
                    ************************************** 
                          Atom centers                 Phi
                      1 O1       2 O2       3 O3       171.25
--
 
 
            Nuclear Potential Energy             66.28939371 au
 
 ###############################################################################
 ###############################################################################
 ###                                                                         ###
 ###                                                                         ###
 ###    There were warnings during the execution                             ###
 ###    Please, check the output with care!                                  ###
 ###                                                                         ###
 ###                                                                         ###
 ###############################################################################
 ###############################################################################
--- Stop Module: gateway at Sun Dec 22 05:30:10 2024 /rc=_RC_ALL_IS_WELL_ ---
*** files: xmldump
    saved to directory /home/grierjones/DDCASPT2/ozone/ANO-RCC-VTZP/ozone_171.25

--- Start Module: seward at Sun Dec 22 05:30:10 2024 ---
 
()()()()()()()()()()()()()()()()()()()()()()()()()()()()()()()()()()()()()()()()()()()()()()()()()()

                                              &SEWARD

                                   only a single process is used
                       available to each process: 2.0 GB of memory, 1 thread?
()()()()()()()()()()()()()()()()()()()()()()()()()()()()()()()()()()()()()()()()()()()()()()()()()()
 
 ###############################################################################
 ###############################################################################
 ###                                                                         ###
 ###                                                                         ###
 ###                                                                         ###
 ###    WARNING: EXPERT option is ON!                                        ###
 ###                                                                         ###
 ###                                                                         ###
 ###############################################################################
 ###############################################################################
               SEWARD will generate:
                  Multipole Moment integrals up to order  2
                  Kinetic Energy integrals
                  Nuclear Attraction integrals (point charge)
                  One-Electron Hamiltonian integrals
                  Velocity integrals
                  Relativistic Douglas-Kroll-Hess integrals:
                    - Parametrization         : EXP
                    - DKH order of Hamiltonian: 2
                    - DKH order of Properties : 0
                         - multipole moment operators
                         - electric potential operators
                         - contact operators
                  Atomic mean-field integrals
                  Two-Electron Repulsion integrals
 
                   Integrals are discarded if absolute value <: 0.10E-13
                   Integral cutoff threshold is set to       <: 0.10E-15
 
            Nuclear Potential Energy             66.28939371 au
 
 
      Basis set specifications :
      Symmetry species         a  
      Basis functions           90
 
 
  Input file to MOLDEN was generated!
 
 ###############################################################################
 ###############################################################################
 ###                                                                         ###
 ###                                                                         ###
 ###    There were warnings during the execution                             ###
 ###    Please, check the output with care!                                  ###
 ###                                                                         ###
 ###                                                                         ###
 ###############################################################################
 ###############################################################################
--- Stop Module: seward at Sun Dec 22 05:30:12 2024 /rc=_RC_ALL_IS_WELL_ ---
*** files: ozone_171.25.GssOrb ozone_171.25.guessorb.h5 ozone_171.25.guessorb.molden xmldump
    saved to directory /home/grierjones/DDCASPT2/ozone/ANO-RCC-VTZP/ozone_171.25
--- Module seward spent 2 seconds ---

*** symbolic link created: INPORB -> ozone_171.25.GssOrb
--- Start Module: scf at Sun Dec 22 05:30:12 2024 ---
 
()()()()()()()()()()()()()()()()()()()()()()()()()()()()()()()()()()()()()()()()()()()()()()()()()()

                                                &SCF

                                   only a single process is used
                       available to each process: 2.0 GB of memory, 1 thread?
()()()()()()()()()()()()()()()()()()()()()()()()()()()()()()()()()()()()()()()()()()()()()()()()()()
 
++    Input section:
      --------------
 
      Header of the integral files:
      
       Integrals generated by seward 4.2.0  , Sun Dec 22 05:30:10 2024
 
 
      Cartesian coordinates in Angstrom:
      -----------------------------------------------------
      No.  Label        X            Y            Z        
      -----------------------------------------------------
       1   O1         0.09749100   1.27427600   0.00000000
       2   O2         0.00000000   0.00000000   0.00000000
       3   O3         0.09749100  -1.27427600   0.00000000
      -----------------------------------------------------
      Nuclear repulsion energy =   66.28939371
--
 
++    Orbital specifications:
      -----------------------
 
      Symmetry species               1
                                     a
      Frozen orbitals                0
      Aufbau                        12
      Start temperature = 0.500
      End temperature   = 0.010
      Temperature Factor= 0.460
      Deleted orbitals               0
      Total number of orbitals      90
      Number of basis functions     90
--
 
      Molecular charge                           0.000
 
++    Optimization specifications:
      ----------------------------
 
      SCF Algorithm: Conventional
      Minimized density differences are used
      Number of density matrices in core                5
      Maximum number of NDDO SCF iterations           400
      Maximum number of HF SCF iterations             400
      Threshold for SCF energy change            0.10E-08
      Threshold for density matrix               0.10E-03
      Threshold for Fock matrix                  0.15E-03
      Threshold for linear dependence            0.10E-08
      Threshold at which DIIS is turned on       0.15E+00
      Threshold at which QNR/C2DIIS is turned on 0.75E-01
      Threshold for Norm(delta) (QNR/C2DIIS)     0.20E-04
      DIIS extrapolation of the SCF procedure
      All orbitals punched on: SCFORB
--
 
      Input vectors read from INPORB
      Orbital file label: *Guess orbitals
 
 
++ Convergence information
                                   SCF        iterations: Energy and convergence statistics
 
Iter     Tot. SCF        One-elec.       Two-elec.     Energy      Max Dij or  Max Fij      DNorm      TNorm      AccCon     Time
         Energy          Energy          Energy        Change      Delta Norm                                                in Sec.
   1  -221.440729549  -440.135183991   152.405060736   0.00E+00    0.90E-01*   0.25E+01*    0.77E+01   0.11E+03   None         0.
   2  -221.901429743  -429.710004861   141.519181412  -0.46E+00*   0.12E+00*   0.11E+00*    0.81E+01   0.11E+03   EDIIS        0.
   3  -223.715751857  -444.240418136   154.235272573  -0.18E+01*   0.15E+00*   0.27E+00*    0.39E+01   0.11E+03   EDIIS        0.
   4  -224.090815223  -437.615400311   147.235191382  -0.38E+00*   0.20E+00*   0.19E+00*    0.20E+01   0.11E+03   EDIIS        0.
   5  -224.120784003  -441.692506482   151.282328773  -0.30E-01*   0.11E+00*   0.12E+00*    0.11E+01   0.11E+03   EDIIS        0.
   6  -224.380905353  -440.070774943   149.400475884  -0.26E+00*   0.71E-01*   0.76E-01*    0.17E+01   0.11E+03   EDIIS        0.
   7  -224.396947429  -440.562513805   149.876172670  -0.16E-01*   0.14E+00*   0.63E-01*    0.30E+00   0.11E+03   EDIIS        0.
   8  -224.399000326  -440.113372092   149.424978060  -0.21E-02*   0.15E-01*   0.43E-01*    0.23E+00   0.11E+03   EDIIS        0.
 
       Fermi aufbau procedure completed!
      nOcc=   12
 
   9  -224.407099517  -440.361204161   149.664710938  -0.81E-02*   0.24E-01*   0.89E-02*    0.31E-01   0.11E+03   EDIIS        0.
  10  -224.407343243  -440.314538239   149.617801290  -0.24E-03*   0.82E-02*   0.82E-02*    0.99E-02   0.11E+03   EDIIS        0.
  11  -224.407440650  -440.361519612   149.664685256  -0.97E-04*   0.13E-01*   0.49E-02*    0.27E-02   0.11E+03   EDIIS        0.
  12  -224.407527480  -440.323420098   149.626498912  -0.87E-04*   0.48E-02*   0.26E-02*    0.18E-02   0.11E+03   EDIIS        0.
  13  -224.407564449  -440.349392934   149.652434779  -0.37E-04*   0.37E-02*   0.16E-02*    0.59E-03   0.11E+03   c2DIIS       0.
  14  -224.407592362  -440.337320769   149.640334701  -0.28E-04*   0.17E-02*   0.84E-03*    0.14E-03   0.11E+03   QNRc2DIIS    0.
  15  -224.407600117  -440.339291432   149.642297609  -0.78E-05*   0.53E-02*   0.61E-03*    0.38E-04   0.11E+03   QNRc2DIIS    0.
  16  -224.407608231  -440.336887243   149.639885306  -0.81E-05*   0.75E-03*   0.49E-03*    0.13E-03   0.11E+03   QNRc2DIIS    0.
  17  -224.407608991  -440.338349063   149.641346367  -0.76E-06*   0.56E-03*   0.11E-03     0.12E-03   0.11E+03   QNRc2DIIS    0.
  18  -224.407609174  -440.338641198   149.641638318  -0.18E-06*   0.32E-04*   0.57E-05     0.11E-02   0.11E+03   QNRc2DIIS    0.
  19  -224.407609175  -440.338599367   149.641596486  -0.11E-08*   0.25E-05    0.12E-05     0.23E-02   0.11E+03   QNRc2DIIS    0.
  20  -224.407609175  -440.338643724   149.641640844  -0.14E-10    0.81E-06    0.45E-06     0.88E-03   0.11E+03   QNRc2DIIS    0.
 
       Convergence after 20 Macro Iterations
--
 
 *****************************************************************************************************************************
 *                                                                                                                           *
 *                                             SCF/KS-DFT Program, Final results                                             *
 *                                                                                                                           *
 *                                                                                                                           *
 *                                                                                                                           *
 *                                                       Final Results                                                       *
 *                                                                                                                           *
 *****************************************************************************************************************************
 
::    Total SCF energy                               -224.4076091749
      One-electron energy                            -440.3386437244
      Two-electron energy                             149.6416408435
      Nuclear repulsion energy                         66.2893937059
      Kinetic energy (interpolated)                   225.2915914234
      Virial theorem                                    0.9960762750
      Total spin, S(S+1)                                0.0000000000
      Total spin, S                                     0.0000000000
      Max non-diagonal density matrix element           0.0000008019
      Max non-diagonal Fock matrix element              0.0000000477
 
 
      All orbitals with orbital energies smaller than  E(LUMO)+0.5 are printed
 
++    Molecular orbitals:
      -------------------
 
      Title: SCF orbitals

      Molecular orbitals for symmetry species 1: a  
 
          Orbital            1         2         3         4         5         6         7         8         9        10    
          Energy          -20.8569  -20.7408  -20.7407   -1.6995   -1.4630   -1.0567   -0.8368   -0.7813   -0.7485   -0.6188
          Occ. No.          2.0000    2.0000    2.0000    2.0000    2.0000    2.0000    2.0000    2.0000    2.0000    2.0000
 
        1 O1     1s         0.0025   -0.7062    0.7062   -0.0126    0.0126    0.0148   -0.0022   -0.0258   -0.0000    0.0038
        2 O1     2s         0.0007    0.0062   -0.0060    0.3487   -0.5581    0.6570   -0.0472   -0.4495   -0.0000    0.0453
        3 O1     3s         0.0003    0.0044   -0.0040   -0.0096    0.0217    0.0240   -0.0027   -0.0557    0.0000    0.0075
        4 O1     4s         0.0000    0.0010   -0.0008   -0.0003    0.0040    0.0042   -0.0006   -0.0117    0.0000    0.0016
        5 O1     2px       -0.0001   -0.0003    0.0002   -0.0072    0.0111    0.0237    0.3440   -0.0943   -0.0000   -0.6945
        6 O1     3px       -0.0002   -0.0002    0.0001    0.0037   -0.0018   -0.0043   -0.0256    0.0072    0.0000    0.0106
        7 O1     4px       -0.0001    0.0000   -0.0001    0.0009    0.0004    0.0001   -0.0003    0.0002    0.0000    0.0054
        8 O1     2py       -0.0005   -0.0027    0.0031   -0.1147    0.0872    0.1798   -0.0604   -0.3975   -0.0000    0.0901
        9 O1     3py       -0.0002   -0.0026    0.0030    0.0117   -0.0202   -0.0288    0.0050    0.0483    0.0000   -0.0028
       10 O1     4py        0.0001    0.0017   -0.0017    0.0010   -0.0032    0.0006    0.0011    0.0041    0.0000   -0.0009
       11 O1     2pz       -0.0000    0.0000    0.0000   -0.0000    0.0000    0.0000    0.0000   -0.0000    0.4290   -0.0000
       12 O1     3pz       -0.0000   -0.0000   -0.0000    0.0000    0.0000   -0.0000   -0.0000    0.0000   -0.0146    0.0000
       13 O1     4pz        0.0000   -0.0000   -0.0000   -0.0000   -0.0000   -0.0000   -0.0000    0.0000   -0.0067    0.0000
       14 O1     3d2-      -0.0000    0.0001   -0.0002    0.0021   -0.0022   -0.0025   -0.0211    0.0047    0.0000    0.0131
       15 O1     4d2-      -0.0000    0.0001   -0.0001    0.0000   -0.0002   -0.0000   -0.0017    0.0001    0.0000    0.0008
       16 O1     3d1-       0.0000   -0.0000    0.0000    0.0000    0.0000   -0.0000   -0.0000    0.0000   -0.0321    0.0000
       17 O1     4d1-       0.0000   -0.0000    0.0000    0.0000    0.0000   -0.0000   -0.0000    0.0000   -0.0057   -0.0000
       18 O1     3d0       -0.0001   -0.0006    0.0007   -0.0102    0.0081    0.0075   -0.0024   -0.0154   -0.0000    0.0027
       19 O1     4d0       -0.0000   -0.0004    0.0005   -0.0010    0.0006    0.0005   -0.0004   -0.0010    0.0000    0.0005
       20 O1     3d1+       0.0000   -0.0000   -0.0000   -0.0000    0.0000    0.0000   -0.0000   -0.0000   -0.0019    0.0000
       21 O1     4d1+      -0.0000    0.0000    0.0000   -0.0000    0.0000    0.0000    0.0000    0.0000   -0.0003    0.0000
       22 O1     3d2+      -0.0002   -0.0013    0.0014   -0.0203    0.0149    0.0169   -0.0062   -0.0291   -0.0000    0.0059
       23 O1     4d2+      -0.0001   -0.0006    0.0007   -0.0029    0.0017    0.0017   -0.0006   -0.0021   -0.0000    0.0007
       24 O1     4f3-       0.0001    0.0002   -0.0002    0.0059   -0.0051   -0.0033    0.0018    0.0068    0.0000   -0.0018
       25 O1     4f2-       0.0000   -0.0000   -0.0000    0.0000    0.0000    0.0000   -0.0000    0.0000    0.0006   -0.0000
       26 O1     4f1-       0.0000    0.0002   -0.0002    0.0034   -0.0029   -0.0022    0.0006    0.0042    0.0000   -0.0006
       27 O1     4f0        0.0000   -0.0000    0.0000   -0.0000    0.0000    0.0000   -0.0000    0.0000   -0.0037    0.0000
       28 O1     4f1+      -0.0000    0.0000   -0.0000    0.0002   -0.0001   -0.0002   -0.0006    0.0002   -0.0000   -0.0005
       29 O1     4f2+       0.0000    0.0000    0.0000   -0.0000    0.0000    0.0000   -0.0000    0.0000   -0.0071    0.0000
       30 O1     4f3+      -0.0000    0.0000   -0.0000    0.0011   -0.0009   -0.0009   -0.0073    0.0018    0.0000    0.0061
       31 O2     1s         0.9998    0.0000   -0.0016   -0.0286   -0.0000   -0.0148   -0.0015   -0.0000   -0.0000   -0.0000
       32 O2     2s        -0.0012   -0.0000    0.0124    0.6231    0.0000   -0.6290   -0.0145   -0.0000    0.0000   -0.0000
       33 O2     3s        -0.0014   -0.0000    0.0071   -0.0667   -0.0000   -0.0242   -0.0017   -0.0000   -0.0000   -0.0000
       34 O2     4s        -0.0001   -0.0000    0.0011   -0.0126   -0.0000   -0.0042   -0.0012   -0.0000    0.0000   -0.0000
       35 O2     2px        0.0003   -0.0000    0.0007    0.0215    0.0000    0.0457    0.7368   -0.0000   -0.0000   -0.0000
       36 O2     3px       -0.0001   -0.0000    0.0004   -0.0096   -0.0000   -0.0053   -0.0779   -0.0000    0.0000    0.0000
       37 O2     4px        0.0006    0.0000   -0.0001   -0.0021   -0.0000    0.0009   -0.0108    0.0000    0.0000    0.0000
       38 O2     2py        0.0000   -0.0077   -0.0000    0.0000   -0.3382   -0.0000    0.0000    0.5708    0.0000   -0.0695
       39 O2     3py        0.0000   -0.0053   -0.0000   -0.0000    0.0638   -0.0000    0.0000   -0.0491   -0.0000   -0.0019
       40 O2     4py       -0.0000    0.0013    0.0000   -0.0000    0.0002   -0.0000    0.0000   -0.0126   -0.0000    0.0010
       41 O2     2pz        0.0000   -0.0000    0.0000    0.0000   -0.0000    0.0000    0.0000   -0.0000    0.6204   -0.0000
       42 O2     3pz        0.0000    0.0000    0.0000   -0.0000   -0.0000   -0.0000    0.0000    0.0000   -0.0389    0.0000
       43 O2     4pz       -0.0000    0.0000    0.0000    0.0000    0.0000   -0.0000    0.0000    0.0000   -0.0193    0.0000
       44 O2     3d2-       0.0000   -0.0004   -0.0000    0.0000   -0.0095   -0.0000    0.0000    0.0066    0.0000   -0.0402
       45 O2     4d2-       0.0000   -0.0002   -0.0000    0.0000   -0.0011   -0.0000   -0.0000    0.0007    0.0000   -0.0062
       46 O2     3d1-       0.0000   -0.0000    0.0000    0.0000   -0.0000   -0.0000   -0.0000   -0.0000    0.0000   -0.0000
       47 O2     4d1-       0.0000   -0.0000    0.0000    0.0000   -0.0000   -0.0000   -0.0000    0.0000    0.0000   -0.0000
       48 O2     3d0       -0.0002    0.0000   -0.0011   -0.0146    0.0000    0.0011   -0.0051    0.0000    0.0000    0.0000
       49 O2     4d0        0.0002    0.0000   -0.0006    0.0004    0.0000    0.0011   -0.0006    0.0000   -0.0000    0.0000
       50 O2     3d1+       0.0000    0.0000   -0.0000   -0.0000   -0.0000   -0.0000    0.0000   -0.0000    0.0079   -0.0000
       51 O2     4d1+      -0.0000   -0.0000    0.0000   -0.0000    0.0000   -0.0000    0.0000    0.0000    0.0013   -0.0000
       52 O2     3d2+       0.0004    0.0000   -0.0020   -0.0258    0.0000   -0.0041    0.0041    0.0000    0.0000    0.0000
       53 O2     4d2+       0.0001    0.0000   -0.0010   -0.0010    0.0000    0.0002   -0.0000    0.0000    0.0000    0.0000
       54 O2     4f3-      -0.0000    0.0002    0.0000   -0.0000    0.0108    0.0000   -0.0000   -0.0097   -0.0000   -0.0016
       55 O2     4f2-       0.0000    0.0000    0.0000    0.0000    0.0000   -0.0000   -0.0000   -0.0000    0.0000   -0.0000
       56 O2     4f1-      -0.0000    0.0001    0.0000    0.0000    0.0053    0.0000   -0.0000   -0.0047   -0.0000    0.0005
       57 O2     4f0       -0.0000    0.0000   -0.0000    0.0000   -0.0000   -0.0000    0.0000    0.0000   -0.0051    0.0000
       58 O2     4f1+       0.0000    0.0000   -0.0000   -0.0005   -0.0000    0.0002    0.0006    0.0000   -0.0000   -0.0000
       59 O2     4f2+      -0.0000    0.0000   -0.0000    0.0000   -0.0000   -0.0000   -0.0000    0.0000   -0.0120    0.0000
       60 O2     4f3+       0.0000    0.0000   -0.0001   -0.0029   -0.0000   -0.0004   -0.0126    0.0000    0.0000    0.0000
       61 O3     1s         0.0025    0.7062    0.7062   -0.0126   -0.0126    0.0148   -0.0022    0.0258    0.0000   -0.0038
       62 O3     2s         0.0007   -0.0062   -0.0060    0.3487    0.5581    0.6570   -0.0472    0.4495    0.0000   -0.0453
       63 O3     3s         0.0003   -0.0044   -0.0040   -0.0096   -0.0217    0.0240   -0.0027    0.0557    0.0000   -0.0075
       64 O3     4s         0.0000   -0.0010   -0.0008   -0.0003   -0.0040    0.0042   -0.0006    0.0117    0.0000   -0.0016
       65 O3     2px       -0.0001    0.0003    0.0002   -0.0072   -0.0111    0.0237    0.3440    0.0943   -0.0000    0.6945
       66 O3     3px       -0.0002    0.0002    0.0001    0.0037    0.0018   -0.0043   -0.0256   -0.0072   -0.0000   -0.0106
       67 O3     4px       -0.0001   -0.0000   -0.0001    0.0009   -0.0004    0.0001   -0.0003   -0.0002    0.0000   -0.0054
       68 O3     2py        0.0005   -0.0027   -0.0031    0.1147    0.0872   -0.1798    0.0604   -0.3975   -0.0000    0.0901
       69 O3     3py        0.0002   -0.0026   -0.0030   -0.0117   -0.0202    0.0288   -0.0050    0.0483    0.0000   -0.0028
       70 O3     4py       -0.0001    0.0017    0.0017   -0.0010   -0.0032   -0.0006   -0.0011    0.0041    0.0000   -0.0009
       71 O3     2pz        0.0000   -0.0000   -0.0000    0.0000    0.0000   -0.0000    0.0000   -0.0000    0.4290    0.0000
       72 O3     3pz        0.0000   -0.0000   -0.0000    0.0000    0.0000    0.0000   -0.0000   -0.0000   -0.0146   -0.0000
       73 O3     4pz       -0.0000   -0.0000   -0.0000   -0.0000    0.0000    0.0000   -0.0000   -0.0000   -0.0067   -0.0000
       74 O3     3d2-       0.0000    0.0001    0.0002   -0.0021   -0.0022    0.0025    0.0211    0.0047   -0.0000    0.0131
       75 O3     4d2-       0.0000    0.0001    0.0001   -0.0000   -0.0002    0.0000    0.0017    0.0001   -0.0000    0.0008
       76 O3     3d1-       0.0000    0.0000    0.0000    0.0000    0.0000    0.0000    0.0000   -0.0000    0.0321   -0.0000
       77 O3     4d1-       0.0000    0.0000   -0.0000    0.0000    0.0000    0.0000   -0.0000   -0.0000    0.0057   -0.0000
       78 O3     3d0       -0.0001    0.0006    0.0007   -0.0102   -0.0081    0.0075   -0.0024    0.0154    0.0000   -0.0027
       79 O3     4d0       -0.0000    0.0004    0.0005   -0.0010   -0.0006    0.0005   -0.0004    0.0010    0.0000   -0.0005
       80 O3     3d1+      -0.0000    0.0000    0.0000   -0.0000   -0.0000    0.0000    0.0000    0.0000   -0.0019    0.0000
       81 O3     4d1+       0.0000    0.0000   -0.0000   -0.0000   -0.0000    0.0000    0.0000    0.0000   -0.0003    0.0000
       82 O3     3d2+      -0.0002    0.0013    0.0014   -0.0203   -0.0149    0.0169   -0.0062    0.0291    0.0000   -0.0059
       83 O3     4d2+      -0.0001    0.0006    0.0007   -0.0029   -0.0017    0.0017   -0.0006    0.0021    0.0000   -0.0007
       84 O3     4f3-      -0.0001    0.0002    0.0002   -0.0059   -0.0051    0.0033   -0.0018    0.0068    0.0000   -0.0018
       85 O3     4f2-      -0.0000   -0.0000   -0.0000   -0.0000   -0.0000    0.0000   -0.0000    0.0000   -0.0006   -0.0000
       86 O3     4f1-      -0.0000    0.0002    0.0002   -0.0034   -0.0029    0.0022   -0.0006    0.0042   -0.0000   -0.0006
       87 O3     4f0       -0.0000   -0.0000   -0.0000   -0.0000    0.0000   -0.0000    0.0000    0.0000   -0.0037    0.0000
       88 O3     4f1+      -0.0000   -0.0000   -0.0000    0.0002    0.0001   -0.0002   -0.0006   -0.0002   -0.0000    0.0005
       89 O3     4f2+      -0.0000   -0.0000   -0.0000   -0.0000    0.0000    0.0000   -0.0000    0.0000   -0.0071   -0.0000
       90 O3     4f3+      -0.0000   -0.0000   -0.0000    0.0011    0.0009   -0.0009   -0.0073   -0.0018    0.0000   -0.0061
 
          Orbital           11        12        13        14        15        16        17        18        19        20    
          Energy           -0.5151   -0.4696   -0.0220    0.1233    0.1668    0.2349    0.2351    0.2728    0.3661    0.3676
          Occ. No.          2.0000    2.0000    0.0000    0.0000    0.0000    0.0000    0.0000    0.0000    0.0000    0.0000
 
        1 O1     1s         0.0000    0.0001   -0.0000    0.0559   -0.2271   -0.0000   -0.0224    0.0984   -0.0050    0.0000
        2 O1     2s         0.0000   -0.0079   -0.0000    0.5315   -1.6502   -0.0000   -0.1516    0.6703   -0.0187    0.0000
        3 O1     3s        -0.0000    0.0041   -0.0000    0.1231   -0.9934   -0.0000   -0.1047    0.5808   -0.0049    0.0000
        4 O1     4s        -0.0000    0.0018    0.0000    0.0063   -0.2264   -0.0000   -0.0236    0.1488    0.0007    0.0000
        5 O1     2px        0.0000    0.6673   -0.0000    0.0210    0.0758   -0.0000   -0.0532   -0.0530   -0.1704    0.0000
        6 O1     3px        0.0000    0.0429   -0.0000    0.0057    0.0855    0.0000    0.4032    0.0314   -0.8683    0.0000
        7 O1     4px       -0.0000    0.0009   -0.0000    0.0035    0.0130    0.0000    0.2039    0.0301   -0.3430    0.0000
        8 O1     2py       -0.0000    0.0460   -0.0000   -0.8994    0.6552    0.0000    0.0902   -0.4969   -0.0474   -0.0000
        9 O1     3py       -0.0000   -0.0041    0.0000   -0.3528    0.8123    0.0000    0.1313   -1.0496   -0.0330    0.0000
       10 O1     4py        0.0000   -0.0017    0.0000   -0.0350    0.1029    0.0000    0.0151   -0.2381   -0.0059    0.0000
       11 O1     2pz       -0.6941    0.0000    0.6615    0.0000   -0.0000   -0.1113    0.0000   -0.0000   -0.0000   -0.1495
       12 O1     3pz       -0.0237   -0.0000    0.1737    0.0000   -0.0000    0.3818   -0.0000    0.0000   -0.0000   -0.8718
       13 O1     4pz        0.0070    0.0000    0.0285    0.0000   -0.0000    0.2063   -0.0000    0.0000   -0.0000   -0.3497
       14 O1     3d2-      -0.0000    0.0047   -0.0000    0.0083   -0.0134    0.0000    0.0018    0.0081    0.0162   -0.0000
       15 O1     4d2-      -0.0000    0.0004    0.0000    0.0034   -0.0094   -0.0000   -0.0037    0.0054    0.0172   -0.0000
       16 O1     3d1-       0.0253   -0.0000    0.0155   -0.0000   -0.0000    0.0073   -0.0000   -0.0000    0.0000    0.0127
       17 O1     4d1-       0.0056   -0.0000    0.0021    0.0000    0.0000   -0.0011    0.0000   -0.0000    0.0000    0.0158
       18 O1     3d0        0.0000    0.0015   -0.0000   -0.0107    0.0522    0.0000    0.0111   -0.0579   -0.0027   -0.0000
       19 O1     4d0       -0.0000    0.0001   -0.0000   -0.0066    0.0327    0.0000    0.0071   -0.0410   -0.0030   -0.0000
       20 O1     3d1+       0.0012    0.0000    0.0014   -0.0000    0.0000    0.0011   -0.0000   -0.0000    0.0000    0.0033
       21 O1     4d1+       0.0002   -0.0000    0.0001    0.0000   -0.0000    0.0003   -0.0000    0.0000    0.0000    0.0026
       22 O1     3d2+       0.0000    0.0039   -0.0000   -0.0163    0.0872    0.0000    0.0213   -0.1052    0.0017    0.0000
       23 O1     4d2+       0.0000    0.0001    0.0000   -0.0101    0.0539    0.0000    0.0131   -0.0745   -0.0003    0.0000
       24 O1     4f3-       0.0000   -0.0010   -0.0000    0.0050   -0.0063   -0.0000   -0.0012    0.0129   -0.0007   -0.0000
       25 O1     4f2-      -0.0005   -0.0000   -0.0002    0.0000    0.0000    0.0003   -0.0000   -0.0000   -0.0000   -0.0017
       26 O1     4f1-       0.0000   -0.0005   -0.0000    0.0020   -0.0048   -0.0000   -0.0014    0.0108    0.0015   -0.0000
       27 O1     4f0        0.0020    0.0000    0.0015   -0.0000   -0.0000   -0.0018    0.0000    0.0000    0.0000    0.0064
       28 O1     4f1+       0.0000    0.0014    0.0000    0.0003   -0.0001   -0.0000   -0.0011    0.0006    0.0029   -0.0000
       29 O1     4f2+       0.0059   -0.0000   -0.0003   -0.0000   -0.0000   -0.0017    0.0000   -0.0000    0.0000    0.0073
       30 O1     4f3+      -0.0000   -0.0012    0.0000    0.0012   -0.0006   -0.0000   -0.0031    0.0024    0.0095   -0.0000
       31 O2     1s        -0.0000    0.0100   -0.0000   -0.1779    0.0000    0.0000    0.0552   -0.3177   -0.0000   -0.0000
       32 O2     2s        -0.0000    0.1171   -0.0000   -1.5326    0.0000    0.0000    0.3613   -2.0101   -0.0000   -0.0000
       33 O2     3s        -0.0000    0.0272   -0.0000   -0.6650    0.0000    0.0000    0.2273   -1.1885   -0.0000   -0.0000
       34 O2     4s        -0.0000    0.0065    0.0000   -0.1527    0.0000    0.0000    0.0466   -0.2230   -0.0000   -0.0000
       35 O2     2px       -0.0000   -0.7325    0.0000   -0.1910   -0.0000   -0.0000   -0.0821   -0.0602   -0.0000   -0.0000
       36 O2     3px        0.0000   -0.0451    0.0000   -0.0544   -0.0000    0.0000    0.2655   -0.0851   -0.0000    0.0000
       37 O2     4px        0.0000   -0.0032    0.0000   -0.0006   -0.0000    0.0000    0.1662    0.0070   -0.0000    0.0000
       38 O2     2py       -0.0000    0.0000    0.0000   -0.0000    1.6055    0.0000    0.0000   -0.0000   -0.0151   -0.0000
       39 O2     3py        0.0000    0.0000    0.0000   -0.0000    1.6748    0.0000    0.0000   -0.0000    0.0835   -0.0000
       40 O2     4py        0.0000   -0.0000    0.0000    0.0000    0.1716    0.0000   -0.0000    0.0000    0.0436   -0.0000
       41 O2     2pz        0.0000   -0.0000   -0.9232   -0.0000    0.0000   -0.0546    0.0000   -0.0000    0.0000    0.0000
       42 O2     3pz        0.0000   -0.0000   -0.2186   -0.0000   -0.0000    0.2791   -0.0000   -0.0000    0.0000    0.0000
       43 O2     4pz        0.0000   -0.0000   -0.0216   -0.0000   -0.0000    0.1772   -0.0000    0.0000    0.0000   -0.0000
       44 O2     3d2-       0.0000    0.0000    0.0000   -0.0000    0.0317   -0.0000    0.0000   -0.0000    0.1082   -0.0000
       45 O2     4d2-       0.0000    0.0000    0.0000   -0.0000    0.0195   -0.0000    0.0000   -0.0000    0.0689   -0.0000
       46 O2     3d1-      -0.0625    0.0000    0.0000    0.0000   -0.0000    0.0000   -0.0000   -0.0000    0.0000    0.1204
       47 O2     4d1-      -0.0145    0.0000    0.0000   -0.0000   -0.0000    0.0000   -0.0000   -0.0000    0.0000    0.0731
       48 O2     3d0       -0.0000    0.0078    0.0000   -0.0216   -0.0000   -0.0000   -0.0204    0.1144    0.0000   -0.0000
       49 O2     4d0       -0.0000    0.0008    0.0000    0.0031   -0.0000   -0.0000   -0.0107    0.0505    0.0000   -0.0000
       50 O2     3d1+      -0.0000    0.0000   -0.0027   -0.0000   -0.0000   -0.0048    0.0000    0.0000    0.0000    0.0000
       51 O2     4d1+      -0.0000    0.0000   -0.0005    0.0000   -0.0000   -0.0017    0.0000    0.0000    0.0000    0.0000
       52 O2     3d2+      -0.0000    0.0114    0.0000   -0.0423   -0.0000   -0.0000   -0.0423    0.1824    0.0000   -0.0000
       53 O2     4d2+      -0.0000    0.0019    0.0000    0.0046   -0.0000   -0.0000   -0.0203    0.0759    0.0000    0.0000
       54 O2     4f3-       0.0000   -0.0000   -0.0000    0.0000   -0.0153   -0.0000   -0.0000    0.0000   -0.0006    0.0000
       55 O2     4f2-      -0.0019    0.0000    0.0000   -0.0000   -0.0000   -0.0000    0.0000    0.0000    0.0000    0.0015
       56 O2     4f1-      -0.0000   -0.0000   -0.0000    0.0000   -0.0115   -0.0000   -0.0000    0.0000   -0.0022    0.0000
       57 O2     4f0       -0.0000   -0.0000   -0.0021   -0.0000   -0.0000   -0.0017    0.0000    0.0000    0.0000   -0.0000
       58 O2     4f1+      -0.0000   -0.0026    0.0000   -0.0007    0.0000   -0.0000   -0.0011    0.0010    0.0000   -0.0000
       59 O2     4f2+      -0.0000    0.0000    0.0025    0.0000    0.0000   -0.0021    0.0000    0.0000   -0.0000   -0.0000
       60 O2     4f3+      -0.0000    0.0009   -0.0000   -0.0005    0.0000   -0.0000   -0.0036    0.0025    0.0000   -0.0000
       61 O3     1s         0.0000    0.0001    0.0000    0.0559    0.2271   -0.0000   -0.0224    0.0984    0.0050   -0.0000
       62 O3     2s         0.0000   -0.0079    0.0000    0.5315    1.6502   -0.0000   -0.1516    0.6703    0.0187   -0.0000
       63 O3     3s         0.0000    0.0041    0.0000    0.1231    0.9934   -0.0000   -0.1047    0.5808    0.0049   -0.0000
       64 O3     4s        -0.0000    0.0018    0.0000    0.0063    0.2264   -0.0000   -0.0236    0.1488   -0.0007   -0.0000
       65 O3     2px       -0.0000    0.6673   -0.0000    0.0210   -0.0758   -0.0000   -0.0532   -0.0530    0.1704   -0.0000
       66 O3     3px       -0.0000    0.0429   -0.0000    0.0057   -0.0855    0.0000    0.4032    0.0314    0.8683   -0.0000
       67 O3     4px        0.0000    0.0009   -0.0000    0.0035   -0.0130    0.0000    0.2039    0.0301    0.3430   -0.0000
       68 O3     2py        0.0000   -0.0460   -0.0000    0.8994    0.6552   -0.0000   -0.0902    0.4969   -0.0474    0.0000
       69 O3     3py       -0.0000    0.0041    0.0000    0.3528    0.8123   -0.0000   -0.1313    1.0496   -0.0330    0.0000
       70 O3     4py        0.0000    0.0017    0.0000    0.0350    0.1029   -0.0000   -0.0151    0.2381   -0.0059    0.0000
       71 O3     2pz        0.6941    0.0000    0.6615   -0.0000   -0.0000   -0.1113    0.0000    0.0000    0.0000    0.1495
       72 O3     3pz        0.0237    0.0000    0.1737   -0.0000   -0.0000    0.3818   -0.0000    0.0000    0.0000    0.8718
       73 O3     4pz       -0.0070    0.0000    0.0285   -0.0000   -0.0000    0.2063   -0.0000    0.0000    0.0000    0.3497
       74 O3     3d2-      -0.0000   -0.0047    0.0000   -0.0083   -0.0134   -0.0000   -0.0018   -0.0081    0.0162   -0.0000
       75 O3     4d2-      -0.0000   -0.0004    0.0000   -0.0034   -0.0094    0.0000    0.0037   -0.0054    0.0172   -0.0000
       76 O3     3d1-       0.0253   -0.0000   -0.0155   -0.0000    0.0000   -0.0073    0.0000   -0.0000    0.0000    0.0127
       77 O3     4d1-       0.0056   -0.0000   -0.0021   -0.0000    0.0000    0.0011   -0.0000    0.0000    0.0000    0.0158
       78 O3     3d0       -0.0000    0.0015    0.0000   -0.0107   -0.0522    0.0000    0.0111   -0.0579    0.0027    0.0000
       79 O3     4d0       -0.0000    0.0001    0.0000   -0.0066   -0.0327    0.0000    0.0071   -0.0410    0.0030   -0.0000
       80 O3     3d1+      -0.0012    0.0000    0.0014    0.0000   -0.0000    0.0011   -0.0000   -0.0000   -0.0000   -0.0033
       81 O3     4d1+      -0.0002   -0.0000    0.0001    0.0000   -0.0000    0.0003   -0.0000   -0.0000   -0.0000   -0.0026
       82 O3     3d2+      -0.0000    0.0039   -0.0000   -0.0163   -0.0872    0.0000    0.0213   -0.1052   -0.0017    0.0000
       83 O3     4d2+       0.0000    0.0001   -0.0000   -0.0101   -0.0539    0.0000    0.0131   -0.0745    0.0003   -0.0000
       84 O3     4f3-       0.0000    0.0010   -0.0000   -0.0050   -0.0063    0.0000    0.0012   -0.0129   -0.0007   -0.0000
       85 O3     4f2-      -0.0005   -0.0000    0.0002   -0.0000   -0.0000   -0.0003    0.0000    0.0000   -0.0000   -0.0017
       86 O3     4f1-       0.0000    0.0005   -0.0000   -0.0020   -0.0048    0.0000    0.0014   -0.0108    0.0015   -0.0000
       87 O3     4f0       -0.0020    0.0000    0.0015    0.0000   -0.0000   -0.0018    0.0000   -0.0000   -0.0000   -0.0064
       88 O3     4f1+      -0.0000    0.0014   -0.0000    0.0003    0.0001   -0.0000   -0.0011    0.0006   -0.0029    0.0000
       89 O3     4f2+      -0.0059   -0.0000   -0.0003    0.0000   -0.0000   -0.0017    0.0000   -0.0000   -0.0000   -0.0073
       90 O3     4f3+       0.0000   -0.0012   -0.0000    0.0012    0.0006   -0.0000   -0.0031    0.0024   -0.0095    0.0000
 
          Orbital           21    
          Energy            0.4609
          Occ. No.          0.0000
 
        1 O1     1s        -0.0700
        2 O1     2s        -0.4119
        3 O1     3s         0.1448
        4 O1     4s         0.1306
        5 O1     2px        0.0388
        6 O1     3px        0.0745
        7 O1     4px        0.0128
        8 O1     2py        0.0296
        9 O1     3py        0.4486
       10 O1     4py        0.0737
       11 O1     2pz       -0.0000
       12 O1     3pz       -0.0000
       13 O1     4pz       -0.0000
       14 O1     3d2-      -0.0229
       15 O1     4d2-      -0.0139
       16 O1     3d1-      -0.0000
       17 O1     4d1-       0.0000
       18 O1     3d0        0.0716
       19 O1     4d0        0.0412
       20 O1     3d1+      -0.0000
       21 O1     4d1+       0.0000
       22 O1     3d2+       0.1085
       23 O1     4d2+       0.0604
       24 O1     4f3-      -0.0030
       25 O1     4f2-       0.0000
       26 O1     4f1-      -0.0036
       27 O1     4f0       -0.0000
       28 O1     4f1+      -0.0004
       29 O1     4f2+       0.0000
       30 O1     4f3+      -0.0013
       31 O2     1s         0.0971
       32 O2     2s         0.6093
       33 O2     3s         0.9887
       34 O2     4s         0.3012
       35 O2     2px       -0.0362
       36 O2     3px       -0.0864
       37 O2     4px       -0.0389
       38 O2     2py        0.0000
       39 O2     3py        0.0000
       40 O2     4py        0.0000
       41 O2     2pz        0.0000
       42 O2     3pz        0.0000
       43 O2     4pz        0.0000
       44 O2     3d2-      -0.0000
       45 O2     4d2-      -0.0000
       46 O2     3d1-      -0.0000
       47 O2     4d1-      -0.0000
       48 O2     3d0       -0.0366
       49 O2     4d0       -0.0146
       50 O2     3d1+      -0.0000
       51 O2     4d1+      -0.0000
       52 O2     3d2+      -0.0902
       53 O2     4d2+      -0.0436
       54 O2     4f3-      -0.0000
       55 O2     4f2-      -0.0000
       56 O2     4f1-      -0.0000
       57 O2     4f0       -0.0000
       58 O2     4f1+      -0.0007
       59 O2     4f2+      -0.0000
       60 O2     4f3+      -0.0028
       61 O3     1s        -0.0700
       62 O3     2s        -0.4119
       63 O3     3s         0.1448
       64 O3     4s         0.1306
       65 O3     2px        0.0388
       66 O3     3px        0.0745
       67 O3     4px        0.0128
       68 O3     2py       -0.0296
       69 O3     3py       -0.4486
       70 O3     4py       -0.0737
       71 O3     2pz       -0.0000
       72 O3     3pz       -0.0000
       73 O3     4pz       -0.0000
       74 O3     3d2-       0.0229
       75 O3     4d2-       0.0139
       76 O3     3d1-      -0.0000
       77 O3     4d1-      -0.0000
       78 O3     3d0        0.0716
       79 O3     4d0        0.0412
       80 O3     3d1+      -0.0000
       81 O3     4d1+      -0.0000
       82 O3     3d2+       0.1085
       83 O3     4d2+       0.0604
       84 O3     4f3-       0.0030
       85 O3     4f2-      -0.0000
       86 O3     4f1-       0.0036
       87 O3     4f0        0.0000
       88 O3     4f1+      -0.0004
       89 O3     4f2+       0.0000
       90 O3     4f3+      -0.0013
--
 
 
++    Molecular charges:
      ------------------
 
      Mulliken charges per centre and basis function type
      ---------------------------------------------------
 
                O1      O2      O3    
      1s       1.9975  1.9996  1.9975
      2s       1.9619  1.5936  1.9619
      2px      2.0077  1.9514  2.0077
      2pz      1.4472  1.0138  1.4472
      2py      0.7112  1.0592  0.7112
      3s      -0.0100 -0.0400 -0.0100
      3px     -0.0174 -0.0474 -0.0174
      3pz     -0.0065 -0.0146 -0.0065
      3py     -0.0034  0.0051 -0.0034
      4s       0.0029 -0.0018  0.0029
      3d2+     0.0217  0.0169  0.0217
      3d1+     0.0001  0.0004  0.0001
      3d0      0.0060  0.0041  0.0060
      3d1-     0.0144  0.0554  0.0144
      3d2-     0.0113  0.0330  0.0113
      4px      0.0008  0.0008  0.0008
      4pz      0.0011  0.0020  0.0011
      4py      0.0019  0.0058  0.0019
      4d2+     0.0016  0.0008  0.0016
      4d1+     0.0000  0.0001  0.0000
      4d0      0.0003 -0.0005  0.0003
      4d1-     0.0023  0.0140  0.0023
      4d2-     0.0010  0.0056  0.0010
      4f3+     0.0025  0.0043  0.0025
      4f2+     0.0020  0.0045  0.0020
      4f1+     0.0002  0.0004  0.0002
      4f0      0.0008  0.0015  0.0008
      4f1-     0.0013  0.0013  0.0013
      4f2-     0.0000  0.0002  0.0000
      4f3-     0.0030  0.0040  0.0030
      Total    8.1634  7.6733  8.1634
 
      N-E     -0.1634  0.3267 -0.1634
 
      Total electronic charge=   24.000000
 
      Total            charge=   -0.000000
--
 
 
  Input file to MOLDEN was generated!
 
 
++    Static properties:
      ------------------
 
 
      LoProp Charges per center
 

                   O1       O2       O3    
      Nuclear      8.0000   8.0000   8.0000
      Electronic  -8.1705  -7.6590  -8.1705
 
      Total       -0.1705   0.3410  -0.1705
--
 
 
++    Natural Bond Order analysis
      ---------------------------
      Based on LoProp computed density
      -------------------------------------------------------------------------------------
      Atom A       Atom B       Bond Order | Atom A       Atom B       Bond Order
        O1           O2             1.995  |   O2           O3             1.995
      -------------------------------------------------------------------------------------
      NBO located     15.999 core electrons.
      NBO located      7.979 electrons involved in    2 bonds.
      The remaining    0.021 electrons are to be considered as diffuse
--
 
 
++    Molecular properties:
      ---------------------
 
      Charge (e):
                      =   -0.0000
      Dipole Moment (Debye):
      Origin of the operator (Ang)=    0.0000    0.0000    0.0000
                   X= -5.6453E-03               Y= -1.2729E-11               Z= -1.1783E-13           Total=  5.6453E-03
      Quadrupole Moment (Debye*Ang):
      Origin of the operator (Ang)=    0.0650    0.0000    0.0000
                  XX= -1.6088E+01              XY= -2.7836E-12              XZ= -1.8280E-13              YY= -1.6796E+01
                  YZ= -3.6950E-13              ZZ= -1.4880E+01
      In traceless form (Debye*Ang)
                  XX= -2.4930E-01              XY= -4.1753E-12              XZ= -2.7420E-13              YY= -1.3122E+00
                  YZ= -5.5425E-13              ZZ=  1.5615E+00
--
 
 
  Input file to MOLDEN was generated!
 
 ###############################################################################
 ###############################################################################
 ###                                                                         ###
 ###                                                                         ###
 ###    RunFile label nBas                                                   ###
 ###    was used       78 times                                              ###
 ###                                                                         ###
 ###                                                                         ###
 ###############################################################################
 ###############################################################################
--- Stop Module: scf at Sun Dec 22 05:30:14 2024 /rc=_RC_ALL_IS_WELL_ ---
*** files: ozone_171.25.LprOrb ozone_171.25.LoProp.molden ozone_171.25.scf.molden ozone_171.25.ScfOrb ozone_171.25.scf.h5 xmldump
    saved to directory /home/grierjones/DDCASPT2/ozone/ANO-RCC-VTZP/ozone_171.25
--- Module scf spent 1 second ---

>>> COPY /tmp/ozone_171.25/ozone_171.25.scf.h5 /home/grierjones/DDCASPT2/ozone/ANO-RCC-VTZP/ozone_171.25/

*** symbolic link created: INPORB -> ozone_171.25.ScfOrb
--- Start Module: rasscf at Sun Dec 22 05:30:14 2024 ---
 
()()()()()()()()()()()()()()()()()()()()()()()()()()()()()()()()()()()()()()()()()()()()()()()()()()

                                              &RASSCF

                                   only a single process is used
                       available to each process: 2.0 GB of memory, 1 thread?
()()()()()()()()()()()()()()()()()()()()()()()()()()()()()()()()()()()()()()()()()()()()()()()()()()
 
 
 *************** WARNING ****************
 ###############################################################################
 ###############################################################################
 ###                                                                         ###
 ###                                                                         ###
 ###    Too many macro-iterations.                                           ###
 ###                                                                         ###
 ###                                                                         ###
 ###############################################################################
 ###############################################################################
 Too many macro-iterations requested.
 Reset to maximum, new MAXIT=     200
 ****************************************
 
 *************** WARNING ****************
 ###############################################################################
 ###############################################################################
 ###                                                                         ###
 ###                                                                         ###
 ###    Too many SX-iterations.                                              ###
 ###                                                                         ###
 ###                                                                         ###
 ###############################################################################
 ###############################################################################
 Too many SX-iterations requested.
 Reset to maximum, new ITMAX=     100
 ****************************************
 
      Header of the ONEINT file:
      --------------------------
      
      Integrals generated by seward 4.2.0  , Sun Dec 22 05:30:10 2024
 
 
      OrdInt status: non-squared
 
 
      Cartesian coordinates in Angstrom:
      -----------------------------------------------------
      No.  Label        X            Y            Z        
      -----------------------------------------------------
       1   O1         0.09749100   1.27427600   0.00000000
       2   O2         0.00000000   0.00000000   0.00000000
       3   O3         0.09749100  -1.27427600   0.00000000
      -----------------------------------------------------
      Nuclear repulsion energy =   66.28939371
 
++    Wave function specifications:
      -----------------------------
 
      Number of closed shell electrons          20
      Number of electrons in active shells       4
      Max number of holes in RAS1 space          0
      Max nr of electrons in RAS3 space          0
      Number of inactive orbitals               10
      Number of active orbitals                  3
      Number of secondary orbitals              77
      Spin quantum number                      0.0
      State symmetry                             1
--
 
++    Orbital specifications:
      -----------------------
 
      Symmetry species                           1
                                                 a
      Frozen orbitals                            0
      Inactive orbitals                         10
      Active orbitals                            3
      RAS1 orbitals                              0
      RAS2 orbitals                              3
      RAS3 orbitals                              0
      Secondary orbitals                        77
      Deleted orbitals                           0
      Number of basis functions                 90
--
 
++    CI expansion specifications:
      ----------------------------
 
      Number of CSFs                             6
      Number of determinants                     6
      Number of root(s) required                 1
      Root chosen for geometry opt.              1
      CI root used                               1
         
      highest root included in the CI            1
      max. size of the explicit Hamiltonian      6
--
 
++    Optimization specifications:
      ----------------------------
 
      RASSCF algorithm: Conventional
      Maximum number of macro iterations       200
      Maximum number of SX iterations          100
      Threshold for RASSCF energy            0.100E-07
      Threshold for max MO rotation          0.100E+00
      Threshold for max BLB element          0.100E-03
      Level shift parameter                  0.500E+00
      Make Quasi-Newton update
--
 
      The MO-coefficients are taken from the file:
      /home/grierjones/DDCASPT2/ozone/ANO-RCC-VTZP/ozone_171.00/ozone_171.00.RasOrb                                                   
      Title: RASSCF average (pseudo-natural) orbitals                                      
 
      Total molecular charge    0.00
 
      ************************************************************************************************************************
      *                                                                                                                      *
      *                                            Wave function control section                                             *
      *                                                                                                                      *
      ************************************************************************************************************************
 
 
                                         RASSCF iterations: Energy and convergence statistics
                                         ----------------------------------------------------
 
      Iter CI   SX   CI       RASSCF       Energy    max ROT     max BLB   max BLB  Level Ln srch  Step   QN   Walltime
          iter iter root      energy       change     param      element    value   shift minimum  type update hh:mm:ss
 Nr of preliminary CI iterations:   1
        1   1    3    1  -224.47865915    0.00E+00   0.68E-03    7  14 1 -0.15E-02*  0.18   0.00    SX    NO    0:00:00
        2   1    3    1  -224.47866612   -0.70E-05* -0.43E-03    7  14 1 -0.92E-03*  0.18   0.00    SX    NO    0:00:00
        3   1    3    1  -224.47866796   -0.18E-05* -0.32E-03    7  14 1 -0.55E-03*  0.18   0.00    SX    NO    0:00:00
        4   1    3    1  -224.47866863   -0.68E-06* -0.23E-03   10  14 1  0.35E-03*  0.18   0.00    SX    NO    0:00:00
        5   1    3    1  -224.47866891   -0.28E-06* -0.35E-03   10  14 1  0.28E-03*  0.18   2.50    LS   YES    0:00:00
        6   1    3    1  -224.47866912   -0.21E-06* -0.24E-03   10  14 1  0.15E-03*  0.18   1.35    QN   YES    0:00:00
        7   1    3    1  -224.47866921   -0.83E-07* -0.18E-03    7  14 1  0.98E-04   0.18   1.18    QN   YES    0:00:00
        8   1    3    1  -224.47866925   -0.40E-07* -0.22E-03    7  14 1  0.71E-04   0.18   1.55    QN   YES    0:00:00
        9   1    3    1  -224.47866926   -0.18E-07*  0.97E-04    8  25 1 -0.56E-04   0.18   0.74    QN   YES    0:00:00
       10   1    2    1  -224.47866927   -0.25E-08  -0.17E-04    8  25 1  0.43E-04   0.18   0.57    QN   YES    0:00:00
      Convergence after 10 iterations
 
  Dmat in MO in SXCTL bf call to SXHAM                                                                                    
  mat. size =     3x    3
 
        1.9837268645872410
        0.0000000000003044      1.7825123538737147
       -0.0009751978960200     -0.0000000000003316      0.2337607815390416
       11   1    2    1  -224.47866927   -0.79E-09  -0.17E-04    8  25 1 -0.44E-05   0.18   0.57    QN   YES    0:00:00
 
      ************************************************************************************************************************
                                                      Wave function printout:
                       occupation of active orbitals, and spin coupling of open shells (u,d: Spin up or down)
      ************************************************************************************************************************
 
      Note: transformation to natural orbitals
      has been made, which may change the order of the CSFs.
 
      printout of CI-coefficients larger than  0.05 for root  1
      energy=    -224.478669
      conf/sym  111     Coeff  Weight
             1  220  -0.93974 0.88312
             3  202   0.32976 0.10874
             6  022   0.09020 0.00814
 
      Natural orbitals and occupation numbers for root  1
      sym 1:   1.983727   1.782512   0.233760
 
      ************************************************************************************************************************
      *                                                                                                                      *
      *                                                    Final results                                                     *
      *                                                                                                                      *
      ************************************************************************************************************************
 
 
++    Wave function specifications:
      -----------------------------
 
      Number of closed shell electrons          20
      Number of electrons in active shells       4
      Max number of holes in RAS1 space          0
      Max nr of electrons in RAS3 space          0
      Number of inactive orbitals               10
      Number of active orbitals                  3
      Number of secondary orbitals              77
      Spin quantum number                      0.0
      State symmetry                             1
--
 
++    Orbital specifications:
      -----------------------
 
      Symmetry species                           1
                                                 a
      Frozen orbitals                            0
      Inactive orbitals                         10
      Active orbitals                            3
      RAS1 orbitals                              0
      RAS2 orbitals                              3
      RAS3 orbitals                              0
      Secondary orbitals                        77
      Deleted orbitals                           0
      Number of basis functions                 90
--
 
++    CI expansion specifications:
      ----------------------------
 
      Number of CSFs                             6
      Number of determinants                     6
      Number of root(s) required                 1
      CI root used                               1
      highest root included in the CI            1
      Root passed to geometry opt.               1
--
 
++    Final optimization conditions:
      ------------------------------
 
      Average CI energy                            -224.47866927
      RASSCF energy for state  1                   -224.47866927
      Super-CI energy                                -0.00000000
      RASSCF energy change                           -0.00000000
      Max change in MO coefficients              -0.197E-04
      Max non-diagonal density matrix element    -0.174E-04
      Maximum BLB matrix element                 -0.438E-05
      (orbital pair   8,  25 in symmetry   1)
      Norm of electronic gradient            0.130E-04
--
 
 
      Final state energy(ies):
      ------------------------
 
::    RASSCF root number  1 Total energy:   -224.47866927
 
++    Molecular orbitals:
      -------------------
 
      Pseudonatural active orbitals and approximate occupation numbers
 
 
 
 
      Molecular orbitals for symmetry species 1: a  
 
 
      Orbital                1         2         3         4         5         6         7         8         9        10
      Energy          -20.7695  -20.7440  -20.7440   -1.6681   -1.4481   -1.0468   -0.8019   -0.7687   -0.6212   -0.4486
      Occ. No.          2.0000    2.0000    2.0000    2.0000    2.0000    2.0000    2.0000    2.0000    2.0000    2.0000
 
    1 O1     1s         0.0106   -0.7062    0.7062   -0.0126    0.0115    0.0156   -0.0018    0.0248    0.0042   -0.0006
    2 O1     2s         0.0010    0.0062   -0.0060    0.3676   -0.5742    0.6454   -0.0381    0.4196    0.0505   -0.0160
    3 O1     3s         0.0005    0.0044   -0.0041   -0.0116    0.0212    0.0243   -0.0018    0.0530    0.0080    0.0041
    4 O1     4s         0.0001    0.0009   -0.0008   -0.0008    0.0040    0.0041   -0.0005    0.0112    0.0018    0.0021
    5 O1     2px       -0.0001   -0.0003    0.0002   -0.0070    0.0107    0.0238    0.3960    0.1078   -0.6938    0.6412
    6 O1     3px       -0.0002   -0.0002    0.0001    0.0040   -0.0018   -0.0044   -0.0273   -0.0077    0.0124    0.0492
    7 O1     4px       -0.0002    0.0000   -0.0001    0.0008    0.0004   -0.0000   -0.0016   -0.0003    0.0056    0.0027
    8 O1     2py       -0.0007   -0.0027    0.0031   -0.1155    0.0834    0.1976   -0.0617    0.4213    0.0985    0.0657
    9 O1     3py       -0.0003   -0.0026    0.0030    0.0126   -0.0195   -0.0297    0.0041   -0.0463   -0.0029   -0.0037
   10 O1     4py        0.0002    0.0017   -0.0017    0.0008   -0.0032    0.0002    0.0014   -0.0050   -0.0012   -0.0023
   11 O1     2pz        0.0000   -0.0000    0.0000    0.0000    0.0000   -0.0000   -0.0000   -0.0000    0.0000   -0.0000
   12 O1     3pz       -0.0000   -0.0000   -0.0000    0.0000    0.0000   -0.0000   -0.0000   -0.0000   -0.0000   -0.0000
   13 O1     4pz        0.0000   -0.0000   -0.0000    0.0000   -0.0000    0.0000   -0.0000   -0.0000   -0.0000    0.0000
   14 O1     3d2-      -0.0000    0.0001   -0.0002    0.0018   -0.0019   -0.0022   -0.0211   -0.0044    0.0117    0.0091
   15 O1     4d2-      -0.0000    0.0001   -0.0001   -0.0001   -0.0001    0.0000   -0.0017    0.0000    0.0002    0.0017
   16 O1     3d1-       0.0000    0.0000   -0.0000    0.0000    0.0000    0.0000    0.0000    0.0000    0.0000    0.0000
   17 O1     4d1-       0.0000    0.0000    0.0000    0.0000    0.0000    0.0000    0.0000    0.0000    0.0000   -0.0000
   18 O1     3d0       -0.0001   -0.0006    0.0006   -0.0108    0.0085    0.0077   -0.0024    0.0155    0.0032    0.0015
   19 O1     4d0       -0.0000   -0.0004    0.0005   -0.0012    0.0008    0.0003   -0.0005    0.0009    0.0006    0.0001
   20 O1     3d1+       0.0000    0.0000   -0.0000    0.0000    0.0000    0.0000   -0.0000   -0.0000   -0.0000   -0.0000
   21 O1     4d1+      -0.0000   -0.0000    0.0000   -0.0000    0.0000   -0.0000    0.0000   -0.0000   -0.0000    0.0000
   22 O1     3d2+      -0.0002   -0.0013    0.0014   -0.0200    0.0141    0.0177   -0.0059    0.0295    0.0061    0.0047
   23 O1     4d2+      -0.0001   -0.0006    0.0007   -0.0028    0.0016    0.0018   -0.0006    0.0023    0.0007    0.0002
   24 O1     4f3-       0.0001    0.0002   -0.0002    0.0058   -0.0049   -0.0034    0.0016   -0.0068   -0.0018   -0.0013
   25 O1     4f2-       0.0000   -0.0000    0.0000    0.0000   -0.0000   -0.0000    0.0000   -0.0000    0.0000   -0.0000
   26 O1     4f1-       0.0000    0.0002   -0.0002    0.0034   -0.0029   -0.0019    0.0005   -0.0037   -0.0007   -0.0004
   27 O1     4f0        0.0000    0.0000   -0.0000    0.0000    0.0000    0.0000    0.0000   -0.0000    0.0000   -0.0000
   28 O1     4f1+      -0.0000    0.0000   -0.0000    0.0002   -0.0001   -0.0001   -0.0003   -0.0001   -0.0009    0.0018
   29 O1     4f2+       0.0000    0.0000   -0.0000   -0.0000    0.0000   -0.0000    0.0000   -0.0000   -0.0000    0.0000
   30 O1     4f3+      -0.0000    0.0000   -0.0000    0.0010   -0.0008   -0.0008   -0.0073   -0.0017    0.0058   -0.0002
   31 O2     1s         0.9996    0.0000   -0.0129   -0.0292   -0.0000   -0.0125   -0.0018    0.0000   -0.0000    0.0123
   32 O2     2s        -0.0015   -0.0000    0.0124    0.6003    0.0000   -0.6332   -0.0221    0.0000   -0.0000    0.1462
   33 O2     3s        -0.0019   -0.0000    0.0070   -0.0585   -0.0000   -0.0297   -0.0021    0.0000   -0.0000    0.0347
   34 O2     4s        -0.0001   -0.0000    0.0011   -0.0120   -0.0000   -0.0045   -0.0013    0.0000   -0.0000    0.0082
   35 O2     2px        0.0003   -0.0000    0.0007    0.0227    0.0000    0.0349    0.6744    0.0000    0.0000   -0.7941
   36 O2     3px       -0.0001   -0.0000    0.0004   -0.0097    0.0000   -0.0033   -0.0635   -0.0000    0.0000   -0.0647
   37 O2     4px        0.0007    0.0000   -0.0002   -0.0026   -0.0000    0.0012   -0.0116   -0.0000    0.0000   -0.0034
   38 O2     2py        0.0000   -0.0077   -0.0000    0.0000   -0.3111   -0.0000   -0.0000   -0.5447   -0.0772    0.0000
   39 O2     3py        0.0000   -0.0053   -0.0000   -0.0000    0.0607   -0.0000   -0.0000    0.0446   -0.0029    0.0000
   40 O2     4py       -0.0000    0.0013    0.0000   -0.0000    0.0008    0.0000    0.0000    0.0123    0.0011   -0.0000
   41 O2     2pz        0.0000    0.0000    0.0000    0.0000    0.0000   -0.0000   -0.0000    0.0000    0.0000    0.0000
   42 O2     3pz        0.0000    0.0000    0.0000    0.0000   -0.0000    0.0000    0.0000    0.0000    0.0000   -0.0000
   43 O2     4pz       -0.0000    0.0000    0.0000    0.0000    0.0000   -0.0000    0.0000    0.0000    0.0000   -0.0000
   44 O2     3d2-       0.0000   -0.0004   -0.0000    0.0000   -0.0099   -0.0000    0.0000   -0.0077   -0.0374   -0.0000
   45 O2     4d2-       0.0000   -0.0002   -0.0000    0.0000   -0.0011   -0.0000    0.0000   -0.0009   -0.0050    0.0000
   46 O2     3d1-       0.0000    0.0000    0.0000    0.0000    0.0000    0.0000    0.0000    0.0000   -0.0000    0.0000
   47 O2     4d1-       0.0000    0.0000    0.0000    0.0000   -0.0000    0.0000    0.0000    0.0000   -0.0000    0.0000
   48 O2     3d0        0.0000    0.0000   -0.0012   -0.0141   -0.0000    0.0016   -0.0057   -0.0000    0.0000    0.0097
   49 O2     4d0        0.0002    0.0000   -0.0006    0.0003   -0.0000    0.0011   -0.0008   -0.0000    0.0000    0.0012
   50 O2     3d1+       0.0000    0.0000    0.0000   -0.0000    0.0000   -0.0000   -0.0000   -0.0000    0.0000   -0.0000
   51 O2     4d1+      -0.0000   -0.0000    0.0000   -0.0000   -0.0000   -0.0000    0.0000    0.0000    0.0000    0.0000
   52 O2     3d2+       0.0006    0.0000   -0.0020   -0.0264   -0.0000   -0.0005    0.0050   -0.0000    0.0000    0.0105
   53 O2     4d2+       0.0002    0.0000   -0.0010   -0.0012    0.0000    0.0012    0.0001   -0.0000    0.0000    0.0015
   54 O2     4f3-      -0.0000    0.0002    0.0000    0.0000    0.0104    0.0000   -0.0000    0.0100   -0.0014   -0.0000
   55 O2     4f2-      -0.0000    0.0000   -0.0000    0.0000    0.0000    0.0000    0.0000   -0.0000    0.0000    0.0000
   56 O2     4f1-      -0.0000    0.0001    0.0000    0.0000    0.0061    0.0000   -0.0000    0.0057    0.0007   -0.0000
   57 O2     4f0        0.0000    0.0000    0.0000    0.0000   -0.0000   -0.0000    0.0000    0.0000   -0.0000   -0.0000
   58 O2     4f1+       0.0000    0.0000   -0.0000   -0.0006   -0.0000    0.0001   -0.0007   -0.0000   -0.0000   -0.0015
   59 O2     4f2+      -0.0000   -0.0000    0.0000    0.0000    0.0000   -0.0000    0.0000   -0.0000    0.0000   -0.0000
   60 O2     4f3+       0.0001    0.0000   -0.0001   -0.0031   -0.0000   -0.0001   -0.0126    0.0000    0.0000    0.0026
   61 O3     1s         0.0106    0.7062    0.7062   -0.0126   -0.0115    0.0156   -0.0018   -0.0248   -0.0042   -0.0006
   62 O3     2s         0.0010   -0.0062   -0.0060    0.3676    0.5742    0.6454   -0.0381   -0.4196   -0.0505   -0.0160
   63 O3     3s         0.0005   -0.0044   -0.0041   -0.0116   -0.0212    0.0243   -0.0018   -0.0530   -0.0080    0.0041
   64 O3     4s         0.0001   -0.0009   -0.0008   -0.0008   -0.0040    0.0041   -0.0005   -0.0112   -0.0018    0.0021
   65 O3     2px       -0.0001    0.0003    0.0002   -0.0070   -0.0107    0.0238    0.3960   -0.1078    0.6938    0.6412
   66 O3     3px       -0.0002    0.0002    0.0001    0.0040    0.0018   -0.0044   -0.0273    0.0077   -0.0124    0.0492
   67 O3     4px       -0.0002   -0.0000   -0.0001    0.0008   -0.0004   -0.0000   -0.0016    0.0003   -0.0056    0.0027
   68 O3     2py        0.0007   -0.0027   -0.0031    0.1155    0.0834   -0.1976    0.0617    0.4213    0.0985   -0.0657
   69 O3     3py        0.0003   -0.0026   -0.0030   -0.0126   -0.0195    0.0297   -0.0041   -0.0463   -0.0029    0.0037
   70 O3     4py       -0.0002    0.0017    0.0017   -0.0008   -0.0032   -0.0002   -0.0014   -0.0050   -0.0012    0.0023
   71 O3     2pz        0.0000    0.0000    0.0000    0.0000    0.0000   -0.0000   -0.0000    0.0000   -0.0000   -0.0000
   72 O3     3pz        0.0000    0.0000   -0.0000   -0.0000    0.0000    0.0000   -0.0000    0.0000   -0.0000   -0.0000
   73 O3     4pz        0.0000   -0.0000   -0.0000   -0.0000   -0.0000   -0.0000   -0.0000    0.0000    0.0000    0.0000
   74 O3     3d2-       0.0000    0.0001    0.0002   -0.0018   -0.0019    0.0022    0.0211   -0.0044    0.0117   -0.0091
   75 O3     4d2-       0.0000    0.0001    0.0001    0.0001   -0.0001   -0.0000    0.0017    0.0000    0.0002   -0.0017
   76 O3     3d1-       0.0000    0.0000    0.0000    0.0000   -0.0000   -0.0000    0.0000   -0.0000   -0.0000    0.0000
   77 O3     4d1-       0.0000    0.0000   -0.0000    0.0000    0.0000   -0.0000   -0.0000    0.0000   -0.0000    0.0000
   78 O3     3d0       -0.0001    0.0006    0.0006   -0.0108   -0.0085    0.0077   -0.0024   -0.0155   -0.0032    0.0015
   79 O3     4d0       -0.0000    0.0004    0.0005   -0.0012   -0.0008    0.0003   -0.0005   -0.0009   -0.0006    0.0001
   80 O3     3d1+      -0.0000   -0.0000    0.0000   -0.0000    0.0000    0.0000   -0.0000   -0.0000   -0.0000   -0.0000
   81 O3     4d1+      -0.0000    0.0000   -0.0000    0.0000   -0.0000   -0.0000    0.0000   -0.0000    0.0000   -0.0000
   82 O3     3d2+      -0.0002    0.0013    0.0014   -0.0200   -0.0141    0.0177   -0.0059   -0.0295   -0.0061    0.0047
   83 O3     4d2+      -0.0001    0.0006    0.0007   -0.0028   -0.0016    0.0018   -0.0006   -0.0023   -0.0007    0.0002
   84 O3     4f3-      -0.0001    0.0002    0.0002   -0.0058   -0.0049    0.0034   -0.0016   -0.0068   -0.0018    0.0013
   85 O3     4f2-      -0.0000    0.0000    0.0000   -0.0000    0.0000   -0.0000    0.0000   -0.0000    0.0000   -0.0000
   86 O3     4f1-      -0.0000    0.0002    0.0002   -0.0034   -0.0029    0.0019   -0.0005   -0.0037   -0.0007    0.0004
   87 O3     4f0       -0.0000   -0.0000   -0.0000    0.0000    0.0000   -0.0000    0.0000   -0.0000    0.0000   -0.0000
   88 O3     4f1+      -0.0000   -0.0000   -0.0000    0.0002    0.0001   -0.0001   -0.0003    0.0001    0.0009    0.0018
   89 O3     4f2+      -0.0000   -0.0000    0.0000   -0.0000    0.0000   -0.0000    0.0000   -0.0000   -0.0000    0.0000
   90 O3     4f3+      -0.0000   -0.0000   -0.0000    0.0010    0.0008   -0.0008   -0.0073    0.0017   -0.0058   -0.0002
 
 
      Orbital               11        12        13        14        15        16        17        18        19        20
      Energy            0.0000    0.0000    0.0000    0.1268    0.1662    0.2280    0.2389    0.2749    0.3659    0.3659
      Occ. No.          1.9837    1.7825    0.2338    0.0000    0.0000    0.0000    0.0000    0.0000    0.0000    0.0000
 
    1 O1     1s        -0.0000   -0.0000   -0.0000   -0.0585   -0.2264   -0.0000   -0.0197    0.1024    0.0000   -0.0036
    2 O1     2s        -0.0000   -0.0000   -0.0000   -0.5524   -1.6434   -0.0000   -0.1325    0.6971    0.0000   -0.0117
    3 O1     3s        -0.0000   -0.0000   -0.0000   -0.1260   -0.9912   -0.0000   -0.0869    0.5885   -0.0000   -0.0003
    4 O1     4s        -0.0000   -0.0000   -0.0000   -0.0061   -0.2260    0.0000   -0.0184    0.1478   -0.0000    0.0014
    5 O1     2px       -0.0000   -0.0000    0.0000   -0.0334    0.0748    0.0000   -0.0348   -0.0570    0.0000   -0.1716
    6 O1     3px        0.0000    0.0000    0.0000   -0.0095    0.0878    0.0000    0.4294    0.0128    0.0000   -0.8698
    7 O1     4px        0.0000    0.0000    0.0000   -0.0039    0.0140    0.0000    0.2118    0.0226    0.0000   -0.3431
    8 O1     2py        0.0000    0.0000    0.0000    0.8974    0.6472    0.0000    0.0729   -0.5101    0.0000   -0.0370
    9 O1     3py        0.0000    0.0000   -0.0000    0.3555    0.8154    0.0000    0.1028   -1.0731    0.0000   -0.0228
   10 O1     4py       -0.0000   -0.0000   -0.0000    0.0348    0.1047    0.0000    0.0084   -0.2402    0.0000   -0.0022
   11 O1     2pz       -0.3427   -0.6975    0.6475    0.0000    0.0000    0.0456   -0.0000   -0.0000   -0.1661   -0.0000
   12 O1     3pz        0.0213    0.0006   -0.0763   -0.0000    0.0000    0.4490   -0.0000    0.0000   -0.8722   -0.0000
   13 O1     4pz        0.0055    0.0078    0.0054   -0.0000    0.0000    0.2179   -0.0000    0.0000   -0.3492   -0.0000
   14 O1     3d2-      -0.0000   -0.0000   -0.0000   -0.0088   -0.0136   -0.0000    0.0010    0.0088   -0.0000    0.0160
   15 O1     4d2-      -0.0000   -0.0000    0.0000   -0.0036   -0.0096   -0.0000   -0.0045    0.0060   -0.0000    0.0168
   16 O1     3d1-       0.0308    0.0197    0.0152    0.0000   -0.0000    0.0075   -0.0000   -0.0000    0.0140    0.0000
   17 O1     4d1-       0.0050    0.0033    0.0055    0.0000    0.0000   -0.0022   -0.0000   -0.0000    0.0158    0.0000
   18 O1     3d0       -0.0000    0.0000    0.0000    0.0105    0.0522    0.0000    0.0098   -0.0609    0.0000   -0.0030
   19 O1     4d0       -0.0000    0.0000    0.0000    0.0069    0.0329    0.0000    0.0061   -0.0426    0.0000   -0.0029
   20 O1     3d1+       0.0015    0.0006    0.0012   -0.0000    0.0000    0.0015   -0.0000   -0.0000    0.0032    0.0000
   21 O1     4d1+       0.0001   -0.0000    0.0001   -0.0000   -0.0000    0.0005   -0.0000    0.0000    0.0024    0.0000
   22 O1     3d2+       0.0000    0.0000    0.0000    0.0150    0.0876    0.0000    0.0191   -0.1098   -0.0000    0.0010
   23 O1     4d2+       0.0000    0.0000    0.0000    0.0098    0.0542    0.0000    0.0114   -0.0770    0.0000   -0.0004
   24 O1     4f3-      -0.0000   -0.0000   -0.0000   -0.0047   -0.0064   -0.0000   -0.0008    0.0133    0.0000   -0.0010
   25 O1     4f2-      -0.0005   -0.0003   -0.0003   -0.0000   -0.0000    0.0003    0.0000   -0.0000   -0.0018   -0.0000
   26 O1     4f1-       0.0000    0.0000   -0.0000   -0.0017   -0.0049    0.0000   -0.0012    0.0112   -0.0000    0.0013
   27 O1     4f0        0.0035    0.0002    0.0115   -0.0000    0.0000   -0.0021    0.0000    0.0000    0.0068    0.0000
   28 O1     4f1+      -0.0000    0.0000    0.0000   -0.0003   -0.0001   -0.0000   -0.0013    0.0006   -0.0000    0.0031
[...]
 
 
      Header of MO coefficients source file:
      * RASSCF average (pseudo-natural) orbitals                                      
 
 
      Cartesian coordinates in Angstrom:
      -----------------------------------------------------
      No.  Label        X            Y            Z        
      -----------------------------------------------------
       1   O1         0.09749100   1.27427600   0.00000000
       2   O2         0.00000000   0.00000000   0.00000000
       3   O3         0.09749100  -1.27427600   0.00000000
      -----------------------------------------------------
      Nuclear repulsion energy =   66.28939371
 
      Orbital specifications:
      -----------------------
 
      Symmetry species:              1
      Number of basis functions:    90
      Frozen orbitals:               0
      Deleted orbitals:              0
      Number of orbitals used:      90

       SYMMETRY  BASIS FUNCTIONS       ORBITALS      INTEGRALS   CPU(SEC)  I/O(SEC)
 
        1 1 1 1   90  90  90  90    90  90  90  90     8386560       0.00      0.00

       TOTAL CPU TIME(SEC)    4.55TOTAL I/O TIME(SEC)   11.52
 
--- Stop Module: motra at Sun Dec 22 05:30:27 2024 /rc=_RC_ALL_IS_WELL_ ---
*** files: xmldump
    saved to directory /home/grierjones/DDCASPT2/ozone/ANO-RCC-VTZP/ozone_171.25
--- Module motra spent 11 seconds ---

>>> COPY /tmp/ozone_171.25/GMJ_one_int_indx.csv /home/grierjones/DDCASPT2/ozone/ANO-RCC-VTZP/ozone_171.25/ozone_171.25.GMJ_one_int_indx.csv

>>> COPY /tmp/ozone_171.25/GMJ_one_int.csv /home/grierjones/DDCASPT2/ozone/ANO-RCC-VTZP/ozone_171.25/ozone_171.25.GMJ_one_int.csv

>>> COPY /tmp/ozone_171.25/GMJ_two_int_indx.csv /home/grierjones/DDCASPT2/ozone/ANO-RCC-VTZP/ozone_171.25/ozone_171.25.GMJ_two_int_indx.csv

>>> COPY /tmp/ozone_171.25/GMJ_two_int.csv /home/grierjones/DDCASPT2/ozone/ANO-RCC-VTZP/ozone_171.25/ozone_171.25.GMJ_two_int.csv

*** symbolic link created: INPORB -> ozone_171.25.RasOrb
--- Start Module: caspt2 at Sun Dec 22 05:30:27 2024 ---
 
()()()()()()()()()()()()()()()()()()()()()()()()()()()()()()()()()()()()()()()()()()()()()()()()()()

                                              &CASPT2

                                   only a single process is used
                       available to each process: 2.0 GB of memory, 1 thread?
()()()()()()()()()()()()()()()()()()()()()()()()()()()()()()()()()()()()()()()()()()()()()()()()()()
 
 Cholesky algorithm in CASPT2 =    1
 
 ###############################################################################
 ###############################################################################
 ###                                                                         ###
 ###                                                                         ###
 ###    User changed nr of frozen orbitals.                                  ###
 ###                                                                         ###
 ###                                                                         ###
 ###############################################################################
 ###############################################################################
 
++    Wave function specifications:
      -----------------------------
 
      Number of closed shell electrons          20
      Number of electrons in active shells       4
      Max number of holes in RAS1 space          0
      Max number of electrons in RAS3 space      0
      Number of inactive orbitals               10
      Number of active orbitals                  3
      Number of secondary orbitals              77
      Spin quantum number                      0.0
      State symmetry                             1
      Number of CSFs                             6
      Number of root(s) available                1
      Root passed to geometry opt.               1
      A file JOBMIX will be created.
      This is a CASSCF or RASSCF reference function
--
 
++    Orbital specifications:
      -----------------------
 
      Symmetry species                           1
                                                 a
      Frozen orbitals                            0
      Inactive orbitals                         10
      Active orbitals                            3
      Secondary orbitals                        77
      Deleted orbitals                           0
      Number of basis functions                 90
--
 
      Type of Fock operator: STANDARD
      Type of 0-order Hamiltonian: STANDARD WITH DEFAULT IPEA
        "IP-EA" denominator shift =      0.25
      The input orbitals and the CI vector will be transformed.
 
--------------------------------------------------------------------------------
 Estimated memory requirements:
  POLY3 :                   250202
  RHS:                      446386
  SIGMA :                   610360
  PRPCTL:                        0
 Available workspace:    230385072
 
++ CASPT2 computation for group   1
 
********************************************************************************
 Multi-State initialization phase begins for group   1
--------------------------------------------------------------------------------
********************************************************************************
 Compute H0 matrices for state    1
--------------------------------------------------------------------------------
--------------------------------------------------------------------------------
 H0 matrices have been computed.
 
********************************************************************************
  CASPT2 EQUATION SOLUTION
--------------------------------------------------------------------------------
 
  Total nr of CASPT2 parameters:
   Before reduction:      541275
   After  reduction:      532232
 
 The contributions to the second order correlation energy in atomic units.
-----------------------------------------------------------------------------------------------------------------------------
  IT.      VJTU        VJTI        ATVX        AIVX        VJAI        BVAT        BJAT        BJAI        TOTAL       RNORM  
-----------------------------------------------------------------------------------------------------------------------------
   1    -0.000000   -0.001589   -0.016049   -0.104034   -0.018526   -0.023601   -0.168929   -0.355991   -0.688720    0.003219
   2    -0.000000   -0.001616   -0.016127   -0.104527   -0.018556   -0.023609   -0.168965   -0.355997   -0.689398    0.000301
   3    -0.000000   -0.001617   -0.016128   -0.104534   -0.018557   -0.023609   -0.168966   -0.355997   -0.689409    0.000040
   4    -0.000000   -0.001617   -0.016128   -0.104531   -0.018556   -0.023609   -0.168966   -0.355997   -0.689405    0.000007
-------------------------------------------------------------------------------------------------------------------
 
  FINAL CASPT2 RESULT:
 
  Correlation energy /Case, /Symm, and sums:
 VJTU     -0.00000000 -0.00000000
 VJTIP    -0.00161696 -0.00161696
 VJTIM     0.00000000  0.00000000
 ATVX     -0.01612770 -0.01612770
 AIVX     -0.10453132 -0.10453132
 VJAIP    -0.01300360 -0.01300360
 VJAIM    -0.00555274 -0.00555274
 BVATP    -0.02232742 -0.02232742
 BVATM    -0.00128152 -0.00128152
 BJATP    -0.07033658 -0.07033658
 BJATM    -0.09862916 -0.09862916
 BJAIP    -0.24574784 -0.24574784
 BJAIM    -0.11024961 -0.11024961
 Summed:  -0.68940445 -0.68940445
 
      Reference energy:        -224.4786692669
      E2 (Non-variational):      -0.6894044517
      E2 (Variational):          -0.6894045123
      Total energy:            -225.1680737791
      Residual norm:              0.0000006538
      Reference weight:           0.85026
 
      Contributions to the CASPT2 correlation energy
      Active & Virtual Only:         -0.0397366394
      One Inactive Excited:          -0.2734970595
      Two Inactive Excited:          -0.3761707528
 
 
++ Denominators, etc.
----------------------------------------------------------------------------------------------------
 Report on small energy denominators, large coefficients, and large energy contributions.
CASE  SYMM ACTIVE-MIX  NON-ACTIVE INDICES          DENOMINATOR     RHS VALUE       COEFFICIENT     CONTRIBUTION
ATVX     1  Mu1.0006  Se1.016                       1.67074518     -0.04104036      0.02540580     -0.00104266
ATVX     1  Mu1.0005  Se1.019                       1.56217252      0.06706115     -0.04191632     -0.00281096
ATVX     1  Mu1.0005  Se1.042                       3.12374535     -0.10759269      0.03366158     -0.00362174
AIVX     1  Mu1.0005  In1.004 Se1.014               2.59780392      0.08117943     -0.03135360     -0.00254527
AIVX     1  Mu1.0002  In1.005 Se1.014               1.97425644     -0.05154693      0.02527684     -0.00130294
AIVX     1  Mu1.0003  In1.005 Se1.014               2.07502644     -0.06578611      0.03108043     -0.00204466
AIVX     1  Mu1.0004  In1.006 Se1.014               1.82244068      0.05770594     -0.03213383     -0.00185431
AIVX     1  Mu1.0005  In1.006 Se1.014               1.97645479     -0.05583146      0.02895534     -0.00161662
AIVX     1  Mu1.0002  In1.008 Se1.014               1.29489483     -0.11021491      0.08407924     -0.00926679
AIVX     1  Mu1.0003  In1.008 Se1.014               1.39566483     -0.06103438      0.04342739     -0.00265056
AIVX     1  Mu1.0002  In1.009 Se1.014               1.14729442     -0.03246251      0.02789465     -0.00090553
AIVX     1  Mu1.0002  In1.009 Se1.017               1.25932928     -0.03720436      0.02855179     -0.00106225
AIVX     1  Mu1.0002  In1.008 Se1.018               1.44300537     -0.04154148      0.02806651     -0.00116592
AIVX     1  Mu1.0002  In1.010 Se1.020               1.21378266     -0.03423554      0.02711111     -0.00092816
AIVX     1  Mu1.0004  In1.006 Se1.021               2.16343688     -0.06338529      0.02942141     -0.00186488
AIVX     1  Mu1.0002  In1.008 Se1.021               1.63589102      0.06173076     -0.03693558     -0.00228006
AIVX     1  Mu1.0004  In1.008 Se1.022               1.92519797     -0.07776244      0.04102856     -0.00319048
AIVX     1  Mu1.0004  In1.008 Se1.025               2.13704211      0.09974013     -0.04709002     -0.00469676
AIVX     1  Mu1.0005  In1.008 Se1.025               2.29105621     -0.06630329      0.02923559     -0.00193842
AIVX     1  Mu1.0002  In1.010 Se1.033               2.06767299      0.05249500     -0.02525473     -0.00132575
BJAIP    1  Se1.014 In1.008 Se1.014 In1.008         1.79112910      0.07439201     -0.04153358     -0.00308977
BJAIP    1  Se1.014 In1.008 Se1.021 In1.008         2.13212529     -0.05806982      0.02723565     -0.00158157
BJAIP    1  Se1.022 In1.008 Se1.025 In1.008         2.76449805     -0.07449162      0.02694580     -0.00200724
BJAIM    1  Se1.014 In1.008 Se1.032 In1.010         2.56390726     -0.06578209      0.02565697     -0.00168777
--
 
   (Skipping property calculation,
    use PROP keyword to activate)
--
 
  Total CASPT2 energies:
::    CASPT2 Root  1     Total energy:   -225.16807378
 
  A NEW JOBIPH FILE NAMED 'JOBMIX' IS PREPARED.
********************************************************************************
--- Stop Module: caspt2 at Sun Dec 22 05:30:28 2024 /rc=_RC_ALL_IS_WELL_ ---
*** files: xmldump
    saved to directory /home/grierjones/DDCASPT2/ozone/ANO-RCC-VTZP/ozone_171.25
--- Module caspt2 spent 1 second ---

>>> EXPORT i = B

>>> EXPORT j = P

>>> IF (-FILE GMJ_e2_${i}_${j}.csv)

>>> COPY /tmp/ozone_171.25/GMJ_RHS_B_P.csv /home/grierjones/DDCASPT2/ozone/ANO-RCC-VTZP/ozone_171.25/GMJ_RHS_B_P.csv

>>> COPY /tmp/ozone_171.25/GMJ_IVECW_B_P.csv /home/grierjones/DDCASPT2/ozone/ANO-RCC-VTZP/ozone_171.25/GMJ_IVECW_B_P.csv

>>> COPY /tmp/ozone_171.25/GMJ_IVECX_B_P.csv /home/grierjones/DDCASPT2/ozone/ANO-RCC-VTZP/ozone_171.25/GMJ_IVECX_B_P.csv

>>> COPY /tmp/ozone_171.25/GMJ_IVECC2_B_P.csv /home/grierjones/DDCASPT2/ozone/ANO-RCC-VTZP/ozone_171.25/GMJ_IVECC2_B_P.csv

>>> COPY /tmp/ozone_171.25/GMJ_e2_B_P.csv /home/grierjones/DDCASPT2/ozone/ANO-RCC-VTZP/ozone_171.25/GMJ_e2_B_P.csv

>>> END FOREACH

>>> EXPORT j = M

>>> IF (-FILE GMJ_e2_${i}_${j}.csv)
(Skipped)

>>> END FOREACH

>>> END FOREACH

>>> EXPORT i = E

>>> EXPORT j = P

>>> IF (-FILE GMJ_e2_${i}_${j}.csv)

>>> COPY /tmp/ozone_171.25/GMJ_RHS_E_P.csv /home/grierjones/DDCASPT2/ozone/ANO-RCC-VTZP/ozone_171.25/GMJ_RHS_E_P.csv

>>> COPY /tmp/ozone_171.25/GMJ_IVECW_E_P.csv /home/grierjones/DDCASPT2/ozone/ANO-RCC-VTZP/ozone_171.25/GMJ_IVECW_E_P.csv

>>> COPY /tmp/ozone_171.25/GMJ_IVECX_E_P.csv /home/grierjones/DDCASPT2/ozone/ANO-RCC-VTZP/ozone_171.25/GMJ_IVECX_E_P.csv

>>> COPY /tmp/ozone_171.25/GMJ_IVECC2_E_P.csv /home/grierjones/DDCASPT2/ozone/ANO-RCC-VTZP/ozone_171.25/GMJ_IVECC2_E_P.csv

>>> COPY /tmp/ozone_171.25/GMJ_e2_E_P.csv /home/grierjones/DDCASPT2/ozone/ANO-RCC-VTZP/ozone_171.25/GMJ_e2_E_P.csv

>>> END FOREACH

>>> EXPORT j = M

>>> IF (-FILE GMJ_e2_${i}_${j}.csv)

>>> COPY /tmp/ozone_171.25/GMJ_RHS_E_M.csv /home/grierjones/DDCASPT2/ozone/ANO-RCC-VTZP/ozone_171.25/GMJ_RHS_E_M.csv

>>> COPY /tmp/ozone_171.25/GMJ_IVECW_E_M.csv /home/grierjones/DDCASPT2/ozone/ANO-RCC-VTZP/ozone_171.25/GMJ_IVECW_E_M.csv

>>> COPY /tmp/ozone_171.25/GMJ_IVECX_E_M.csv /home/grierjones/DDCASPT2/ozone/ANO-RCC-VTZP/ozone_171.25/GMJ_IVECX_E_M.csv

>>> COPY /tmp/ozone_171.25/GMJ_IVECC2_E_M.csv /home/grierjones/DDCASPT2/ozone/ANO-RCC-VTZP/ozone_171.25/GMJ_IVECC2_E_M.csv

>>> COPY /tmp/ozone_171.25/GMJ_e2_E_M.csv /home/grierjones/DDCASPT2/ozone/ANO-RCC-VTZP/ozone_171.25/GMJ_e2_E_M.csv

>>> END FOREACH

>>> END FOREACH

>>> EXPORT i = F

>>> EXPORT j = P

>>> IF (-FILE GMJ_e2_${i}_${j}.csv)

>>> COPY /tmp/ozone_171.25/GMJ_RHS_F_P.csv /home/grierjones/DDCASPT2/ozone/ANO-RCC-VTZP/ozone_171.25/GMJ_RHS_F_P.csv

>>> COPY /tmp/ozone_171.25/GMJ_IVECW_F_P.csv /home/grierjones/DDCASPT2/ozone/ANO-RCC-VTZP/ozone_171.25/GMJ_IVECW_F_P.csv

>>> COPY /tmp/ozone_171.25/GMJ_IVECX_F_P.csv /home/grierjones/DDCASPT2/ozone/ANO-RCC-VTZP/ozone_171.25/GMJ_IVECX_F_P.csv

>>> COPY /tmp/ozone_171.25/GMJ_IVECC2_F_P.csv /home/grierjones/DDCASPT2/ozone/ANO-RCC-VTZP/ozone_171.25/GMJ_IVECC2_F_P.csv

>>> COPY /tmp/ozone_171.25/GMJ_e2_F_P.csv /home/grierjones/DDCASPT2/ozone/ANO-RCC-VTZP/ozone_171.25/GMJ_e2_F_P.csv

>>> END FOREACH

>>> EXPORT j = M

>>> IF (-FILE GMJ_e2_${i}_${j}.csv)

>>> COPY /tmp/ozone_171.25/GMJ_RHS_F_M.csv /home/grierjones/DDCASPT2/ozone/ANO-RCC-VTZP/ozone_171.25/GMJ_RHS_F_M.csv

>>> COPY /tmp/ozone_171.25/GMJ_IVECW_F_M.csv /home/grierjones/DDCASPT2/ozone/ANO-RCC-VTZP/ozone_171.25/GMJ_IVECW_F_M.csv

>>> COPY /tmp/ozone_171.25/GMJ_IVECX_F_M.csv /home/grierjones/DDCASPT2/ozone/ANO-RCC-VTZP/ozone_171.25/GMJ_IVECX_F_M.csv

>>> COPY /tmp/ozone_171.25/GMJ_IVECC2_F_M.csv /home/grierjones/DDCASPT2/ozone/ANO-RCC-VTZP/ozone_171.25/GMJ_IVECC2_F_M.csv

>>> COPY /tmp/ozone_171.25/GMJ_e2_F_M.csv /home/grierjones/DDCASPT2/ozone/ANO-RCC-VTZP/ozone_171.25/GMJ_e2_F_M.csv

>>> END FOREACH

>>> END FOREACH

>>> EXPORT i = G

>>> EXPORT j = P

>>> IF (-FILE GMJ_e2_${i}_${j}.csv)

>>> COPY /tmp/ozone_171.25/GMJ_RHS_G_P.csv /home/grierjones/DDCASPT2/ozone/ANO-RCC-VTZP/ozone_171.25/GMJ_RHS_G_P.csv

>>> COPY /tmp/ozone_171.25/GMJ_IVECW_G_P.csv /home/grierjones/DDCASPT2/ozone/ANO-RCC-VTZP/ozone_171.25/GMJ_IVECW_G_P.csv

>>> COPY /tmp/ozone_171.25/GMJ_IVECX_G_P.csv /home/grierjones/DDCASPT2/ozone/ANO-RCC-VTZP/ozone_171.25/GMJ_IVECX_G_P.csv

>>> COPY /tmp/ozone_171.25/GMJ_IVECC2_G_P.csv /home/grierjones/DDCASPT2/ozone/ANO-RCC-VTZP/ozone_171.25/GMJ_IVECC2_G_P.csv

>>> COPY /tmp/ozone_171.25/GMJ_e2_G_P.csv /home/grierjones/DDCASPT2/ozone/ANO-RCC-VTZP/ozone_171.25/GMJ_e2_G_P.csv

>>> END FOREACH

>>> EXPORT j = M

>>> IF (-FILE GMJ_e2_${i}_${j}.csv)

>>> COPY /tmp/ozone_171.25/GMJ_RHS_G_M.csv /home/grierjones/DDCASPT2/ozone/ANO-RCC-VTZP/ozone_171.25/GMJ_RHS_G_M.csv

>>> COPY /tmp/ozone_171.25/GMJ_IVECW_G_M.csv /home/grierjones/DDCASPT2/ozone/ANO-RCC-VTZP/ozone_171.25/GMJ_IVECW_G_M.csv

>>> COPY /tmp/ozone_171.25/GMJ_IVECX_G_M.csv /home/grierjones/DDCASPT2/ozone/ANO-RCC-VTZP/ozone_171.25/GMJ_IVECX_G_M.csv

>>> COPY /tmp/ozone_171.25/GMJ_IVECC2_G_M.csv /home/grierjones/DDCASPT2/ozone/ANO-RCC-VTZP/ozone_171.25/GMJ_IVECC2_G_M.csv

>>> COPY /tmp/ozone_171.25/GMJ_e2_G_M.csv /home/grierjones/DDCASPT2/ozone/ANO-RCC-VTZP/ozone_171.25/GMJ_e2_G_M.csv

>>> END FOREACH

>>> END FOREACH

>>> EXPORT i = H

>>> EXPORT j = P

>>> IF (-FILE GMJ_e2_${i}_${j}.csv)

>>> COPY /tmp/ozone_171.25/GMJ_RHS_H_P.csv /home/grierjones/DDCASPT2/ozone/ANO-RCC-VTZP/ozone_171.25/GMJ_RHS_H_P.csv

>>> COPY /tmp/ozone_171.25/GMJ_IVECW_H_P.csv /home/grierjones/DDCASPT2/ozone/ANO-RCC-VTZP/ozone_171.25/GMJ_IVECW_H_P.csv

>>> COPY /tmp/ozone_171.25/GMJ_IVECX_H_P.csv /home/grierjones/DDCASPT2/ozone/ANO-RCC-VTZP/ozone_171.25/GMJ_IVECX_H_P.csv

>>> COPY /tmp/ozone_171.25/GMJ_IVECC2_H_P.csv /home/grierjones/DDCASPT2/ozone/ANO-RCC-VTZP/ozone_171.25/GMJ_IVECC2_H_P.csv

>>> COPY /tmp/ozone_171.25/GMJ_e2_H_P.csv /home/grierjones/DDCASPT2/ozone/ANO-RCC-VTZP/ozone_171.25/GMJ_e2_H_P.csv

>>> END FOREACH

>>> EXPORT j = M

>>> IF (-FILE GMJ_e2_${i}_${j}.csv)

>>> COPY /tmp/ozone_171.25/GMJ_RHS_H_M.csv /home/grierjones/DDCASPT2/ozone/ANO-RCC-VTZP/ozone_171.25/GMJ_RHS_H_M.csv

>>> COPY /tmp/ozone_171.25/GMJ_IVECW_H_M.csv /home/grierjones/DDCASPT2/ozone/ANO-RCC-VTZP/ozone_171.25/GMJ_IVECW_H_M.csv

>>> COPY /tmp/ozone_171.25/GMJ_IVECX_H_M.csv /home/grierjones/DDCASPT2/ozone/ANO-RCC-VTZP/ozone_171.25/GMJ_IVECX_H_M.csv

>>> COPY /tmp/ozone_171.25/GMJ_IVECC2_H_M.csv /home/grierjones/DDCASPT2/ozone/ANO-RCC-VTZP/ozone_171.25/GMJ_IVECC2_H_M.csv

>>> COPY /tmp/ozone_171.25/GMJ_e2_H_M.csv /home/grierjones/DDCASPT2/ozone/ANO-RCC-VTZP/ozone_171.25/GMJ_e2_H_M.csv

>>> END FOREACH

>>> END FOREACH

>>> EXPORT i = A

>>> IF (-FILE GMJ_e2_$i.csv)

>>> COPY /tmp/ozone_171.25/GMJ_RHS_A.csv /home/grierjones/DDCASPT2/ozone/ANO-RCC-VTZP/ozone_171.25/GMJ_RHS_A.csv

>>> COPY /tmp/ozone_171.25/GMJ_IVECW_A.csv /home/grierjones/DDCASPT2/ozone/ANO-RCC-VTZP/ozone_171.25/GMJ_IVECW_A.csv

>>> COPY /tmp/ozone_171.25/GMJ_IVECX_A.csv /home/grierjones/DDCASPT2/ozone/ANO-RCC-VTZP/ozone_171.25/GMJ_IVECX_A.csv

>>> COPY /tmp/ozone_171.25/GMJ_IVECC2_A.csv /home/grierjones/DDCASPT2/ozone/ANO-RCC-VTZP/ozone_171.25/GMJ_IVECC2_A.csv

>>> COPY /tmp/ozone_171.25/GMJ_e2_A.csv /home/grierjones/DDCASPT2/ozone/ANO-RCC-VTZP/ozone_171.25/GMJ_e2_A.csv

>>> END FOREACH

>>> EXPORT i = C

>>> IF (-FILE GMJ_e2_$i.csv)

>>> COPY /tmp/ozone_171.25/GMJ_RHS_C.csv /home/grierjones/DDCASPT2/ozone/ANO-RCC-VTZP/ozone_171.25/GMJ_RHS_C.csv

>>> COPY /tmp/ozone_171.25/GMJ_IVECW_C.csv /home/grierjones/DDCASPT2/ozone/ANO-RCC-VTZP/ozone_171.25/GMJ_IVECW_C.csv

>>> COPY /tmp/ozone_171.25/GMJ_IVECX_C.csv /home/grierjones/DDCASPT2/ozone/ANO-RCC-VTZP/ozone_171.25/GMJ_IVECX_C.csv

>>> COPY /tmp/ozone_171.25/GMJ_IVECC2_C.csv /home/grierjones/DDCASPT2/ozone/ANO-RCC-VTZP/ozone_171.25/GMJ_IVECC2_C.csv

>>> COPY /tmp/ozone_171.25/GMJ_e2_C.csv /home/grierjones/DDCASPT2/ozone/ANO-RCC-VTZP/ozone_171.25/GMJ_e2_C.csv

>>> END FOREACH

>>> EXPORT i = D

>>> IF (-FILE GMJ_e2_$i.csv)

>>> COPY /tmp/ozone_171.25/GMJ_RHS_D.csv /home/grierjones/DDCASPT2/ozone/ANO-RCC-VTZP/ozone_171.25/GMJ_RHS_D.csv

>>> COPY /tmp/ozone_171.25/GMJ_IVECW_D.csv /home/grierjones/DDCASPT2/ozone/ANO-RCC-VTZP/ozone_171.25/GMJ_IVECW_D.csv

>>> COPY /tmp/ozone_171.25/GMJ_IVECX_D.csv /home/grierjones/DDCASPT2/ozone/ANO-RCC-VTZP/ozone_171.25/GMJ_IVECX_D.csv

>>> COPY /tmp/ozone_171.25/GMJ_IVECC2_D.csv /home/grierjones/DDCASPT2/ozone/ANO-RCC-VTZP/ozone_171.25/GMJ_IVECC2_D.csv

>>> COPY /tmp/ozone_171.25/GMJ_e2_D.csv /home/grierjones/DDCASPT2/ozone/ANO-RCC-VTZP/ozone_171.25/GMJ_e2_D.csv

>>> END FOREACH

.########################.
.# Non-zero return code #.
.########################.

    Timing: Wall=18.20 User=9.78 System=8.40
********************************************
*** WorkDir at /tmp/ozone_171.25 cleaned ***
********************************************
