   This run of MOLCAS is using the pymolcas driver

                             OPE
                             OPE          NMOL  CASOP  ENMOLC A   SO
                 OPE        NMOLC        AS  OP EN  MO LC     AS  OP
                OPENM       OL CA        SO  PE NM  OL CA     SOP EN
                OP EN      MO   LC       AS  OP ENMOL  CASO   PENMOL
                OP  EN     MO   LC       AS  OP EN     MO     LC ASO
               OP   E  NMOL  C  AS       OP  EN MO     LC     AS  OP
               OP  E   NMO   LC AS        OPEN  MO     LCASOP EN   M
               O  PEN   MO  LCA  SO
            OPE   NMO   L   CAS    OP
        OPENMOL  CASOP     ENMOL   CASOPE
     OPENMOLCA   SOPENMOLCASOPEN   MOLCASOPE
    OPENMOLCAS   OP           EN   MOL    CAS
    OPENMOLCAS       OP  ENM        O     LCA
    OPENMOLCAS    OPEN  MOLCASO     P  E  NMO
    OPENMOLCAS     OP               E  N  MOL
    OPENMOLCA   SO           PENM   O  L  CAS    OPEN    MO    LCAS
    OPENMOLCA   SOP           ENM   O  L  CAS   OP  EN  MOLC  AS   O
    OPENMOLCA   SOPE           NM      O  LCA   S      OP  EN MO
    OPENMOLC                AS         O  PEN   M      OL  CA  SOPE
    OPENMO        LCASOPE  NMOL        C  ASO   P      ENMOLC     AS
    OPE     NMO      LCA  SO     P     E   NM   OL  CA SO  PE N   MO
          OPENMOLCA            SOPE   NMO        LCAS  O    P  ENMO
     OPENMOLCASOPENMOLCASOPENMOLCASOPENMOLCA
        OPENMOLCASOPENMOLCASOPENMOLCASOPE
            OPENMOLCASOPENMOLCASOPENM
               OPENMOLCASOPENMOLCA        version: f37762c57
                   OPENMOLCASO
                       OPE                tag:

 OpenMolcas is free software; you can redistribute it and/or modify it
 under the terms of the GNU Lesser General Public License version 2.1.
 OpenMolcas is distributed in the hope that it will be useful, but it
 is provided "as is" and without any express or implied warranties.
 For more details see the full text of the license in the file
 LICENSE or in <http://www.gnu.org/licenses/>.

                 Copyright (C) The OpenMolcas Authors
           For the author list and the recommended citation,
                   consult the file CONTRIBUTORS.md

           *************************************************
           * pymolcas version py2.28                       *
           *   build c4a6d18ded8cb6cad61d2372a9abd97c      *
           *   (after the EMIL interpreter by V. Veryazov) *
           *************************************************

configuration info
------------------
C Compiler ID: Intel
C flags: -std=gnu99 -gcc-sys
Fortran Compiler ID: IntelLLVM
Fortran flags: -standard-semantics -fltconsistency -fpp -i8 -heap-arrays
Definitions: _MOLCAS_;_I8_;_LINUX_
Parallel: OFF (GA=OFF)


   -------------------------------------------------------------------------------------------
  |
  |              Project: ozone_129.75
  |       Submitted from: /home/grierjones/DDCASPT2/ozone/multistate/ANO-RCC-VTZP/ozone_129.75
  |         Scratch area: /tmp/ozone_129.75
  |      Save outputs to: /home/grierjones/DDCASPT2/ozone/multistate/ANO-RCC-VTZP/ozone_129.75
  |               Molcas: /home/grierjones/Test/build
  |
  | Scratch area is empty
  |
  |       MOLCAS_DRIVER = /usr/local/pymolcas
  | MOLCAS_KEEP_WORKDIR = NO
  |  MOLCAS_NEW_WORKDIR = YES
  |       MOLCAS_NPROCS = 1
  |        MOLCAS_PRINT = NORMAL
  |       MOLCAS_SOURCE = /home/grierjones/Test
  |    MOLCAS_STRUCTURE = 0
  |
   -------------------------------------------------------------------------------------------

++ ---------   Input file   ---------

&GATEWAY
coord=ozone_129.75.xyz
Basis = ANO-RCC-VTZP
Group = nosymm
End of Input

&SEWARD
End of Input

&SCF
FileOrb
/home/grierjones/DDCASPT2/ozone/multistate/ANO-RCC-VTZP/ozone_129.50/ozone_129.50.ScfOrb

>>> COPY $WorkDir/ozone_129.75.scf.h5 $CurrDir/

&RASSCF
Title= RASSCF
FileOrb
/home/grierjones/DDCASPT2/ozone/multistate/ANO-RCC-VTZP/ozone_129.50/ozone_129.50.RasOrb
CIROOT
3 3 1
NACTEL
4 0 0
Inactive
10
RAS2
3
Symmetry
1
Spin
1
orblisting
all

>>> COPY $WorkDir/ozone_129.75.rasscf.h5 $CurrDir/

>>> COPY $WorkDir/GMJ_Fock_MO.csv $CurrDir/ozone_129.75.GMJ_Fock_MO.csv

&MOTRA
Frozen=0
LUMORB

>>> COPY $WorkDir/GMJ_one_int_indx.csv $CurrDir/ozone_129.75.GMJ_one_int_indx.csv

>>> COPY $WorkDir/GMJ_one_int.csv $CurrDir/ozone_129.75.GMJ_one_int.csv

>>> COPY $WorkDir/GMJ_two_int_indx.csv $CurrDir/ozone_129.75.GMJ_two_int_indx.csv

>>> COPY $WorkDir/GMJ_two_int.csv $CurrDir/ozone_129.75.GMJ_two_int.csv

&CASPT2
Frozen
0

MAXITER
50

>>> FOREACH k IN (1,2,3)

  >>> FOREACH i IN (B,E,F,G,H)

    >>> FOREACH j IN (P,M)

      >>> IF (-FILE GMJ_e2_${i}_${j}_${k}_.csv)

        >>> COPY $WorkDir/GMJ_RHS_${i}_${j}_${k}_.csv $CurrDir/GMJ_RHS_${i}_${j}_${k}_.csv

        >>> COPY $WorkDir/GMJ_IVECW_${i}_${j}_${k}_.csv $CurrDir/GMJ_IVECW_${i}_${j}_${k}_.csv

        >>> COPY $WorkDir/GMJ_IVECX_${i}_${j}_${k}_.csv $CurrDir/GMJ_IVECX_${i}_${j}_${k}_.csv

        >>> COPY $WorkDir/GMJ_IVECC2_${i}_${j}_${k}_.csv $CurrDir/GMJ_IVECC2_${i}_${j}_${k}_.csv

        >>> COPY $WorkDir/GMJ_e2_${i}_${j}_${k}_.csv $CurrDir/GMJ_e2_${i}_${j}_${k}_.csv

      >>> END IF

    >>> END FOREACH

  >>> END FOREACH

>>> END FOREACH

>>> FOREACH j IN (1,2,3)

  >>> FOREACH i IN (A,C,D)

    >>> IF (-FILE GMJ_e2_${i}_${j}_.csv)

      >>> COPY $WorkDir/GMJ_RHS_${i}_${j}_.csv $CurrDir/GMJ_RHS_${i}_${j}_.csv

      >>> COPY $WorkDir/GMJ_IVECW_${i}_${j}_.csv $CurrDir/GMJ_IVECW_${i}_${j}_.csv

      >>> COPY $WorkDir/GMJ_IVECX_${i}_${j}_.csv $CurrDir/GMJ_IVECX_${i}_${j}_.csv

      >>> COPY $WorkDir/GMJ_IVECC2_${i}_${j}_.csv $CurrDir/GMJ_IVECC2_${i}_${j}_.csv

      >>> COPY $WorkDir/GMJ_e2_${i}_${j}_.csv $CurrDir/GMJ_e2_${i}_${j}_.csv

    >>> END IF

  >>> END FOREACH

>>> END FOREACH

-- ----------------------------------

--- Start Module: gateway at Fri Apr 11 18:59:12 2025 ---
 
()()()()()()()()()()()()()()()()()()()()()()()()()()()()()()()()()()()()()()()()()()()()()()()()()()

                                              &GATEWAY

                                   only a single process is used
                       available to each process: 2.0 GB of memory, 1 thread?
()()()()()()()()()()()()()()()()()()()()()()()()()()()()()()()()()()()()()()()()()()()()()()()()()()
 
 
++    Symmetry information:
      ---------------------
 
                    Character Table for C1 
 
                             E  
                    a        1  x, y, xy, Rz, z, xz, Ry, yz, Rx, I
--
 
 
++    Basis set information:
      ----------------------
 
 
      Basis set label: O.ANO-RCC...4S3P2D1F.
 
      Electronic valence basis set:
      ------------------
      Associated Effective Charge   8.000000 au
      Associated Actual Charge      8.000000 au
      Nuclear Model: Point charge
 
      Shell  nPrim  nBasis  Cartesian Spherical Contaminant
         s      14       4        X                  
         p       9       3        X                  
         d       4       2                 X         
         f       3       1                 X         
--
 
 
++    Molecular structure info:
      -------------------------
 
                    ************************************************ 
                    **** Cartesian Coordinates / Bohr, Angstrom **** 
                    ************************************************ 
 
     Center  Label                x              y              z                     x              y              z
        1      O1               1.025426       2.186564       0.000000              0.542632       1.157080       0.000000
        2      O2               0.000000       0.000000       0.000000              0.000000       0.000000       0.000000
        3      O3               1.025426      -2.186564       0.000000              0.542632      -1.157080       0.000000
 
                    *************************************** 
                    *    InterNuclear Distances / Bohr    * 
                    *************************************** 
 
               1 O1            2 O2            3 O3    
    1 O1       0.000000
    2 O2       2.415070        0.000000
    3 O3       4.373129        2.415070        0.000000
 
                    ******************************************* 
                    *    InterNuclear Distances / Angstrom    * 
                    ******************************************* 
 
               1 O1            2 O2            3 O3    
    1 O1       0.000000
    2 O2       1.278000        0.000000
    3 O3       2.314160        1.278000        0.000000
 
                    ************************************** 
                    *    Valence Bond Angles / Degree    * 
                    ************************************** 
                          Atom centers                 Phi
                      1 O1       2 O2       3 O3       129.75
--
 
 
            Nuclear Potential Energy             67.63537209 au
 
--- Stop Module: gateway at Fri Apr 11 18:59:12 2025 /rc=_RC_ALL_IS_WELL_ ---
*** files: xmldump
    saved to directory /home/grierjones/DDCASPT2/ozone/multistate/ANO-RCC-VTZP/ozone_129.75

--- Start Module: seward at Fri Apr 11 18:59:12 2025 ---
 
()()()()()()()()()()()()()()()()()()()()()()()()()()()()()()()()()()()()()()()()()()()()()()()()()()

                                              &SEWARD

                                   only a single process is used
                       available to each process: 2.0 GB of memory, 1 thread?
()()()()()()()()()()()()()()()()()()()()()()()()()()()()()()()()()()()()()()()()()()()()()()()()()()
 
               SEWARD will generate:
                  Multipole Moment integrals up to order  2
                  Kinetic Energy integrals
                  Nuclear Attraction integrals (point charge)
                  One-Electron Hamiltonian integrals
                  Velocity integrals
                  Relativistic Douglas-Kroll-Hess integrals:
                    - Parametrization         : EXP
                    - DKH order of Hamiltonian: 2
                    - DKH order of Properties : 0
                         - multipole moment operators
                         - electric potential operators
                         - contact operators
                  Atomic mean-field integrals
                  Two-Electron Repulsion integrals
 
                   Integrals are discarded if absolute value <: 0.10E-13
                   Integral cutoff threshold is set to       <: 0.10E-15
 
            Nuclear Potential Energy             67.63537209 au
 
 
      Basis set specifications :
      Symmetry species         a  
      Basis functions           90
 
 
  Input file to MOLDEN was generated!
 
forrtl: warning (525): IEEE_DIVIDE_BY_ZERO is signaling
forrtl: warning (526): IEEE_INVALID is signaling
forrtl: warning (528): IEEE_UNDERFLOW is signaling
--- Stop Module: seward at Fri Apr 11 18:59:15 2025 /rc=_RC_ALL_IS_WELL_ ---
*** files: ozone_129.75.GssOrb ozone_129.75.guessorb.h5 ozone_129.75.guessorb.molden xmldump
    saved to directory /home/grierjones/DDCASPT2/ozone/multistate/ANO-RCC-VTZP/ozone_129.75
--- Module seward spent 2 seconds ---

*** symbolic link created: INPORB -> ozone_129.75.GssOrb
--- Start Module: scf at Fri Apr 11 18:59:15 2025 ---
 
()()()()()()()()()()()()()()()()()()()()()()()()()()()()()()()()()()()()()()()()()()()()()()()()()()

                                                &SCF

                                   only a single process is used
                       available to each process: 2.0 GB of memory, 1 thread?
()()()()()()()()()()()()()()()()()()()()()()()()()()()()()()()()()()()()()()()()()()()()()()()()()()
 
++    Input section:
      --------------
 
      Header of the integral files:
      
       Integrals generated by seward 4.2.0  , Fri Apr 11 18:59:12 2025
 
 
      Cartesian coordinates in Angstrom:
      -----------------------------------------------------
      No.  Label        X            Y            Z        
      -----------------------------------------------------
       1   O1         0.54263200   1.15708000   0.00000000
       2   O2         0.00000000   0.00000000   0.00000000
       3   O3         0.54263200  -1.15708000   0.00000000
      -----------------------------------------------------
      Nuclear repulsion energy =   67.63537209
--
 
++    Orbital specifications:
      -----------------------
 
      Symmetry species               1
                                     a
      Frozen orbitals                0
      Occupied orbitals             12
      Secondary orbitals            78
      Deleted orbitals               0
      Total number of orbitals      90
      Number of basis functions     90
--
 
      Molecular charge                           0.000
 
++    Optimization specifications:
      ----------------------------
 
      SCF Algorithm: Conventional
      Minimized density differences are used
      Number of density matrices in core                5
      Maximum number of NDDO SCF iterations           400
      Maximum number of HF SCF iterations             400
      Threshold for SCF energy change            0.10E-08
      Threshold for density matrix               0.10E-03
      Threshold for Fock matrix                  0.15E-03
      Threshold for linear dependence            0.10E-08
      Threshold at which DIIS is turned on       0.15E+00
      Threshold at which QNR/C2DIIS is turned on 0.75E-01
      Threshold for Norm(delta) (QNR/C2DIIS)     0.20E-04
      DIIS extrapolation of the SCF procedure
      All orbitals punched on: SCFORB
--
 
      Input vectors read from INPORB
      Orbital file label: * SCF orbitals
 
 
++ Convergence information
                                   SCF        iterations: Energy and convergence statistics
 
Iter     Tot. SCF        One-elec.       Two-elec.     Energy      Max Dij or  Max Fij      DNorm      TNorm      AccCon     Time
         Energy          Energy          Energy        Change      Delta Norm                                                in Sec.
   1  -224.503966396  -442.896974489   150.757636004   0.00E+00    0.12E-02*   0.64E-03*    0.75E+01   0.11E+03   None         0.
   2  -224.503971642  -442.896535901   150.757192170  -0.52E-05*   0.62E-03*   0.33E-03*    0.70E-02   0.11E+03   EDIIS        0.
   3  -224.503972683  -442.897265808   150.757921036  -0.10E-05*   0.42E-03*   0.32E-03*    0.11E-02   0.11E+03   c2DIIS       0.
   4  -224.503973028  -442.896382047   150.757036930  -0.34E-06*   0.28E-03*   0.13E-03     0.13E-02   0.11E+03   QNRc2DIIS    0.
   5  -224.503973037  -442.897720988   150.758375862  -0.88E-08*   0.14E-03*   0.14E-03     0.58E-03   0.11E+03   QNRc2DIIS    0.
   6  -224.503973134  -442.897073808   150.757728585  -0.97E-07*   0.70E-04*   0.12E-04     0.51E-04   0.11E+03   QNRc2DIIS    0.
   7  -224.503973138  -442.897019380   150.757674152  -0.41E-08*   0.41E-05    0.10E-05     0.64E-04   0.11E+03   QNRc2DIIS    0.
   8  -224.503973138  -442.897053236   150.757708009  -0.17E-10    0.15E-05    0.87E-06     0.23E-03   0.11E+03   QNRc2DIIS    0.
 
       Convergence after  8 Macro Iterations
--
 
 *****************************************************************************************************************************
 *                                                                                                                           *
 *                                             SCF/KS-DFT Program, Final results                                             *
 *                                                                                                                           *
 *                                                                                                                           *
 *                                                                                                                           *
 *                                                       Final Results                                                       *
 *                                                                                                                           *
 *****************************************************************************************************************************
 
::    Total SCF energy                               -224.5039731381
      One-electron energy                            -442.8970532365
      Two-electron energy                             150.7577080089
      Nuclear repulsion energy                         67.6353720895
      Kinetic energy (interpolated)                   225.0329307243
      Virial theorem                                    0.9976494214
      Total spin, S(S+1)                                0.0000000000
      Total spin, S                                     0.0000000000
      Max non-diagonal density matrix element           0.0000020549
      Max non-diagonal Fock matrix element              0.0000004085
 
 
      All orbitals with orbital energies smaller than  E(LUMO)+0.5 are printed
 
++    Molecular orbitals:
      -------------------
 
      Title: SCF orbitals

      Molecular orbitals for symmetry species 1: a  
 
          Orbital            1         2         3         4         5         6         7         8         9        10    
          Energy          -20.9256  -20.7331  -20.7331   -1.7382   -1.4487   -1.0867   -0.8321   -0.8036   -0.7756   -0.5828
          Occ. No.          2.0000    2.0000    2.0000    2.0000    2.0000    2.0000    2.0000    2.0000    2.0000    2.0000
 
        1 O1     1s         0.0023   -0.6689    0.7419   -0.0131    0.0121    0.0111   -0.0102   -0.0231    0.0000    0.0073
        2 O1     2s         0.0031    0.0049   -0.0058    0.3377   -0.5665    0.6121   -0.2199   -0.4305    0.0000    0.0688
        3 O1     3s         0.0018    0.0035   -0.0040   -0.0089    0.0197    0.0187   -0.0188   -0.0512    0.0000    0.0178
        4 O1     4s         0.0003    0.0007   -0.0008   -0.0004    0.0040    0.0030   -0.0038   -0.0109    0.0000    0.0041
        5 O1     2px       -0.0007   -0.0011    0.0011   -0.0430    0.0545    0.0964    0.2063   -0.3001   -0.0000   -0.5805
        6 O1     3px       -0.0005   -0.0012    0.0010    0.0117   -0.0076   -0.0162   -0.0118    0.0267   -0.0000   -0.0069
        7 O1     4px       -0.0000    0.0005   -0.0007    0.0023    0.0001    0.0006   -0.0006    0.0016   -0.0000    0.0042
        8 O1     2py       -0.0019   -0.0020    0.0026   -0.1124    0.0766    0.1127   -0.3079   -0.2951   -0.0000    0.4187
        9 O1     3py       -0.0011   -0.0020    0.0026    0.0137   -0.0162   -0.0190    0.0293    0.0406   -0.0000   -0.0050
       10 O1     4py        0.0005    0.0013   -0.0015    0.0011   -0.0037    0.0011    0.0039    0.0035    0.0000   -0.0031
       11 O1     2pz       -0.0000   -0.0000   -0.0000    0.0000   -0.0000   -0.0000    0.0000   -0.0000    0.3839    0.0000
       12 O1     3pz       -0.0000   -0.0000   -0.0000   -0.0000   -0.0000   -0.0000   -0.0000   -0.0000   -0.0173   -0.0000
       13 O1     4pz        0.0000   -0.0000   -0.0000    0.0000   -0.0000    0.0000   -0.0000    0.0000   -0.0068    0.0000
       14 O1     3d2-       0.0003    0.0008   -0.0009    0.0136   -0.0135   -0.0117   -0.0023    0.0254    0.0000    0.0029
       15 O1     4d2-       0.0001    0.0005   -0.0005    0.0013   -0.0016   -0.0007   -0.0000    0.0021   -0.0000    0.0010
       16 O1     3d1-       0.0000   -0.0000   -0.0000    0.0000    0.0000    0.0000   -0.0000    0.0000   -0.0291   -0.0000
       17 O1     4d1-       0.0000   -0.0000   -0.0000    0.0000    0.0000    0.0000    0.0000   -0.0000   -0.0047   -0.0000
       18 O1     3d0       -0.0003   -0.0005    0.0006   -0.0105    0.0092    0.0046   -0.0085   -0.0146   -0.0000    0.0050
       19 O1     4d0       -0.0002   -0.0004    0.0004   -0.0005    0.0010   -0.0000   -0.0007   -0.0009   -0.0000    0.0006
       20 O1     3d1+       0.0000    0.0000    0.0000   -0.0000   -0.0000    0.0000   -0.0000    0.0000   -0.0137    0.0000
       21 O1     4d1+       0.0000   -0.0000   -0.0000   -0.0000   -0.0000   -0.0000   -0.0000    0.0000   -0.0027    0.0000
       22 O1     3d2+      -0.0005   -0.0007    0.0009   -0.0150    0.0087    0.0057   -0.0259   -0.0133    0.0000    0.0180
       23 O1     4d2+      -0.0002   -0.0003    0.0004   -0.0021    0.0012    0.0009   -0.0025   -0.0008   -0.0000    0.0028
       24 O1     4f3-       0.0001    0.0001   -0.0000    0.0024   -0.0009    0.0007    0.0075    0.0000   -0.0000   -0.0057
       25 O1     4f2-      -0.0000   -0.0000   -0.0000    0.0000    0.0000   -0.0000    0.0000   -0.0000    0.0051   -0.0000
       26 O1     4f1-       0.0000    0.0001   -0.0002    0.0031   -0.0028   -0.0010    0.0021    0.0034   -0.0000   -0.0010
       27 O1     4f0       -0.0000    0.0000    0.0000   -0.0000   -0.0000   -0.0000    0.0000    0.0000   -0.0038   -0.0000
       28 O1     4f1+       0.0000    0.0001   -0.0001    0.0013   -0.0014   -0.0007    0.0003    0.0015   -0.0000   -0.0011
       29 O1     4f2+       0.0000    0.0000    0.0000   -0.0000    0.0000   -0.0000   -0.0000    0.0000   -0.0049   -0.0000
       30 O1     4f3+       0.0000    0.0002   -0.0002    0.0051   -0.0053   -0.0028    0.0009    0.0070   -0.0000   -0.0003
       31 O2     1s         0.9991   -0.0000   -0.0009   -0.0276    0.0000   -0.0167   -0.0076    0.0000    0.0000    0.0000
       32 O2     2s        -0.0062    0.0006    0.0112    0.6209   -0.0000   -0.6557   -0.0817    0.0000    0.0000    0.0000
       33 O2     3s        -0.0044    0.0003    0.0065   -0.0693    0.0000   -0.0164   -0.0139    0.0000    0.0000    0.0000
       34 O2     4s        -0.0010    0.0001    0.0010   -0.0125    0.0000   -0.0042   -0.0044   -0.0000    0.0000    0.0000
       35 O2     2px       -0.0009    0.0002    0.0032    0.0882   -0.0000    0.2107    0.6804    0.0000   -0.0000   -0.0000
       36 O2     3px       -0.0017    0.0001    0.0021   -0.0365    0.0000   -0.0283   -0.0721   -0.0000   -0.0000    0.0000
       37 O2     4px        0.0016   -0.0000   -0.0007   -0.0032    0.0000    0.0012   -0.0093   -0.0000    0.0000   -0.0000
       38 O2     2py       -0.0000   -0.0061    0.0003   -0.0000   -0.3324    0.0000   -0.0000    0.5508    0.0000   -0.1434
       39 O2     3py        0.0000   -0.0039    0.0002    0.0000    0.0641   -0.0000    0.0000   -0.0571   -0.0000   -0.0076
       40 O2     4py       -0.0000    0.0012   -0.0001   -0.0000   -0.0019   -0.0000    0.0000   -0.0092   -0.0000   -0.0004
       41 O2     2pz        0.0000    0.0000    0.0000    0.0000    0.0000    0.0000    0.0000   -0.0000    0.6772   -0.0000
       42 O2     3pz        0.0000    0.0000    0.0000    0.0000    0.0000    0.0000   -0.0000   -0.0000   -0.0465   -0.0000
       43 O2     4pz       -0.0000    0.0000    0.0000    0.0000    0.0000    0.0000   -0.0000    0.0000   -0.0166   -0.0000
       44 O2     3d2-       0.0000   -0.0013    0.0001   -0.0000   -0.0369    0.0000   -0.0000    0.0259   -0.0000   -0.0432
       45 O2     4d2-       0.0000   -0.0006    0.0000   -0.0000   -0.0040    0.0000   -0.0000    0.0023   -0.0000   -0.0076
       46 O2     3d1-       0.0000    0.0000    0.0000    0.0000   -0.0000   -0.0000    0.0000   -0.0000   -0.0000   -0.0000
       47 O2     4d1-       0.0000    0.0000    0.0000    0.0000   -0.0000   -0.0000    0.0000   -0.0000   -0.0000   -0.0000
       48 O2     3d0        0.0005   -0.0001   -0.0011   -0.0149    0.0000   -0.0057   -0.0139   -0.0000    0.0000    0.0000
       49 O2     4d0        0.0005   -0.0000   -0.0006    0.0009   -0.0000   -0.0002   -0.0007   -0.0000   -0.0000    0.0000
       50 O2     3d1+       0.0000    0.0000    0.0000   -0.0000   -0.0000   -0.0000    0.0000   -0.0000    0.0288   -0.0000
       51 O2     4d1+       0.0000    0.0000    0.0000   -0.0000   -0.0000   -0.0000    0.0000    0.0000    0.0042   -0.0000
       52 O2     3d2+       0.0005   -0.0001   -0.0011   -0.0159    0.0000   -0.0018    0.0180    0.0000    0.0000    0.0000
       53 O2     4d2+       0.0002   -0.0000   -0.0005   -0.0016    0.0000   -0.0005    0.0015    0.0000    0.0000    0.0000
       54 O2     4f3-      -0.0000    0.0000   -0.0000    0.0000    0.0031   -0.0000    0.0000   -0.0056    0.0000   -0.0085
       55 O2     4f2-      -0.0000    0.0000    0.0000    0.0000    0.0000   -0.0000    0.0000   -0.0000   -0.0000   -0.0000
       56 O2     4f1-      -0.0000    0.0001   -0.0000    0.0000    0.0052   -0.0000    0.0000   -0.0044   -0.0000    0.0011
       57 O2     4f0       -0.0000   -0.0000   -0.0000   -0.0000   -0.0000   -0.0000   -0.0000    0.0000   -0.0061   -0.0000
       58 O2     4f1+       0.0001   -0.0000   -0.0001   -0.0026    0.0000   -0.0002   -0.0017   -0.0000   -0.0000   -0.0000
       59 O2     4f2+      -0.0000    0.0000    0.0000   -0.0000   -0.0000   -0.0000   -0.0000    0.0000   -0.0070   -0.0000
       60 O2     4f3+       0.0001   -0.0000   -0.0002   -0.0096    0.0000   -0.0012   -0.0062   -0.0000    0.0000    0.0000
       61 O3     1s         0.0023    0.7419    0.6688   -0.0131   -0.0121    0.0111   -0.0102    0.0231   -0.0000   -0.0073
       62 O3     2s         0.0031   -0.0055   -0.0052    0.3377    0.5665    0.6121   -0.2199    0.4305    0.0000   -0.0688
       63 O3     3s         0.0018   -0.0039   -0.0036   -0.0089   -0.0197    0.0187   -0.0188    0.0512   -0.0000   -0.0178
       64 O3     4s         0.0003   -0.0008   -0.0007   -0.0004   -0.0040    0.0030   -0.0038    0.0109   -0.0000   -0.0041
       65 O3     2px       -0.0007    0.0012    0.0010   -0.0430   -0.0545    0.0964    0.2063    0.3001    0.0000    0.5805
       66 O3     3px       -0.0005    0.0013    0.0009    0.0117    0.0076   -0.0162   -0.0118   -0.0267    0.0000    0.0069
       67 O3     4px       -0.0000   -0.0005   -0.0006    0.0023   -0.0001    0.0006   -0.0006   -0.0016    0.0000   -0.0042
       68 O3     2py        0.0019   -0.0023   -0.0024    0.1124    0.0766   -0.1127    0.3079   -0.2951   -0.0000    0.4187
       69 O3     3py        0.0011   -0.0023   -0.0024   -0.0137   -0.0162    0.0190   -0.0293    0.0406   -0.0000   -0.0050
       70 O3     4py       -0.0005    0.0015    0.0014   -0.0011   -0.0037   -0.0011   -0.0039    0.0035   -0.0000   -0.0031
       71 O3     2pz       -0.0000   -0.0000    0.0000   -0.0000   -0.0000    0.0000    0.0000   -0.0000    0.3839    0.0000
       72 O3     3pz       -0.0000    0.0000    0.0000   -0.0000   -0.0000   -0.0000   -0.0000    0.0000   -0.0173   -0.0000
       73 O3     4pz        0.0000    0.0000    0.0000   -0.0000   -0.0000    0.0000   -0.0000    0.0000   -0.0068   -0.0000
       74 O3     3d2-      -0.0003    0.0009    0.0008   -0.0136   -0.0135    0.0117    0.0023    0.0254    0.0000    0.0029
       75 O3     4d2-      -0.0001    0.0005    0.0004   -0.0013   -0.0016    0.0007    0.0000    0.0021    0.0000    0.0010
       76 O3     3d1-      -0.0000    0.0000    0.0000   -0.0000   -0.0000   -0.0000    0.0000   -0.0000    0.0291    0.0000
       77 O3     4d1-      -0.0000   -0.0000    0.0000   -0.0000   -0.0000   -0.0000    0.0000   -0.0000    0.0047    0.0000
       78 O3     3d0       -0.0003    0.0005    0.0005   -0.0105   -0.0092    0.0046   -0.0085    0.0146    0.0000   -0.0050
       79 O3     4d0       -0.0002    0.0004    0.0004   -0.0005   -0.0010   -0.0000   -0.0007    0.0009    0.0000   -0.0006
       80 O3     3d1+       0.0000   -0.0000   -0.0000   -0.0000    0.0000    0.0000   -0.0000    0.0000   -0.0137    0.0000
       81 O3     4d1+       0.0000   -0.0000   -0.0000   -0.0000   -0.0000    0.0000   -0.0000    0.0000   -0.0027    0.0000
       82 O3     3d2+      -0.0005    0.0008    0.0008   -0.0150   -0.0087    0.0057   -0.0259    0.0133    0.0000   -0.0180
       83 O3     4d2+      -0.0002    0.0004    0.0004   -0.0021   -0.0012    0.0009   -0.0025    0.0008    0.0000   -0.0028
       84 O3     4f3-      -0.0001    0.0001    0.0000   -0.0024   -0.0009   -0.0007   -0.0075    0.0000    0.0000   -0.0057
       85 O3     4f2-      -0.0000   -0.0000   -0.0000   -0.0000    0.0000    0.0000   -0.0000    0.0000   -0.0051    0.0000
       86 O3     4f1-      -0.0000    0.0002    0.0001   -0.0031   -0.0028    0.0010   -0.0021    0.0034    0.0000   -0.0010
       87 O3     4f0        0.0000   -0.0000   -0.0000    0.0000    0.0000    0.0000   -0.0000    0.0000   -0.0038    0.0000
       88 O3     4f1+       0.0000   -0.0001   -0.0001    0.0013    0.0014   -0.0007    0.0003   -0.0015   -0.0000    0.0011
       89 O3     4f2+       0.0000    0.0000    0.0000   -0.0000   -0.0000    0.0000   -0.0000    0.0000   -0.0049   -0.0000
       90 O3     4f3+       0.0000   -0.0002   -0.0002    0.0051    0.0053   -0.0028    0.0009   -0.0070   -0.0000    0.0003
 
          Orbital           11        12        13        14        15        16        17        18        19        20    
          Energy           -0.5344   -0.4968   -0.0450    0.1743    0.1838    0.2358    0.2523    0.3499    0.3516    0.3783
          Occ. No.          2.0000    2.0000    0.0000    0.0000    0.0000    0.0000    0.0000    0.0000    0.0000    0.0000
 
        1 O1     1s         0.0044   -0.0000   -0.0000   -0.2021   -0.1267    0.0000   -0.0134   -0.0197    0.0726   -0.0000
        2 O1     2s         0.0239   -0.0000   -0.0000   -1.4840   -0.9612    0.0000   -0.0008   -0.0511    0.4130   -0.0000
        3 O1     3s         0.0171   -0.0000    0.0000   -0.8646   -0.5174    0.0000   -0.1382   -0.0341    0.5647   -0.0000
        4 O1     4s         0.0050   -0.0000    0.0000   -0.1946   -0.1069    0.0000   -0.0430   -0.0017    0.1585   -0.0000
        5 O1     2px        0.6619    0.0000   -0.0000    0.4097    0.1910   -0.0000   -0.1255   -0.2225   -0.0353    0.0000
        6 O1     3px        0.0129    0.0000    0.0000    0.3899    0.2809   -0.0000    0.2760   -0.7707    0.2053   -0.0000
        7 O1     4px       -0.0043    0.0000    0.0000    0.0416    0.0690   -0.0000    0.1424   -0.3066    0.1227   -0.0000
        8 O1     2py       -0.0458   -0.0000   -0.0000    0.5642    0.8840    0.0000   -0.3680   -0.2616   -0.0979   -0.0000
        9 O1     3py       -0.0156    0.0000   -0.0000    0.7221    0.7107    0.0000   -0.2219   -0.1717   -0.7567    0.0000
       10 O1     4py       -0.0013    0.0000   -0.0000    0.1106    0.0870    0.0000   -0.0954   -0.0348   -0.1834    0.0000
       11 O1     2pz        0.0000   -0.7019    0.6688    0.0000   -0.0000   -0.1473   -0.0000    0.0000   -0.0000   -0.1653
       12 O1     3pz        0.0000   -0.0323    0.1663    0.0000    0.0000    0.3352    0.0000    0.0000   -0.0000   -0.9141
       13 O1     4pz       -0.0000    0.0068    0.0260    0.0000    0.0000    0.1932    0.0000    0.0000   -0.0000   -0.3678
       14 O1     3d2-      -0.0110   -0.0000    0.0000   -0.0727   -0.0427   -0.0000   -0.0084    0.0007    0.0327   -0.0000
       15 O1     4d2-      -0.0012   -0.0000    0.0000   -0.0471   -0.0283   -0.0000   -0.0045    0.0144    0.0211   -0.0000
       16 O1     3d1-      -0.0000    0.0235    0.0092   -0.0000    0.0000    0.0114   -0.0000   -0.0000    0.0000    0.0026
       17 O1     4d1-       0.0000    0.0058    0.0003    0.0000    0.0000    0.0031   -0.0000   -0.0000    0.0000    0.0100
       18 O1     3d0        0.0051    0.0000   -0.0000    0.0523    0.0419   -0.0000    0.0184   -0.0066   -0.0428    0.0000
       19 O1     4d0        0.0003   -0.0000    0.0000    0.0337    0.0284   -0.0000    0.0086   -0.0108   -0.0250    0.0000
       20 O1     3d1+      -0.0000    0.0104    0.0052   -0.0000   -0.0000    0.0035    0.0000   -0.0000    0.0000    0.0146
       21 O1     4d1+      -0.0000    0.0024    0.0002   -0.0000   -0.0000   -0.0002    0.0000   -0.0000    0.0000    0.0125
       22 O1     3d2+       0.0036    0.0000   -0.0000    0.0550    0.0488   -0.0000    0.0408    0.0031   -0.1010    0.0000
       23 O1     4d2+      -0.0007    0.0000    0.0000    0.0324    0.0363   -0.0000    0.0161   -0.0007   -0.0626    0.0000
       24 O1     4f3-       0.0012    0.0000    0.0000   -0.0038   -0.0010   -0.0000    0.0024   -0.0032    0.0104   -0.0000
       25 O1     4f2-       0.0000   -0.0039   -0.0000    0.0000   -0.0000    0.0018    0.0000    0.0000   -0.0000   -0.0057
       26 O1     4f1-      -0.0015    0.0000   -0.0000   -0.0056   -0.0047    0.0000   -0.0007    0.0053    0.0083   -0.0000
       27 O1     4f0       -0.0000    0.0016    0.0015   -0.0000    0.0000   -0.0017   -0.0000   -0.0000    0.0000    0.0059
       28 O1     4f1+       0.0004    0.0000    0.0000   -0.0017   -0.0027   -0.0000   -0.0009    0.0046    0.0020    0.0000
       29 O1     4f2+       0.0000    0.0036   -0.0006    0.0000    0.0000   -0.0012   -0.0000   -0.0000   -0.0000    0.0029
       30 O1     4f3+      -0.0034   -0.0000    0.0000   -0.0085   -0.0055   -0.0000    0.0007    0.0091    0.0068    0.0000
       31 O2     1s         0.0217   -0.0000   -0.0000   -0.0000    0.3121    0.0000   -0.0232   -0.0000   -0.2012    0.0000
       32 O2     2s         0.2628    0.0000   -0.0000   -0.0000    2.2894    0.0000   -0.3042   -0.0001   -1.1682    0.0000
       33 O2     3s         0.0531   -0.0000    0.0000   -0.0000    1.2208   -0.0000    0.0102   -0.0001   -0.7797    0.0000
       34 O2     4s         0.0131   -0.0000    0.0000   -0.0000    0.2602    0.0000   -0.0006   -0.0000   -0.1318    0.0000
       35 O2     2px       -0.5208   -0.0000    0.0000   -0.0000    0.7316    0.0000   -0.3086   -0.0000   -0.2152   -0.0000
       36 O2     3px       -0.0093    0.0000    0.0000   -0.0000    0.7018   -0.0000    0.2716   -0.0001   -0.7266   -0.0000
       37 O2     4px       -0.0020   -0.0000    0.0000   -0.0000    0.1177   -0.0000    0.1455   -0.0000   -0.0969   -0.0000
       38 O2     2py        0.0000    0.0000    0.0000    1.4208    0.0000   -0.0000   -0.0000   -0.1141    0.0000   -0.0000
       39 O2     3py        0.0000    0.0000    0.0000    1.4044    0.0000   -0.0000   -0.0000    0.4404   -0.0000    0.0000
       40 O2     4py        0.0000    0.0000    0.0000    0.1429    0.0000   -0.0000   -0.0000    0.2099   -0.0000    0.0000
       41 O2     2pz       -0.0000   -0.0000   -0.8686   -0.0000   -0.0000    0.0023   -0.0000   -0.0000    0.0000   -0.0000
       42 O2     3pz        0.0000    0.0000   -0.1876   -0.0000    0.0000    0.3526    0.0000   -0.0000    0.0000   -0.0000
       43 O2     4pz       -0.0000    0.0000   -0.0212   -0.0000    0.0000    0.1964    0.0000   -0.0000    0.0000   -0.0000
       44 O2     3d2-       0.0000    0.0000   -0.0000    0.1321    0.0000   -0.0000   -0.0000    0.0858   -0.0000    0.0000
       45 O2     4d2-       0.0000    0.0000    0.0000    0.0815    0.0000   -0.0000   -0.0000    0.0630   -0.0000    0.0000
       46 O2     3d1-       0.0000   -0.0597    0.0000   -0.0000    0.0000    0.0000    0.0000   -0.0000    0.0000    0.1017
       47 O2     4d1-       0.0000   -0.0140    0.0000   -0.0000    0.0000    0.0000    0.0000   -0.0000    0.0000    0.0611
       48 O2     3d0        0.0190   -0.0000    0.0000    0.0000   -0.0593    0.0000   -0.0607    0.0000    0.1564   -0.0000
       49 O2     4d0        0.0023   -0.0000    0.0000    0.0000   -0.0408    0.0000   -0.0298    0.0000    0.0774   -0.0000
       50 O2     3d1+      -0.0000   -0.0000    0.0034   -0.0000    0.0000   -0.0262   -0.0000   -0.0000   -0.0000    0.0000
       51 O2     4d1+      -0.0000   -0.0000    0.0009   -0.0000    0.0000   -0.0109   -0.0000    0.0000   -0.0000   -0.0000
       52 O2     3d2+       0.0392   -0.0000   -0.0000    0.0000   -0.0528    0.0000   -0.0927    0.0000    0.0751   -0.0000
       53 O2     4d2+       0.0080    0.0000   -0.0000    0.0000   -0.0329    0.0000   -0.0384    0.0000    0.0151   -0.0000
       54 O2     4f3-       0.0000   -0.0000    0.0000   -0.0081   -0.0000    0.0000    0.0000    0.0010   -0.0000    0.0000
       55 O2     4f2-       0.0000   -0.0077    0.0000    0.0000   -0.0000    0.0000    0.0000   -0.0000    0.0000    0.0065
       56 O2     4f1-      -0.0000   -0.0000    0.0000   -0.0091   -0.0000    0.0000    0.0000   -0.0109    0.0000   -0.0000
       57 O2     4f0       -0.0000    0.0000   -0.0020    0.0000   -0.0000   -0.0019    0.0000    0.0000    0.0000    0.0000
       58 O2     4f1+      -0.0006   -0.0000    0.0000    0.0000   -0.0039    0.0000   -0.0048    0.0000    0.0095    0.0000
       59 O2     4f2+       0.0000    0.0000    0.0009    0.0000    0.0000   -0.0018   -0.0000    0.0000    0.0000    0.0000
       60 O2     4f3+       0.0049   -0.0000    0.0000    0.0000   -0.0096    0.0000   -0.0086    0.0000    0.0146    0.0000
       61 O3     1s         0.0044    0.0000   -0.0000    0.2021   -0.1267   -0.0000   -0.0134    0.0197    0.0726    0.0000
       62 O3     2s         0.0239    0.0000   -0.0000    1.4841   -0.9612   -0.0000   -0.0009    0.0512    0.4130   -0.0000
       63 O3     3s         0.0171    0.0000   -0.0000    0.8646   -0.5174    0.0000   -0.1382    0.0342    0.5647   -0.0000
       64 O3     4s         0.0050    0.0000   -0.0000    0.1946   -0.1069    0.0000   -0.0430    0.0018    0.1585    0.0000
       65 O3     2px        0.6619    0.0000   -0.0000   -0.4097    0.1910    0.0000   -0.1255    0.2225   -0.0354    0.0000
       66 O3     3px        0.0129   -0.0000    0.0000   -0.3899    0.2809   -0.0000    0.2760    0.7707    0.2052    0.0000
       67 O3     4px       -0.0043   -0.0000    0.0000   -0.0416    0.0690   -0.0000    0.1424    0.3066    0.1226    0.0000
       68 O3     2py        0.0458    0.0000   -0.0000    0.5642   -0.8840   -0.0000    0.3680   -0.2616    0.0980   -0.0000
       69 O3     3py        0.0156    0.0000   -0.0000    0.7222   -0.7107   -0.0000    0.2219   -0.1716    0.7568   -0.0000
       70 O3     4py        0.0013    0.0000   -0.0000    0.1106   -0.0870   -0.0000    0.0954   -0.0347    0.1834   -0.0000
       71 O3     2pz       -0.0000    0.7019    0.6688    0.0000   -0.0000   -0.1473   -0.0000   -0.0000   -0.0000    0.1653
       72 O3     3pz       -0.0000    0.0323    0.1663    0.0000    0.0000    0.3352    0.0000   -0.0000    0.0000    0.9141
       73 O3     4pz        0.0000   -0.0068    0.0260   -0.0000    0.0000    0.1932    0.0000   -0.0000    0.0000    0.3678
       74 O3     3d2-       0.0110   -0.0000   -0.0000   -0.0727    0.0427    0.0000    0.0084    0.0007   -0.0327    0.0000
       75 O3     4d2-       0.0012   -0.0000   -0.0000   -0.0471    0.0283    0.0000    0.0045    0.0144   -0.0211    0.0000
       76 O3     3d1-      -0.0000    0.0235   -0.0092    0.0000   -0.0000   -0.0114    0.0000    0.0000   -0.0000    0.0026
       77 O3     4d1-      -0.0000    0.0058   -0.0003    0.0000   -0.0000   -0.0031    0.0000    0.0000   -0.0000    0.0100
       78 O3     3d0        0.0051   -0.0000    0.0000   -0.0523    0.0419   -0.0000    0.0184    0.0066   -0.0428    0.0000
       79 O3     4d0        0.0003   -0.0000    0.0000   -0.0337    0.0284   -0.0000    0.0086    0.0108   -0.0250    0.0000
       80 O3     3d1+       0.0000   -0.0104    0.0052   -0.0000   -0.0000    0.0035   -0.0000    0.0000   -0.0000   -0.0146
       81 O3     4d1+      -0.0000   -0.0024    0.0002   -0.0000   -0.0000   -0.0002   -0.0000    0.0000   -0.0000   -0.0125
       82 O3     3d2+       0.0036   -0.0000    0.0000   -0.0550    0.0488   -0.0000    0.0408   -0.0031   -0.1010    0.0000
       83 O3     4d2+      -0.0007   -0.0000    0.0000   -0.0324    0.0363   -0.0000    0.0161    0.0007   -0.0626    0.0000
       84 O3     4f3-      -0.0012   -0.0000    0.0000   -0.0038    0.0010    0.0000   -0.0024   -0.0032   -0.0104   -0.0000
       85 O3     4f2-      -0.0000   -0.0039    0.0000   -0.0000    0.0000   -0.0018   -0.0000    0.0000   -0.0000   -0.0057
       86 O3     4f1-       0.0015   -0.0000    0.0000   -0.0056    0.0047   -0.0000    0.0007    0.0053   -0.0083    0.0000
       87 O3     4f0        0.0000   -0.0016    0.0015   -0.0000    0.0000   -0.0017   -0.0000    0.0000   -0.0000   -0.0059
       88 O3     4f1+       0.0004   -0.0000    0.0000    0.0017   -0.0027    0.0000   -0.0009   -0.0046    0.0020   -0.0000
       89 O3     4f2+       0.0000   -0.0036   -0.0006   -0.0000    0.0000   -0.0012   -0.0000    0.0000   -0.0000   -0.0029
       90 O3     4f3+      -0.0034   -0.0000    0.0000    0.0085   -0.0055    0.0000    0.0007   -0.0091    0.0069   -0.0000
 
          Orbital           21    
          Energy            0.4273
          Occ. No.          0.0000
 
        1 O1     1s        -0.0084
        2 O1     2s        -0.0403
        3 O1     3s         0.2169
        4 O1     4s         0.1128
        5 O1     2px        0.3001
        6 O1     3px        0.6889
        7 O1     4px        0.1849
        8 O1     2py       -0.0622
        9 O1     3py        0.4742
       10 O1     4py        0.1592
       11 O1     2pz       -0.0000
       12 O1     3pz        0.0000
       13 O1     4pz        0.0000
       14 O1     3d2-      -0.1102
       15 O1     4d2-      -0.0749
       16 O1     3d1-       0.0000
       17 O1     4d1-       0.0000
       18 O1     3d0        0.0364
       19 O1     4d0        0.0247
       20 O1     3d1+       0.0000
       21 O1     4d1+       0.0000
       22 O1     3d2+       0.0332
       23 O1     4d2+       0.0183
       24 O1     4f3-       0.0028
       25 O1     4f2-      -0.0000
       26 O1     4f1-      -0.0053
       27 O1     4f0       -0.0000
       28 O1     4f1+      -0.0045
       29 O1     4f2+      -0.0000
       30 O1     4f3+      -0.0125
       31 O2     1s         0.1053
       32 O2     2s         0.5576
       33 O2     3s         0.7519
       34 O2     4s         0.2123
       35 O2     2px       -0.5258
       36 O2     3px       -1.0267
       37 O2     4px       -0.3452
       38 O2     2py        0.0000
       39 O2     3py       -0.0000
       40 O2     4py       -0.0000
       41 O2     2pz        0.0000
       42 O2     3pz        0.0000
       43 O2     4pz        0.0000
       44 O2     3d2-      -0.0000
       45 O2     4d2-      -0.0000
       46 O2     3d1-      -0.0000
       47 O2     4d1-      -0.0000
       48 O2     3d0       -0.0391
       49 O2     4d0       -0.0050
       50 O2     3d1+      -0.0000
       51 O2     4d1+      -0.0000
       52 O2     3d2+      -0.0777
       53 O2     4d2+      -0.0369
       54 O2     4f3-       0.0000
       55 O2     4f2-      -0.0000
       56 O2     4f1-       0.0000
       57 O2     4f0       -0.0000
       58 O2     4f1+       0.0040
       59 O2     4f2+      -0.0000
       60 O2     4f3+       0.0030
       61 O3     1s        -0.0084
       62 O3     2s        -0.0402
       63 O3     3s         0.2169
       64 O3     4s         0.1128
       65 O3     2px        0.3001
       66 O3     3px        0.6889
       67 O3     4px        0.1849
       68 O3     2py        0.0622
       69 O3     3py       -0.4742
       70 O3     4py       -0.1592
       71 O3     2pz       -0.0000
       72 O3     3pz       -0.0000
       73 O3     4pz       -0.0000
       74 O3     3d2-       0.1102
       75 O3     4d2-       0.0749
       76 O3     3d1-      -0.0000
       77 O3     4d1-      -0.0000
       78 O3     3d0        0.0364
       79 O3     4d0        0.0247
       80 O3     3d1+       0.0000
       81 O3     4d1+       0.0000
       82 O3     3d2+       0.0332
       83 O3     4d2+       0.0183
       84 O3     4f3-      -0.0028
       85 O3     4f2-       0.0000
       86 O3     4f1-       0.0053
       87 O3     4f0        0.0000
       88 O3     4f1+      -0.0045
       89 O3     4f2+       0.0000
       90 O3     4f3+      -0.0125
--
 
 
++    Molecular charges:
      ------------------
 
      Mulliken charges per centre and basis function type
      ---------------------------------------------------
 
                O1      O2      O3    
      1s       1.9978  1.9983  1.9978
      2s       1.9470  1.6993  1.9470
      2px      1.8225  1.5898  1.8225
      2pz      1.3785  1.1556  1.3785
      2py      0.9951  1.0369  0.9951
      3s      -0.0021 -0.0258 -0.0021
      3px     -0.0124 -0.0202 -0.0124
      3pz     -0.0096 -0.0141 -0.0096
      3py      0.0035  0.0038  0.0035
      4s       0.0043  0.0022  0.0043
      3d2+     0.0151  0.0374  0.0151
      3d1+     0.0028  0.0070  0.0028
      3d0      0.0057  0.0075  0.0057
      3d1-     0.0124  0.0490  0.0124
      3d2-     0.0136  0.0413  0.0136
      4px      0.0006  0.0015  0.0006
      4pz      0.0013  0.0017  0.0013
      4py      0.0028  0.0032  0.0028
      4d2+     0.0009  0.0064  0.0009
      4d1+     0.0005  0.0009  0.0005
      4d0     -0.0000 -0.0002 -0.0000
      4d1-     0.0015  0.0125  0.0015
      4d2-     0.0004  0.0050  0.0004
      4f3+     0.0027  0.0029  0.0027
      4f2+     0.0009  0.0015  0.0009
      4f1+     0.0003  0.0004  0.0003
      4f0      0.0009  0.0016  0.0009
      4f1-     0.0010  0.0013  0.0010
      4f2-     0.0012  0.0034  0.0012
      4f3-     0.0023  0.0067  0.0023
      Total    8.1916  7.6168  8.1916
 
      N-E     -0.1916  0.3832 -0.1916
 
      Total electronic charge=   24.000000
 
      Total            charge=   -0.000000
--
 
 
  Input file to MOLDEN was generated!
 
 
++    Static properties:
      ------------------
 
 
      LoProp Charges per center
 

                   O1       O2       O3    
      Nuclear      8.0000   8.0000   8.0000
      Electronic  -8.2040  -7.5921  -8.2040
 
      Total       -0.2040   0.4079  -0.2040
--
 
 
++    Natural Bond Order analysis
      ---------------------------
      Based on LoProp computed density
      -------------------------------------------------------------------------------------
      Atom A       Atom B       Bond Order | Atom A       Atom B       Bond Order
        O1           O2             1.997  |   O2           O3             1.997
      -------------------------------------------------------------------------------------
      NBO located     11.999 core electrons.
      NBO located      3.936 lone pair electrons.
      NBO located      7.987 electrons involved in    2 bonds.
      The remaining    0.078 electrons are to be considered as diffuse
--
 
 
++    Molecular properties:
      ---------------------
 
      Charge (e):
                      =   -0.0000
      Dipole Moment (Debye):
      Origin of the operator (Ang)=    0.0000    0.0000    0.0000
                   X= -5.5666E-01               Y=  4.3314E-06               Z= -6.9547E-14           Total=  5.5666E-01
      Quadrupole Moment (Debye*Ang):
      Origin of the operator (Ang)=    0.3618    0.0000    0.0000
                  XX= -1.6049E+01              XY=  8.2135E-07              XZ= -7.8961E-14              YY= -1.7168E+01
                  YZ= -1.5339E-13              ZZ= -1.4915E+01
      In traceless form (Debye*Ang)
                  XX= -7.5868E-03              XY=  1.2320E-06              XZ= -1.1844E-13              YY= -1.6855E+00
                  YZ= -2.3008E-13              ZZ=  1.6931E+00
--
 
 
  Input file to MOLDEN was generated!
 
 ###############################################################################
 ###############################################################################
 ###                                                                         ###
 ###                                                                         ###
 ###    RunFile label nBas                                                   ###
 ###    was used       78 times                                              ###
 ###                                                                         ###
 ###                                                                         ###
 ###############################################################################
 ###############################################################################
forrtl: warning (528): IEEE_UNDERFLOW is signaling
--- Stop Module: scf at Fri Apr 11 18:59:15 2025 /rc=_RC_ALL_IS_WELL_ ---
*** files: ozone_129.75.LprOrb ozone_129.75.LoProp.molden ozone_129.75.scf.molden ozone_129.75.ScfOrb ozone_129.75.scf.h5 xmldump
    saved to directory /home/grierjones/DDCASPT2/ozone/multistate/ANO-RCC-VTZP/ozone_129.75

>>> COPY /tmp/ozone_129.75/ozone_129.75.scf.h5 /home/grierjones/DDCASPT2/ozone/multistate/ANO-RCC-VTZP/ozone_129.75/

*** symbolic link created: INPORB -> ozone_129.75.ScfOrb
--- Start Module: rasscf at Fri Apr 11 18:59:15 2025 ---
 
()()()()()()()()()()()()()()()()()()()()()()()()()()()()()()()()()()()()()()()()()()()()()()()()()()

                                              &RASSCF

                                   only a single process is used
                       available to each process: 2.0 GB of memory, 1 thread?
()()()()()()()()()()()()()()()()()()()()()()()()()()()()()()()()()()()()()()()()()()()()()()()()()()
 
 
      Header of the ONEINT file:
      --------------------------
      
      Integrals generated by seward 4.2.0  , Fri Apr 11 18:59:12 2025
 
 
      OrdInt status: non-squared
 
 
      Cartesian coordinates in Angstrom:
      -----------------------------------------------------
      No.  Label        X            Y            Z        
      -----------------------------------------------------
       1   O1         0.54263200   1.15708000   0.00000000
       2   O2         0.00000000   0.00000000   0.00000000
       3   O3         0.54263200  -1.15708000   0.00000000
      -----------------------------------------------------
      Nuclear repulsion energy =   67.63537209
 
++    Wave function specifications:
      -----------------------------
 
      Number of closed shell electrons          20
      Number of electrons in active shells       4
      Max number of holes in RAS1 space          0
      Max nr of electrons in RAS3 space          0
      Number of inactive orbitals               10
      Number of active orbitals                  3
      Number of secondary orbitals              77
      Spin quantum number                      0.0
      State symmetry                             1
--
 
++    Orbital specifications:
      -----------------------
 
      Symmetry species                           1
                                                 a
      Frozen orbitals                            0
      Inactive orbitals                         10
      Active orbitals                            3
      RAS1 orbitals                              0
      RAS2 orbitals                              3
      RAS3 orbitals                              0
      Secondary orbitals                        77
      Deleted orbitals                           0
      Number of basis functions                 90
--
 
++    CI expansion specifications:
      ----------------------------
 
      Number of CSFs                             6
      Number of determinants                     6
      Number of root(s) required                 3
      Root chosen for geometry opt.              3
      CI roots used                              1     2     3
      weights                                0.333 0.333 0.333
      highest root included in the CI            3
      max. size of the explicit Hamiltonian      6
--
 
++    Optimization specifications:
      ----------------------------
 
      RASSCF algorithm: Conventional
      Maximum number of macro iterations       200
      Maximum number of SX iterations          100
      Threshold for RASSCF energy            0.100E-07
      Threshold for max MO rotation          0.100E+00
      Threshold for max BLB element          0.100E-03
      Level shift parameter                  0.500E+00
      Make Quasi-Newton update
--
 
      The MO-coefficients are taken from the file:
      /home/grierjones/DDCASPT2/ozone/multistate/ANO-RCC-VTZP/ozone_129.50/ozone_129.50.RasOrb                                        
      Title: RASSCF average (pseudo-natural) orbitals                                      
 
      Total molecular charge    0.00
 
      ************************************************************************************************************************
      *                                                                                                                      *
      *                                            Wave function control section                                             *
      *                                                                                                                      *
      ************************************************************************************************************************
 
 
                                         RASSCF iterations: Energy and convergence statistics
                                         ----------------------------------------------------
 
      Iter CI   SX   CI       RASSCF       Energy    max ROT     max BLB   max BLB  Level Ln srch  Step   QN   Walltime
          iter iter root      energy       change     param      element    value   shift minimum  type update hh:mm:ss
 Nr of preliminary CI iterations:   1
        1   1    4    0  -224.46847650    0.00E+00   0.83E-03   12  24 1 -0.11E-02*  0.29   0.00    SX    NO    0:00:00
        2   1    4    0  -224.46848178   -0.53E-05*  0.58E-03   12  24 1 -0.52E-03*  0.29   0.00    SX    NO    0:00:00
        3   1    4    0  -224.46848322   -0.14E-05*  0.42E-03   12  24 1 -0.32E-03*  0.29   0.00    SX    NO    0:00:00
        4   1    4    0  -224.46848377   -0.55E-06*  0.30E-03    8  19 1 -0.16E-03*  0.29   0.00    SX    NO    0:00:00
        5   1    4    0  -224.46848400   -0.24E-06*  0.46E-03    8  11 1  0.11E-03*  0.29   2.50    LS   YES    0:00:00
        6   1    4    0  -224.46848415   -0.14E-06* -0.35E-03   10  37 1 -0.12E-03*  0.29   1.05    QN   YES    0:00:00
        7   1    4    0  -224.46848425   -0.10E-06*  0.20E-03   12  24 1  0.11E-03*  0.29   0.94    QN   YES    0:00:00
        8   1    4    0  -224.46848430   -0.46E-07*  0.12E-02   12  24 1  0.81E-04   0.29   2.50    QN   YES    0:00:00
        9   1    4    0  -224.46848441   -0.11E-06*  0.25E-03    9  24 1 -0.14E-03*  0.29   0.90    QN   YES    0:00:00
       10   1    4    0  -224.46848445   -0.40E-07*  0.42E-03   12  24 1 -0.52E-04   0.29   1.28    QN   YES    0:00:00
       11   1    4    0  -224.46848450   -0.51E-07*  0.19E-02    8  11 1 -0.44E-04   0.29   1.99    QN   YES    0:00:00
       12   1    4    0  -224.46848463   -0.13E-06* -0.61E-03   10  37 1 -0.88E-04   0.29   1.07    QN   YES    0:00:00
       13   1    4    0  -224.46848466   -0.34E-07* -0.91E-03    9  18 1 -0.36E-04   0.29   2.50    LS   YES    0:00:00
       14   1    4    0  -224.46848467   -0.63E-08   0.15E-03    8  19 1  0.58E-04   0.29   0.58    QN   YES    0:00:00
      Convergence after 14 iterations
 
  Dmat in MO in SXCTL bf call to SXHAM                                                                                    
  mat. size =     3x    3
 
        1.2563001887463090
       -0.0022695591059668      1.7634275223755900
       -0.0002236753928007      0.0010346362741647      0.9802722888781011
       15   1    4    0  -224.46848469   -0.21E-07*  0.15E-03   10  37 1  0.36E-04   0.29   0.58    QN   YES    0:00:00
 
      ************************************************************************************************************************
                                                      Wave function printout:
                       occupation of active orbitals, and spin coupling of open shells (u,d: Spin up or down)
      ************************************************************************************************************************
 
      Note: transformation to natural orbitals
      has been made, which may change the order of the CSFs.
 
      printout of CI-coefficients larger than  0.05 for root  1
      energy=    -224.487400
      conf/sym  111     Coeff  Weight
             1  220   0.90905 0.82637
             2  2ud  -0.05536 0.00306
             3  202  -0.07403 0.00548
             4  u2d  -0.39224 0.15385
             5  ud2  -0.08229 0.00677
             6  022  -0.06682 0.00446
 
      printout of CI-coefficients larger than  0.05 for root  2
      energy=    -224.480304
      conf/sym  111     Coeff  Weight
             1  220  -0.19039 0.03625
             2  2ud   0.22230 0.04942
             3  202  -0.39721 0.15778
             4  u2d  -0.41002 0.16811
             5  ud2  -0.44719 0.19997
             6  022   0.62327 0.38847
 
      printout of CI-coefficients larger than  0.05 for root  3
      energy=    -224.437750
      conf/sym  111     Coeff  Weight
             1  220   0.36556 0.13363
             2  2ud   0.28114 0.07904
             3  202  -0.14147 0.02001
             4  u2d   0.78307 0.61319
             5  ud2  -0.06975 0.00487
             6  022   0.38633 0.14925
 
      Natural orbitals and occupation numbers for root  1
      sym 1:   1.934295   1.997767   0.067938
 
      Natural orbitals and occupation numbers for root  2
      sym 1:   0.666313   1.481310   1.852377
 
      Natural orbitals and occupation numbers for root  3
      sym 1:   0.232694   1.999745   1.767562
 
      ************************************************************************************************************************
      *                                                                                                                      *
      *                                                    Final results                                                     *
      *                                                                                                                      *
      ************************************************************************************************************************
 
 
++    Wave function specifications:
      -----------------------------
 
      Number of closed shell electrons          20
      Number of electrons in active shells       4
      Max number of holes in RAS1 space          0
      Max nr of electrons in RAS3 space          0
      Number of inactive orbitals               10
      Number of active orbitals                  3
      Number of secondary orbitals              77
      Spin quantum number                      0.0
      State symmetry                             1
--
 
++    Orbital specifications:
      -----------------------
 
      Symmetry species                           1
                                                 a
      Frozen orbitals                            0
      Inactive orbitals                         10
      Active orbitals                            3
      RAS1 orbitals                              0
      RAS2 orbitals                              3
      RAS3 orbitals                              0
      Secondary orbitals                        77
      Deleted orbitals                           0
      Number of basis functions                 90
--
 
++    CI expansion specifications:
      ----------------------------
 
      Number of CSFs                             6
      Number of determinants                     6
      Number of root(s) required                 3
      CI roots used                              1     2     3
      weights                                0.333 0.333 0.333
      highest root included in the CI            3
      Root passed to geometry opt.               3
--
 
++    Final optimization conditions:
      ------------------------------
 
      Average CI energy                            -224.46848469
      RASSCF energy for state  3                   -224.43775038
      Super-CI energy                                -0.00000002
      RASSCF energy change                           -0.00000002
      Max change in MO coefficients               0.141E-03
      Max non-diagonal density matrix element     0.147E-03
      Maximum BLB matrix element                  0.361E-04
      (orbital pair  10,  37 in symmetry   1)
      Norm of electronic gradient            0.173E+00
--
 
 
      Final state energy(ies):
      ------------------------
 
::    RASSCF root number  1 Total energy:   -224.48739973
::    RASSCF root number  2 Total energy:   -224.48030396
::    RASSCF root number  3 Total energy:   -224.43775038
 
++    Molecular orbitals:
      -------------------
 
      Pseudonatural active orbitals and approximate occupation numbers
 
 
 
 
      Molecular orbitals for symmetry species 1: a  
 
 
      Orbital                1         2         3         4         5         6         7         8         9        10
      Energy          -20.8312  -20.7440  -20.7320   -1.7071   -1.4354   -1.0707   -0.7874   -0.7792   -0.7712   -0.5557
      Occ. No.          2.0000    2.0000    2.0000    2.0000    2.0000    2.0000    2.0000    2.0000    2.0000    2.0000
 
    1 O1     1s         0.0040    0.9989    0.0018   -0.0132    0.0107    0.0133   -0.0006   -0.0119    0.0217   -0.0003
    2 O1     2s         0.0033   -0.0075   -0.0003    0.3623   -0.5859    0.6223   -0.0131   -0.2149    0.3636   -0.0023
    3 O1     3s         0.0019   -0.0053   -0.0001   -0.0114    0.0192    0.0216   -0.0009   -0.0250    0.0485    0.0002
    4 O1     4s         0.0003   -0.0010    0.0000   -0.0009    0.0041    0.0034   -0.0002   -0.0057    0.0105    0.0002
    5 O1     2px       -0.0007    0.0016   -0.0001   -0.0339    0.0363    0.0833    0.0761    0.1164    0.1705    0.1921
    6 O1     3px       -0.0006    0.0015   -0.0002    0.0115   -0.0061   -0.0159   -0.0052   -0.0080   -0.0255    0.0042
    7 O1     4px       -0.0000   -0.0008   -0.0001    0.0021    0.0002   -0.0000   -0.0006   -0.0016   -0.0016   -0.0015
    8 O1     2py       -0.0021    0.0033    0.0003   -0.1185    0.0798    0.1488   -0.0559   -0.3844    0.3674   -0.0821
    9 O1     3py       -0.0011    0.0033    0.0002    0.0153   -0.0156   -0.0233    0.0039    0.0328   -0.0356   -0.0020
   10 O1     4py        0.0005   -0.0020   -0.0000    0.0010   -0.0038    0.0010    0.0009    0.0062   -0.0040    0.0004
   11 O1     2pz        0.0000    0.0000   -0.0000    0.0011   -0.0035   -0.0035   -0.3927    0.0600   -0.0015   -0.7237
   12 O1     3pz       -0.0000    0.0000    0.0000   -0.0001    0.0001    0.0002    0.0274   -0.0055   -0.0027   -0.0106
   13 O1     4pz       -0.0000   -0.0000   -0.0000   -0.0000    0.0000   -0.0000    0.0050   -0.0011   -0.0002    0.0065
   14 O1     3d2-       0.0003   -0.0012   -0.0000    0.0132   -0.0125   -0.0124   -0.0026   -0.0005   -0.0242   -0.0025
   15 O1     4d2-       0.0001   -0.0007    0.0000    0.0012   -0.0015   -0.0008   -0.0002   -0.0006   -0.0020   -0.0005
   16 O1     3d1-      -0.0000    0.0000   -0.0000   -0.0000   -0.0001    0.0001    0.0249   -0.0056   -0.0016    0.0148
   17 O1     4d1-      -0.0000   -0.0000   -0.0000   -0.0000   -0.0000    0.0000    0.0031   -0.0008   -0.0002    0.0026
   18 O1     3d0       -0.0003    0.0010    0.0000   -0.0111    0.0084    0.0079   -0.0009   -0.0114    0.0152   -0.0002
   19 O1     4d0       -0.0002    0.0005    0.0000   -0.0008    0.0011    0.0006   -0.0001   -0.0009    0.0011   -0.0001
   20 O1     3d1+      -0.0000   -0.0001   -0.0000   -0.0002    0.0005   -0.0004    0.0110   -0.0024   -0.0009    0.0058
   21 O1     4d1+      -0.0000    0.0000   -0.0000   -0.0000    0.0001   -0.0001    0.0015   -0.0004   -0.0002    0.0007
   22 O1     3d2+      -0.0005    0.0010    0.0001   -0.0155    0.0092    0.0066   -0.0051   -0.0298    0.0130   -0.0025
   23 O1     4d2+      -0.0003    0.0006    0.0001   -0.0021    0.0013    0.0006   -0.0006   -0.0034    0.0010   -0.0005
   24 O1     4f3-       0.0001   -0.0001    0.0000    0.0021   -0.0008    0.0005    0.0015    0.0065    0.0003    0.0008
   25 O1     4f2-       0.0000    0.0000    0.0000   -0.0001    0.0000    0.0001   -0.0044    0.0006    0.0005   -0.0026
   26 O1     4f1-       0.0001   -0.0002    0.0000    0.0039   -0.0032   -0.0016    0.0005    0.0036   -0.0039    0.0004
   27 O1     4f0       -0.0000   -0.0000   -0.0000   -0.0000    0.0000   -0.0000    0.0050   -0.0012   -0.0004    0.0033
   28 O1     4f1+       0.0000   -0.0001   -0.0000    0.0017   -0.0016   -0.0011   -0.0008   -0.0003   -0.0023   -0.0010
   29 O1     4f2+      -0.0000    0.0000    0.0000   -0.0001    0.0000    0.0001    0.0038   -0.0008   -0.0001    0.0018
   30 O1     4f3+       0.0000   -0.0003    0.0000    0.0046   -0.0046   -0.0027   -0.0002    0.0018   -0.0058   -0.0001
   31 O2     1s         0.9991   -0.0023   -0.0019   -0.0281   -0.0000   -0.0152   -0.0025   -0.0140   -0.0009    0.0030
   32 O2     2s        -0.0060    0.0079    0.0081    0.6014    0.0143   -0.6648   -0.0335   -0.1878   -0.0081    0.0379
   33 O2     3s        -0.0046    0.0046    0.0047   -0.0607   -0.0003   -0.0255   -0.0051   -0.0303   -0.0021    0.0077
   34 O2     4s        -0.0008    0.0007    0.0008   -0.0121   -0.0000   -0.0047   -0.0013   -0.0077   -0.0006    0.0018
   35 O2     2px       -0.0011    0.0023    0.0023    0.0818   -0.0004    0.1511    0.1398    0.6885    0.1007   -0.0667
   36 O2     3px       -0.0017    0.0015    0.0015   -0.0343   -0.0005   -0.0175   -0.0120   -0.0496   -0.0083   -0.0020
   37 O2     4px        0.0016   -0.0005   -0.0005   -0.0037   -0.0001    0.0014   -0.0028   -0.0114   -0.0020    0.0001
   38 O2     2py       -0.0001    0.0043   -0.0043    0.0032   -0.3025   -0.0089   -0.0272    0.0860   -0.5393    0.0124
   39 O2     3py       -0.0001    0.0027   -0.0028   -0.0006    0.0598    0.0007    0.0032   -0.0088    0.0459    0.0022
   40 O2     4py        0.0001   -0.0008    0.0008   -0.0001   -0.0011    0.0001    0.0005   -0.0015    0.0096    0.0005
   41 O2     2pz        0.0000   -0.0000    0.0000    0.0013    0.0011    0.0010   -0.6845    0.1653    0.0751    0.1031
   42 O2     3pz        0.0000   -0.0000    0.0000   -0.0000   -0.0001   -0.0001    0.0475   -0.0097   -0.0043    0.0034
   43 O2     4pz        0.0000    0.0000   -0.0000    0.0000   -0.0000    0.0000    0.0126   -0.0027   -0.0012   -0.0009
   44 O2     3d2-      -0.0000    0.0009   -0.0009    0.0004   -0.0350   -0.0002   -0.0019    0.0082   -0.0362    0.0090
   45 O2     4d2-      -0.0000    0.0004   -0.0004    0.0000   -0.0035    0.0001   -0.0003    0.0013   -0.0043    0.0017
   46 O2     3d1-      -0.0000   -0.0000   -0.0000   -0.0001   -0.0002    0.0003   -0.0012    0.0004   -0.0017   -0.0436
   47 O2     4d1-       0.0000   -0.0000   -0.0000   -0.0001   -0.0000    0.0002   -0.0001    0.0002   -0.0003   -0.0082
   48 O2     3d0        0.0007   -0.0008   -0.0008   -0.0160    0.0004   -0.0047   -0.0032   -0.0168   -0.0016    0.0025
   49 O2     4d0        0.0005   -0.0004   -0.0004    0.0001    0.0001   -0.0001   -0.0002   -0.0012   -0.0000    0.0003
   50 O2     3d1+       0.0000    0.0000   -0.0000    0.0002   -0.0002   -0.0002   -0.0233    0.0051    0.0021    0.0016
   51 O2     4d1+      -0.0000    0.0000    0.0000    0.0000   -0.0000   -0.0001   -0.0025    0.0006    0.0002    0.0003
   52 O2     3d2+       0.0006   -0.0008   -0.0008   -0.0157    0.0002    0.0012    0.0051    0.0166    0.0043    0.0034
   53 O2     4d2+       0.0003   -0.0004   -0.0004   -0.0014    0.0001    0.0008    0.0008    0.0026    0.0007    0.0006
   54 O2     4f3-       0.0000   -0.0000    0.0000    0.0000    0.0025    0.0001    0.0003   -0.0003    0.0029    0.0018
   55 O2     4f2-       0.0000    0.0000    0.0000    0.0001    0.0000   -0.0000   -0.0002   -0.0000   -0.0002   -0.0065
   56 O2     4f1-       0.0000   -0.0001    0.0001   -0.0002    0.0067    0.0002    0.0004   -0.0011    0.0063   -0.0002
   57 O2     4f0       -0.0000   -0.0000   -0.0000   -0.0000    0.0000    0.0000    0.0080   -0.0017   -0.0007   -0.0004
   58 O2     4f1+       0.0001   -0.0001   -0.0001   -0.0033    0.0000   -0.0006   -0.0009   -0.0042   -0.0006    0.0001
   59 O2     4f2+      -0.0000    0.0000   -0.0000    0.0000    0.0000   -0.0001    0.0060   -0.0013   -0.0006   -0.0003
   60 O2     4f3+       0.0002   -0.0002   -0.0002   -0.0090   -0.0000   -0.0005   -0.0013   -0.0064   -0.0008    0.0007
   61 O3     1s         0.0036   -0.0019    0.9989   -0.0130   -0.0112    0.0126   -0.0029   -0.0044   -0.0249    0.0012
   62 O3     2s         0.0031   -0.0003   -0.0076    0.3480    0.5842    0.6210   -0.0560   -0.0861   -0.4316    0.0056
   63 O3     3s         0.0018   -0.0001   -0.0054   -0.0105   -0.0188    0.0210   -0.0060   -0.0086   -0.0548    0.0039
   64 O3     4s         0.0003    0.0000   -0.0010   -0.0007   -0.0039    0.0033   -0.0013   -0.0021   -0.0118    0.0011
   65 O3     2px       -0.0006   -0.0001    0.0016   -0.0363   -0.0306    0.0819    0.0401    0.1562   -0.0953   -0.0526
   66 O3     3px       -0.0005   -0.0002    0.0016    0.0113    0.0067   -0.0153   -0.0009   -0.0187    0.0225   -0.0010
   67 O3     4px       -0.0000   -0.0001   -0.0008    0.0022   -0.0003    0.0001   -0.0005   -0.0014    0.0007    0.0007
   68 O3     2py        0.0019   -0.0003   -0.0033    0.1129    0.0835   -0.1356    0.0941    0.2297    0.4612   -0.0876
   69 O3     3py        0.0011   -0.0002   -0.0033   -0.0144   -0.0158    0.0217   -0.0078   -0.0195   -0.0429    0.0018
   70 O3     4py       -0.0005    0.0000    0.0021   -0.0009   -0.0038   -0.0012   -0.0015   -0.0041   -0.0054    0.0010
   71 O3     2pz       -0.0000   -0.0000    0.0000   -0.0022    0.0016    0.0025   -0.3230    0.0677    0.0521    0.6410
   72 O3     3pz       -0.0000   -0.0000   -0.0000    0.0001    0.0002   -0.0002    0.0235   -0.0061   -0.0018    0.0072
   73 O3     4pz        0.0000    0.0000    0.0000    0.0000   -0.0000    0.0000    0.0047   -0.0010   -0.0008   -0.0072
   74 O3     3d2-      -0.0003    0.0000    0.0012   -0.0129   -0.0125    0.0119    0.0001    0.0075   -0.0227   -0.0006
   75 O3     4d2-      -0.0001   -0.0000    0.0007   -0.0011   -0.0015    0.0008    0.0001    0.0008   -0.0018   -0.0004
   76 O3     3d1-      -0.0000   -0.0000   -0.0000   -0.0001   -0.0001    0.0000   -0.0243    0.0054    0.0031    0.0192
   77 O3     4d1-      -0.0000   -0.0000   -0.0000   -0.0000   -0.0000    0.0000   -0.0033    0.0007    0.0005    0.0035
   78 O3     3d0       -0.0003    0.0000    0.0009   -0.0109   -0.0091    0.0066   -0.0026   -0.0057   -0.0176    0.0014
   79 O3     4d0       -0.0002    0.0000    0.0005   -0.0007   -0.0012    0.0003   -0.0002   -0.0006   -0.0014    0.0001
   80 O3     3d1+      -0.0000    0.0000    0.0000   -0.0000    0.0001    0.0002    0.0107   -0.0023   -0.0014   -0.0077
   81 O3     4d1+       0.0000    0.0000   -0.0000   -0.0000    0.0000    0.0001    0.0016   -0.0003   -0.0002   -0.0009
   82 O3     3d2+      -0.0004    0.0000    0.0010   -0.0149   -0.0093    0.0065   -0.0069   -0.0227   -0.0218    0.0045
   83 O3     4d2+      -0.0002    0.0001    0.0006   -0.0020   -0.0013    0.0007   -0.0008   -0.0026   -0.0021    0.0006
   84 O3     4f3-      -0.0001   -0.0000    0.0001   -0.0021   -0.0009   -0.0004   -0.0016   -0.0063   -0.0021    0.0010
   85 O3     4f2-      -0.0000    0.0000    0.0000   -0.0000   -0.0000    0.0001    0.0043   -0.0010   -0.0007   -0.0033
   86 O3     4f1-      -0.0001   -0.0000    0.0002   -0.0036   -0.0032    0.0013   -0.0008   -0.0018   -0.0044    0.0005
   87 O3     4f0        0.0000    0.0000    0.0000   -0.0000   -0.0000    0.0000    0.0043   -0.0010   -0.0006   -0.0031
   88 O3     4f1+       0.0000   -0.0000   -0.0001    0.0015    0.0016   -0.0009    0.0001   -0.0008    0.0019   -0.0002
   89 O3     4f2+       0.0000    0.0000    0.0000    0.0000    0.0000   -0.0000    0.0039   -0.0010   -0.0005   -0.0027
   90 O3     4f3+       0.0000    0.0000   -0.0003    0.0047    0.0048   -0.0027    0.0005   -0.0002    0.0064   -0.0003
 
 
      Orbital               11        12        13        14        15        16        17        18        19        20
      Energy            0.0000    0.0000    0.0000    0.1749    0.1878    0.2371    0.2590    0.3514    0.3581    0.3764
      Occ. No.          1.2563    1.7634    0.9803    0.0000    0.0000    0.0000    0.0000    0.0000    0.0000    0.0000
 
    1 O1     1s        -0.0025    0.0005    0.0000   -0.2091   -0.1174   -0.0006    0.0004   -0.0204    0.0733   -0.0005
    2 O1     2s        -0.0038    0.0498    0.0029   -1.5335   -0.8903   -0.0051   -0.0828   -0.0605    0.4151   -0.0032
    3 O1     3s        -0.0126   -0.0025   -0.0005   -0.8919   -0.4730   -0.0019    0.0688   -0.0491    0.5802   -0.0024
    4 O1     4s        -0.0041   -0.0013   -0.0002   -0.1997   -0.0960   -0.0004    0.0254   -0.0067    0.1618   -0.0005
    5 O1     2px       -0.8059    0.4185    0.0406    0.4192    0.1743    0.0024    0.1128   -0.2225   -0.0459    0.0002
    6 O1     3px       -0.0072   -0.0000   -0.0027    0.4230    0.2855   -0.0028   -0.3168   -0.7994    0.1089    0.0013
    7 O1     4px        0.0081   -0.0048   -0.0014    0.0514    0.0775   -0.0025   -0.1632   -0.3195    0.0874   -0.0007
    8 O1     2py        0.1446   -0.2819   -0.0247    0.6016    0.8360    0.0054    0.4021   -0.2261   -0.0859    0.0027
    9 O1     3py        0.0099   -0.0059    0.0009    0.7700    0.6711    0.0061    0.3126   -0.1107   -0.7767    0.0071
   10 O1     4py        0.0001    0.0027    0.0004    0.1186    0.0794    0.0021    0.1138   -0.0174   -0.1844    0.0020
   11 O1     2pz       -0.1213    0.0946    0.5962   -0.0002    0.0035    0.0590    0.0015   -0.0007    0.0047   -0.1898
   12 O1     3pz        0.0027   -0.0002    0.0429    0.0025    0.0007   -0.4042    0.0086    0.0006   -0.0009   -0.9220
   13 O1     4pz        0.0022   -0.0016    0.0029    0.0009    0.0003   -0.2094    0.0036   -0.0003   -0.0004   -0.3639
   14 O1     3d2-       0.0143   -0.0090   -0.0013   -0.0772   -0.0398   -0.0003    0.0064   -0.0004    0.0380   -0.0004
   15 O1     4d2-       0.0020   -0.0020   -0.0003   -0.0502   -0.0268   -0.0002    0.0036    0.0134    0.0246   -0.0004
   16 O1     3d1-       0.0041   -0.0032    0.0097   -0.0001    0.0000   -0.0071    0.0002    0.0000   -0.0003    0.0051
   17 O1     4d1-       0.0008   -0.0006    0.0019   -0.0001   -0.0000   -0.0001    0.0000   -0.0000   -0.0003    0.0110
   18 O1     3d0       -0.0038   -0.0012    0.0001    0.0546    0.0400    0.0001   -0.0140   -0.0056   -0.0519    0.0003
   19 O1     4d0       -0.0000   -0.0003    0.0001    0.0350    0.0273    0.0000   -0.0055   -0.0099   -0.0308    0.0002
   20 O1     3d1+       0.0012   -0.0014    0.0070    0.0002    0.0001   -0.0030    0.0001    0.0001    0.0006    0.0151
   21 O1     4d1+       0.0001   -0.0002    0.0017    0.0002    0.0000    0.0006    0.0000    0.0000    0.0005    0.0123
   22 O1     3d2+       0.0009   -0.0131   -0.0011    0.0590    0.0458   -0.0003   -0.0326    0.0079   -0.1093    0.0007
   23 O1     4d2+       0.0009   -0.0021   -0.0001    0.0356    0.0346   -0.0001   -0.0099    0.0027   -0.0658    0.0004
   24 O1     4f3-      -0.0012    0.0035   -0.0000   -0.0038    0.0002   -0.0001   -0.0029   -0.0044    0.0111   -0.0001
   25 O1     4f2-       0.0002    0.0003   -0.0012   -0.0000    0.0002   -0.0024    0.0002   -0.0001    0.0003   -0.0061
   26 O1     4f1-       0.0005    0.0009    0.0001   -0.0060   -0.0052   -0.0001   -0.0007    0.0052    0.0084   -0.0001
   27 O1     4f0        0.0020   -0.0011    0.0005   -0.0000    0.0000    0.0018   -0.0001   -0.0001    0.0000    0.0055
   28 O1     4f1+       0.0026   -0.0013   -0.0003   -0.0021   -0.0028    0.0001    0.0002    0.0043    0.0027    0.0001
   29 O1     4f2+      -0.0008    0.0002    0.0006    0.0000    0.0000    0.0020    0.0001    0.0000    0.0000    0.0035
   30 O1     4f3+       0.0016    0.0001    0.0004   -0.0089   -0.0049   -0.0000   -0.0003    0.0087    0.0084   -0.0001
   31 O2     1s        -0.0217   -0.0060   -0.0006    0.0175    0.3134    0.0001    0.0517    0.0106   -0.2091    0.0018
   32 O2     2s        -0.2490   -0.0734   -0.0073    0.1281    2.3012    0.0025    0.4942    0.0630   -1.1980    0.0103
   33 O2     3s        -0.0578   -0.0158   -0.0016    0.0715    1.2479   -0.0013    0.1139    0.0466   -0.8380    0.0082
   34 O2     4s        -0.0138   -0.0038   -0.0004    0.0156    0.2663   -0.0003    0.0237    0.0093   -0.1473    0.0018
   35 O2     2px        0.4399    0.1180    0.0102    0.0407    0.7199    0.0054    0.4076    0.0130   -0.1504    0.0016
   36 O2     3px        0.0214    0.0073    0.0009    0.0336    0.6988   -0.0039   -0.1273    0.0434   -0.6915    0.0009
   37 O2     4px        0.0015    0.0005    0.0000    0.0044    0.1157   -0.0021   -0.1240    0.0086   -0.0962   -0.0007
   38 O2     2py       -0.0025   -0.0519   -0.0047    1.4079   -0.0735    0.0032   -0.0062   -0.1293    0.0166    0.0002
   39 O2     3py       -0.0042    0.0221    0.0020    1.4052   -0.0854    0.0066   -0.0110    0.3768    0.0239   -0.0014
   40 O2     4py       -0.0005    0.0034    0.0002    0.1401   -0.0104    0.0008   -0.0007    0.1969    0.0104   -0.0004
   41 O2     2pz       -0.0262    0.0247   -0.7750    0.0003   -0.0042    0.1035   -0.0043    0.0003   -0.0081    0.0101
   42 O2     3pz       -0.0013    0.0036   -0.0786   -0.0005   -0.0015   -0.2590    0.0022   -0.0011   -0.0060    0.0260
   43 O2     4pz        0.0001    0.0001   -0.0023    0.0001   -0.0004   -0.1717    0.0023   -0.0002   -0.0012    0.0093
   44 O2     3d2-      -0.0089    0.0322    0.0016    0.1354   -0.0085    0.0013   -0.0001    0.0818    0.0016   -0.0002
   45 O2     4d2-      -0.0016    0.0065    0.0003    0.0823   -0.0053    0.0007   -0.0002    0.0608    0.0017   -0.0001
   46 O2     3d1-      -0.0069    0.0075   -0.0055   -0.0000   -0.0001    0.0005    0.0001    0.0001    0.0002    0.0951
   47 O2     4d1-      -0.0012    0.0014   -0.0014   -0.0000   -0.0001    0.0005   -0.0000    0.0001    0.0001    0.0590
   48 O2     3d0       -0.0159   -0.0050   -0.0005   -0.0035   -0.0618    0.0009    0.0445   -0.0075    0.1576   -0.0009
   49 O2     4d0       -0.0017   -0.0006   -0.0001   -0.0022   -0.0411    0.0005    0.0216   -0.0039    0.0771   -0.0004
   50 O2     3d1+      -0.0008    0.0004    0.0006    0.0001    0.0001    0.0246   -0.0002    0.0003    0.0002   -0.0004
   51 O2     4d1+      -0.0001    0.0001    0.0008    0.0000    0.0000    0.0110   -0.0001    0.0002    0.0001    0.0000
   52 O2     3d2+      -0.0346   -0.0098   -0.0001   -0.0031   -0.0593    0.0014    0.0849   -0.0042    0.0879   -0.0004
   53 O2     4d2+      -0.0059   -0.0017   -0.0001   -0.0019   -0.0356    0.0006    0.0369   -0.0013    0.0217   -0.0001
   54 O2     4f3-      -0.0023    0.0092    0.0005   -0.0081    0.0004    0.0000    0.0002    0.0014    0.0000   -0.0000
   55 O2     4f2-      -0.0010    0.0011   -0.0005   -0.0000   -0.0000    0.0001    0.0000    0.0000    0.0000    0.0059
   56 O2     4f1-      -0.0000    0.0006    0.0002   -0.0097    0.0007   -0.0000    0.0000   -0.0098   -0.0005    0.0000
   57 O2     4f0        0.0003    0.0001    0.0007    0.0000    0.0000    0.0015    0.0000    0.0000    0.0001   -0.0002
   58 O2     4f1+      -0.0006    0.0000   -0.0002   -0.0002   -0.0047    0.0000    0.0025   -0.0005    0.0083   -0.0000
   59 O2     4f2+       0.0002   -0.0001    0.0012    0.0000    0.0000    0.0015   -0.0000   -0.0000    0.0001   -0.0002
   60 O2     4f3+      -0.0043   -0.0012   -0.0002   -0.0005   -0.0102    0.0001    0.0062   -0.0009    0.0153   -0.0001
   61 O3     1s        -0.0032   -0.0018   -0.0001    0.1950   -0.1403    0.0011   -0.0021    0.0112    0.0765   -0.0006
   62 O3     2s         0.0069   -0.0455   -0.0039    1.4272   -1.0554    0.0062   -0.0999    0.0059    0.4325   -0.0036
   63 O3     3s        -0.0147   -0.0053   -0.0011    0.8408   -0.5725    0.0062    0.0562   -0.0056    0.5804   -0.0029
[...]

>>> COPY /tmp/ozone_129.75/GMJ_IVECC2_E_P_2_.csv /home/grierjones/DDCASPT2/ozone/multistate/ANO-RCC-VTZP/ozone_129.75/GMJ_IVECC2_E_P_2_.csv

>>> COPY /tmp/ozone_129.75/GMJ_e2_E_P_2_.csv /home/grierjones/DDCASPT2/ozone/multistate/ANO-RCC-VTZP/ozone_129.75/GMJ_e2_E_P_2_.csv

>>> END FOREACH

>>> EXPORT j = M

>>> IF (-FILE GMJ_e2_${i}_${j}_${k}_.csv)

>>> COPY /tmp/ozone_129.75/GMJ_RHS_E_M_2_.csv /home/grierjones/DDCASPT2/ozone/multistate/ANO-RCC-VTZP/ozone_129.75/GMJ_RHS_E_M_2_.csv

>>> COPY /tmp/ozone_129.75/GMJ_IVECW_E_M_2_.csv /home/grierjones/DDCASPT2/ozone/multistate/ANO-RCC-VTZP/ozone_129.75/GMJ_IVECW_E_M_2_.csv

>>> COPY /tmp/ozone_129.75/GMJ_IVECX_E_M_2_.csv /home/grierjones/DDCASPT2/ozone/multistate/ANO-RCC-VTZP/ozone_129.75/GMJ_IVECX_E_M_2_.csv

>>> COPY /tmp/ozone_129.75/GMJ_IVECC2_E_M_2_.csv /home/grierjones/DDCASPT2/ozone/multistate/ANO-RCC-VTZP/ozone_129.75/GMJ_IVECC2_E_M_2_.csv

>>> COPY /tmp/ozone_129.75/GMJ_e2_E_M_2_.csv /home/grierjones/DDCASPT2/ozone/multistate/ANO-RCC-VTZP/ozone_129.75/GMJ_e2_E_M_2_.csv

>>> END FOREACH

>>> END FOREACH

>>> EXPORT i = F

>>> EXPORT j = P

>>> IF (-FILE GMJ_e2_${i}_${j}_${k}_.csv)

>>> COPY /tmp/ozone_129.75/GMJ_RHS_F_P_2_.csv /home/grierjones/DDCASPT2/ozone/multistate/ANO-RCC-VTZP/ozone_129.75/GMJ_RHS_F_P_2_.csv

>>> COPY /tmp/ozone_129.75/GMJ_IVECW_F_P_2_.csv /home/grierjones/DDCASPT2/ozone/multistate/ANO-RCC-VTZP/ozone_129.75/GMJ_IVECW_F_P_2_.csv

>>> COPY /tmp/ozone_129.75/GMJ_IVECX_F_P_2_.csv /home/grierjones/DDCASPT2/ozone/multistate/ANO-RCC-VTZP/ozone_129.75/GMJ_IVECX_F_P_2_.csv

>>> COPY /tmp/ozone_129.75/GMJ_IVECC2_F_P_2_.csv /home/grierjones/DDCASPT2/ozone/multistate/ANO-RCC-VTZP/ozone_129.75/GMJ_IVECC2_F_P_2_.csv

>>> COPY /tmp/ozone_129.75/GMJ_e2_F_P_2_.csv /home/grierjones/DDCASPT2/ozone/multistate/ANO-RCC-VTZP/ozone_129.75/GMJ_e2_F_P_2_.csv

>>> END FOREACH

>>> EXPORT j = M

>>> IF (-FILE GMJ_e2_${i}_${j}_${k}_.csv)

>>> COPY /tmp/ozone_129.75/GMJ_RHS_F_M_2_.csv /home/grierjones/DDCASPT2/ozone/multistate/ANO-RCC-VTZP/ozone_129.75/GMJ_RHS_F_M_2_.csv

>>> COPY /tmp/ozone_129.75/GMJ_IVECW_F_M_2_.csv /home/grierjones/DDCASPT2/ozone/multistate/ANO-RCC-VTZP/ozone_129.75/GMJ_IVECW_F_M_2_.csv

>>> COPY /tmp/ozone_129.75/GMJ_IVECX_F_M_2_.csv /home/grierjones/DDCASPT2/ozone/multistate/ANO-RCC-VTZP/ozone_129.75/GMJ_IVECX_F_M_2_.csv

>>> COPY /tmp/ozone_129.75/GMJ_IVECC2_F_M_2_.csv /home/grierjones/DDCASPT2/ozone/multistate/ANO-RCC-VTZP/ozone_129.75/GMJ_IVECC2_F_M_2_.csv

>>> COPY /tmp/ozone_129.75/GMJ_e2_F_M_2_.csv /home/grierjones/DDCASPT2/ozone/multistate/ANO-RCC-VTZP/ozone_129.75/GMJ_e2_F_M_2_.csv

>>> END FOREACH

>>> END FOREACH

>>> EXPORT i = G

>>> EXPORT j = P

>>> IF (-FILE GMJ_e2_${i}_${j}_${k}_.csv)

>>> COPY /tmp/ozone_129.75/GMJ_RHS_G_P_2_.csv /home/grierjones/DDCASPT2/ozone/multistate/ANO-RCC-VTZP/ozone_129.75/GMJ_RHS_G_P_2_.csv

>>> COPY /tmp/ozone_129.75/GMJ_IVECW_G_P_2_.csv /home/grierjones/DDCASPT2/ozone/multistate/ANO-RCC-VTZP/ozone_129.75/GMJ_IVECW_G_P_2_.csv

>>> COPY /tmp/ozone_129.75/GMJ_IVECX_G_P_2_.csv /home/grierjones/DDCASPT2/ozone/multistate/ANO-RCC-VTZP/ozone_129.75/GMJ_IVECX_G_P_2_.csv

>>> COPY /tmp/ozone_129.75/GMJ_IVECC2_G_P_2_.csv /home/grierjones/DDCASPT2/ozone/multistate/ANO-RCC-VTZP/ozone_129.75/GMJ_IVECC2_G_P_2_.csv

>>> COPY /tmp/ozone_129.75/GMJ_e2_G_P_2_.csv /home/grierjones/DDCASPT2/ozone/multistate/ANO-RCC-VTZP/ozone_129.75/GMJ_e2_G_P_2_.csv

>>> END FOREACH

>>> EXPORT j = M

>>> IF (-FILE GMJ_e2_${i}_${j}_${k}_.csv)

>>> COPY /tmp/ozone_129.75/GMJ_RHS_G_M_2_.csv /home/grierjones/DDCASPT2/ozone/multistate/ANO-RCC-VTZP/ozone_129.75/GMJ_RHS_G_M_2_.csv

>>> COPY /tmp/ozone_129.75/GMJ_IVECW_G_M_2_.csv /home/grierjones/DDCASPT2/ozone/multistate/ANO-RCC-VTZP/ozone_129.75/GMJ_IVECW_G_M_2_.csv

>>> COPY /tmp/ozone_129.75/GMJ_IVECX_G_M_2_.csv /home/grierjones/DDCASPT2/ozone/multistate/ANO-RCC-VTZP/ozone_129.75/GMJ_IVECX_G_M_2_.csv

>>> COPY /tmp/ozone_129.75/GMJ_IVECC2_G_M_2_.csv /home/grierjones/DDCASPT2/ozone/multistate/ANO-RCC-VTZP/ozone_129.75/GMJ_IVECC2_G_M_2_.csv

>>> COPY /tmp/ozone_129.75/GMJ_e2_G_M_2_.csv /home/grierjones/DDCASPT2/ozone/multistate/ANO-RCC-VTZP/ozone_129.75/GMJ_e2_G_M_2_.csv

>>> END FOREACH

>>> END FOREACH

>>> EXPORT i = H

>>> EXPORT j = P

>>> IF (-FILE GMJ_e2_${i}_${j}_${k}_.csv)

>>> COPY /tmp/ozone_129.75/GMJ_RHS_H_P_2_.csv /home/grierjones/DDCASPT2/ozone/multistate/ANO-RCC-VTZP/ozone_129.75/GMJ_RHS_H_P_2_.csv

>>> COPY /tmp/ozone_129.75/GMJ_IVECW_H_P_2_.csv /home/grierjones/DDCASPT2/ozone/multistate/ANO-RCC-VTZP/ozone_129.75/GMJ_IVECW_H_P_2_.csv

>>> COPY /tmp/ozone_129.75/GMJ_IVECX_H_P_2_.csv /home/grierjones/DDCASPT2/ozone/multistate/ANO-RCC-VTZP/ozone_129.75/GMJ_IVECX_H_P_2_.csv

>>> COPY /tmp/ozone_129.75/GMJ_IVECC2_H_P_2_.csv /home/grierjones/DDCASPT2/ozone/multistate/ANO-RCC-VTZP/ozone_129.75/GMJ_IVECC2_H_P_2_.csv

>>> COPY /tmp/ozone_129.75/GMJ_e2_H_P_2_.csv /home/grierjones/DDCASPT2/ozone/multistate/ANO-RCC-VTZP/ozone_129.75/GMJ_e2_H_P_2_.csv

>>> END FOREACH

>>> EXPORT j = M

>>> IF (-FILE GMJ_e2_${i}_${j}_${k}_.csv)

>>> COPY /tmp/ozone_129.75/GMJ_RHS_H_M_2_.csv /home/grierjones/DDCASPT2/ozone/multistate/ANO-RCC-VTZP/ozone_129.75/GMJ_RHS_H_M_2_.csv

>>> COPY /tmp/ozone_129.75/GMJ_IVECW_H_M_2_.csv /home/grierjones/DDCASPT2/ozone/multistate/ANO-RCC-VTZP/ozone_129.75/GMJ_IVECW_H_M_2_.csv

>>> COPY /tmp/ozone_129.75/GMJ_IVECX_H_M_2_.csv /home/grierjones/DDCASPT2/ozone/multistate/ANO-RCC-VTZP/ozone_129.75/GMJ_IVECX_H_M_2_.csv

>>> COPY /tmp/ozone_129.75/GMJ_IVECC2_H_M_2_.csv /home/grierjones/DDCASPT2/ozone/multistate/ANO-RCC-VTZP/ozone_129.75/GMJ_IVECC2_H_M_2_.csv

>>> COPY /tmp/ozone_129.75/GMJ_e2_H_M_2_.csv /home/grierjones/DDCASPT2/ozone/multistate/ANO-RCC-VTZP/ozone_129.75/GMJ_e2_H_M_2_.csv

>>> END FOREACH

>>> END FOREACH

>>> END FOREACH

>>> EXPORT k = 3

>>> EXPORT i = B

>>> EXPORT j = P

>>> IF (-FILE GMJ_e2_${i}_${j}_${k}_.csv)

>>> COPY /tmp/ozone_129.75/GMJ_RHS_B_P_3_.csv /home/grierjones/DDCASPT2/ozone/multistate/ANO-RCC-VTZP/ozone_129.75/GMJ_RHS_B_P_3_.csv

>>> COPY /tmp/ozone_129.75/GMJ_IVECW_B_P_3_.csv /home/grierjones/DDCASPT2/ozone/multistate/ANO-RCC-VTZP/ozone_129.75/GMJ_IVECW_B_P_3_.csv

>>> COPY /tmp/ozone_129.75/GMJ_IVECX_B_P_3_.csv /home/grierjones/DDCASPT2/ozone/multistate/ANO-RCC-VTZP/ozone_129.75/GMJ_IVECX_B_P_3_.csv

>>> COPY /tmp/ozone_129.75/GMJ_IVECC2_B_P_3_.csv /home/grierjones/DDCASPT2/ozone/multistate/ANO-RCC-VTZP/ozone_129.75/GMJ_IVECC2_B_P_3_.csv

>>> COPY /tmp/ozone_129.75/GMJ_e2_B_P_3_.csv /home/grierjones/DDCASPT2/ozone/multistate/ANO-RCC-VTZP/ozone_129.75/GMJ_e2_B_P_3_.csv

>>> END FOREACH

>>> EXPORT j = M

>>> IF (-FILE GMJ_e2_${i}_${j}_${k}_.csv)
(Skipped)

>>> END FOREACH

>>> END FOREACH

>>> EXPORT i = E

>>> EXPORT j = P

>>> IF (-FILE GMJ_e2_${i}_${j}_${k}_.csv)

>>> COPY /tmp/ozone_129.75/GMJ_RHS_E_P_3_.csv /home/grierjones/DDCASPT2/ozone/multistate/ANO-RCC-VTZP/ozone_129.75/GMJ_RHS_E_P_3_.csv

>>> COPY /tmp/ozone_129.75/GMJ_IVECW_E_P_3_.csv /home/grierjones/DDCASPT2/ozone/multistate/ANO-RCC-VTZP/ozone_129.75/GMJ_IVECW_E_P_3_.csv

>>> COPY /tmp/ozone_129.75/GMJ_IVECX_E_P_3_.csv /home/grierjones/DDCASPT2/ozone/multistate/ANO-RCC-VTZP/ozone_129.75/GMJ_IVECX_E_P_3_.csv

>>> COPY /tmp/ozone_129.75/GMJ_IVECC2_E_P_3_.csv /home/grierjones/DDCASPT2/ozone/multistate/ANO-RCC-VTZP/ozone_129.75/GMJ_IVECC2_E_P_3_.csv

>>> COPY /tmp/ozone_129.75/GMJ_e2_E_P_3_.csv /home/grierjones/DDCASPT2/ozone/multistate/ANO-RCC-VTZP/ozone_129.75/GMJ_e2_E_P_3_.csv

>>> END FOREACH

>>> EXPORT j = M

>>> IF (-FILE GMJ_e2_${i}_${j}_${k}_.csv)

>>> COPY /tmp/ozone_129.75/GMJ_RHS_E_M_3_.csv /home/grierjones/DDCASPT2/ozone/multistate/ANO-RCC-VTZP/ozone_129.75/GMJ_RHS_E_M_3_.csv

>>> COPY /tmp/ozone_129.75/GMJ_IVECW_E_M_3_.csv /home/grierjones/DDCASPT2/ozone/multistate/ANO-RCC-VTZP/ozone_129.75/GMJ_IVECW_E_M_3_.csv

>>> COPY /tmp/ozone_129.75/GMJ_IVECX_E_M_3_.csv /home/grierjones/DDCASPT2/ozone/multistate/ANO-RCC-VTZP/ozone_129.75/GMJ_IVECX_E_M_3_.csv

>>> COPY /tmp/ozone_129.75/GMJ_IVECC2_E_M_3_.csv /home/grierjones/DDCASPT2/ozone/multistate/ANO-RCC-VTZP/ozone_129.75/GMJ_IVECC2_E_M_3_.csv

>>> COPY /tmp/ozone_129.75/GMJ_e2_E_M_3_.csv /home/grierjones/DDCASPT2/ozone/multistate/ANO-RCC-VTZP/ozone_129.75/GMJ_e2_E_M_3_.csv

>>> END FOREACH

>>> END FOREACH

>>> EXPORT i = F

>>> EXPORT j = P

>>> IF (-FILE GMJ_e2_${i}_${j}_${k}_.csv)

>>> COPY /tmp/ozone_129.75/GMJ_RHS_F_P_3_.csv /home/grierjones/DDCASPT2/ozone/multistate/ANO-RCC-VTZP/ozone_129.75/GMJ_RHS_F_P_3_.csv

>>> COPY /tmp/ozone_129.75/GMJ_IVECW_F_P_3_.csv /home/grierjones/DDCASPT2/ozone/multistate/ANO-RCC-VTZP/ozone_129.75/GMJ_IVECW_F_P_3_.csv

>>> COPY /tmp/ozone_129.75/GMJ_IVECX_F_P_3_.csv /home/grierjones/DDCASPT2/ozone/multistate/ANO-RCC-VTZP/ozone_129.75/GMJ_IVECX_F_P_3_.csv

>>> COPY /tmp/ozone_129.75/GMJ_IVECC2_F_P_3_.csv /home/grierjones/DDCASPT2/ozone/multistate/ANO-RCC-VTZP/ozone_129.75/GMJ_IVECC2_F_P_3_.csv

>>> COPY /tmp/ozone_129.75/GMJ_e2_F_P_3_.csv /home/grierjones/DDCASPT2/ozone/multistate/ANO-RCC-VTZP/ozone_129.75/GMJ_e2_F_P_3_.csv

>>> END FOREACH

>>> EXPORT j = M

>>> IF (-FILE GMJ_e2_${i}_${j}_${k}_.csv)

>>> COPY /tmp/ozone_129.75/GMJ_RHS_F_M_3_.csv /home/grierjones/DDCASPT2/ozone/multistate/ANO-RCC-VTZP/ozone_129.75/GMJ_RHS_F_M_3_.csv

>>> COPY /tmp/ozone_129.75/GMJ_IVECW_F_M_3_.csv /home/grierjones/DDCASPT2/ozone/multistate/ANO-RCC-VTZP/ozone_129.75/GMJ_IVECW_F_M_3_.csv

>>> COPY /tmp/ozone_129.75/GMJ_IVECX_F_M_3_.csv /home/grierjones/DDCASPT2/ozone/multistate/ANO-RCC-VTZP/ozone_129.75/GMJ_IVECX_F_M_3_.csv

>>> COPY /tmp/ozone_129.75/GMJ_IVECC2_F_M_3_.csv /home/grierjones/DDCASPT2/ozone/multistate/ANO-RCC-VTZP/ozone_129.75/GMJ_IVECC2_F_M_3_.csv

>>> COPY /tmp/ozone_129.75/GMJ_e2_F_M_3_.csv /home/grierjones/DDCASPT2/ozone/multistate/ANO-RCC-VTZP/ozone_129.75/GMJ_e2_F_M_3_.csv

>>> END FOREACH

>>> END FOREACH

>>> EXPORT i = G

>>> EXPORT j = P

>>> IF (-FILE GMJ_e2_${i}_${j}_${k}_.csv)

>>> COPY /tmp/ozone_129.75/GMJ_RHS_G_P_3_.csv /home/grierjones/DDCASPT2/ozone/multistate/ANO-RCC-VTZP/ozone_129.75/GMJ_RHS_G_P_3_.csv

>>> COPY /tmp/ozone_129.75/GMJ_IVECW_G_P_3_.csv /home/grierjones/DDCASPT2/ozone/multistate/ANO-RCC-VTZP/ozone_129.75/GMJ_IVECW_G_P_3_.csv

>>> COPY /tmp/ozone_129.75/GMJ_IVECX_G_P_3_.csv /home/grierjones/DDCASPT2/ozone/multistate/ANO-RCC-VTZP/ozone_129.75/GMJ_IVECX_G_P_3_.csv

>>> COPY /tmp/ozone_129.75/GMJ_IVECC2_G_P_3_.csv /home/grierjones/DDCASPT2/ozone/multistate/ANO-RCC-VTZP/ozone_129.75/GMJ_IVECC2_G_P_3_.csv

>>> COPY /tmp/ozone_129.75/GMJ_e2_G_P_3_.csv /home/grierjones/DDCASPT2/ozone/multistate/ANO-RCC-VTZP/ozone_129.75/GMJ_e2_G_P_3_.csv

>>> END FOREACH

>>> EXPORT j = M

>>> IF (-FILE GMJ_e2_${i}_${j}_${k}_.csv)

>>> COPY /tmp/ozone_129.75/GMJ_RHS_G_M_3_.csv /home/grierjones/DDCASPT2/ozone/multistate/ANO-RCC-VTZP/ozone_129.75/GMJ_RHS_G_M_3_.csv

>>> COPY /tmp/ozone_129.75/GMJ_IVECW_G_M_3_.csv /home/grierjones/DDCASPT2/ozone/multistate/ANO-RCC-VTZP/ozone_129.75/GMJ_IVECW_G_M_3_.csv

>>> COPY /tmp/ozone_129.75/GMJ_IVECX_G_M_3_.csv /home/grierjones/DDCASPT2/ozone/multistate/ANO-RCC-VTZP/ozone_129.75/GMJ_IVECX_G_M_3_.csv

>>> COPY /tmp/ozone_129.75/GMJ_IVECC2_G_M_3_.csv /home/grierjones/DDCASPT2/ozone/multistate/ANO-RCC-VTZP/ozone_129.75/GMJ_IVECC2_G_M_3_.csv

>>> COPY /tmp/ozone_129.75/GMJ_e2_G_M_3_.csv /home/grierjones/DDCASPT2/ozone/multistate/ANO-RCC-VTZP/ozone_129.75/GMJ_e2_G_M_3_.csv

>>> END FOREACH

>>> END FOREACH

>>> EXPORT i = H

>>> EXPORT j = P

>>> IF (-FILE GMJ_e2_${i}_${j}_${k}_.csv)

>>> COPY /tmp/ozone_129.75/GMJ_RHS_H_P_3_.csv /home/grierjones/DDCASPT2/ozone/multistate/ANO-RCC-VTZP/ozone_129.75/GMJ_RHS_H_P_3_.csv

>>> COPY /tmp/ozone_129.75/GMJ_IVECW_H_P_3_.csv /home/grierjones/DDCASPT2/ozone/multistate/ANO-RCC-VTZP/ozone_129.75/GMJ_IVECW_H_P_3_.csv

>>> COPY /tmp/ozone_129.75/GMJ_IVECX_H_P_3_.csv /home/grierjones/DDCASPT2/ozone/multistate/ANO-RCC-VTZP/ozone_129.75/GMJ_IVECX_H_P_3_.csv

>>> COPY /tmp/ozone_129.75/GMJ_IVECC2_H_P_3_.csv /home/grierjones/DDCASPT2/ozone/multistate/ANO-RCC-VTZP/ozone_129.75/GMJ_IVECC2_H_P_3_.csv

>>> COPY /tmp/ozone_129.75/GMJ_e2_H_P_3_.csv /home/grierjones/DDCASPT2/ozone/multistate/ANO-RCC-VTZP/ozone_129.75/GMJ_e2_H_P_3_.csv

>>> END FOREACH

>>> EXPORT j = M

>>> IF (-FILE GMJ_e2_${i}_${j}_${k}_.csv)

>>> COPY /tmp/ozone_129.75/GMJ_RHS_H_M_3_.csv /home/grierjones/DDCASPT2/ozone/multistate/ANO-RCC-VTZP/ozone_129.75/GMJ_RHS_H_M_3_.csv

>>> COPY /tmp/ozone_129.75/GMJ_IVECW_H_M_3_.csv /home/grierjones/DDCASPT2/ozone/multistate/ANO-RCC-VTZP/ozone_129.75/GMJ_IVECW_H_M_3_.csv

>>> COPY /tmp/ozone_129.75/GMJ_IVECX_H_M_3_.csv /home/grierjones/DDCASPT2/ozone/multistate/ANO-RCC-VTZP/ozone_129.75/GMJ_IVECX_H_M_3_.csv

>>> COPY /tmp/ozone_129.75/GMJ_IVECC2_H_M_3_.csv /home/grierjones/DDCASPT2/ozone/multistate/ANO-RCC-VTZP/ozone_129.75/GMJ_IVECC2_H_M_3_.csv

>>> COPY /tmp/ozone_129.75/GMJ_e2_H_M_3_.csv /home/grierjones/DDCASPT2/ozone/multistate/ANO-RCC-VTZP/ozone_129.75/GMJ_e2_H_M_3_.csv

>>> END FOREACH

>>> END FOREACH

>>> END FOREACH

>>> EXPORT j = 1

>>> EXPORT i = A

>>> IF (-FILE GMJ_e2_${i}_${j}_.csv)

>>> COPY /tmp/ozone_129.75/GMJ_RHS_A_1_.csv /home/grierjones/DDCASPT2/ozone/multistate/ANO-RCC-VTZP/ozone_129.75/GMJ_RHS_A_1_.csv

>>> COPY /tmp/ozone_129.75/GMJ_IVECW_A_1_.csv /home/grierjones/DDCASPT2/ozone/multistate/ANO-RCC-VTZP/ozone_129.75/GMJ_IVECW_A_1_.csv

>>> COPY /tmp/ozone_129.75/GMJ_IVECX_A_1_.csv /home/grierjones/DDCASPT2/ozone/multistate/ANO-RCC-VTZP/ozone_129.75/GMJ_IVECX_A_1_.csv

>>> COPY /tmp/ozone_129.75/GMJ_IVECC2_A_1_.csv /home/grierjones/DDCASPT2/ozone/multistate/ANO-RCC-VTZP/ozone_129.75/GMJ_IVECC2_A_1_.csv

>>> COPY /tmp/ozone_129.75/GMJ_e2_A_1_.csv /home/grierjones/DDCASPT2/ozone/multistate/ANO-RCC-VTZP/ozone_129.75/GMJ_e2_A_1_.csv

>>> END FOREACH

>>> EXPORT i = C

>>> IF (-FILE GMJ_e2_${i}_${j}_.csv)

>>> COPY /tmp/ozone_129.75/GMJ_RHS_C_1_.csv /home/grierjones/DDCASPT2/ozone/multistate/ANO-RCC-VTZP/ozone_129.75/GMJ_RHS_C_1_.csv

>>> COPY /tmp/ozone_129.75/GMJ_IVECW_C_1_.csv /home/grierjones/DDCASPT2/ozone/multistate/ANO-RCC-VTZP/ozone_129.75/GMJ_IVECW_C_1_.csv

>>> COPY /tmp/ozone_129.75/GMJ_IVECX_C_1_.csv /home/grierjones/DDCASPT2/ozone/multistate/ANO-RCC-VTZP/ozone_129.75/GMJ_IVECX_C_1_.csv

>>> COPY /tmp/ozone_129.75/GMJ_IVECC2_C_1_.csv /home/grierjones/DDCASPT2/ozone/multistate/ANO-RCC-VTZP/ozone_129.75/GMJ_IVECC2_C_1_.csv

>>> COPY /tmp/ozone_129.75/GMJ_e2_C_1_.csv /home/grierjones/DDCASPT2/ozone/multistate/ANO-RCC-VTZP/ozone_129.75/GMJ_e2_C_1_.csv

>>> END FOREACH

>>> EXPORT i = D

>>> IF (-FILE GMJ_e2_${i}_${j}_.csv)

>>> COPY /tmp/ozone_129.75/GMJ_RHS_D_1_.csv /home/grierjones/DDCASPT2/ozone/multistate/ANO-RCC-VTZP/ozone_129.75/GMJ_RHS_D_1_.csv

>>> COPY /tmp/ozone_129.75/GMJ_IVECW_D_1_.csv /home/grierjones/DDCASPT2/ozone/multistate/ANO-RCC-VTZP/ozone_129.75/GMJ_IVECW_D_1_.csv

>>> COPY /tmp/ozone_129.75/GMJ_IVECX_D_1_.csv /home/grierjones/DDCASPT2/ozone/multistate/ANO-RCC-VTZP/ozone_129.75/GMJ_IVECX_D_1_.csv

>>> COPY /tmp/ozone_129.75/GMJ_IVECC2_D_1_.csv /home/grierjones/DDCASPT2/ozone/multistate/ANO-RCC-VTZP/ozone_129.75/GMJ_IVECC2_D_1_.csv

>>> COPY /tmp/ozone_129.75/GMJ_e2_D_1_.csv /home/grierjones/DDCASPT2/ozone/multistate/ANO-RCC-VTZP/ozone_129.75/GMJ_e2_D_1_.csv

>>> END FOREACH

>>> END FOREACH

>>> EXPORT j = 2

>>> EXPORT i = A

>>> IF (-FILE GMJ_e2_${i}_${j}_.csv)

>>> COPY /tmp/ozone_129.75/GMJ_RHS_A_2_.csv /home/grierjones/DDCASPT2/ozone/multistate/ANO-RCC-VTZP/ozone_129.75/GMJ_RHS_A_2_.csv

>>> COPY /tmp/ozone_129.75/GMJ_IVECW_A_2_.csv /home/grierjones/DDCASPT2/ozone/multistate/ANO-RCC-VTZP/ozone_129.75/GMJ_IVECW_A_2_.csv

>>> COPY /tmp/ozone_129.75/GMJ_IVECX_A_2_.csv /home/grierjones/DDCASPT2/ozone/multistate/ANO-RCC-VTZP/ozone_129.75/GMJ_IVECX_A_2_.csv

>>> COPY /tmp/ozone_129.75/GMJ_IVECC2_A_2_.csv /home/grierjones/DDCASPT2/ozone/multistate/ANO-RCC-VTZP/ozone_129.75/GMJ_IVECC2_A_2_.csv

>>> COPY /tmp/ozone_129.75/GMJ_e2_A_2_.csv /home/grierjones/DDCASPT2/ozone/multistate/ANO-RCC-VTZP/ozone_129.75/GMJ_e2_A_2_.csv

>>> END FOREACH

>>> EXPORT i = C

>>> IF (-FILE GMJ_e2_${i}_${j}_.csv)

>>> COPY /tmp/ozone_129.75/GMJ_RHS_C_2_.csv /home/grierjones/DDCASPT2/ozone/multistate/ANO-RCC-VTZP/ozone_129.75/GMJ_RHS_C_2_.csv

>>> COPY /tmp/ozone_129.75/GMJ_IVECW_C_2_.csv /home/grierjones/DDCASPT2/ozone/multistate/ANO-RCC-VTZP/ozone_129.75/GMJ_IVECW_C_2_.csv

>>> COPY /tmp/ozone_129.75/GMJ_IVECX_C_2_.csv /home/grierjones/DDCASPT2/ozone/multistate/ANO-RCC-VTZP/ozone_129.75/GMJ_IVECX_C_2_.csv

>>> COPY /tmp/ozone_129.75/GMJ_IVECC2_C_2_.csv /home/grierjones/DDCASPT2/ozone/multistate/ANO-RCC-VTZP/ozone_129.75/GMJ_IVECC2_C_2_.csv

>>> COPY /tmp/ozone_129.75/GMJ_e2_C_2_.csv /home/grierjones/DDCASPT2/ozone/multistate/ANO-RCC-VTZP/ozone_129.75/GMJ_e2_C_2_.csv

>>> END FOREACH

>>> EXPORT i = D

>>> IF (-FILE GMJ_e2_${i}_${j}_.csv)

>>> COPY /tmp/ozone_129.75/GMJ_RHS_D_2_.csv /home/grierjones/DDCASPT2/ozone/multistate/ANO-RCC-VTZP/ozone_129.75/GMJ_RHS_D_2_.csv

>>> COPY /tmp/ozone_129.75/GMJ_IVECW_D_2_.csv /home/grierjones/DDCASPT2/ozone/multistate/ANO-RCC-VTZP/ozone_129.75/GMJ_IVECW_D_2_.csv

>>> COPY /tmp/ozone_129.75/GMJ_IVECX_D_2_.csv /home/grierjones/DDCASPT2/ozone/multistate/ANO-RCC-VTZP/ozone_129.75/GMJ_IVECX_D_2_.csv

>>> COPY /tmp/ozone_129.75/GMJ_IVECC2_D_2_.csv /home/grierjones/DDCASPT2/ozone/multistate/ANO-RCC-VTZP/ozone_129.75/GMJ_IVECC2_D_2_.csv

>>> COPY /tmp/ozone_129.75/GMJ_e2_D_2_.csv /home/grierjones/DDCASPT2/ozone/multistate/ANO-RCC-VTZP/ozone_129.75/GMJ_e2_D_2_.csv

>>> END FOREACH

>>> END FOREACH

>>> EXPORT j = 3

>>> EXPORT i = A

>>> IF (-FILE GMJ_e2_${i}_${j}_.csv)

>>> COPY /tmp/ozone_129.75/GMJ_RHS_A_3_.csv /home/grierjones/DDCASPT2/ozone/multistate/ANO-RCC-VTZP/ozone_129.75/GMJ_RHS_A_3_.csv

>>> COPY /tmp/ozone_129.75/GMJ_IVECW_A_3_.csv /home/grierjones/DDCASPT2/ozone/multistate/ANO-RCC-VTZP/ozone_129.75/GMJ_IVECW_A_3_.csv

>>> COPY /tmp/ozone_129.75/GMJ_IVECX_A_3_.csv /home/grierjones/DDCASPT2/ozone/multistate/ANO-RCC-VTZP/ozone_129.75/GMJ_IVECX_A_3_.csv

>>> COPY /tmp/ozone_129.75/GMJ_IVECC2_A_3_.csv /home/grierjones/DDCASPT2/ozone/multistate/ANO-RCC-VTZP/ozone_129.75/GMJ_IVECC2_A_3_.csv

>>> COPY /tmp/ozone_129.75/GMJ_e2_A_3_.csv /home/grierjones/DDCASPT2/ozone/multistate/ANO-RCC-VTZP/ozone_129.75/GMJ_e2_A_3_.csv

>>> END FOREACH

>>> EXPORT i = C

>>> IF (-FILE GMJ_e2_${i}_${j}_.csv)

>>> COPY /tmp/ozone_129.75/GMJ_RHS_C_3_.csv /home/grierjones/DDCASPT2/ozone/multistate/ANO-RCC-VTZP/ozone_129.75/GMJ_RHS_C_3_.csv

>>> COPY /tmp/ozone_129.75/GMJ_IVECW_C_3_.csv /home/grierjones/DDCASPT2/ozone/multistate/ANO-RCC-VTZP/ozone_129.75/GMJ_IVECW_C_3_.csv

>>> COPY /tmp/ozone_129.75/GMJ_IVECX_C_3_.csv /home/grierjones/DDCASPT2/ozone/multistate/ANO-RCC-VTZP/ozone_129.75/GMJ_IVECX_C_3_.csv

>>> COPY /tmp/ozone_129.75/GMJ_IVECC2_C_3_.csv /home/grierjones/DDCASPT2/ozone/multistate/ANO-RCC-VTZP/ozone_129.75/GMJ_IVECC2_C_3_.csv

>>> COPY /tmp/ozone_129.75/GMJ_e2_C_3_.csv /home/grierjones/DDCASPT2/ozone/multistate/ANO-RCC-VTZP/ozone_129.75/GMJ_e2_C_3_.csv

>>> END FOREACH

>>> EXPORT i = D

>>> IF (-FILE GMJ_e2_${i}_${j}_.csv)

>>> COPY /tmp/ozone_129.75/GMJ_RHS_D_3_.csv /home/grierjones/DDCASPT2/ozone/multistate/ANO-RCC-VTZP/ozone_129.75/GMJ_RHS_D_3_.csv

>>> COPY /tmp/ozone_129.75/GMJ_IVECW_D_3_.csv /home/grierjones/DDCASPT2/ozone/multistate/ANO-RCC-VTZP/ozone_129.75/GMJ_IVECW_D_3_.csv

>>> COPY /tmp/ozone_129.75/GMJ_IVECX_D_3_.csv /home/grierjones/DDCASPT2/ozone/multistate/ANO-RCC-VTZP/ozone_129.75/GMJ_IVECX_D_3_.csv

>>> COPY /tmp/ozone_129.75/GMJ_IVECC2_D_3_.csv /home/grierjones/DDCASPT2/ozone/multistate/ANO-RCC-VTZP/ozone_129.75/GMJ_IVECC2_D_3_.csv

>>> COPY /tmp/ozone_129.75/GMJ_e2_D_3_.csv /home/grierjones/DDCASPT2/ozone/multistate/ANO-RCC-VTZP/ozone_129.75/GMJ_e2_D_3_.csv

>>> END FOREACH

>>> END FOREACH

.########################.
.# Non-zero return code #.
.########################.

    Timing: Wall=24.60 User=16.13 System=8.46
********************************************
*** WorkDir at /tmp/ozone_129.75 cleaned ***
********************************************
