[Molden Format]
[N_Atoms]
                     2
[Atoms] (AU)
BE1         1      4           0.00000000      0.00000000      0.00000000
F2          2      9           0.00000000      0.00000000      4.34637009
[Charge] (Mulliken)
  0.550247496082116     
 -0.550247496082127     
[GTO] (AU)
   1
   s  14
  2.262859900E+04  8.443999941E-05
  3.372318100E+03  4.601499968E-04
  7.603504000E+02  2.285389984E-03
  2.117404800E+02  9.648129932E-03
  6.722346800E+01  3.494469975E-02
  2.337217700E+01  1.061099893E-01
  8.721373000E+00  2.458240383E-01
  3.468091000E+00  3.862428773E-01
  1.452144000E+00  3.105526078E-01
  6.086150000E-01  6.415933955E-02
  2.576860000E-01 -2.265049984E-03
  1.041760000E-01 -5.217499963E-04
  4.242700000E-02 -8.757499938E-04
  1.484900000E-02  1.242199991E-04
   s  14
  2.262859900E+04 -1.586999994E-05
  3.372318100E+03 -8.656999968E-05
  7.603504000E+02 -4.302199984E-04
  2.117404800E+02 -1.825079993E-03
  6.722346800E+01 -6.682749976E-03
  2.337217700E+01 -2.095119992E-02
  8.721373000E+00 -5.200308981E-02
  3.468091000E+00 -9.849176964E-02
  1.452144000E+00 -1.355800695E-01
  6.086150000E-01 -6.429875976E-02
  2.576860000E-01  3.125414989E-01
  1.041760000E-01  6.270468577E-01
  4.242700000E-02  2.110231492E-01
  1.484900000E-02 -4.104669985E-03
   p   9
  3.371018400E+01  1.069960000E-03
  8.057649500E+00  6.828550001E-03
  2.836471400E+00  2.119065000E-02
  1.099965700E+00  5.843696001E-02
  4.433964000E-01  2.020920800E-01
  1.822264000E-01  4.582953101E-01
  7.572410000E-02  3.691239601E-01
  3.168540000E-02  6.611471001E-02
  1.108990000E-02  1.405160000E-03
 
   2
   s  14
  1.031094600E+05  1.713099991E-04
  1.528100700E+04  7.123999962E-04
  3.441539200E+03  2.990479984E-03
  9.670948300E+02  1.164036994E-02
  3.140353400E+02  3.968642979E-02
  1.134423000E+02  1.128546094E-01
  4.464472700E+01  2.473650687E-01
  1.894287400E+01  3.672702681E-01
  8.532743000E+00  2.896286985E-01
  3.919401000E+00  7.786681959E-02
  1.568157000E+00  4.562139976E-03
  6.232900000E-01  2.468879987E-03
  2.408610000E-01  1.106309994E-03
  8.430100000E-02  1.739699991E-04
   s  14
  1.031094600E+05 -4.044999995E-05
  1.528100700E+04 -1.682299998E-04
  3.441539200E+03 -7.084299991E-04
  9.670948300E+02 -2.767999996E-03
  3.140353400E+02 -9.611379987E-03
  1.134423000E+02 -2.833957996E-02
  4.464472700E+01 -6.839343991E-02
  1.894287400E+01 -1.237379298E-01
  8.532743000E+00 -1.512859698E-01
  3.919401000E+00 -9.099909988E-03
  1.568157000E+00  3.716257695E-01
  6.232900000E-01  5.500214393E-01
  2.408610000E-01  2.092318697E-01
  8.430100000E-02  8.074639989E-03
   p   9
  2.453302900E+02  1.024860004E-03
  5.691900500E+01  8.344290032E-03
  1.760456800E+01  4.078927016E-02
  6.274995000E+00  1.351370605E-01
  2.447030000E+00  2.798830811E-01
  9.950600000E-01  3.597966414E-01
  4.039730000E-01  3.055347412E-01
  1.548100000E-01  1.354703905E-01
  5.418400000E-02  2.804449011E-02
 
[MO]
Sym=     1a  
Ene=   -25.9900
Spin= Alpha
Occup=    2.00000
   1        -0.00000269
   2        -0.00054811
   3        -0.00000001
   4         0.00000001
   5        -0.00045890
   6         1.00001235
   7        -0.00249359
   8        -0.00000021
   9         0.00000016
  10         0.00043664
Sym=     2a  
Ene=    -4.8541
Spin= Alpha
Occup=    2.00000
   1         0.99999695
   2         0.00199912
   3        -0.00000001
   4         0.00000000
   5         0.00003664
   6        -0.00000225
   7         0.00024190
   8        -0.00000009
   9         0.00000007
  10        -0.00003261
Sym=     3a  
Ene=    -1.3432
Spin= Alpha
Occup=    2.00000
   1        -0.00228971
   2         0.01677915
   3        -0.00000043
   4         0.00000033
   5         0.02370179
   6         0.00196481
   7         0.99225088
   8        -0.00000713
   9         0.00000555
  10         0.01549565
Sym=     4a  
Ene=    -0.4582
Spin= Alpha
Occup=    2.00000
   1         0.00000000
   2        -0.00000000
   3         0.03658892
   4         0.04696522
   5        -0.00000000
   6         0.00000000
   7         0.00000000
   8         0.61018950
   9         0.78323383
  10         0.00000000
Sym=     5a  
Ene=    -0.4582
Spin= Alpha
Occup=    2.00000
   1        -0.00000337
   2         0.00009060
   3        -0.04696522
   4         0.03658892
   5         0.00005168
   6        -0.00000225
   7        -0.00003228
   8        -0.78323381
   9         0.61018948
  10        -0.00021389
Sym=     6a  
Ene=    -0.4242
Spin= Alpha
Occup=    2.00000
   1         0.01280858
   2        -0.35492786
   3        -0.00001202
   4         0.00000936
   5        -0.20279966
   6         0.00768540
   7         0.09089151
   8        -0.00020034
   9         0.00015607
  10         0.83564209
Sym=     7a  
Ene=     0.0001
Spin= Alpha
Occup=    1.00000
   1        -0.00237799
   2        -0.86233911
   3         0.00000002
   4        -0.00000001
   5         0.45556895
   6        -0.00026565
   7         0.01579040
   8         0.00000003
   9        -0.00000002
  10        -0.27526370
Sym=     8a  
Ene=     0.0571
Spin= Alpha
Occup=    0.00000
   1         0.00000000
   2         0.00000001
   3         0.99968116
   4         0.07283075
   5        -0.00000000
   6        -0.00000000
   7        -0.00000000
   8        -0.14935314
   9        -0.01088097
  10         0.00000001
Sym=     9a  
Ene=     0.0571
Spin= Alpha
Occup=    0.00000
   1         0.00000000
   2         0.00000001
   3         0.07283075
   4        -0.99968116
   5        -0.00000000
   6        -0.00000000
   7        -0.00000000
   8        -0.01088097
   9         0.14935314
  10         0.00000001
Sym=    10a  
Ene=     0.1491
Spin= Alpha
Occup=    0.00000
   1        -0.00757561
   2        -0.41510490
   3         0.00000001
   4        -0.00000000
   5        -0.91485448
   6         0.02446925
   7         0.28159359
   8        -0.00000000
   9         0.00000000
  10        -0.53033003
