[Molden Format]
[N_Atoms]
                     2
[Atoms] (AU)
B1          1      5           0.00000000      0.00000000      0.00000000
O2          2      8           0.00000000      0.00000000      4.91328792
[Charge] (Mulliken)
  0.192949610926835     
 -0.192949610926886     
[GTO] (AU)
   1
   s  14
  3.336021700E+04  1.039699991E-04
  4.972095200E+03  5.254399956E-04
  1.125641700E+03  2.509059979E-03
  3.164913600E+02  1.031887991E-02
  1.020072600E+02  3.636632969E-02
  3.629587300E+01  1.064607991E-01
  1.397141000E+01  2.403999880E-01
  5.741156000E+00  3.748581168E-01
  2.494268000E+00  3.100066974E-01
  1.114202000E+00  7.922455933E-02
  4.215490000E-01 -4.947589958E-03
  1.696330000E-01 -7.737119935E-03
  6.853500000E-02 -1.501079987E-03
  2.398700000E-02 -1.333299989E-04
   s  14
  3.336021700E+04 -2.030000008E-05
  4.972095200E+03 -1.025700004E-04
  1.125641700E+03 -4.911300020E-04
  3.164913600E+02 -2.026570008E-03
  1.020072600E+02 -7.261010030E-03
  3.629587300E+01 -2.197722009E-02
  1.397141000E+01 -5.408428022E-02
  5.741156000E+00 -1.022402604E-01
  2.494268000E+00 -1.423595206E-01
  1.114202000E+00 -4.658690019E-02
  4.215490000E-01  3.799402916E-01
  1.696330000E-01  5.890463624E-01
  6.853500000E-02  1.749075107E-01
  2.398700000E-02 -1.142030005E-03
   p   9
  5.500000000E+01  1.229800005E-03
  1.336610100E+01  8.827380035E-03
  4.135394000E+00  3.843340015E-02
  1.481256000E+00  1.150031805E-01
  6.021360000E-01  2.733674011E-01
  2.556360000E-01  4.061972116E-01
  1.111510000E-01  3.014967912E-01
  4.764800000E-02  7.684809030E-02
  1.667700000E-02 -8.170000032E-06
 
   2
   s  14
  1.053749500E+05  1.238600013E-04
  1.567924000E+04  5.120100053E-04
  3.534544700E+03  2.152910022E-03
  9.873651600E+02  8.528440089E-03
  3.159787500E+02  3.018049031E-02
  1.116542800E+02  9.099702095E-02
  4.269945100E+01  2.177936423E-01
  1.739559600E+01  3.686245738E-01
  7.438309000E+00  3.366707335E-01
  3.222862000E+00  9.657630101E-02
  1.253877000E+00  2.144520022E-03
  4.951550000E-01  1.194350012E-03
  1.916650000E-01  5.390200056E-04
  6.708300000E-02  2.103400022E-04
   s  14
  1.053749500E+05 -2.815000008E-05
  1.567924000E+04 -1.163000003E-04
  3.534544700E+03 -4.909200013E-04
  9.873651600E+02 -1.946160005E-03
  3.159787500E+02 -7.005300019E-03
  1.116542800E+02 -2.167814006E-02
  4.269945100E+01 -5.641213015E-02
  1.739559600E+01 -1.127053003E-01
  7.438309000E+00 -1.589119704E-01
  3.222862000E+00 -3.355083009E-02
  1.253877000E+00  3.531902810E-01
  4.951550000E-01  5.534199315E-01
  1.916650000E-01  2.301839106E-01
  6.708300000E-02  1.127267003E-02
   p   9
  2.000000000E+02  9.173000030E-04
  4.653336700E+01  7.377140024E-03
  1.462180900E+01  3.483515011E-02
  5.313064000E+00  1.144397004E-01
  2.102525000E+00  2.554966408E-01
  8.502230000E-01  3.722557412E-01
  3.375970000E-01  3.323314911E-01
  1.288920000E-01  1.400847905E-01
  4.511200000E-02  2.395784008E-02
 
[MO]
Sym=     1a  
Ene=   -20.5740
Spin= Alpha
Occup=    1.00000
   1        -0.00000504
   2        -0.00010570
   3        -0.00000000
   4         0.00000000
   5        -0.00013351
   6         1.00000175
   7         0.00011541
   8        -0.00000000
   9        -0.00000000
  10        -0.00011742
Sym=     1a  
Ene=   -20.5690
Spin= Beta
Occup=    1.00000
   1        -0.00000734
   2        -0.00012666
   3        -0.00000000
   4         0.00000000
   5        -0.00017445
   6         1.00000222
   7        -0.00015724
   8        -0.00000000
   9        -0.00000000
  10        -0.00018676
Sym=     2a  
Ene=    -7.7279
Spin= Alpha
Occup=    1.00000
   1         0.99988858
   2         0.01488880
   3        -0.00000000
   4         0.00000000
   5         0.00003050
   6        -0.00001705
   7        -0.00008262
   8        -0.00000000
   9        -0.00000000
  10        -0.00009022
Sym=     2a  
Ene=    -7.7156
Spin= Beta
Occup=    1.00000
   1         0.99992016
   2         0.01267248
   3        -0.00000000
   4         0.00000000
   5         0.00019958
   6        -0.00000818
   7        -0.00006916
   8        -0.00000000
   9        -0.00000000
  10         0.00005320
Sym=     3a  
Ene=    -1.1893
Spin= Alpha
Occup=    1.00000
   1        -0.00147546
   2         0.02298545
   3        -0.00000000
   4         0.00000000
   5         0.02358862
   6        -0.00041493
   7         0.99497290
   8         0.00000000
   9         0.00000000
  10         0.02038354
Sym=     3a  
Ene=    -1.1609
Spin= Beta
Occup=    1.00000
   1        -0.00149091
   2         0.01190639
   3         0.00000000
   4         0.00000000
   5         0.00388422
   6         0.00010082
   7         0.99845056
   8        -0.00000000
   9        -0.00000000
  10        -0.02036379
Sym=     4a  
Ene=    -0.5655
Spin= Alpha
Occup=    1.00000
   1        -0.01535281
   2         0.98388716
   3        -0.00000000
   4         0.00000000
   5        -0.05972682
   6        -0.00302804
   7        -0.07081163
   8         0.00000000
   9         0.00000000
  10        -0.10337990
Sym=     4a  
Ene=    -0.4908
Spin= Beta
Occup=    1.00000
   1         0.00000000
   2        -0.00000000
   3         0.01587919
   4        -0.00853775
   5        -0.00000000
   6         0.00000000
   7         0.00000000
   8         0.87980934
   9        -0.47304647
  10         0.00000000
Sym=     5a  
Ene=    -0.4977
Spin= Alpha
Occup=    1.00000
   1         0.00000000
   2        -0.00000000
   3         0.01589928
   4        -0.01366070
   5         0.00000000
   6        -0.00000000
   7         0.00000000
   8         0.75750686
   9        -0.65085171
  10        -0.00000000
Sym=     5a  
Ene=    -0.4908
Spin= Beta
Occup=    1.00000
   1         0.00000000
   2        -0.00000000
   3         0.00853775
   4         0.01587919
   5        -0.00000000
   6         0.00000000
   7         0.00000000
   8         0.47304647
   9         0.87980934
  10         0.00000000
Sym=     6a  
Ene=    -0.4977
Spin= Alpha
Occup=    1.00000
   1         0.00000000
   2        -0.00000000
   3         0.01366070
   4         0.01589928
   5         0.00000000
   6        -0.00000000
   7         0.00000000
   8         0.65085171
   9         0.75750686
  10        -0.00000000
Sym=     6a  
Ene=    -0.4838
Spin= Beta
Occup=    1.00000
   1         0.01288166
   2        -0.99412008
   3        -0.00000000
   4        -0.00000000
   5        -0.03572816
   6         0.00402583
   7         0.08133893
   8        -0.00000000
   9        -0.00000000
  10         0.05248311
Sym=     7a  
Ene=    -0.3326
Spin= Alpha
Occup=    1.00000
   1         0.00223264
   2         0.02569106
   3         0.00000000
   4         0.00000000
   5        -0.89242241
   6         0.00901410
   7         0.12344116
   8         0.00000000
   9         0.00000000
  10         0.35868829
Sym=     7a  
Ene=     0.0722
Spin= Beta
Occup=    0.00000
   1        -0.00320214
   2        -0.13310343
   3         0.00000000
   4         0.00000000
   5         0.66186286
   6        -0.00632674
   7        -0.09269085
   8         0.00000000
   9         0.00000000
  10        -0.66811087
Sym=     8a  
Ene=     0.0642
Spin= Alpha
Occup=    0.00000
   1        -0.00000000
   2        -0.00000000
   3        -0.19093135
   4         0.98270809
   5        -0.00000000
   6         0.00000000
   7         0.00000000
   8         0.01373322
   9        -0.07068377
  10        -0.00000000
Sym=     8a  
Ene=     0.0834
Spin= Beta
Occup=    0.00000
   1        -0.00000000
   2         0.00000000
   3        -0.16624943
   4         0.98724134
   5        -0.00000000
   6         0.00000000
   7         0.00000000
   8         0.01147129
   9        -0.06812015
  10         0.00000000
Sym=     9a  
Ene=     0.0642
Spin= Alpha
Occup=    0.00000
   1         0.00000000
   2         0.00000000
   3         0.98270809
   4         0.19093135
   5         0.00000000
   6        -0.00000000
   7        -0.00000000
   8        -0.07068377
   9        -0.01373322
  10         0.00000000
Sym=     9a  
Ene=     0.0834
Spin= Beta
Occup=    0.00000
   1        -0.00000000
   2        -0.00000000
   3        -0.98724134
   4        -0.16624943
   5         0.00000000
   6        -0.00000000
   7        -0.00000000
   8         0.06812015
   9         0.01147129
  10        -0.00000000
Sym=    10a  
Ene=     0.0696
Spin= Alpha
Occup=    0.00000
   1         0.00413497
   2         0.21588851
   3        -0.00000000
   4        -0.00000000
   5         0.48631483
   6        -0.00565763
   7        -0.10294331
   8         0.00000000
   9         0.00000000
  10         0.94468294
Sym=    10a  
Ene=     0.1997
Spin= Beta
Occup=    0.00000
   1         0.00429043
   2         0.09878369
   3         0.00000000
   4         0.00000000
   5         0.77310382
   6        -0.00808803
   7        -0.09332335
   8        -0.00000000
   9        -0.00000000
  10         0.76331169
