[Molden Format]
[N_Atoms]
                     2
[Atoms] (AU)
BE1         1      4           0.00000000      0.00000000      0.00000000
LI2         2      3           0.00000000      0.00000000      4.72431531
[Charge] (Mulliken)
 -4.291996397422260E-002
  4.291996397420883E-002
[GTO] (AU)
   1
   s  14
  2.262859900E+04  8.443999941E-05
  3.372318100E+03  4.601499968E-04
  7.603504000E+02  2.285389984E-03
  2.117404800E+02  9.648129932E-03
  6.722346800E+01  3.494469975E-02
  2.337217700E+01  1.061099893E-01
  8.721373000E+00  2.458240383E-01
  3.468091000E+00  3.862428773E-01
  1.452144000E+00  3.105526078E-01
  6.086150000E-01  6.415933955E-02
  2.576860000E-01 -2.265049984E-03
  1.041760000E-01 -5.217499963E-04
  4.242700000E-02 -8.757499938E-04
  1.484900000E-02  1.242199991E-04
   s  14
  2.262859900E+04 -1.586999994E-05
  3.372318100E+03 -8.656999968E-05
  7.603504000E+02 -4.302199984E-04
  2.117404800E+02 -1.825079993E-03
  6.722346800E+01 -6.682749976E-03
  2.337217700E+01 -2.095119992E-02
  8.721373000E+00 -5.200308981E-02
  3.468091000E+00 -9.849176964E-02
  1.452144000E+00 -1.355800695E-01
  6.086150000E-01 -6.429875976E-02
  2.576860000E-01  3.125414989E-01
  1.041760000E-01  6.270468577E-01
  4.242700000E-02  2.110231492E-01
  1.484900000E-02 -4.104669985E-03
   p   9
  3.371018400E+01  1.069960000E-03
  8.057649500E+00  6.828550001E-03
  2.836471400E+00  2.119065000E-02
  1.099965700E+00  5.843696001E-02
  4.433964000E-01  2.020920800E-01
  1.822264000E-01  4.582953101E-01
  7.572410000E-02  3.691239601E-01
  3.168540000E-02  6.611471001E-02
  1.108990000E-02  1.405160000E-03
 
   2
   s  14
  9.497934400E+03  9.668999974E-05
  1.416811200E+03  6.087099984E-04
  3.214599400E+02  3.101519992E-03
  9.112416300E+01  1.266904997E-02
  2.999989100E+01  4.248012989E-02
  1.101763100E+01  1.150183297E-01
  4.372801000E+00  2.398650094E-01
  1.831256000E+00  3.584300090E-01
  8.022610000E-01  3.048527792E-01
  3.626480000E-01  8.824261976E-02
  1.139950000E-01 -8.445899977E-04
  5.123700000E-02 -7.943959979E-03
  2.246800000E-02 -3.764419990E-03
  7.860000000E-03 -8.868999976E-05
   s  14
  9.497934400E+03 -1.244999993E-05
  1.416811200E+03 -7.838999954E-05
  3.214599400E+02 -4.007099976E-04
  9.112416300E+01 -1.645249990E-03
  2.999989100E+01 -5.634599967E-03
  1.101763100E+01 -1.590780991E-02
  4.372801000E+00 -3.612581979E-02
  1.831256000E+00 -6.459927962E-02
  8.022610000E-01 -1.008321794E-01
  3.626480000E-01 -9.757613942E-02
  1.139950000E-01  2.301215886E-01
  5.123700000E-02  6.102389764E-01
  2.246800000E-02  2.849406083E-01
  7.860000000E-03  4.026899976E-03
   p   9
  1.311950400E+01  1.524940000E-03
  3.077424200E+00  8.314830000E-03
  1.098800500E+00  1.933203000E-02
  4.357784000E-01  4.934293000E-02
  1.802432000E-01  1.623554000E-01
  7.613330000E-02  3.847505400E-01
  3.254650000E-02  4.336100400E-01
  1.401820000E-02  1.287005900E-01
  4.906400000E-03 -1.018520000E-03
 
[MO]
Sym=     1a  
Ene=    -4.7063
Spin= Alpha
Occup=    1.00000
   1         0.99998848
   2         0.00294658
   3         0.00000000
   4         0.00000000
   5        -0.00037356
   6         0.00000391
   7         0.00018892
   8         0.00000000
   9        -0.00000000
  10         0.00003085
Sym=     1a  
Ene=    -4.7009
Spin= Beta
Occup=    1.00000
   1         1.00002313
   2         0.00274886
   3        -0.00000000
   4         0.00000000
   5         0.00088308
   6        -0.00008423
   7        -0.00026321
   8        -0.00000000
   9        -0.00000000
  10         0.00014771
Sym=     2a  
Ene=    -2.4703
Spin= Alpha
Occup=    1.00000
   1         0.00001066
   2         0.00123326
   3         0.00000000
   4         0.00000000
   5         0.00034290
   6         0.99983559
   7         0.01171202
   8        -0.00000000
   9        -0.00000000
  10         0.00099653
Sym=     2a  
Ene=    -2.4604
Spin= Beta
Occup=    1.00000
   1        -0.00006356
   2         0.00166156
   3         0.00000000
   4         0.00000000
   5         0.00105576
   6         0.99973236
   7         0.01262322
   8        -0.00000000
   9        -0.00000000
  10         0.00091836
Sym=     3a  
Ene=    -0.3342
Spin= Alpha
Occup=    1.00000
   1        -0.02022922
   2         0.84596392
   3        -0.00000000
   4         0.00000000
   5        -0.20915470
   6        -0.02557734
   7         0.20686451
   8         0.00000000
   9        -0.00000000
  10        -0.07361325
Sym=     3a  
Ene=    -0.3171
Spin= Beta
Occup=    1.00000
   1        -0.02138861
   2         0.78430361
   3         0.00000000
   4        -0.00000000
   5         0.30870936
   6        -0.07284139
   7         0.13809736
   8         0.00000000
   9        -0.00000000
  10        -0.13012752
Sym=     4a  
Ene=    -0.1875
Spin= Alpha
Occup=    1.00000
   1        -0.03725119
   2        -0.33842541
   3         0.00000000
   4        -0.00000000
   5         0.47386386
   6        -0.03835054
   7         0.79552190
   8         0.00000000
   9         0.00000000
  10         0.03790812
Sym=     4a  
Ene=     0.0453
Spin= Beta
Occup=    0.00000
   1         0.00079009
   2        -0.25027386
   3        -0.00000000
   4         0.00000000
   5         0.07569411
   6        -0.00589649
   7         0.84521693
   8        -0.00000000
   9         0.00000000
  10         0.48893013
Sym=     5a  
Ene=     0.0315
Spin= Alpha
Occup=    0.00000
   1        -0.00000000
   2        -0.00000000
   3         0.28719352
   4         0.18529032
   5         0.00000000
   6        -0.00000000
   7        -0.00000000
   8         0.69760531
   9         0.45007808
  10        -0.00000000
Sym=     5a  
Ene=     0.0540
Spin= Beta
Occup=    0.00000
   1         0.00000000
   2        -0.00000000
   3         0.35636873
   4         0.22268427
   5        -0.00000000
   6        -0.00000000
   7         0.00000000
   8         0.65731147
   9         0.41073448
  10         0.00000000
Sym=     6a  
Ene=     0.0315
Spin= Alpha
Occup=    0.00000
   1         0.00000000
   2         0.00000000
   3        -0.18529032
   4         0.28719352
   5        -0.00000000
   6         0.00000000
   7         0.00000000
   8        -0.45007808
   9         0.69760531
  10         0.00000000
Sym=     6a  
Ene=     0.0540
Spin= Beta
Occup=    0.00000
   1        -0.00000000
   2         0.00000000
   3        -0.22268427
   4         0.35636873
   5        -0.00000000
   6         0.00000000
   7        -0.00000000
   8        -0.41073448
   9         0.65731147
  10        -0.00000000
Sym=     7a  
Ene=     0.0329
Spin= Alpha
Occup=    0.00000
   1         0.05389140
   2         0.16506026
   3         0.00000000
   4        -0.00000000
   5        -0.53738969
   6         0.03895349
   7         0.35004144
   8         0.00000000
   9        -0.00000000
  10         0.79973149
Sym=     7a  
Ene=     0.1283
Spin= Beta
Occup=    0.00000
   1         0.05541309
   2         0.72700914
   3         0.00000000
   4        -0.00000000
   5        -0.69160177
   6         0.03087537
   7        -0.07406538
   8        -0.00000000
   9         0.00000000
  10         0.57915150
Sym=     8a  
Ene=     0.1430
Spin= Alpha
Occup=    0.00000
   1         0.00000000
   2         0.00000000
   3         0.27703503
   4        -0.96887365
   5        -0.00000000
   6        -0.00000000
   7        -0.00000000
   8        -0.18299132
   9         0.63997492
  10        -0.00000000
Sym=     8a  
Ene=     0.1683
Spin= Beta
Occup=    0.00000
   1         0.00000000
   2         0.00000000
   3         0.26751979
   4        -0.94027835
   5         0.00000000
   6        -0.00000000
   7        -0.00000000
   8        -0.19950579
   9         0.70122281
  10         0.00000000
Sym=     9a  
Ene=     0.1430
Spin= Alpha
Occup=    0.00000
   1        -0.00000000
   2        -0.00000000
   3        -0.96887365
   4        -0.27703503
   5         0.00000000
   6        -0.00000000
   7         0.00000000
   8         0.63997492
   9         0.18299132
  10        -0.00000000
Sym=     9a  
Ene=     0.1683
Spin= Beta
Occup=    0.00000
   1         0.00000000
   2         0.00000000
   3        -0.94027835
   4        -0.26751979
   5         0.00000000
   6        -0.00000000
   7         0.00000000
   8         0.70122281
   9         0.19950579
  10         0.00000000
Sym=    10a  
Ene=     0.2541
Spin= Alpha
Occup=    0.00000
   1         0.16355498
   2         1.32666790
   3        -0.00000000
   4         0.00000000
   5         0.95464532
   6        -0.14667642
   7        -1.09754800
   8        -0.00000000
   9        -0.00000000
  10         1.20131820
Sym=    10a  
Ene=     0.2404
Spin= Beta
Occup=    0.00000
   1         0.16689330
   2         1.18792582
   3         0.00000000
   4         0.00000000
   5         0.94291161
   6        -0.13808976
   7        -1.12419669
   8        -0.00000000
   9        -0.00000000
  10         1.22400557
