[Molden Format]
[N_Atoms]
                     2
[Atoms] (AU)
B1          1      5           0.00000000      0.00000000      0.00000000
BE2         2      4           0.00000000      0.00000000      5.10226054
[Charge] (Mulliken)
 -2.905064969240279E-002
  2.905064969239524E-002
[GTO] (AU)
   1
   s  14
  3.336021700E+04  1.039699991E-04
  4.972095200E+03  5.254399956E-04
  1.125641700E+03  2.509059979E-03
  3.164913600E+02  1.031887991E-02
  1.020072600E+02  3.636632969E-02
  3.629587300E+01  1.064607991E-01
  1.397141000E+01  2.403999880E-01
  5.741156000E+00  3.748581168E-01
  2.494268000E+00  3.100066974E-01
  1.114202000E+00  7.922455933E-02
  4.215490000E-01 -4.947589958E-03
  1.696330000E-01 -7.737119935E-03
  6.853500000E-02 -1.501079987E-03
  2.398700000E-02 -1.333299989E-04
   s  14
  3.336021700E+04 -2.030000008E-05
  4.972095200E+03 -1.025700004E-04
  1.125641700E+03 -4.911300020E-04
  3.164913600E+02 -2.026570008E-03
  1.020072600E+02 -7.261010030E-03
  3.629587300E+01 -2.197722009E-02
  1.397141000E+01 -5.408428022E-02
  5.741156000E+00 -1.022402604E-01
  2.494268000E+00 -1.423595206E-01
  1.114202000E+00 -4.658690019E-02
  4.215490000E-01  3.799402916E-01
  1.696330000E-01  5.890463624E-01
  6.853500000E-02  1.749075107E-01
  2.398700000E-02 -1.142030005E-03
   p   9
  5.500000000E+01  1.229800005E-03
  1.336610100E+01  8.827380035E-03
  4.135394000E+00  3.843340015E-02
  1.481256000E+00  1.150031805E-01
  6.021360000E-01  2.733674011E-01
  2.556360000E-01  4.061972116E-01
  1.111510000E-01  3.014967912E-01
  4.764800000E-02  7.684809030E-02
  1.667700000E-02 -8.170000032E-06
 
   2
   s  14
  2.262859900E+04  8.443999941E-05
  3.372318100E+03  4.601499968E-04
  7.603504000E+02  2.285389984E-03
  2.117404800E+02  9.648129932E-03
  6.722346800E+01  3.494469975E-02
  2.337217700E+01  1.061099893E-01
  8.721373000E+00  2.458240383E-01
  3.468091000E+00  3.862428773E-01
  1.452144000E+00  3.105526078E-01
  6.086150000E-01  6.415933955E-02
  2.576860000E-01 -2.265049984E-03
  1.041760000E-01 -5.217499963E-04
  4.242700000E-02 -8.757499938E-04
  1.484900000E-02  1.242199991E-04
   s  14
  2.262859900E+04 -1.586999994E-05
  3.372318100E+03 -8.656999968E-05
  7.603504000E+02 -4.302199984E-04
  2.117404800E+02 -1.825079993E-03
  6.722346800E+01 -6.682749976E-03
  2.337217700E+01 -2.095119992E-02
  8.721373000E+00 -5.200308981E-02
  3.468091000E+00 -9.849176964E-02
  1.452144000E+00 -1.355800695E-01
  6.086150000E-01 -6.429875976E-02
  2.576860000E-01  3.125414989E-01
  1.041760000E-01  6.270468577E-01
  4.242700000E-02  2.110231492E-01
  1.484900000E-02 -4.104669985E-03
   p   9
  3.371018400E+01  1.069960000E-03
  8.057649500E+00  6.828550001E-03
  2.836471400E+00  2.119065000E-02
  1.099965700E+00  5.843696001E-02
  4.433964000E-01  2.020920800E-01
  1.822264000E-01  4.582953101E-01
  7.572410000E-02  3.691239601E-01
  3.168540000E-02  6.611471001E-02
  1.108990000E-02  1.405160000E-03
 
[MO]
Sym=     1a  
Ene=    -7.6244
Spin= Alpha
Occup=    1.00000
   1         0.99991319
   2         0.01444675
   3        -0.00000017
   4         0.00000009
   5         0.00044070
   6        -0.00004321
   7        -0.00031827
   8        -0.00000032
   9         0.00000019
  10         0.00039501
Sym=     1a  
Ene=    -7.6244
Spin= Beta
Occup=    1.00000
   1         0.99991319
   2         0.01444675
   3        -0.00000017
   4         0.00000009
   5         0.00044070
   6        -0.00004321
   7        -0.00031827
   8        -0.00000032
   9         0.00000019
  10         0.00039501
Sym=     2a  
Ene=    -4.7192
Spin= Alpha
Occup=    1.00000
   1        -0.00000577
   2         0.00010803
   3         0.00000019
   4        -0.00000011
   5         0.00003326
   6         0.99999584
   7         0.00209086
   8        -0.00000167
   9         0.00000098
  10        -0.00012891
Sym=     2a  
Ene=    -4.7192
Spin= Beta
Occup=    1.00000
   1        -0.00000577
   2         0.00010803
   3         0.00000019
   4        -0.00000011
   5         0.00003326
   6         0.99999584
   7         0.00209086
   8        -0.00000167
   9         0.00000098
  10        -0.00012891
Sym=     3a  
Ene=    -0.4879
Spin= Alpha
Occup=    1.00000
   1        -0.01853328
   2         0.91124883
   3        -0.00009296
   4         0.00005409
   5         0.02427905
   6        -0.01020802
   7         0.21245285
   8        -0.00000352
   9         0.00000196
  10        -0.06985189
Sym=     3a  
Ene=    -0.4879
Spin= Beta
Occup=    1.00000
   1        -0.01853328
   2         0.91124883
   3        -0.00009296
   4         0.00005409
   5         0.02427905
   6        -0.01020802
   7         0.21245285
   8        -0.00000352
   9         0.00000196
  10        -0.06985189
Sym=     4a  
Ene=    -0.2964
Spin= Alpha
Occup=    1.00000
   1         0.00829030
   2         0.39452727
   3        -0.00023174
   4         0.00013591
   5        -0.13400780
   6         0.00169899
   7        -0.95213885
   8        -0.00020669
   9         0.00012058
  10        -0.02895363
Sym=     4a  
Ene=    -0.2964
Spin= Beta
Occup=    1.00000
   1         0.00829030
   2         0.39452727
   3        -0.00023174
   4         0.00013591
   5        -0.13400780
   6         0.00169899
   7        -0.95213885
   8        -0.00020669
   9         0.00012058
  10        -0.02895363
Sym=     5a  
Ene=     0.1104
Spin= Alpha
Occup=    0.00000
   1         0.00129941
   2         0.01843477
   3         0.25444487
   4         0.00651369
   5        -0.10135310
   6         0.00248288
   7         0.03747028
   8        -0.84215210
   9         0.51586352
  10         0.06661106
Sym=     5a  
Ene=     0.1104
Spin= Beta
Occup=    0.00000
   1         0.00129941
   2         0.01843477
   3         0.25444487
   4         0.00651369
   5        -0.10135310
   6         0.00248288
   7         0.03747028
   8        -0.84215210
   9         0.51586352
  10         0.06661106
Sym=     6a  
Ene=     0.0000
Spin= Alpha
Occup=    1.00000
   1         0.00000697
   2         0.00033430
   3         0.85109127
   4        -0.49580235
   5        -0.00417895
   6         0.00010711
   7         0.00130062
   8         0.07271112
   9        -0.04236096
  10         0.00096278
Sym=     6a  
Ene=     0.0000
Spin= Beta
Occup=    0.00000
   1         0.00000697
   2         0.00033430
   3         0.85109127
   4        -0.49580235
   5        -0.00417895
   6         0.00010711
   7         0.00130062
   8         0.07271112
   9        -0.04236096
  10         0.00096278
Sym=     7a  
Ene=     0.0554
Spin= Alpha
Occup=    0.00000
   1         0.01569635
   2         0.21916299
   3        -0.03990279
   4        -0.00502806
   5        -0.58233768
   6         0.01322498
   7         0.20342184
   8         0.09794040
   9        -0.08523418
  10         0.68626300
Sym=     7a  
Ene=     0.0554
Spin= Beta
Occup=    0.00000
   1         0.01569635
   2         0.21916299
   3        -0.03990279
   4        -0.00502806
   5        -0.58233768
   6         0.01322498
   7         0.20342184
   8         0.09794040
   9        -0.08523418
  10         0.68626300
Sym=     8a  
Ene=     0.0760
Spin= Alpha
Occup=    0.00000
   1         0.00037563
   2         0.00524247
   3         0.23235498
   4         0.44531234
   5        -0.01280806
   6         0.00028718
   7         0.00441383
   8         0.49032740
   9         0.63124976
  10         0.01620779
Sym=     8a  
Ene=     0.0760
Spin= Beta
Occup=    0.00000
   1         0.00037563
   2         0.00524247
   3         0.23235498
   4         0.44531234
   5        -0.01280806
   6         0.00028718
   7         0.00441383
   8         0.49032740
   9         0.63124976
  10         0.01620779
Sym=     9a  
Ene=     0.1527
Spin= Alpha
Occup=    0.00000
   1         0.00011156
   2         0.00154094
   3        -0.41759773
   4        -0.75825950
   5        -0.00220711
   6         0.00004329
   7         0.00072294
   8         0.23254322
   9         0.58764402
  10         0.00453340
Sym=     9a  
Ene=     0.1527
Spin= Beta
Occup=    0.00000
   1         0.00011156
   2         0.00154094
   3        -0.41759773
   4        -0.75825950
   5        -0.00220711
   6         0.00004329
   7         0.00072294
   8         0.23254322
   9         0.58764402
  10         0.00453340
Sym=    10a  
Ene=     0.2557
Spin= Alpha
Occup=    0.00000
   1        -0.02774648
   2        -0.37503959
   3        -0.00898994
   4         0.00032367
   5        -0.90479797
   6         0.02720776
   7         0.38360039
   8         0.02348669
   9        -0.01311946
  10        -0.85979713
Sym=    10a  
Ene=     0.2557
Spin= Beta
Occup=    0.00000
   1        -0.02774648
   2        -0.37503959
   3        -0.00898994
   4         0.00032367
   5        -0.90479797
   6         0.02720776
   7         0.38360039
   8         0.02348669
   9        -0.01311946
  10        -0.85979713
