[Molden Format]
[N_Atoms]
                     2
[Atoms] (AU)
B1          1      5           0.00000000      0.00000000      0.00000000
BE2         2      4           0.00000000      0.00000000      5.10226054
[Charge] (Mulliken)
 -5.184255590221554E-002
  5.184255590220577E-002
[GTO] (AU)
   1
   s  14
  3.336021700E+04  1.039699991E-04
  4.972095200E+03  5.254399956E-04
  1.125641700E+03  2.509059979E-03
  3.164913600E+02  1.031887991E-02
  1.020072600E+02  3.636632969E-02
  3.629587300E+01  1.064607991E-01
  1.397141000E+01  2.403999880E-01
  5.741156000E+00  3.748581168E-01
  2.494268000E+00  3.100066974E-01
  1.114202000E+00  7.922455933E-02
  4.215490000E-01 -4.947589958E-03
  1.696330000E-01 -7.737119935E-03
  6.853500000E-02 -1.501079987E-03
  2.398700000E-02 -1.333299989E-04
   s  14
  3.336021700E+04 -2.030000008E-05
  4.972095200E+03 -1.025700004E-04
  1.125641700E+03 -4.911300020E-04
  3.164913600E+02 -2.026570008E-03
  1.020072600E+02 -7.261010030E-03
  3.629587300E+01 -2.197722009E-02
  1.397141000E+01 -5.408428022E-02
  5.741156000E+00 -1.022402604E-01
  2.494268000E+00 -1.423595206E-01
  1.114202000E+00 -4.658690019E-02
  4.215490000E-01  3.799402916E-01
  1.696330000E-01  5.890463624E-01
  6.853500000E-02  1.749075107E-01
  2.398700000E-02 -1.142030005E-03
   p   9
  5.500000000E+01  1.229800005E-03
  1.336610100E+01  8.827380035E-03
  4.135394000E+00  3.843340015E-02
  1.481256000E+00  1.150031805E-01
  6.021360000E-01  2.733674011E-01
  2.556360000E-01  4.061972116E-01
  1.111510000E-01  3.014967912E-01
  4.764800000E-02  7.684809030E-02
  1.667700000E-02 -8.170000032E-06
 
   2
   s  14
  2.262859900E+04  8.443999941E-05
  3.372318100E+03  4.601499968E-04
  7.603504000E+02  2.285389984E-03
  2.117404800E+02  9.648129932E-03
  6.722346800E+01  3.494469975E-02
  2.337217700E+01  1.061099893E-01
  8.721373000E+00  2.458240383E-01
  3.468091000E+00  3.862428773E-01
  1.452144000E+00  3.105526078E-01
  6.086150000E-01  6.415933955E-02
  2.576860000E-01 -2.265049984E-03
  1.041760000E-01 -5.217499963E-04
  4.242700000E-02 -8.757499938E-04
  1.484900000E-02  1.242199991E-04
   s  14
  2.262859900E+04 -1.586999994E-05
  3.372318100E+03 -8.656999968E-05
  7.603504000E+02 -4.302199984E-04
  2.117404800E+02 -1.825079993E-03
  6.722346800E+01 -6.682749976E-03
  2.337217700E+01 -2.095119992E-02
  8.721373000E+00 -5.200308981E-02
  3.468091000E+00 -9.849176964E-02
  1.452144000E+00 -1.355800695E-01
  6.086150000E-01 -6.429875976E-02
  2.576860000E-01  3.125414989E-01
  1.041760000E-01  6.270468577E-01
  4.242700000E-02  2.110231492E-01
  1.484900000E-02 -4.104669985E-03
   p   9
  3.371018400E+01  1.069960000E-03
  8.057649500E+00  6.828550001E-03
  2.836471400E+00  2.119065000E-02
  1.099965700E+00  5.843696001E-02
  4.433964000E-01  2.020920800E-01
  1.822264000E-01  4.582953101E-01
  7.572410000E-02  3.691239601E-01
  3.168540000E-02  6.611471001E-02
  1.108990000E-02  1.405160000E-03
 
[MO]
Sym=     1a  
Ene=    -7.6354
Spin= Alpha
Occup=    1.00000
   1         0.99990622
   2         0.01452098
   3         0.00000000
   4        -0.00000000
   5        -0.00015346
   6        -0.00002124
   7        -0.00021221
   8         0.00000000
   9         0.00000000
  10         0.00026123
Sym=     1a  
Ene=    -7.6354
Spin= Beta
Occup=    1.00000
   1         0.99990622
   2         0.01452098
   3         0.00000000
   4        -0.00000000
   5        -0.00015346
   6        -0.00002124
   7        -0.00021221
   8         0.00000000
   9         0.00000000
  10         0.00026123
Sym=     2a  
Ene=    -4.7773
Spin= Alpha
Occup=    1.00000
   1        -0.00004026
   2        -0.00009558
   3         0.00000000
   4        -0.00000000
   5        -0.00016308
   6         0.99999409
   7         0.00476187
   8         0.00000000
   9         0.00000000
  10         0.00021730
Sym=     2a  
Ene=    -4.7773
Spin= Beta
Occup=    1.00000
   1        -0.00004026
   2        -0.00009558
   3         0.00000000
   4        -0.00000000
   5        -0.00016308
   6         0.99999409
   7         0.00476187
   8         0.00000000
   9         0.00000000
  10         0.00021730
Sym=     3a  
Ene=    -0.4789
Spin= Alpha
Occup=    1.00000
   1        -0.01811943
   2         0.93674310
   3        -0.00000000
   4         0.00000000
   5         0.03126197
   6        -0.01099442
   7         0.12866682
   8        -0.00000000
   9         0.00000000
  10        -0.08296833
Sym=     3a  
Ene=    -0.4789
Spin= Beta
Occup=    1.00000
   1        -0.01811943
   2         0.93674310
   3        -0.00000000
   4         0.00000000
   5         0.03126197
   6        -0.01099442
   7         0.12866682
   8        -0.00000000
   9         0.00000000
  10        -0.08296833
Sym=     4a  
Ene=    -0.0598
Spin= Alpha
Occup=    1.00000
   1         0.00000000
   2         0.00000000
   3         0.87433001
   4        -0.45644350
   5        -0.00000000
   6         0.00000000
   7        -0.00000000
   8         0.06921153
   9        -0.03613184
  10         0.00000000
Sym=     4a  
Ene=    -0.0598
Spin= Beta
Occup=    0.00000
   1         0.00000000
   2         0.00000000
   3         0.87433001
   4        -0.45644350
   5        -0.00000000
   6         0.00000000
   7        -0.00000000
   8         0.06921153
   9        -0.03613184
  10         0.00000000
Sym=     5a  
Ene=     0.0000
Spin= Alpha
Occup=    1.00000
   1        -0.00000000
   2        -0.00000000
   3         0.12454773
   4         0.23857458
   5         0.00000000
   6        -0.00000000
   7         0.00000000
   8         0.42896247
   9         0.82168935
  10        -0.00000000
Sym=     5a  
Ene=     0.0000
Spin= Beta
Occup=    1.00000
   1        -0.00000000
   2        -0.00000000
   3         0.12454773
   4         0.23857458
   5         0.00000000
   6        -0.00000000
   7         0.00000000
   8         0.42896247
   9         0.82168935
  10        -0.00000000
Sym=     6a  
Ene=    -0.0547
Spin= Alpha
Occup=    0.00000
   1        -0.00771438
   2        -0.29555722
   3         0.00000000
   4        -0.00000000
   5         0.21778853
   6        -0.00733874
   7         0.92875881
   8         0.00000000
   9        -0.00000000
  10         0.07491703
Sym=     6a  
Ene=    -0.0547
Spin= Beta
Occup=    0.00000
   1        -0.00771438
   2        -0.29555722
   3         0.00000000
   4        -0.00000000
   5         0.21778853
   6        -0.00733874
   7         0.92875881
   8         0.00000000
   9        -0.00000000
  10         0.07491703
Sym=     7a  
Ene=     0.0685
Spin= Alpha
Occup=    0.00000
   1         0.01500890
   2         0.23687259
   3        -0.00000000
   4         0.00000000
   5        -0.58016039
   6         0.01220682
   7         0.22679177
   8        -0.00000000
   9         0.00000000
  10         0.69460885
Sym=     7a  
Ene=     0.0685
Spin= Beta
Occup=    0.00000
   1         0.01500890
   2         0.23687259
   3        -0.00000000
   4         0.00000000
   5        -0.58016039
   6         0.01220682
   7         0.22679177
   8        -0.00000000
   9         0.00000000
  10         0.69460885
Sym=     8a  
Ene=     0.1152
Spin= Alpha
Occup=    0.00000
   1         0.00000000
   2         0.00000000
   3        -0.19085873
   4         0.09963769
   5        -0.00000000
   6         0.00000000
   7        -0.00000000
   8         0.89223864
   9        -0.46579269
  10         0.00000000
Sym=     8a  
Ene=     0.1152
Spin= Beta
Occup=    0.00000
   1         0.00000000
   2         0.00000000
   3        -0.19085873
   4         0.09963769
   5        -0.00000000
   6         0.00000000
   7        -0.00000000
   8         0.89223864
   9        -0.46579269
  10         0.00000000
Sym=     9a  
Ene=     0.1222
Spin= Alpha
Occup=    0.00000
   1        -0.00000000
   2         0.00000000
   3        -0.45028458
   4        -0.86253243
   5        -0.00000000
   6        -0.00000000
   7         0.00000000
   8         0.18509332
   9         0.35455132
  10         0.00000000
Sym=     9a  
Ene=     0.1222
Spin= Beta
Occup=    0.00000
   1        -0.00000000
   2         0.00000000
   3        -0.45028458
   4        -0.86253243
   5        -0.00000000
   6        -0.00000000
   7         0.00000000
   8         0.18509332
   9         0.35455132
  10         0.00000000
Sym=    10a  
Ene=     0.2601
Spin= Alpha
Occup=    0.00000
   1        -0.02882971
   2        -0.39259474
   3        -0.00000000
   4         0.00000000
   5        -0.89542608
   6         0.02661313
   7         0.45941178
   8         0.00000000
   9        -0.00000000
  10        -0.85186214
Sym=    10a  
Ene=     0.2601
Spin= Beta
Occup=    0.00000
   1        -0.02882971
   2        -0.39259474
   3        -0.00000000
   4         0.00000000
   5        -0.89542608
   6         0.02661313
   7         0.45941178
   8         0.00000000
   9        -0.00000000
  10        -0.85186214
