[Molden Format]
[N_Atoms]
                     2
[Atoms] (AU)
B1          1      5           0.00000000      0.00000000      0.00000000
BE2         2      4           0.00000000      0.00000000      5.10226054
[Charge] (Mulliken)
 -5.540740910310848E-002
  5.540740910307518E-002
[GTO] (AU)
   1
   s  14
  3.336021700E+04  1.039699991E-04
  4.972095200E+03  5.254399956E-04
  1.125641700E+03  2.509059979E-03
  3.164913600E+02  1.031887991E-02
  1.020072600E+02  3.636632969E-02
  3.629587300E+01  1.064607991E-01
  1.397141000E+01  2.403999880E-01
  5.741156000E+00  3.748581168E-01
  2.494268000E+00  3.100066974E-01
  1.114202000E+00  7.922455933E-02
  4.215490000E-01 -4.947589958E-03
  1.696330000E-01 -7.737119935E-03
  6.853500000E-02 -1.501079987E-03
  2.398700000E-02 -1.333299989E-04
   s  14
  3.336021700E+04 -2.030000008E-05
  4.972095200E+03 -1.025700004E-04
  1.125641700E+03 -4.911300020E-04
  3.164913600E+02 -2.026570008E-03
  1.020072600E+02 -7.261010030E-03
  3.629587300E+01 -2.197722009E-02
  1.397141000E+01 -5.408428022E-02
  5.741156000E+00 -1.022402604E-01
  2.494268000E+00 -1.423595206E-01
  1.114202000E+00 -4.658690019E-02
  4.215490000E-01  3.799402916E-01
  1.696330000E-01  5.890463624E-01
  6.853500000E-02  1.749075107E-01
  2.398700000E-02 -1.142030005E-03
   p   9
  5.500000000E+01  1.229800005E-03
  1.336610100E+01  8.827380035E-03
  4.135394000E+00  3.843340015E-02
  1.481256000E+00  1.150031805E-01
  6.021360000E-01  2.733674011E-01
  2.556360000E-01  4.061972116E-01
  1.111510000E-01  3.014967912E-01
  4.764800000E-02  7.684809030E-02
  1.667700000E-02 -8.170000032E-06
 
   2
   s  14
  2.262859900E+04  8.443999941E-05
  3.372318100E+03  4.601499968E-04
  7.603504000E+02  2.285389984E-03
  2.117404800E+02  9.648129932E-03
  6.722346800E+01  3.494469975E-02
  2.337217700E+01  1.061099893E-01
  8.721373000E+00  2.458240383E-01
  3.468091000E+00  3.862428773E-01
  1.452144000E+00  3.105526078E-01
  6.086150000E-01  6.415933955E-02
  2.576860000E-01 -2.265049984E-03
  1.041760000E-01 -5.217499963E-04
  4.242700000E-02 -8.757499938E-04
  1.484900000E-02  1.242199991E-04
   s  14
  2.262859900E+04 -1.586999994E-05
  3.372318100E+03 -8.656999968E-05
  7.603504000E+02 -4.302199984E-04
  2.117404800E+02 -1.825079993E-03
  6.722346800E+01 -6.682749976E-03
  2.337217700E+01 -2.095119992E-02
  8.721373000E+00 -5.200308981E-02
  3.468091000E+00 -9.849176964E-02
  1.452144000E+00 -1.355800695E-01
  6.086150000E-01 -6.429875976E-02
  2.576860000E-01  3.125414989E-01
  1.041760000E-01  6.270468577E-01
  4.242700000E-02  2.110231492E-01
  1.484900000E-02 -4.104669985E-03
   p   9
  3.371018400E+01  1.069960000E-03
  8.057649500E+00  6.828550001E-03
  2.836471400E+00  2.119065000E-02
  1.099965700E+00  5.843696001E-02
  4.433964000E-01  2.020920800E-01
  1.822264000E-01  4.582953101E-01
  7.572410000E-02  3.691239601E-01
  3.168540000E-02  6.611471001E-02
  1.108990000E-02  1.405160000E-03
 
[MO]
Sym=     1a  
Ene=    -7.6274
Spin= Alpha
Occup=    1.00000
   1         0.99989122
   2         0.01610892
   3         0.00000000
   4         0.00000000
   5         0.00004117
   6        -0.00004291
   7        -0.00034901
   8        -0.00000000
   9         0.00000000
  10         0.00047627
Sym=     1a  
Ene=    -7.6073
Spin= Beta
Occup=    1.00000
   1         0.99992341
   2         0.01312260
   3         0.00000000
   4         0.00000000
   5         0.00052158
   6        -0.00003235
   7        -0.00020788
   8        -0.00000000
   9        -0.00000000
  10         0.00020229
Sym=     2a  
Ene=    -4.7285
Spin= Alpha
Occup=    1.00000
   1        -0.00003490
   2        -0.00006535
   3        -0.00000000
   4        -0.00000000
   5         0.00002276
   6         0.99999675
   7         0.00245089
   8        -0.00000000
   9        -0.00000000
  10        -0.00075756
Sym=     2a  
Ene=    -4.7323
Spin= Beta
Occup=    1.00000
   1         0.00001013
   2         0.00031499
   3         0.00000000
   4        -0.00000000
   5         0.00015810
   6         0.99998983
   7         0.00230064
   8        -0.00000000
   9        -0.00000000
  10         0.00056627
Sym=     3a  
Ene=    -0.5414
Spin= Alpha
Occup=    1.00000
   1        -0.02043075
   2         0.92023544
   3         0.00000000
   4         0.00000000
   5        -0.12241659
   6        -0.00641779
   7         0.17357497
   8        -0.00000000
   9        -0.00000000
  10        -0.09475334
Sym=     3a  
Ene=    -0.4289
Spin= Beta
Occup=    1.00000
   1        -0.01682983
   2         0.84993302
   3         0.00000000
   4        -0.00000000
   5         0.17963679
   6        -0.01408617
   7         0.30656230
   8        -0.00000000
   9         0.00000000
  10        -0.03038999
Sym=     4a  
Ene=    -0.3147
Spin= Alpha
Occup=    1.00000
   1        -0.01630039
   2        -0.35367265
   3        -0.00000000
   4        -0.00000000
   5         0.31759637
   6        -0.00733806
   7         0.83249885
   8        -0.00000000
   9        -0.00000000
  10        -0.27595732
Sym=     4a  
Ene=    -0.3175
Spin= Beta
Occup=    1.00000
   1         0.00257097
   2        -0.36486281
   3        -0.00000000
   4         0.00000000
   5        -0.02888114
   6         0.00213895
   7         0.88960249
   8        -0.00000000
   9         0.00000000
  10         0.36414612
Sym=     5a  
Ene=    -0.2877
Spin= Alpha
Occup=    1.00000
   1        -0.00000000
   2        -0.00000000
   3         0.10741704
   4         0.97829557
   5         0.00000000
   6         0.00000000
   7         0.00000000
   8         0.00958327
   9         0.08727920
  10        -0.00000000
Sym=     5a  
Ene=     0.0787
Spin= Beta
Occup=    0.00000
   1        -0.00000000
   2        -0.00000000
   3         0.36654502
   4        -0.04024671
   5         0.00000000
   6        -0.00000000
   7         0.00000000
   8         0.87509849
   9        -0.09608598
  10        -0.00000000
Sym=     6a  
Ene=     0.0669
Spin= Alpha
Occup=    0.00000
   1         0.00925772
   2        -0.03330510
   3        -0.00000000
   4         0.00000000
   5        -0.58188414
   6         0.01518643
   7         0.58244575
   8        -0.00000000
   9        -0.00000000
  10         0.56037848
Sym=     6a  
Ene=     0.0871
Spin= Beta
Occup=    0.00000
   1        -0.00000000
   2        -0.00000000
   3         0.02567973
   4         0.23387695
   5         0.00000000
   6        -0.00000000
   7        -0.00000000
   8         0.10261865
   9         0.93459452
  10        -0.00000000
Sym=     7a  
Ene=     0.0748
Spin= Alpha
Occup=    0.00000
   1         0.00000000
   2        -0.00000000
   3         0.58610160
   4        -0.06435407
   5        -0.00000000
   6         0.00000000
   7         0.00000000
   8         0.72652438
   9        -0.07977251
  10         0.00000000
Sym=     7a  
Ene=     0.0899
Spin= Beta
Occup=    0.00000
   1         0.01796572
   2         0.48818381
   3         0.00000000
   4         0.00000000
   5        -0.51735039
   6         0.00917817
   7        -0.16394652
   8         0.00000000
   9         0.00000000
  10         0.68202948
Sym=     8a  
Ene=     0.1097
Spin= Alpha
Occup=    0.00000
   1         0.00000000
   2        -0.00000000
   3        -0.02453870
   4        -0.22348507
   5        -0.00000000
   6         0.00000000
   7         0.00000000
   8         0.10976670
   9         0.99969502
  10         0.00000000
Sym=     8a  
Ene=     0.1706
Spin= Beta
Occup=    0.00000
   1        -0.00000000
   2         0.00000000
   3        -0.93415874
   4         0.10257080
   5        -0.00000000
   6         0.00000000
   7         0.00000000
   8         0.49113179
   9        -0.05392636
  10        -0.00000000
Sym=     9a  
Ene=     0.1502
Spin= Alpha
Occup=    0.00000
   1         0.00000000
   2         0.00000000
   3        -0.81455062
   4         0.08943781
   5         0.00000000
   6         0.00000000
   7        -0.00000000
   8         0.69222115
   9        -0.07600601
  10        -0.00000000
Sym=     9a  
Ene=     0.2138
Spin= Beta
Occup=    0.00000
   1        -0.00000000
   2         0.00000000
   3         0.10714998
   4         0.97586340
   5        -0.00000000
   6         0.00000000
   7         0.00000000
   8        -0.04012455
   9        -0.36543247
  10        -0.00000000
Sym=    10a  
Ene=     0.2498
Spin= Alpha
Occup=    0.00000
   1         0.02655968
   2         0.44945021
   3         0.00000000
   4         0.00000000
   5         0.85576907
   6        -0.02647700
   7        -0.28148305
   8         0.00000000
   9        -0.00000000
  10         0.90636168
Sym=    10a  
Ene=     0.2750
Spin= Beta
Occup=    0.00000
   1         0.02823556
   2         0.28510541
   3        -0.00000000
   4         0.00000000
   5         0.94129056
   6        -0.02744600
   7        -0.47896519
   8         0.00000000
   9        -0.00000000
  10         0.78864216
