[Molden Format]
[N_Atoms]
                     2
[Atoms] (AU)
B1          1      5           0.00000000      0.00000000      0.00000000
C2          2      6           0.00000000      0.00000000      4.91328792
[Charge] (Mulliken)
  7.374987052532056E-002
 -7.374987052533566E-002
[GTO] (AU)
   1
   s  14
  3.336021700E+04  1.039699991E-04
  4.972095200E+03  5.254399956E-04
  1.125641700E+03  2.509059979E-03
  3.164913600E+02  1.031887991E-02
  1.020072600E+02  3.636632969E-02
  3.629587300E+01  1.064607991E-01
  1.397141000E+01  2.403999880E-01
  5.741156000E+00  3.748581168E-01
  2.494268000E+00  3.100066974E-01
  1.114202000E+00  7.922455933E-02
  4.215490000E-01 -4.947589958E-03
  1.696330000E-01 -7.737119935E-03
  6.853500000E-02 -1.501079987E-03
  2.398700000E-02 -1.333299989E-04
   s  14
  3.336021700E+04 -2.030000008E-05
  4.972095200E+03 -1.025700004E-04
  1.125641700E+03 -4.911300020E-04
  3.164913600E+02 -2.026570008E-03
  1.020072600E+02 -7.261010030E-03
  3.629587300E+01 -2.197722009E-02
  1.397141000E+01 -5.408428022E-02
  5.741156000E+00 -1.022402604E-01
  2.494268000E+00 -1.423595206E-01
  1.114202000E+00 -4.658690019E-02
  4.215490000E-01  3.799402916E-01
  1.696330000E-01  5.890463624E-01
  6.853500000E-02  1.749075107E-01
  2.398700000E-02 -1.142030005E-03
   p   9
  5.500000000E+01  1.229800005E-03
  1.336610100E+01  8.827380035E-03
  4.135394000E+00  3.843340015E-02
  1.481256000E+00  1.150031805E-01
  6.021360000E-01  2.733674011E-01
  2.556360000E-01  4.061972116E-01
  1.111510000E-01  3.014967912E-01
  4.764800000E-02  7.684809030E-02
  1.667700000E-02 -8.170000032E-06
 
   2
   s  14
  5.055750100E+04  1.128874000E-04
  7.524785600E+03  5.295373000E-04
  1.694327600E+03  2.450038300E-03
  4.728227900E+02  1.005398470E-02
  1.517107500E+02  3.545398060E-02
  5.391874600E+01  1.044071086E-01
  2.065931100E+01  2.412894918E-01
  8.383976000E+00  3.834225483E-01
  3.577015000E+00  3.078514393E-01
  1.547118000E+00  6.872442990E-02
  6.130130000E-01  2.224445000E-04
  2.460680000E-01  1.976748900E-03
  9.908700000E-02  2.057859400E-03
  3.468000000E-02  4.182020000E-04
   s  14
  5.055750100E+04 -2.507420000E-05
  7.524785600E+03 -1.175945000E-04
  1.694327600E+03 -5.456275000E-04
  4.728227900E+02 -2.245077100E-03
  1.517107500E+02 -8.043471800E-03
  5.391874600E+01 -2.442588710E-02
  2.065931100E+01 -6.136791180E-02
  8.383976000E+00 -1.177767835E-01
  3.577015000E+00 -1.550487783E-01
  1.547118000E+00 -1.933316860E-02
  6.130130000E-01  3.996930678E-01
  2.460680000E-01  5.589420949E-01
  9.908700000E-02  1.711195023E-01
  3.468000000E-02  7.456244600E-03
   p   9
  8.333315500E+01  1.344656000E-03
  1.955761100E+01  1.023555500E-02
  6.080365000E+00  4.520067100E-02
  2.179317000E+00  1.410756198E-01
  8.651500000E-01  3.047388085E-01
  3.619440000E-01  3.995281011E-01
  1.547400000E-01  2.719163432E-01
  6.542900000E-02  5.857669330E-02
  2.290000000E-02 -1.263813000E-04
 
[MO]
Sym=     1a  
Ene=   -11.1910
Spin= Alpha
Occup=    1.00000
   1        -0.00003930
   2        -0.00048133
   3         0.00000002
   4         0.00000001
   5        -0.00050905
   6         1.00000872
   7        -0.00221119
   8        -0.00000003
   9         0.00000014
  10        -0.00043620
Sym=     1a  
Ene=   -11.1910
Spin= Beta
Occup=    1.00000
   1        -0.00003930
   2        -0.00048133
   3         0.00000002
   4         0.00000001
   5        -0.00050905
   6         1.00000872
   7        -0.00221119
   8        -0.00000003
   9         0.00000014
  10        -0.00043620
Sym=     2a  
Ene=    -7.6684
Spin= Alpha
Occup=    1.00000
   1         0.99990192
   2         0.01407508
   3        -0.00000004
   4         0.00000019
   5         0.00020938
   6        -0.00002616
   7        -0.00014568
   8        -0.00000004
   9         0.00000006
  10         0.00003253
Sym=     2a  
Ene=    -7.6684
Spin= Beta
Occup=    1.00000
   1         0.99990192
   2         0.01407508
   3        -0.00000004
   4         0.00000019
   5         0.00020938
   6        -0.00002616
   7        -0.00014568
   8        -0.00000004
   9         0.00000006
  10         0.00003253
Sym=     3a  
Ene=    -0.6573
Spin= Alpha
Occup=    1.00000
   1        -0.00673475
   2         0.19404591
   3         0.00000142
   4         0.00000066
   5         0.04205085
   6         0.00042073
   7         0.95231118
   8         0.00002655
   9        -0.00000986
  10        -0.00105207
Sym=     3a  
Ene=    -0.6573
Spin= Beta
Occup=    1.00000
   1        -0.00673475
   2         0.19404591
   3         0.00000142
   4         0.00000066
   5         0.04205085
   6         0.00042073
   7         0.95231118
   8         0.00002655
   9        -0.00000986
  10        -0.00105207
Sym=     4a  
Ene=    -0.4890
Spin= Alpha
Occup=    1.00000
   1         0.01332162
   2        -0.97153565
   3         0.00002978
   4        -0.00001854
   5        -0.01044294
   6         0.00663149
   7         0.29705633
   8        -0.00004018
   9        -0.00003127
  10         0.07807635
Sym=     4a  
Ene=    -0.4890
Spin= Beta
Occup=    1.00000
   1         0.01332162
   2        -0.97153565
   3         0.00002978
   4        -0.00001854
   5        -0.01044294
   6         0.00663149
   7         0.29705633
   8        -0.00004018
   9        -0.00003127
  10         0.07807635
Sym=     5a  
Ene=    -0.2831
Spin= Alpha
Occup=    1.00000
   1         0.00000232
   2         0.00013575
   3        -0.08902227
   4        -0.03147000
   5        -0.00009991
   6         0.00000097
   7         0.00001829
   8        -0.93222680
   9        -0.32954891
  10         0.00037004
Sym=     5a  
Ene=    -0.2831
Spin= Beta
Occup=    1.00000
   1         0.00000232
   2         0.00013575
   3        -0.08902227
   4        -0.03147000
   5        -0.00009991
   6         0.00000097
   7         0.00001829
   8        -0.93222680
   9        -0.32954891
  10         0.00037004
Sym=     6a  
Ene=     0.2233
Spin= Alpha
Occup=    0.00000
   1        -0.00893203
   2        -0.22916869
   3         0.00349258
   4        -0.00573563
   5        -0.41230764
   6         0.00798767
   7         0.12069347
   8         0.00065704
   9        -0.00351038
  10        -1.00775008
Sym=     6a  
Ene=     0.2233
Spin= Beta
Occup=    0.00000
   1        -0.00893203
   2        -0.22916869
   3         0.00349258
   4        -0.00573563
   5        -0.41230764
   6         0.00798767
   7         0.12069347
   8         0.00065704
   9        -0.00351038
  10        -1.00775008
Sym=     7a  
Ene=    -0.0006
Spin= Alpha
Occup=    1.00000
   1         0.00091274
   2         0.06172443
   3         0.00104614
   4        -0.00103972
   5        -0.95220873
   6         0.01544697
   7         0.20101399
   8         0.00016164
   9        -0.00003907
  10         0.21111878
Sym=     7a  
Ene=    -0.0006
Spin= Beta
Occup=    0.00000
   1         0.00091274
   2         0.06172443
   3         0.00104614
   4        -0.00103972
   5        -0.95220873
   6         0.01544697
   7         0.20101399
   8         0.00016164
   9        -0.00003907
  10         0.21111878
Sym=     8a  
Ene=     0.0901
Spin= Alpha
Occup=    0.00000
   1         0.00006616
   2         0.00168188
   3         0.31128685
   4        -0.88096113
   5         0.00435751
   6        -0.00008067
   7        -0.00118992
   8         0.09846347
   9        -0.27846132
  10         0.00734068
Sym=     8a  
Ene=     0.0901
Spin= Beta
Occup=    0.00000
   1         0.00006616
   2         0.00168188
   3         0.31128685
   4        -0.88096113
   5         0.00435751
   6        -0.00008067
   7        -0.00118992
   8         0.09846347
   9        -0.27846132
  10         0.00734068
Sym=     9a  
Ene=     0.1028
Spin= Alpha
Occup=    0.00000
   1        -0.00001170
   2        -0.00031163
   3        -0.94110840
   4        -0.33256826
   5        -0.00117219
   6         0.00002104
   7         0.00030229
   8         0.15649400
   9         0.05535632
  10        -0.00129346
Sym=     9a  
Ene=     0.1028
Spin= Beta
Occup=    0.00000
   1        -0.00001170
   2        -0.00031163
   3        -0.94110840
   4        -0.33256826
   5        -0.00117219
   6         0.00002104
   7         0.00030229
   8         0.15649400
   9         0.05535632
  10        -0.00129346
Sym=    10a  
Ene=     0.1790
Spin= Alpha
Occup=    0.00000
   1        -0.00001239
   2        -0.00033234
   3         0.12116739
   4        -0.34276204
   5        -0.00026470
   6         0.00000598
   7         0.00011973
   8        -0.31932995
   9         0.90331859
  10        -0.00142725
Sym=    10a  
Ene=     0.1790
Spin= Beta
Occup=    0.00000
   1        -0.00001239
   2        -0.00033234
   3         0.12116739
   4        -0.34276204
   5        -0.00026470
   6         0.00000598
   7         0.00011973
   8        -0.31932995
   9         0.90331859
  10        -0.00142725
