[Molden Format]
[N_Atoms]
                     2
[Atoms] (AU)
B1          1      5           0.00000000      0.00000000      0.00000000
C2          2      6           0.00000000      0.00000000      4.91328792
[Charge] (Mulliken)
  1.450197663667030E-002
 -1.450197663672803E-002
[GTO] (AU)
   1
   s  14
  3.336021700E+04  1.039699991E-04
  4.972095200E+03  5.254399956E-04
  1.125641700E+03  2.509059979E-03
  3.164913600E+02  1.031887991E-02
  1.020072600E+02  3.636632969E-02
  3.629587300E+01  1.064607991E-01
  1.397141000E+01  2.403999880E-01
  5.741156000E+00  3.748581168E-01
  2.494268000E+00  3.100066974E-01
  1.114202000E+00  7.922455933E-02
  4.215490000E-01 -4.947589958E-03
  1.696330000E-01 -7.737119935E-03
  6.853500000E-02 -1.501079987E-03
  2.398700000E-02 -1.333299989E-04
   s  14
  3.336021700E+04 -2.030000008E-05
  4.972095200E+03 -1.025700004E-04
  1.125641700E+03 -4.911300020E-04
  3.164913600E+02 -2.026570008E-03
  1.020072600E+02 -7.261010030E-03
  3.629587300E+01 -2.197722009E-02
  1.397141000E+01 -5.408428022E-02
  5.741156000E+00 -1.022402604E-01
  2.494268000E+00 -1.423595206E-01
  1.114202000E+00 -4.658690019E-02
  4.215490000E-01  3.799402916E-01
  1.696330000E-01  5.890463624E-01
  6.853500000E-02  1.749075107E-01
  2.398700000E-02 -1.142030005E-03
   p   9
  5.500000000E+01  1.229800005E-03
  1.336610100E+01  8.827380035E-03
  4.135394000E+00  3.843340015E-02
  1.481256000E+00  1.150031805E-01
  6.021360000E-01  2.733674011E-01
  2.556360000E-01  4.061972116E-01
  1.111510000E-01  3.014967912E-01
  4.764800000E-02  7.684809030E-02
  1.667700000E-02 -8.170000032E-06
 
   2
   s  14
  5.055750100E+04  1.128874000E-04
  7.524785600E+03  5.295373000E-04
  1.694327600E+03  2.450038300E-03
  4.728227900E+02  1.005398470E-02
  1.517107500E+02  3.545398060E-02
  5.391874600E+01  1.044071086E-01
  2.065931100E+01  2.412894918E-01
  8.383976000E+00  3.834225483E-01
  3.577015000E+00  3.078514393E-01
  1.547118000E+00  6.872442990E-02
  6.130130000E-01  2.224445000E-04
  2.460680000E-01  1.976748900E-03
  9.908700000E-02  2.057859400E-03
  3.468000000E-02  4.182020000E-04
   s  14
  5.055750100E+04 -2.507420000E-05
  7.524785600E+03 -1.175945000E-04
  1.694327600E+03 -5.456275000E-04
  4.728227900E+02 -2.245077100E-03
  1.517107500E+02 -8.043471800E-03
  5.391874600E+01 -2.442588710E-02
  2.065931100E+01 -6.136791180E-02
  8.383976000E+00 -1.177767835E-01
  3.577015000E+00 -1.550487783E-01
  1.547118000E+00 -1.933316860E-02
  6.130130000E-01  3.996930678E-01
  2.460680000E-01  5.589420949E-01
  9.908700000E-02  1.711195023E-01
  3.468000000E-02  7.456244600E-03
   p   9
  8.333315500E+01  1.344656000E-03
  1.955761100E+01  1.023555500E-02
  6.080365000E+00  4.520067100E-02
  2.179317000E+00  1.410756198E-01
  8.651500000E-01  3.047388085E-01
  3.619440000E-01  3.995281011E-01
  1.547400000E-01  2.719163432E-01
  6.542900000E-02  5.857669330E-02
  2.290000000E-02 -1.263813000E-04
 
[MO]
Sym=     1a  
Ene=   -11.2620
Spin= Alpha
Occup=    1.00000
   1        -0.00004932
   2        -0.00062480
   3         0.00000000
   4         0.00000000
   5        -0.00071628
   6         1.00001578
   7         0.00029247
   8        -0.00000000
   9        -0.00000000
  10        -0.00022304
Sym=     1a  
Ene=   -11.2130
Spin= Beta
Occup=    1.00000
   1        -0.00003291
   2        -0.00028876
   3         0.00000000
   4         0.00000000
   5        -0.00022615
   6         0.99999369
   7        -0.00481741
   8        -0.00000000
   9        -0.00000000
  10        -0.00015433
Sym=     2a  
Ene=    -7.6347
Spin= Alpha
Occup=    1.00000
   1         0.99991750
   2         0.01291700
   3        -0.00000000
   4        -0.00000000
   5         0.00013794
   6        -0.00001398
   7        -0.00007888
   8         0.00000000
   9         0.00000000
  10         0.00005297
Sym=     2a  
Ene=    -7.6521
Spin= Beta
Occup=    1.00000
   1         0.99988205
   2         0.01562090
   3         0.00000000
   4        -0.00000000
   5        -0.00010355
   6        -0.00002549
   7        -0.00022497
   8         0.00000000
   9         0.00000000
  10         0.00026402
Sym=     3a  
Ene=    -0.8028
Spin= Alpha
Occup=    1.00000
   1        -0.00474407
   2         0.06128677
   3         0.00000000
   4         0.00000000
   5         0.02189429
   6        -0.00081769
   7         0.98755032
   8        -0.00000000
   9        -0.00000000
  10         0.01023930
Sym=     3a  
Ene=    -0.5832
Spin= Beta
Occup=    1.00000
   1        -0.01262795
   2         0.57361871
   3        -0.00000000
   4        -0.00000000
   5         0.01513575
   6         0.00011372
   7         0.75182679
   8         0.00000000
   9         0.00000000
  10        -0.04654410
Sym=     4a  
Ene=    -0.4319
Spin= Alpha
Occup=    1.00000
   1         0.01317753
   2        -0.97395227
   3        -0.00000000
   4        -0.00000000
   5        -0.09690525
   6         0.00740067
   7         0.17957696
   8        -0.00000000
   9        -0.00000000
  10         0.11743336
Sym=     4a  
Ene=    -0.5064
Spin= Beta
Occup=    1.00000
   1         0.01011758
   2        -0.81344355
   3        -0.00000000
   4        -0.00000000
   5         0.10521355
   6         0.00617388
   7         0.63964691
   8         0.00000000
   9         0.00000000
  10         0.01173635
Sym=     5a  
Ene=    -0.4106
Spin= Alpha
Occup=    1.00000
   1         0.00000000
   2        -0.00000000
   3         0.02989133
   4        -0.01709904
   5        -0.00000000
   6         0.00000000
   7         0.00000000
   8         0.86535137
   9        -0.49501582
  10        -0.00000000
Sym=     5a  
Ene=    -0.3050
Spin= Beta
Occup=    1.00000
   1         0.00000000
   2        -0.00000000
   3         0.49483766
   4         0.86503992
   5        -0.00000000
   6         0.00000000
   7         0.00000000
   8         0.01875038
   9         0.03277807
  10         0.00000000
Sym=     6a  
Ene=    -0.4093
Spin= Alpha
Occup=    1.00000
   1         0.00000000
   2        -0.00000000
   3         0.01368548
   4         0.02392398
   5        -0.00000000
   6         0.00000000
   7         0.00000000
   8         0.49536676
   9         0.86596486
  10        -0.00000000
Sym=     6a  
Ene=     0.0671
Spin= Beta
Occup=    0.00000
   1         0.00437915
   2         0.01757028
   3        -0.00000000
   4        -0.00000000
   5        -0.78699286
   6         0.01346984
   7         0.22589739
   8        -0.00000000
   9        -0.00000000
  10         0.49759622
Sym=     7a  
Ene=     0.0538
Spin= Alpha
Occup=    0.00000
   1         0.00442998
   2         0.26213245
   3        -0.00000000
   4        -0.00000000
   5        -0.58207443
   6         0.00788036
   7         0.07696330
   8         0.00000000
   9         0.00000000
  10         0.70609278
Sym=     7a  
Ene=     0.0959
Spin= Beta
Occup=    0.00000
   1         0.00000000
   2        -0.00000000
   3         0.84517880
   4        -0.48347629
   5        -0.00000000
   6         0.00000000
   7         0.00000000
   8         0.14611604
   9        -0.08358426
  10         0.00000000
Sym=     8a  
Ene=     0.1297
Spin= Alpha
Occup=    0.00000
   1        -0.00000000
   2         0.00000000
   3         0.86975662
   4        -0.49753580
   5         0.00000000
   6        -0.00000000
   7         0.00000000
   8        -0.09239625
   9         0.05285438
  10         0.00000000
Sym=     8a  
Ene=     0.2340
Spin= Beta
Occup=    0.00000
   1         0.00000000
   2         0.00000000
   3        -0.05449715
   4        -0.09526803
   5         0.00000000
   6        -0.00000000
   7        -0.00000000
   8         0.49747630
   9         0.86965261
  10         0.00000000
Sym=     9a  
Ene=     0.1790
Spin= Alpha
Occup=    0.00000
   1         0.00000000
   2         0.00000000
   3         0.49764139
   4         0.86994121
   5         0.00000000
   6        -0.00000000
   7        -0.00000000
   8        -0.04945726
   9        -0.08645766
  10         0.00000000
Sym=     9a  
Ene=     0.2383
Spin= Beta
Occup=    0.00000
   1         0.00000000
   2         0.00000000
   3        -0.20746774
   4         0.11867990
   5         0.00000000
   6        -0.00000000
   7        -0.00000000
   8         0.85791618
   9        -0.49076259
  10         0.00000000
Sym=    10a  
Ene=     0.2217
Spin= Alpha
Occup=    0.00000
   1         0.00751733
   2         0.12978896
   3        -0.00000000
   4        -0.00000000
   5         0.85435119
   6        -0.01466001
   7        -0.19155169
   8         0.00000000
   9         0.00000000
  10         0.74419340
Sym=    10a  
Ene=     0.2529
Spin= Beta
Occup=    0.00000
   1         0.00788530
   2         0.21629443
   3         0.00000000
   4         0.00000000
   5         0.66928344
   6        -0.01253221
   7        -0.15708099
   8        -0.00000000
   9        -0.00000000
  10         0.90353756
