   This run of MOLCAS is using the pymolcas driver

                             OPE
                             OPE          NMOL  CASOP  ENMOLC A   SO
                 OPE        NMOLC        AS  OP EN  MO LC     AS  OP
                OPENM       OL CA        SO  PE NM  OL CA     SOP EN
                OP EN      MO   LC       AS  OP ENMOL  CASO   PENMOL
                OP  EN     MO   LC       AS  OP EN     MO     LC ASO
               OP   E  NMOL  C  AS       OP  EN MO     LC     AS  OP
               OP  E   NMO   LC AS        OPEN  MO     LCASOP EN   M
               O  PEN   MO  LCA  SO
            OPE   NMO   L   CAS    OP
        OPENMOL  CASOP     ENMOL   CASOPE
     OPENMOLCA   SOPENMOLCASOPEN   MOLCASOPE
    OPENMOLCAS   OP           EN   MOL    CAS
    OPENMOLCAS       OP  ENM        O     LCA
    OPENMOLCAS    OPEN  MOLCASO     P  E  NMO
    OPENMOLCAS     OP               E  N  MOL
    OPENMOLCA   SO           PENM   O  L  CAS    OPEN    MO    LCAS
    OPENMOLCA   SOP           ENM   O  L  CAS   OP  EN  MOLC  AS   O
    OPENMOLCA   SOPE           NM      O  LCA   S      OP  EN MO
    OPENMOLC                AS         O  PEN   M      OL  CA  SOPE
    OPENMO        LCASOPE  NMOL        C  ASO   P      ENMOLC     AS
    OPE     NMO      LCA  SO     P     E   NM   OL  CA SO  PE N   MO
          OPENMOLCA            SOPE   NMO        LCAS  O    P  ENMO
     OPENMOLCASOPENMOLCASOPENMOLCASOPENMOLCA
        OPENMOLCASOPENMOLCASOPENMOLCASOPE
            OPENMOLCASOPENMOLCASOPENM
               OPENMOLCASOPENMOLCA        version: ea724fe96-dirty
                   OPENMOLCASO
                       OPE                tag:

 OpenMolcas is free software; you can redistribute it and/or modify it
 under the terms of the GNU Lesser General Public License version 2.1.
 OpenMolcas is distributed in the hope that it will be useful, but it
 is provided "as is" and without any express or implied warranties.
 For more details see the full text of the license in the file
 LICENSE or in <http://www.gnu.org/licenses/>.

                 Copyright (C) The OpenMolcas Authors
           For the author list and the recommended citation,
                   consult the file CONTRIBUTORS.md

           *************************************************
           * pymolcas version py2.28                       *
           *   build c4a6d18ded8cb6cad61d2372a9abd97c      *
           *   (after the EMIL interpreter by V. Veryazov) *
           *************************************************

configuration info
------------------
C Compiler ID: Intel
C flags: -std=gnu99
Fortran Compiler ID: Intel
Fortran flags: -fpp -i8 -r8 -heap-arrays
Definitions: _MOLCAS_;_I8_;_LINUX_
Parallel: OFF (GA=OFF)


   ----------------------------------------------------------------------------------
  |
  |              Project: H12_2.61
  |       Submitted from: /home/grierjones/DDCASPT2/hydrogen_comps/H12_chain/H12_2.61
  |         Scratch area: /tmp/H12_2.61
  |      Save outputs to: /home/grierjones/DDCASPT2/hydrogen_comps/H12_chain/H12_2.61
  |               Molcas: /home/grierjones/Test/build
  |
  | Scratch area is empty
  |
  |       MOLCAS_DRIVER = /usr/local/pymolcas
  | MOLCAS_KEEP_WORKDIR = NO
  |  MOLCAS_NEW_WORKDIR = YES
  |       MOLCAS_NPROCS = 1
  |        MOLCAS_PRINT = NORMAL
  |       MOLCAS_SOURCE = /home/grierjones/Test/build
  |    MOLCAS_STRUCTURE = 0
  |
   ----------------------------------------------------------------------------------

++ ---------   Input file   ---------

&GATEWAY
coord=H12_2.61.xyz
Basis = ANO-RCC-VDZP
Group = nosymm
Expert
End of Input

&SEWARD
End of Input

&SCF

>>> COPY $WorkDir/H12_2.61.scf.h5 $CurrDir/

&RASSCF
Title= RASSCF
FileOrb
/home/grierjones/DDCASPT2/hydrogen_comps/H12_chain/H12_2.59/H12_2.59.RasOrb
NACTEL
12 0 0
Inactive
0
RAS2
12
Symmetry
1
Spin
1
orblisting
all
ITERation
300 200

>>> COPY $WorkDir/H12_2.61.rasscf.h5 $CurrDir/

>>> COPY $WorkDir/GMJ_Fock_MO.csv $CurrDir/H12_2.61.GMJ_Fock_MO.csv

>>> COPY $WorkDir/GMJ_PT2_Fock_MO.csv $CurrDir/H12_2.61.GMJ_PT2_Fock_MO.csv

&MOTRA
Frozen=0
LUMORB

>>> COPY $WorkDir/GMJ_one_int_indx.csv $CurrDir/H12_2.61.GMJ_one_int_indx.csv

>>> COPY $WorkDir/GMJ_one_int.csv $CurrDir/H12_2.61.GMJ_one_int.csv

>>> COPY $WorkDir/GMJ_two_int_indx.csv $CurrDir/H12_2.61.GMJ_two_int_indx.csv

>>> COPY $WorkDir/GMJ_two_int.csv $CurrDir/H12_2.61.GMJ_two_int.csv

&CASPT2
Frozen
0
MAXITER
50

>>> FOREACH i IN (B,E,F,G,H)

  >>> FOREACH j IN (P,M)

    >>> IF (-FILE GMJ_e2_${i}_${j}.csv)

      >>> COPY $WorkDir/GMJ_RHS_${i}_${j}.csv $CurrDir/GMJ_RHS_${i}_${j}.csv

      >>> COPY $WorkDir/GMJ_IVECW_${i}_${j}.csv $CurrDir/GMJ_IVECW_${i}_${j}.csv

      >>> COPY $WorkDir/GMJ_IVECX_${i}_${j}.csv $CurrDir/GMJ_IVECX_${i}_${j}.csv

      >>> COPY $WorkDir/GMJ_IVECC2_${i}_${j}.csv $CurrDir/GMJ_IVECC2_${i}_${j}.csv

      >>> COPY $WorkDir/GMJ_e2_${i}_${j}.csv $CurrDir/GMJ_e2_${i}_${j}.csv

    >>> END IF

  >>> END FOREACH

>>> END FOREACH

>>> FOREACH i IN (A,C,D)

  >>> IF (-FILE GMJ_e2_$i.csv)

    >>> COPY $WorkDir/GMJ_RHS_$i.csv $CurrDir/GMJ_RHS_$i.csv

    >>> COPY $WorkDir/GMJ_IVECW_$i.csv $CurrDir/GMJ_IVECW_$i.csv

    >>> COPY $WorkDir/GMJ_IVECX_$i.csv $CurrDir/GMJ_IVECX_$i.csv

    >>> COPY $WorkDir/GMJ_IVECC2_$i.csv $CurrDir/GMJ_IVECC2_$i.csv

    >>> COPY $WorkDir/GMJ_e2_$i.csv $CurrDir/GMJ_e2_$i.csv

  >>> END IF

>>> END FOREACH

-- ----------------------------------

--- Start Module: gateway at Tue Nov 19 07:32:16 2024 ---
 
()()()()()()()()()()()()()()()()()()()()()()()()()()()()()()()()()()()()()()()()()()()()()()()()()()

                                              &GATEWAY

                                   only a single process is used
                       available to each process: 2.0 GB of memory, 1 thread?
()()()()()()()()()()()()()()()()()()()()()()()()()()()()()()()()()()()()()()()()()()()()()()()()()()
 
 ###############################################################################
 ###############################################################################
 ###                                                                         ###
 ###                                                                         ###
 ###                                                                         ###
 ###    WARNING: EXPERT option is ON!                                        ###
 ###                                                                         ###
 ###                                                                         ###
 ###############################################################################
 ###############################################################################
 
++    Symmetry information:
      ---------------------
 
                    Character Table for C1 
 
                             E  
                    a        1  x, y, xy, Rz, z, xz, Ry, yz, Rx, I
--
 
 
++    Basis set information:
      ----------------------
 
 
      Basis set label: H.ANO-RCC...2S1P.
 
      Electronic valence basis set:
      ------------------
      Associated Effective Charge   1.000000 au
      Associated Actual Charge      1.000000 au
      Nuclear Model: Point charge
 
      Shell  nPrim  nBasis  Cartesian Spherical Contaminant
         s       8       2        X                  
         p       4       1        X                  
--
 
 
++    Molecular structure info:
      -------------------------
 
                    ************************************************ 
                    **** Cartesian Coordinates / Bohr, Angstrom **** 
                    ************************************************ 
 
     Center  Label                x              y              z                     x              y              z
        1      H1               0.000000       0.000000       0.000000              0.000000       0.000000       0.000000
        2      H2               0.000000       0.000000       4.936193              0.000000       0.000000       2.612121
        3      H3               0.000000       0.000000       9.872387              0.000000       0.000000       5.224242
        4      H4               0.000000       0.000000      14.808582              0.000000       0.000000       7.836364
        5      H5               0.000000       0.000000      19.744775              0.000000       0.000000      10.448485
        6      H6               0.000000       0.000000      24.680968              0.000000       0.000000      13.060606
        7      H7               0.000000       0.000000      29.617162              0.000000       0.000000      15.672727
        8      H8               0.000000       0.000000      34.553355              0.000000       0.000000      18.284848
        9      H9               0.000000       0.000000      39.489550              0.000000       0.000000      20.896970
       10      H10              0.000000       0.000000      44.425743              0.000000       0.000000      23.509091
       11      H11              0.000000       0.000000      49.361937              0.000000       0.000000      26.121212
       12      H12              0.000000       0.000000      54.298130              0.000000       0.000000      28.733333
 
                    *************************************** 
                    *    InterNuclear Distances / Bohr    * 
                    *************************************** 
 
               1 H1            2 H2            3 H3            4 H4            5 H5            6 H6    
    1 H1       0.000000
    2 H2       4.936193        0.000000
    3 H3       9.872387        4.936193        0.000000
    4 H4      14.808582        9.872388        4.936195        0.000000
    5 H5      19.744775       14.808582        9.872388        4.936193        0.000000
    6 H6      24.680968       19.744775       14.808582        9.872387        4.936193        0.000000
    7 H7      29.617162       24.680968       19.744775       14.808580        9.872387        4.936193
    8 H8      34.553355       29.617162       24.680968       19.744773       14.808580        9.872387
    9 H9      39.489550       34.553357       29.617164       24.680968       19.744775       14.808582
   10 H10     44.425743       39.489550       34.553357       29.617162       24.680968       19.744775
   11 H11     49.361937       44.425743       39.489550       34.553355       29.617162       24.680968
   12 H12     54.298130       49.361937       44.425743       39.489548       34.553355       29.617162
 
               7 H7            8 H8            9 H9           10 H10          11 H11          12 H12   
    7 H7       0.000000
    8 H8       4.936193        0.000000
    9 H9       9.872388        4.936195        0.000000
   10 H10     14.808582        9.872388        4.936193        0.000000
   11 H11     19.744775       14.808582        9.872387        4.936193        0.000000
   12 H12     24.680968       19.744775       14.808580        9.872387        4.936193        0.000000
 
                    ******************************************* 
                    *    InterNuclear Distances / Angstrom    * 
                    ******************************************* 
 
               1 H1            2 H2            3 H3            4 H4            5 H5            6 H6    
    1 H1       0.000000
    2 H2       2.612121        0.000000
    3 H3       5.224242        2.612121        0.000000
    4 H4       7.836364        5.224243        2.612122        0.000000
    5 H5      10.448485        7.836364        5.224243        2.612121        0.000000
    6 H6      13.060606       10.448485        7.836364        5.224242        2.612121        0.000000
    7 H7      15.672727       13.060606       10.448485        7.836363        5.224242        2.612121
    8 H8      18.284848       15.672727       13.060606       10.448484        7.836363        5.224242
    9 H9      20.896970       18.284849       15.672728       13.060606       10.448485        7.836364
   10 H10     23.509091       20.896970       18.284849       15.672727       13.060606       10.448485
   11 H11     26.121212       23.509091       20.896970       18.284848       15.672727       13.060606
   12 H12     28.733333       26.121212       23.509091       20.896969       18.284848       15.672727
 
               7 H7            8 H8            9 H9           10 H10          11 H11          12 H12   
    7 H7       0.000000
    8 H8       2.612121        0.000000
    9 H9       5.224243        2.612122        0.000000
   10 H10      7.836364        5.224243        2.612121        0.000000
   11 H11     10.448485        7.836364        5.224242        2.612121        0.000000
   12 H12     13.060606       10.448485        7.836363        5.224242        2.612121        0.000000
--
 
 
            Nuclear Potential Energy              5.11295339 au
 
 ###############################################################################
 ###############################################################################
 ###                                                                         ###
 ###                                                                         ###
 ###    There were warnings during the execution                             ###
 ###    Please, check the output with care!                                  ###
 ###                                                                         ###
 ###                                                                         ###
 ###############################################################################
 ###############################################################################
--- Stop Module: gateway at Tue Nov 19 07:32:16 2024 /rc=_RC_ALL_IS_WELL_ ---
*** files: xmldump
    saved to directory /home/grierjones/DDCASPT2/hydrogen_comps/H12_chain/H12_2.61

--- Start Module: seward at Tue Nov 19 07:32:16 2024 ---
 
()()()()()()()()()()()()()()()()()()()()()()()()()()()()()()()()()()()()()()()()()()()()()()()()()()

                                              &SEWARD

                                   only a single process is used
                       available to each process: 2.0 GB of memory, 1 thread?
()()()()()()()()()()()()()()()()()()()()()()()()()()()()()()()()()()()()()()()()()()()()()()()()()()
 
 ###############################################################################
 ###############################################################################
 ###                                                                         ###
 ###                                                                         ###
 ###                                                                         ###
 ###    WARNING: EXPERT option is ON!                                        ###
 ###                                                                         ###
 ###                                                                         ###
 ###############################################################################
 ###############################################################################
               SEWARD will generate:
                  Multipole Moment integrals up to order  2
                  Kinetic Energy integrals
                  Nuclear Attraction integrals (point charge)
                  One-Electron Hamiltonian integrals
                  Velocity integrals
                  Relativistic Douglas-Kroll-Hess integrals:
                    - Parametrization         : EXP
                    - DKH order of Hamiltonian: 2
                    - DKH order of Properties : 0
                         - multipole moment operators
                         - electric potential operators
                         - contact operators
                  Atomic mean-field integrals
                  Two-Electron Repulsion integrals
 
                   Integrals are discarded if absolute value <: 0.10E-13
                   Integral cutoff threshold is set to       <: 0.10E-15
 
            Nuclear Potential Energy              5.11295339 au
 
 
      Basis set specifications :
      Symmetry species         a  
      Basis functions           60
 
 
  Input file to MOLDEN was generated!
 
 ###############################################################################
 ###############################################################################
 ###                                                                         ###
 ###                                                                         ###
 ###    There were warnings during the execution                             ###
 ###    Please, check the output with care!                                  ###
 ###                                                                         ###
 ###                                                                         ###
 ###############################################################################
 ###############################################################################
--- Stop Module: seward at Tue Nov 19 07:32:17 2024 /rc=_RC_ALL_IS_WELL_ ---
*** files: H12_2.61.GssOrb H12_2.61.guessorb.h5 H12_2.61.guessorb.molden xmldump
    saved to directory /home/grierjones/DDCASPT2/hydrogen_comps/H12_chain/H12_2.61

*** symbolic link created: INPORB -> H12_2.61.GssOrb
--- Start Module: scf at Tue Nov 19 07:32:17 2024 ---
 
()()()()()()()()()()()()()()()()()()()()()()()()()()()()()()()()()()()()()()()()()()()()()()()()()()

                                                &SCF

                                   only a single process is used
                       available to each process: 2.0 GB of memory, 1 thread?
()()()()()()()()()()()()()()()()()()()()()()()()()()()()()()()()()()()()()()()()()()()()()()()()()()
 
++    Input section:
      --------------
 
      Header of the integral files:
      
       Integrals generated by seward 4.2.0  , Tue Nov 19 07:32:16 2024
 
 
      Cartesian coordinates in Angstrom:
      -----------------------------------------------------
      No.  Label        X            Y            Z        
      -----------------------------------------------------
       1   H1         0.00000000   0.00000000   0.00000000
       2   H2         0.00000000   0.00000000   2.61212100
       3   H3         0.00000000   0.00000000   5.22424200
       4   H4         0.00000000   0.00000000   7.83636400
       5   H5         0.00000000   0.00000000  10.44848500
       6   H6         0.00000000   0.00000000  13.06060600
       7   H7         0.00000000   0.00000000  15.67272700
       8   H8         0.00000000   0.00000000  18.28484800
       9   H9         0.00000000   0.00000000  20.89697000
      10   H10        0.00000000   0.00000000  23.50909100
      11   H11        0.00000000   0.00000000  26.12121200
      12   H12        0.00000000   0.00000000  28.73333300
      -----------------------------------------------------
      Nuclear repulsion energy =    5.11295339
--
 
++    Orbital specifications:
      -----------------------
 
      Symmetry species               1
                                     a
      Frozen orbitals                0
      Occupied orbitals              6
      Secondary orbitals            54
      Deleted orbitals               0
      Total number of orbitals      60
      Number of basis functions     60
--
 
      Molecular charge                           0.000
 
++    Optimization specifications:
      ----------------------------
 
      SCF Algorithm: Conventional
      Minimized density differences are used
      Number of density matrices in core                5
      Maximum number of NDDO SCF iterations           400
      Maximum number of HF SCF iterations             400
      Threshold for SCF energy change            0.10E-08
      Threshold for density matrix               0.10E-03
      Threshold for Fock matrix                  0.15E-03
      Threshold for linear dependence            0.10E-08
      Threshold at which DIIS is turned on       0.15E+00
      Threshold at which QNR/C2DIIS is turned on 0.75E-01
      Threshold for Norm(delta) (QNR/C2DIIS)     0.20E-04
      DIIS extrapolation of the SCF procedure
      All orbitals punched on: SCFORB
--
 
      Input vectors read from INPORB
      Orbital file label: *Guess orbitals
 
 
++ Convergence information
                                   SCF        iterations: Energy and convergence statistics
 
Iter     Tot. SCF        One-elec.       Two-elec.     Energy      Max Dij or  Max Fij      DNorm      TNorm      AccCon     Time
         Energy          Energy          Energy        Change      Delta Norm                                                in Sec.
   1    -4.770386201   -16.389825092     6.506485504   0.00E+00    0.40E+00*   0.13E+00*    0.55E+01   0.10E+02   None         0.
   2    -5.126383660   -16.331495261     6.092158213  -0.36E+00*   0.17E+00*   0.25E-01*    0.17E+01   0.10E+02   EDIIS        0.
   3    -5.145472815   -16.244364501     5.985938298  -0.19E-01*   0.10E+00*   0.90E-02*    0.43E+00   0.99E+01   EDIIS        0.
   4    -5.150670012   -16.245906123     5.982282723  -0.52E-02*   0.79E-01*   0.15E-01*    0.20E+00   0.99E+01   c2DIIS       0.
   5    -5.153880916   -16.217168247     5.950333944  -0.32E-02*   0.25E-01*   0.21E-02*    0.17E+00   0.99E+01   c2DIIS       0.
   6    -5.154609889   -16.229471665     5.961908388  -0.73E-03*   0.11E-01*   0.13E-02*    0.39E-01   0.99E+01   QNRc2DIIS    0.
   7    -5.154671115   -16.234081567     5.966457064  -0.61E-04*   0.84E-02*   0.78E-03*    0.11E-01   0.99E+01   QNRc2DIIS    0.
   8    -5.154699730   -16.233503242     5.965850124  -0.29E-04*   0.53E-02*   0.33E-03*    0.48E-02   0.99E+01   QNRc2DIIS    0.
   9    -5.154704483   -16.232361649     5.964703778  -0.48E-05*   0.76E-03*   0.10E-03     0.30E-02   0.99E+01   QNRc2DIIS    0.
  10    -5.154704915   -16.232332519     5.964674216  -0.43E-06*   0.15E-03*   0.21E-04     0.72E-03   0.99E+01   QNRc2DIIS    0.
  11    -5.154704925   -16.232306406     5.964648093  -0.96E-08*   0.49E-04*   0.11E-04     0.11E-03   0.99E+01   QNRc2DIIS    0.
  12    -5.154704927   -16.232303556     5.964645241  -0.23E-08*   0.12E-04    0.12E-05     0.33E-04   0.99E+01   QNRc2DIIS    0.
  13    -5.154704927   -16.232305576     5.964647260  -0.94E-10    0.96E-05    0.64E-06     0.14E-04   0.99E+01   QNRc2DIIS    0.
 
       Convergence after 13 Macro Iterations
--
 
 *****************************************************************************************************************************
 *                                                                                                                           *
 *                                             SCF/KS-DFT Program, Final results                                             *
 *                                                                                                                           *
 *                                                                                                                           *
 *                                                                                                                           *
 *                                                       Final Results                                                       *
 *                                                                                                                           *
 *****************************************************************************************************************************
 
::    Total SCF energy                                 -5.1547049272
      One-electron energy                             -16.2323055757
      Two-electron energy                               5.9646472605
      Nuclear repulsion energy                          5.1129533879
      Kinetic energy (interpolated)                     3.9398985021
      Virial theorem                                    1.3083344468
      Total spin, S(S+1)                                0.0000000000
      Total spin, S                                     0.0000000000
      Max non-diagonal density matrix element           0.0000087319
      Max non-diagonal Fock matrix element              0.0000005296
 
 
      All orbitals with orbital energies smaller than  E(LUMO)+0.5 are printed
 
++    Molecular orbitals:
      -------------------
 
      Title: SCF orbitals

      Molecular orbitals for symmetry species 1: a  
 
          Orbital            1         2         3         4         5         6         7         8         9        10    
          Energy           -0.3866   -0.3795   -0.3686   -0.3543   -0.3382   -0.3244   -0.1593   -0.1402   -0.1176   -0.0956
          Occ. No.          2.0000    2.0000    2.0000    2.0000    2.0000    2.0000    0.0000    0.0000    0.0000    0.0000
 
        1 H1     1s         0.0966   -0.1942    0.2788   -0.3305    0.3225   -0.2141    0.2346   -0.3771    0.4188   -0.3805
        2 H1     2s         0.0182   -0.0370    0.0545   -0.0669    0.0681   -0.0468    0.0712   -0.1187    0.1368   -0.1276
        3 H1     2px       -0.0000   -0.0000    0.0000   -0.0000    0.0000   -0.0000    0.0000   -0.0000    0.0000   -0.0000
        4 H1     2py       -0.0000    0.0000   -0.0000    0.0000   -0.0000   -0.0000   -0.0000    0.0000   -0.0000    0.0000
        5 H1     2pz        0.0034   -0.0065    0.0085   -0.0089    0.0076   -0.0044   -0.0014    0.0042   -0.0076    0.0100
        6 H2     1s         0.1314   -0.2496    0.3273   -0.3413    0.2844   -0.1628   -0.1140    0.2611   -0.3983    0.4607
        7 H2     2s         0.0204   -0.0437    0.0669   -0.0824    0.0802   -0.0516   -0.0296    0.0798   -0.1335    0.1607
        8 H2     2px       -0.0000    0.0000   -0.0000   -0.0000    0.0000   -0.0000    0.0000   -0.0000    0.0000    0.0000
        9 H2     2py        0.0000   -0.0000   -0.0000    0.0000   -0.0000   -0.0000    0.0000    0.0000    0.0000    0.0000
       10 H2     2pz       -0.0004    0.0017   -0.0043    0.0076   -0.0096    0.0074   -0.0097    0.0135   -0.0108    0.0044
       11 H3     1s         0.2279   -0.3269    0.2215    0.0473   -0.3033    0.3095   -0.3397    0.3406   -0.0423   -0.3141
       12 H3     2s         0.0432   -0.0608    0.0365    0.0231   -0.0813    0.0806   -0.1061    0.1075   -0.0094   -0.1112
       13 H3     2px       -0.0000    0.0000    0.0000   -0.0000   -0.0000   -0.0000   -0.0000    0.0000   -0.0000   -0.0000
       14 H3     2py        0.0000   -0.0000    0.0000   -0.0000   -0.0000   -0.0000   -0.0000    0.0000   -0.0000    0.0000
       15 H3     2pz        0.0043   -0.0047    0.0001    0.0062   -0.0093    0.0068    0.0070   -0.0128    0.0128   -0.0052
       16 H4     1s         0.2543   -0.3196    0.1388    0.1590   -0.3425    0.2692    0.2482   -0.4027    0.2770    0.1121
       17 H4     2s         0.0426   -0.0624    0.0383    0.0257   -0.0837    0.0770    0.0726   -0.1315    0.0982    0.0359
       18 H4     2px        0.0000   -0.0000    0.0000    0.0000   -0.0000   -0.0000   -0.0000   -0.0000    0.0000    0.0000
       19 H4     2py       -0.0000   -0.0000    0.0000    0.0000   -0.0000   -0.0000    0.0000   -0.0000   -0.0000   -0.0000
       20 H4     2pz       -0.0022    0.0052   -0.0063    0.0019    0.0066   -0.0093    0.0125   -0.0086   -0.0053    0.0127
       21 H5     1s         0.3152   -0.1851   -0.2110    0.3046    0.0822   -0.3478    0.3787   -0.0571   -0.4058    0.2743
       22 H5     2s         0.0575   -0.0282   -0.0514    0.0638    0.0308   -0.0933    0.1164   -0.0126   -0.1398    0.0926
       23 H5     2px        0.0000    0.0000    0.0000   -0.0000   -0.0000   -0.0000   -0.0000   -0.0000    0.0000   -0.0000
       24 H5     2py        0.0000    0.0000   -0.0000   -0.0000    0.0000   -0.0000   -0.0000   -0.0000    0.0000   -0.0000
       25 H5     2pz        0.0047    0.0002   -0.0069    0.0032    0.0069   -0.0090   -0.0109    0.0118    0.0017   -0.0126
       26 H6     1s         0.3252   -0.1205   -0.2778    0.2348    0.1883   -0.3339   -0.3452    0.2686    0.2507   -0.4212
       27 H6     2s         0.0571   -0.0304   -0.0514    0.0616    0.0382   -0.0921   -0.1042    0.0922    0.0815   -0.1475
       28 H6     2px       -0.0000   -0.0000    0.0000    0.0000    0.0000    0.0000   -0.0000   -0.0000    0.0000   -0.0000
       29 H6     2py        0.0000   -0.0000   -0.0000    0.0000    0.0000   -0.0000    0.0000    0.0000    0.0000   -0.0000
       30 H6     2pz       -0.0039    0.0048    0.0018   -0.0082    0.0002    0.0099   -0.0129   -0.0024    0.0136    0.0004
       31 H7     1s         0.3252    0.1205   -0.2778   -0.2348    0.1883    0.3339   -0.3452   -0.2686    0.2507    0.4212
       32 H7     2s         0.0571    0.0304   -0.0514   -0.0616    0.0382    0.0921   -0.1042   -0.0923    0.0815    0.1475
       33 H7     2px       -0.0000    0.0000    0.0000    0.0000   -0.0000   -0.0000   -0.0000    0.0000    0.0000    0.0000
       34 H7     2py        0.0000   -0.0000    0.0000    0.0000    0.0000   -0.0000   -0.0000    0.0000    0.0000   -0.0000
       35 H7     2pz        0.0039    0.0048   -0.0018   -0.0082   -0.0002    0.0099    0.0129   -0.0024   -0.0136    0.0004
       36 H8     1s         0.3152    0.1851   -0.2110   -0.3046    0.0822    0.3478    0.3787    0.0571   -0.4058   -0.2743
       37 H8     2s         0.0575    0.0282   -0.0514   -0.0638    0.0308    0.0933    0.1164    0.0126   -0.1398   -0.0926
       38 H8     2px       -0.0000   -0.0000   -0.0000   -0.0000    0.0000    0.0000   -0.0000   -0.0000    0.0000    0.0000
       39 H8     2py        0.0000   -0.0000   -0.0000   -0.0000    0.0000    0.0000    0.0000    0.0000   -0.0000    0.0000
       40 H8     2pz       -0.0047    0.0002    0.0069    0.0032   -0.0069   -0.0090    0.0109    0.0118   -0.0017   -0.0126
       41 H9     1s         0.2543    0.3196    0.1388   -0.1590   -0.3425   -0.2692    0.2482    0.4027    0.2770   -0.1121
       42 H9     2s         0.0426    0.0624    0.0383   -0.0257   -0.0837   -0.0770    0.0726    0.1315    0.0982   -0.0359
       43 H9     2px       -0.0000   -0.0000   -0.0000    0.0000    0.0000   -0.0000    0.0000    0.0000   -0.0000    0.0000
       44 H9     2py       -0.0000   -0.0000    0.0000    0.0000    0.0000    0.0000   -0.0000    0.0000    0.0000    0.0000
       45 H9     2pz        0.0022    0.0052    0.0063    0.0019   -0.0066   -0.0093   -0.0125   -0.0086    0.0053    0.0127
       46 H10    1s         0.2279    0.3269    0.2215   -0.0473   -0.3033   -0.3095   -0.3397   -0.3406   -0.0423    0.3141
       47 H10    2s         0.0432    0.0608    0.0365   -0.0231   -0.0813   -0.0806   -0.1061   -0.1075   -0.0094    0.1112
       48 H10    2px       -0.0000    0.0000   -0.0000   -0.0000    0.0000    0.0000    0.0000    0.0000   -0.0000    0.0000
       49 H10    2py        0.0000   -0.0000   -0.0000    0.0000    0.0000    0.0000    0.0000    0.0000    0.0000    0.0000
       50 H10    2pz       -0.0043   -0.0047   -0.0001    0.0062    0.0093    0.0068   -0.0070   -0.0128   -0.0128   -0.0052
       51 H11    1s         0.1314    0.2496    0.3273    0.3413    0.2844    0.1628   -0.1140   -0.2611   -0.3983   -0.4607
       52 H11    2s         0.0204    0.0437    0.0669    0.0824    0.0802    0.0516   -0.0296   -0.0798   -0.1335   -0.1607
       53 H11    2px       -0.0000   -0.0000   -0.0000    0.0000    0.0000    0.0000    0.0000    0.0000    0.0000   -0.0000
       54 H11    2py        0.0000   -0.0000   -0.0000   -0.0000    0.0000    0.0000   -0.0000   -0.0000    0.0000    0.0000
       55 H11    2pz        0.0004    0.0017    0.0043    0.0076    0.0096    0.0074    0.0097    0.0135    0.0108    0.0044
       56 H12    1s         0.0966    0.1942    0.2788    0.3305    0.3225    0.2141    0.2346    0.3771    0.4188    0.3805
       57 H12    2s         0.0182    0.0370    0.0545    0.0669    0.0681    0.0468    0.0712    0.1187    0.1368    0.1276
       58 H12    2px        0.0000    0.0000    0.0000   -0.0000    0.0000   -0.0000    0.0000   -0.0000   -0.0000   -0.0000
       59 H12    2py       -0.0000   -0.0000   -0.0000   -0.0000    0.0000   -0.0000    0.0000   -0.0000   -0.0000   -0.0000
       60 H12    2pz       -0.0034   -0.0065   -0.0085   -0.0089   -0.0076   -0.0044    0.0014    0.0042    0.0076    0.0100
 
          Orbital           11        12        13        14        15    
          Energy           -0.0772   -0.0653    0.3173    0.3241    0.3355
          Occ. No.          0.0000    0.0000    0.0000    0.0000    0.0000
 
        1 H1     1s         0.2868   -0.1550   -0.0711    0.1243   -0.1451
        2 H1     2s         0.0973   -0.0528    0.1337   -0.2523    0.3373
        3 H1     2px        0.0000    0.0000    0.0000    0.0000    0.0000
        4 H1     2py        0.0000   -0.0000    0.0000   -0.0000    0.0000
        5 H1     2pz       -0.0098    0.0062   -0.0052    0.0087   -0.0097
        6 H2     1s        -0.4097    0.2431   -0.1192    0.1883   -0.1819
        7 H2     2s        -0.1441    0.0851    0.1439   -0.2395    0.2513
        8 H2     2px       -0.0000   -0.0000   -0.0000    0.0000   -0.0000
        9 H2     2py        0.0000    0.0000    0.0000   -0.0000    0.0000
       10 H2     2pz        0.0014   -0.0027    0.0015   -0.0026    0.0019
       11 H3     1s         0.4842   -0.3535   -0.1385    0.1815   -0.1057
       12 H3     2s         0.1681   -0.1215    0.1869   -0.2598    0.1681
       13 H3     2px        0.0000   -0.0000   -0.0000    0.0000    0.0000
       14 H3     2py        0.0000    0.0000    0.0000    0.0000   -0.0000
       15 H3     2pz       -0.0043    0.0066   -0.0024    0.0021   -0.0009
       16 H4     1s        -0.4525    0.4112   -0.1653    0.1581    0.0030
       17 H4     2s        -0.1568    0.1425    0.2172   -0.2216   -0.0025
       18 H4     2px       -0.0000   -0.0000    0.0000   -0.0000   -0.0000
       19 H4     2py       -0.0000    0.0000   -0.0000   -0.0000   -0.0000
       20 H4     2pz       -0.0075    0.0004    0.0022   -0.0024   -0.0005
       21 H5     1s         0.2883   -0.4691   -0.1797    0.1094    0.1012
       22 H5     2s         0.1014   -0.1616    0.2398   -0.1537   -0.1608
       23 H5     2px       -0.0000    0.0000    0.0000   -0.0000   -0.0000
       24 H5     2py       -0.0000    0.0000    0.0000   -0.0000   -0.0000
       25 H5     2pz        0.0051    0.0053   -0.0029    0.0009    0.0010
       26 H6     1s        -0.1342    0.4889   -0.1894    0.0355    0.1701
       27 H6     2s        -0.0451    0.1688    0.2516   -0.0515   -0.2654
       28 H6     2px        0.0000    0.0000    0.0000    0.0000    0.0000
       29 H6     2py        0.0000   -0.0000   -0.0000   -0.0000   -0.0000
       30 H6     2pz       -0.0103    0.0032    0.0028   -0.0011   -0.0021
       31 H7     1s        -0.1342   -0.4889   -0.1894   -0.0355    0.1701
       32 H7     2s        -0.0451   -0.1688    0.2516    0.0515   -0.2654
       33 H7     2px       -0.0000    0.0000    0.0000   -0.0000   -0.0000
       34 H7     2py       -0.0000   -0.0000   -0.0000   -0.0000   -0.0000
       35 H7     2pz        0.0103    0.0032   -0.0028   -0.0011    0.0021
       36 H8     1s         0.2883    0.4691   -0.1797   -0.1094    0.1012
       37 H8     2s         0.1014    0.1616    0.2398    0.1537   -0.1608
       38 H8     2px       -0.0000    0.0000   -0.0000   -0.0000    0.0000
       39 H8     2py       -0.0000   -0.0000   -0.0000   -0.0000    0.0000
       40 H8     2pz       -0.0051    0.0053    0.0029    0.0009   -0.0010
       41 H9     1s        -0.4525   -0.4112   -0.1653   -0.1581    0.0030
       42 H9     2s        -0.1568   -0.1425    0.2172    0.2216   -0.0025
       43 H9     2px        0.0000    0.0000   -0.0000    0.0000    0.0000
       44 H9     2py       -0.0000   -0.0000   -0.0000   -0.0000    0.0000
       45 H9     2pz        0.0075    0.0004   -0.0022   -0.0024    0.0005
       46 H10    1s         0.4842    0.3535   -0.1385   -0.1815   -0.1057
       47 H10    2s         0.1681    0.1215    0.1869    0.2598    0.1681
       48 H10    2px       -0.0000   -0.0000    0.0000    0.0000    0.0000
       49 H10    2py       -0.0000    0.0000    0.0000   -0.0000    0.0000
       50 H10    2pz        0.0043    0.0066    0.0024    0.0021    0.0009
       51 H11    1s        -0.4097   -0.2431   -0.1192   -0.1883   -0.1819
       52 H11    2s        -0.1441   -0.0851    0.1439    0.2395    0.2513
       53 H11    2px       -0.0000   -0.0000   -0.0000    0.0000   -0.0000
       54 H11    2py        0.0000   -0.0000    0.0000    0.0000    0.0000
       55 H11    2pz       -0.0014   -0.0027   -0.0015   -0.0026   -0.0019
       56 H12    1s         0.2868    0.1550   -0.0711   -0.1243   -0.1451
       57 H12    2s         0.0973    0.0528    0.1337    0.2523    0.3373
       58 H12    2px       -0.0000   -0.0000    0.0000    0.0000    0.0000
       59 H12    2py       -0.0000   -0.0000    0.0000   -0.0000   -0.0000
       60 H12    2pz        0.0098    0.0062    0.0052    0.0087    0.0097
--
 
 
++    Molecular charges:
      ------------------
 
      Mulliken charges per centre and basis function type
      ---------------------------------------------------
 
                H1      H2      H3      H4      H5      H6      H7      H8      H9      H10     H11     H12   
      1s       0.8800  0.9289  0.9054  0.9131  0.9079  0.9099  0.9099  0.9079  0.9131  0.9054  0.9289  0.8800
      2s       0.0863  0.0946  0.0860  0.0882  0.0873  0.0877  0.0877  0.0873  0.0882  0.0860  0.0946  0.0863
      2px      0.0000  0.0000  0.0000  0.0000  0.0000  0.0000  0.0000  0.0000  0.0000  0.0000  0.0000  0.0000
      2pz      0.0037  0.0042  0.0042  0.0041  0.0042  0.0041  0.0041  0.0042  0.0041  0.0042  0.0042  0.0037
      2py      0.0000  0.0000  0.0000  0.0000  0.0000  0.0000  0.0000  0.0000  0.0000  0.0000  0.0000  0.0000
      Total    0.9700  1.0277  0.9956  1.0054  0.9994  1.0018  1.0018  0.9994  1.0054  0.9956  1.0277  0.9700
 
      N-E      0.0300 -0.0277  0.0044 -0.0054  0.0006 -0.0018 -0.0018  0.0006 -0.0054  0.0044 -0.0277  0.0300
 
      Total electronic charge=   12.000000
 
      Total            charge=   -0.000000
--
 
 
  Input file to MOLDEN was generated!
 
 
++    Static properties:
      ------------------
 
 
      LoProp Charges per center
 

                   H1       H2       H3       H4       H5       H6       H7       H8       H9       H10   
      Nuclear      1.0000   1.0000   1.0000   1.0000   1.0000   1.0000   1.0000   1.0000   1.0000   1.0000
      Electronic  -0.9807  -1.0161  -0.9968  -1.0052  -0.9996  -1.0017  -1.0017  -0.9996  -1.0052  -0.9968
 
      Total        0.0193  -0.0161   0.0032  -0.0052   0.0004  -0.0017  -0.0017   0.0004  -0.0052   0.0032
 

                   H11      H12   
      Nuclear      1.0000   1.0000
      Electronic  -1.0161  -0.9807
 
      Total       -0.0161   0.0193
--
 
 
++    Natural Bond Order analysis
      ---------------------------
      Based on LoProp computed density
      -------------------------------------------------------------------------------------
      Atom A       Atom B       Bond Order
      -------------------------------------------------------------------------------------
      NBO located      0.971 non-bonded electrons on atom H1        
      NBO located      1.003 non-bonded electrons on atom H3        
      NBO located      1.012 non-bonded electrons on atom H4        
      NBO located      1.006 non-bonded electrons on atom H5        
      NBO located      1.008 non-bonded electrons on atom H6        
      NBO located      1.008 non-bonded electrons on atom H7        
      NBO located      1.006 non-bonded electrons on atom H8        
      NBO located      1.012 non-bonded electrons on atom H9        
      NBO located      1.003 non-bonded electrons on atom H10       
      NBO located      0.971 non-bonded electrons on atom H12       
      The remaining    2.001 electrons are to be considered as diffuse
--
 
 
++    Molecular properties:
      ---------------------
 
      Charge (e):
                      =   -0.0000
      Dipole Moment (Debye):
      Origin of the operator (Ang)=    0.0000    0.0000    0.0000
                   X= -1.4018E-13               Y=  4.0709E-14               Z= -3.9329E-07           Total=  3.9329E-07
      Quadrupole Moment (Debye*Ang):
      Origin of the operator (Ang)=    0.0000    0.0000   14.3667
                  XX= -2.8808E+01              XY=  3.3598E-28              XZ=  2.1062E-12              YY= -2.8808E+01
                  YZ= -3.8964E-13              ZZ=  5.5912E+00
      In traceless form (Debye*Ang)
                  XX= -1.7200E+01              XY=  5.0397E-28              XZ=  3.1593E-12              YY= -1.7200E+01
                  YZ= -5.8446E-13              ZZ=  3.4400E+01
--
 
 
  Input file to MOLDEN was generated!
 
 ###############################################################################
 ###############################################################################
 ###                                                                         ###
 ###                                                                         ###
 ###    RunFile label nBas                                                   ###
 ###    was used       78 times                                              ###
 ###                                                                         ###
 ###                                                                         ###
 ###############################################################################
 ###############################################################################
--- Stop Module: scf at Tue Nov 19 07:32:17 2024 /rc=_RC_ALL_IS_WELL_ ---
*** files: H12_2.61.LprOrb H12_2.61.LoProp.molden H12_2.61.scf.molden H12_2.61.ScfOrb H12_2.61.scf.h5 xmldump
    saved to directory /home/grierjones/DDCASPT2/hydrogen_comps/H12_chain/H12_2.61

>>> COPY /tmp/H12_2.61/H12_2.61.scf.h5 /home/grierjones/DDCASPT2/hydrogen_comps/H12_chain/H12_2.61/

*** symbolic link created: INPORB -> H12_2.61.ScfOrb
--- Start Module: rasscf at Tue Nov 19 07:32:17 2024 ---
 
()()()()()()()()()()()()()()()()()()()()()()()()()()()()()()()()()()()()()()()()()()()()()()()()()()

                                              &RASSCF

                                   only a single process is used
                       available to each process: 2.0 GB of memory, 1 thread?
()()()()()()()()()()()()()()()()()()()()()()()()()()()()()()()()()()()()()()()()()()()()()()()()()()
 
 
 *************** WARNING ****************
 ###############################################################################
 ###############################################################################
 ###                                                                         ###
 ###                                                                         ###
 ###    Too many macro-iterations.                                           ###
 ###                                                                         ###
 ###                                                                         ###
 ###############################################################################
 ###############################################################################
 Too many macro-iterations requested.
 Reset to maximum, new MAXIT=     200
 ****************************************
 
 *************** WARNING ****************
 ###############################################################################
 ###############################################################################
 ###                                                                         ###
 ###                                                                         ###
 ###    Too many SX-iterations.                                              ###
 ###                                                                         ###
 ###                                                                         ###
 ###############################################################################
 ###############################################################################
 Too many SX-iterations requested.
 Reset to maximum, new ITMAX=     100
 ****************************************
 
      Header of the ONEINT file:
      --------------------------
      
      Integrals generated by seward 4.2.0  , Tue Nov 19 07:32:16 2024
 
 
      OrdInt status: non-squared
 
 
      Cartesian coordinates in Angstrom:
      -----------------------------------------------------
      No.  Label        X            Y            Z        
      -----------------------------------------------------
       1   H1         0.00000000   0.00000000   0.00000000
       2   H2         0.00000000   0.00000000   2.61212100
       3   H3         0.00000000   0.00000000   5.22424200
       4   H4         0.00000000   0.00000000   7.83636400
       5   H5         0.00000000   0.00000000  10.44848500
       6   H6         0.00000000   0.00000000  13.06060600
       7   H7         0.00000000   0.00000000  15.67272700
       8   H8         0.00000000   0.00000000  18.28484800
       9   H9         0.00000000   0.00000000  20.89697000
      10   H10        0.00000000   0.00000000  23.50909100
      11   H11        0.00000000   0.00000000  26.12121200
      12   H12        0.00000000   0.00000000  28.73333300
      -----------------------------------------------------
      Nuclear repulsion energy =    5.11295339
 
++    Wave function specifications:
      -----------------------------
 
      Number of closed shell electrons           0
      Number of electrons in active shells      12
      Max number of holes in RAS1 space          0
      Max nr of electrons in RAS3 space          0
      Number of inactive orbitals                0
      Number of active orbitals                 12
      Number of secondary orbitals              48
      Spin quantum number                      0.0
      State symmetry                             1
--
 
++    Orbital specifications:
      -----------------------
 
      Symmetry species                           1
                                                 a
      Frozen orbitals                            0
      Inactive orbitals                          0
      Active orbitals                           12
      RAS1 orbitals                              0
      RAS2 orbitals                             12
      RAS3 orbitals                              0
      Secondary orbitals                        48
      Deleted orbitals                           0
      Number of basis functions                 60
--
 
++    CI expansion specifications:
      ----------------------------
 
      Number of CSFs                        226512
      Number of determinants                427350
      Number of root(s) required                 1
      Root chosen for geometry opt.              1
      CI root used                               1
         
      highest root included in the CI            1
      max. size of the explicit Hamiltonian    200
--
 
++    Optimization specifications:
      ----------------------------
 
      RASSCF algorithm: Conventional
      Maximum number of macro iterations       200
      Maximum number of SX iterations          100
      Threshold for RASSCF energy            0.100E-07
      Threshold for max MO rotation          0.100E+00
      Threshold for max BLB element          0.100E-03
      Level shift parameter                  0.500E+00
      Make Quasi-Newton update
--
 
      The MO-coefficients are taken from the file:
      /home/grierjones/DDCASPT2/hydrogen_comps/H12_chain/H12_2.59/H12_2.59.RasOrb                                                     
      Title: RASSCF average (pseudo-natural) orbitals                                      
 
      Total molecular charge    0.00
 
      ************************************************************************************************************************
      *                                                                                                                      *
      *                                            Wave function control section                                             *
      *                                                                                                                      *
      ************************************************************************************************************************
 
 
                                         RASSCF iterations: Energy and convergence statistics
                                         ----------------------------------------------------
 
      Iter CI   SX   CI       RASSCF       Energy    max ROT     max BLB   max BLB  Level Ln srch  Step   QN   Walltime
          iter iter root      energy       change     param      element    value   shift minimum  type update hh:mm:ss
 Nr of preliminary CI iterations:  10
        1   1    4    1    -5.99721239    0.00E+00   0.99E-03    6  20 1 -0.74E-03*  0.00   0.00    SX    NO    0:00:12
        2   1    4    1    -5.99721685   -0.45E-05* -0.36E-03    1  13 1  0.25E-03*  0.00   0.00    SX    NO    0:00:02
        3   2    3    1    -5.99722931   -0.12E-04*  0.16E-03    6  18 1 -0.10E-03*  0.00   0.00    SX    NO    0:00:03
        No convergence in the CI section: MAXJT will be increased to 
                    60
        4  48    4    1    -5.99756064   -0.33E-03* -0.34E-03    9  19 1  0.21E-03*  0.00   0.00    SX    NO    0:00:43
        5  11    3    1    -5.99759053   -0.30E-04* -0.12E-03    6  18 1  0.11E-03*  0.00   1.00    QN   YES    0:00:11
        No convergence in the CI section: MAXJT will be increased to 
                    84
        6  72    4    1    -5.99760237   -0.12E-04* -0.71E-03    9  19 1 -0.19E-03*  0.00   1.00    QN   YES    0:01:04
        7  79    4    1    -5.99760158    0.78E-06*  0.46E-03    4  16 1  0.52E-03*  0.00   0.49    QN   YES    0:01:12
        No convergence in the CI section: MAXJT will be increased to 
                   108
        8  96    4    1    -5.99760388   -0.23E-05*  0.13E-03   10  18 1 -0.28E-03*  0.00   1.13    QN   YES    0:01:26
        9   4    4    1    -5.99760351    0.37E-06*  0.40E-03    6  20 1  0.34E-03*  0.00  -0.50    SX   YES    0:00:05
        No convergence in the CI section: MAXJT will be increased to 
                   132
       10 120    4    1    -5.99760532   -0.18E-05*  0.23E-03    9  19 1 -0.13E-03*  0.01   1.24    QN   YES    0:01:48
       11  54    3    1    -5.99760560   -0.28E-06* -0.17E-04    6  18 1 -0.12E-04   0.01   0.98    QN   YES    0:00:50
       12   2    3    1    -5.99760560   -0.25E-08   0.46E-05    6  18 1  0.44E-05   0.01   0.89    QN   YES    0:00:03
      Convergence after 12 iterations
 
  Dmat in MO in SXCTL bf call to SXHAM                                                                                    
  mat. size =    12x   12
 
        1.3270223178901350
       -0.0000000162153885      1.3068602859719038
        0.0000208027533155     -0.0000001260995842      1.2734901451040599
        0.0000000581180939     -0.0000452678332764     -0.0000000257158535      1.2278723458097254
        0.0000268200697793      0.0000001493094328      0.0000360847489704      0.0000000380663364      1.1724181785359680
       -0.0000001291189716     -0.0000184606196963     -0.0000001970884712      0.0000160185517041      0.0000005627971400
        1.1123763028556082
        0.0000066134132075     -0.0000002294033253     -0.0001343385449771     -0.0000000020927954      0.0002717434397017
       -0.0000003766329281      0.7731230857591076
       -0.0000002070018881     -0.0000867121615088     -0.0000000005109478     -0.0002341335875214      0.0000002703761483
       -0.0000458171504345     -0.0000000246128407      0.7255532868572028
       -0.0000000871821676     -0.0000002058161753     -0.0000015400265684     -0.0000003806181571      0.0002149166309080
       -0.0000000014865329      0.0000669661320827      0.0000001967675889      0.8913186298207222
       -0.0000001455144324     -0.0000054016857034      0.0000002704445458     -0.0001874624148212     -0.0000000009472288
        0.0002549516470089     -0.0000000370718326      0.0000842644734703      0.0000005441564657      0.8302529693698184
       -0.0000526800706191      0.0000000012676842      0.0001599741544267     -0.0000002270538159      0.0000576045281378
        0.0000002004094142     -0.0000355685892506      0.0000001278995487      0.0000021068383911      0.0000001481598335
        0.6904518176751115
        0.0000000020094626     -0.0000811710861188     -0.0000002095112754      0.0000348213144691      0.0000001440525639
        0.0000214124672809     -0.0000000516595932      0.0000152447261610     -0.0000001263704391     -0.0000153595612800
       -0.0000000312861241      0.6692606343515836
       13   1    3    1    -5.99760560   -0.11E-09   0.46E-05    9  19 1 -0.31E-06   0.01   0.89    QN   YES    0:00:03
 
      ************************************************************************************************************************
                                                      Wave function printout:
                       occupation of active orbitals, and spin coupling of open shells (u,d: Spin up or down)
      ************************************************************************************************************************
 
      Note: transformation to natural orbitals
      has been made, which may change the order of the CSFs.
 
      printout of CI-coefficients larger than  0.05 for root  1
      energy=      -5.997606
      conf/sym  111111111111     Coeff  Weight
             1  222222000000  -0.19513 0.03808
            43  222220002000   0.09847 0.00970
            67  2222ud00ud00   0.10736 0.01153
            83  222u2du0d000  -0.08598 0.00739
           105  22u22d0ud000  -0.07449 0.00555
           134  2u222d00u0d0   0.06860 0.00471
           160  u2222d00u00d   0.08446 0.00713
           173  222202000200   0.06746 0.00455
           191  222ud2u00d00  -0.08290 0.00687
           213  22u2d20u0d00  -0.07116 0.00506
           240  2u22d2000ud0   0.07331 0.00537
           266  u222d2000u0d   0.06291 0.00396
           269  222022200000   0.05410 0.00293
           291  22ud22ud0000   0.07567 0.00573
           321  2u2d22u000d0  -0.06322 0.00400
           347  u22d22u0000d  -0.05981 0.00358
           385  2ud2220u00d0  -0.06246 0.00390
           411  u2d2220u000d  -0.05949 0.00354
           456  ud22220000ud   0.06189 0.00383
          5623  222200002200  -0.05990 0.00359
          5721  222ud0u02d00  -0.06175 0.00381
          5827  22u2d00u2d00  -0.05283 0.00279
          7196  222u0du0d200  -0.05216 0.00272
          7713  22udududud00  -0.05768 0.00333
 
      Natural orbitals and occupation numbers for root  1
      sym 1:   1.327022   1.306860   1.273490   1.227873   1.172419   1.112377   0.773123   0.725553   0.891319   0.830253
               0.690452   0.669261
 
      ************************************************************************************************************************
      *                                                                                                                      *
      *                                                    Final results                                                     *
      *                                                                                                                      *
      ************************************************************************************************************************
 
 
++    Wave function specifications:
      -----------------------------
 
      Number of closed shell electrons           0
      Number of electrons in active shells      12
      Max number of holes in RAS1 space          0
      Max nr of electrons in RAS3 space          0
      Number of inactive orbitals                0
      Number of active orbitals                 12
      Number of secondary orbitals              48
      Spin quantum number                      0.0
      State symmetry                             1
--
 
++    Orbital specifications:
      -----------------------
 
      Symmetry species                           1
                                                 a
      Frozen orbitals                            0
      Inactive orbitals                          0
      Active orbitals                           12
      RAS1 orbitals                              0
      RAS2 orbitals                             12
      RAS3 orbitals                              0
      Secondary orbitals                        48
      Deleted orbitals                           0
      Number of basis functions                 60
--
 
++    CI expansion specifications:
      ----------------------------
 
      Number of CSFs                        226512
      Number of determinants                427350
      Number of root(s) required                 1
      CI root used                               1
      highest root included in the CI            1
      Root passed to geometry opt.               1
--
 
++    Final optimization conditions:
      ------------------------------
 
      Average CI energy                              -5.99760560
      RASSCF energy for state  1                     -5.99760560
      Super-CI energy                                -0.00000000
      RASSCF energy change                            0.00000000
      Max change in MO coefficients              -0.331E-05
      Max non-diagonal density matrix element     0.457E-05
      Maximum BLB matrix element                 -0.307E-06
      (orbital pair   9,  19 in symmetry   1)
      Norm of electronic gradient            0.890E-06
--
 
 
      Final state energy(ies):
      ------------------------
 
::    RASSCF root number  1 Total energy:     -5.99760560
 
++    Molecular orbitals:
      -------------------
 
      Pseudonatural active orbitals and approximate occupation numbers
 
 
 
 
      Molecular orbitals for symmetry species 1: a  
 
 
      Orbital                1         2         3         4         5         6         7         8         9        10
      Energy            0.0000    0.0000    0.0000    0.0000    0.0000    0.0000    0.0000    0.0000    0.0000    0.0000
      Occ. No.          1.3270    1.3069    1.2735    1.2279    1.1724    1.1124    0.7731    0.7256    0.8913    0.8303
 
    1 H1     1s         0.1229    0.2313    0.3107   -0.3465    0.3228   -0.2228    0.3980    0.3679   -0.2386   -0.3584
    2 H1     2s         0.0091    0.0174    0.0237   -0.0272    0.0262   -0.0188    0.0458    0.0452   -0.0240   -0.0385
    3 H1     2px       -0.0000    0.0000    0.0000   -0.0000   -0.0000   -0.0000   -0.0000    0.0000   -0.0000   -0.0000
    4 H1     2py       -0.0000    0.0000   -0.0000    0.0000   -0.0000    0.0000    0.0000   -0.0000    0.0000    0.0000
    5 H1     2pz        0.0005    0.0009    0.0010   -0.0009    0.0006   -0.0003    0.0014    0.0018   -0.0004   -0.0009
    6 H2     1s         0.1721    0.3030    0.3621   -0.3376    0.2420   -0.1139   -0.3802   -0.4440    0.0946    0.2420
    7 H2     2s         0.0108    0.0212    0.0298   -0.0338    0.0304   -0.0187   -0.0476   -0.0652    0.0036    0.0226
    8 H2     2px        0.0000    0.0000    0.0000   -0.0000   -0.0000   -0.0000   -0.0000    0.0000    0.0000    0.0000
    9 H2     2py        0.0000   -0.0000   -0.0000    0.0000   -0.0000    0.0000    0.0000    0.0000   -0.0000    0.0000
   10 H2     2pz        0.0005    0.0005   -0.0000    0.0008   -0.0012    0.0010    0.0006    0.0005    0.0002   -0.0002
   11 H3     1s         0.2455    0.3368    0.2100    0.0653   -0.3137    0.3426   -0.0527    0.2796    0.3617    0.3355
   12 H3     2s         0.0175    0.0231    0.0117    0.0122   -0.0342    0.0361   -0.0022    0.0468    0.0424    0.0399
   13 H3     2px       -0.0000   -0.0000    0.0000   -0.0000    0.0000   -0.0000   -0.0000    0.0000   -0.0000    0.0000
   14 H3     2py       -0.0000   -0.0000   -0.0000   -0.0000    0.0000   -0.0000   -0.0000    0.0000    0.0000   -0.0000
   15 H3     2pz        0.0001   -0.0002   -0.0009    0.0012   -0.0009    0.0002   -0.0006   -0.0001   -0.0000    0.0004
   16 H4     1s         0.2815    0.3179    0.0753    0.2406   -0.3687    0.2347    0.3003   -0.0777   -0.2295   -0.4095
   17 H4     2s         0.0185    0.0241    0.0101    0.0164   -0.0354    0.0290    0.0464   -0.0083   -0.0220   -0.0521
   18 H4     2px       -0.0000    0.0000   -0.0000    0.0000    0.0000    0.0000    0.0000    0.0000    0.0000   -0.0000
   19 H4     2py        0.0000   -0.0000   -0.0000   -0.0000   -0.0000    0.0000    0.0000    0.0000   -0.0000   -0.0000
   20 H4     2pz        0.0004   -0.0001   -0.0010    0.0008    0.0003   -0.0009    0.0001    0.0009    0.0001    0.0004
   21 H5     1s         0.3205    0.1929   -0.2128    0.3227    0.0483   -0.3796   -0.3927   -0.2542   -0.3951   -0.0322
   22 H5     2s         0.0221    0.0112   -0.0196    0.0252    0.0102   -0.0410   -0.0582   -0.0366   -0.0447    0.0012
   23 H5     2px       -0.0000   -0.0000   -0.0000    0.0000   -0.0000    0.0000   -0.0000    0.0000    0.0000   -0.0000
   24 H5     2py        0.0000   -0.0000   -0.0000    0.0000   -0.0000    0.0000    0.0000    0.0000   -0.0000   -0.0000
   25 H5     2pz       -0.0001   -0.0008   -0.0008   -0.0004    0.0012   -0.0006   -0.0002   -0.0010   -0.0001   -0.0004
   26 H6     1s         0.3336    0.0962   -0.3117    0.1977    0.2549   -0.3367    0.2200    0.3982    0.3432    0.3003
   27 H6     2s         0.0225    0.0096   -0.0222    0.0207    0.0201   -0.0382    0.0278    0.0635    0.0369    0.0426
   28 H6     2px       -0.0000    0.0000   -0.0000   -0.0000   -0.0000    0.0000    0.0000    0.0000    0.0000   -0.0000
   29 H6     2py        0.0000    0.0000    0.0000   -0.0000    0.0000   -0.0000   -0.0000    0.0000    0.0000    0.0000
   30 H6     2pz        0.0003   -0.0007   -0.0005   -0.0010    0.0006    0.0009   -0.0009   -0.0002   -0.0001    0.0000
   31 H7     1s         0.3336   -0.0962   -0.3117   -0.1977    0.2549    0.3367    0.2200   -0.3982    0.3432   -0.3003
   32 H7     2s         0.0225   -0.0096   -0.0222   -0.0207    0.0201    0.0382    0.0278   -0.0635    0.0369   -0.0426
   33 H7     2px        0.0000    0.0000   -0.0000    0.0000    0.0000    0.0000    0.0000    0.0000   -0.0000    0.0000
   34 H7     2py        0.0000    0.0000   -0.0000    0.0000   -0.0000    0.0000   -0.0000   -0.0000   -0.0000    0.0000
   35 H7     2pz       -0.0003   -0.0007    0.0005   -0.0010   -0.0006    0.0009    0.0009   -0.0002    0.0001    0.0000
   36 H8     1s         0.3205   -0.1929   -0.2128   -0.3227    0.0483    0.3796   -0.3927    0.2542   -0.3951    0.0322
   37 H8     2s         0.0221   -0.0112   -0.0196   -0.0252    0.0102    0.0410   -0.0582    0.0366   -0.0447   -0.0012
   38 H8     2px        0.0000   -0.0000   -0.0000    0.0000   -0.0000   -0.0000    0.0000   -0.0000   -0.0000    0.0000
   39 H8     2py        0.0000    0.0000   -0.0000   -0.0000    0.0000    0.0000   -0.0000    0.0000    0.0000   -0.0000
   40 H8     2pz        0.0001   -0.0008    0.0008   -0.0004   -0.0012   -0.0006    0.0002   -0.0010    0.0001   -0.0004
   41 H9     1s         0.2815   -0.3179    0.0753   -0.2406   -0.3687   -0.2347    0.3003    0.0777   -0.2295    0.4095
   42 H9     2s         0.0185   -0.0241    0.0101   -0.0164   -0.0354   -0.0290    0.0464    0.0083   -0.0220    0.0521
   43 H9     2px        0.0000   -0.0000    0.0000    0.0000    0.0000    0.0000    0.0000    0.0000   -0.0000   -0.0000
   44 H9     2py        0.0000    0.0000   -0.0000   -0.0000    0.0000    0.0000    0.0000    0.0000    0.0000   -0.0000
   45 H9     2pz       -0.0004   -0.0001    0.0010    0.0008   -0.0003   -0.0009   -0.0001    0.0009   -0.0001    0.0004
   46 H10    1s         0.2455   -0.3368    0.2100   -0.0653   -0.3137   -0.3426   -0.0527   -0.2796    0.3617   -0.3355
   47 H10    2s         0.0175   -0.0231    0.0117   -0.0122   -0.0342   -0.0361   -0.0022   -0.0468    0.0424   -0.0399
   48 H10    2px        0.0000   -0.0000    0.0000    0.0000   -0.0000   -0.0000   -0.0000    0.0000    0.0000   -0.0000
   49 H10    2py        0.0000   -0.0000   -0.0000   -0.0000    0.0000    0.0000    0.0000    0.0000   -0.0000   -0.0000
   50 H10    2pz       -0.0001   -0.0002    0.0009    0.0012    0.0009    0.0002    0.0006   -0.0001    0.0000    0.0004
   51 H11    1s         0.1721   -0.3030    0.3621    0.3376    0.2420    0.1138   -0.3802    0.4440    0.0946   -0.2420
   52 H11    2s         0.0108   -0.0212    0.0298    0.0338    0.0304    0.0187   -0.0476    0.0652    0.0036   -0.0226
   53 H11    2px       -0.0000   -0.0000   -0.0000   -0.0000    0.0000    0.0000   -0.0000   -0.0000   -0.0000    0.0000
   54 H11    2py       -0.0000   -0.0000    0.0000   -0.0000   -0.0000   -0.0000    0.0000    0.0000   -0.0000    0.0000
   55 H11    2pz       -0.0005    0.0005    0.0000    0.0008    0.0012    0.0010   -0.0006    0.0005   -0.0002   -0.0002
   56 H12    1s         0.1229   -0.2313    0.3107    0.3465    0.3228    0.2228    0.3980   -0.3679   -0.2386    0.3584
   57 H12    2s         0.0091   -0.0174    0.0237    0.0272    0.0262    0.0188    0.0458   -0.0452   -0.0240    0.0385
   58 H12    2px       -0.0000   -0.0000   -0.0000    0.0000    0.0000   -0.0000   -0.0000    0.0000    0.0000    0.0000
   59 H12    2py        0.0000   -0.0000    0.0000    0.0000    0.0000    0.0000    0.0000    0.0000   -0.0000    0.0000
   60 H12    2pz       -0.0005    0.0009   -0.0010   -0.0009   -0.0006   -0.0003   -0.0014    0.0018    0.0004   -0.0009
 
 
      Orbital               11        12        13        14        15        16        17        18        19        20
      Energy            0.0000    0.0000    0.3284    0.3347    0.3462    0.3636    0.3881    0.4207    0.4611    0.5139
      Occ. No.          0.6905    0.6693    0.0000    0.0000    0.0000    0.0000    0.0000    0.0000    0.0000    0.0000
 
    1 H1     1s         0.2810   -0.1522   -0.0541   -0.0886    0.0942   -0.0729   -0.0325    0.0176    0.0657   -0.1058
    2 H1     2s         0.0363   -0.0204    0.1407    0.2569   -0.3393    0.3917    0.4216    0.4350    0.4233   -0.3939
    3 H1     2px       -0.0000    0.0000    0.0000   -0.0000   -0.0000    0.0000    0.0000    0.0000    0.0000   -0.0000
    4 H1     2py        0.0000   -0.0000    0.0000    0.0000   -0.0000    0.0000    0.0000   -0.0000   -0.0000   -0.0000
    5 H1     2pz        0.0017   -0.0011   -0.0036   -0.0060    0.0069   -0.0073   -0.0087   -0.0132   -0.0227    0.0407
    6 H2     1s        -0.3949    0.2331   -0.0970   -0.1497    0.1427   -0.0932   -0.0351   -0.0014   -0.0110    0.0626
    7 H2     2s        -0.0639    0.0398    0.1534    0.2490   -0.2581    0.1825    0.0402   -0.1443   -0.3298    0.4930
    8 H2     2px        0.0000    0.0000   -0.0000   -0.0000    0.0000   -0.0000    0.0000    0.0000    0.0000   -0.0000
    9 H2     2py        0.0000   -0.0000   -0.0000    0.0000   -0.0000    0.0000    0.0000    0.0000   -0.0000    0.0000
   10 H2     2pz        0.0001    0.0001   -0.0001    0.0001    0.0003   -0.0036   -0.0118   -0.0249   -0.0373    0.0409
   11 H3     1s         0.4407   -0.3236   -0.1134   -0.1419    0.0737    0.0267    0.0811    0.0602    0.0049    0.0118
   12 H3     2s         0.0730   -0.0545    0.1937    0.2638   -0.1653   -0.0521   -0.2823   -0.4096   -0.3445    0.0794
   13 H3     2px       -0.0000    0.0000   -0.0000   -0.0000    0.0000   -0.0000    0.0000    0.0000    0.0000   -0.0000
   14 H3     2py        0.0000   -0.0000    0.0000    0.0000   -0.0000   -0.0000   -0.0000   -0.0000   -0.0000    0.0000
   15 H3     2pz        0.0008   -0.0009   -0.0003    0.0001    0.0003   -0.0028   -0.0045    0.0039    0.0315   -0.0797
   16 H4     1s        -0.4084    0.3779   -0.1301   -0.1246    0.0001    0.1024    0.0890    0.0138   -0.0035   -0.0557
   17 H4     2s        -0.0662    0.0652    0.2218    0.2248    0.0070   -0.2716   -0.3210   -0.0618    0.3307   -0.5435
   18 H4     2px       -0.0000    0.0000    0.0000    0.0000   -0.0000    0.0000   -0.0000    0.0000    0.0000    0.0000
   19 H4     2py        0.0000   -0.0000   -0.0000    0.0000   -0.0000   -0.0000   -0.0000    0.0000   -0.0000    0.0000
   20 H4     2pz        0.0009   -0.0003   -0.0000    0.0003    0.0008   -0.0025    0.0034    0.0211    0.0304    0.0099
   21 H5     1s         0.2613   -0.4256   -0.1418   -0.0817   -0.0841    0.1155    0.0017   -0.0556   -0.0047    0.0187
   22 H5     2s         0.0453   -0.0726    0.2407    0.1525    0.1703   -0.3039   -0.0230    0.3701    0.3373    0.2103
   23 H5     2px       -0.0000   -0.0000    0.0000    0.0000   -0.0000    0.0000    0.0000    0.0000    0.0000    0.0000
   24 H5     2py       -0.0000   -0.0000   -0.0000    0.0000   -0.0000   -0.0000    0.0000    0.0000   -0.0000    0.0000
   25 H5     2pz       -0.0002   -0.0008   -0.0003    0.0002    0.0003    0.0015    0.0100    0.0080   -0.0300    0.0725
   26 H6     1s        -0.1144    0.4449   -0.1474   -0.0309   -0.1305    0.0529   -0.0810   -0.0388    0.0045    0.0426
   27 H6     2s        -0.0165    0.0763    0.2506    0.0524    0.2742   -0.1279    0.3077    0.2454   -0.3336    0.4367
   28 H6     2px       -0.0000   -0.0000    0.0000   -0.0000   -0.0000   -0.0000    0.0000    0.0000    0.0000    0.0000
   29 H6     2py        0.0000   -0.0000   -0.0000   -0.0000    0.0000   -0.0000    0.0000   -0.0000    0.0000   -0.0000
   30 H6     2pz        0.0009   -0.0006    0.0001    0.0004    0.0005    0.0031    0.0056   -0.0166   -0.0303   -0.0477
   31 H7     1s        -0.1144   -0.4449   -0.1474    0.0309   -0.1305   -0.0529   -0.0810    0.0388    0.0045   -0.0426
   32 H7     2s        -0.0165   -0.0763    0.2506   -0.0524    0.2742    0.1279    0.3077   -0.2454   -0.3336   -0.4367
   33 H7     2px       -0.0000   -0.0000   -0.0000   -0.0000   -0.0000   -0.0000   -0.0000    0.0000   -0.0000   -0.0000
   34 H7     2py        0.0000   -0.0000   -0.0000   -0.0000   -0.0000    0.0000    0.0000    0.0000    0.0000   -0.0000
   35 H7     2pz       -0.0009   -0.0006   -0.0001    0.0004   -0.0005    0.0031   -0.0056   -0.0166    0.0303   -0.0477
   36 H8     1s         0.2613    0.4256   -0.1418    0.0817   -0.0841   -0.1155    0.0017    0.0556   -0.0047   -0.0187
   37 H8     2s         0.0453    0.0726    0.2407   -0.1525    0.1703    0.3039   -0.0230   -0.3701    0.3373   -0.2103
   38 H8     2px        0.0000   -0.0000   -0.0000    0.0000   -0.0000    0.0000   -0.0000    0.0000   -0.0000   -0.0000
   39 H8     2py       -0.0000    0.0000   -0.0000   -0.0000   -0.0000   -0.0000   -0.0000    0.0000    0.0000    0.0000
   40 H8     2pz        0.0002   -0.0008    0.0003    0.0002   -0.0003    0.0015   -0.0100    0.0080    0.0300    0.0725
   41 H9     1s        -0.4084   -0.3779   -0.1301    0.1246    0.0001   -0.1024    0.0890   -0.0138   -0.0035    0.0557
   42 H9     2s        -0.0662   -0.0652    0.2218   -0.2248    0.0070    0.2716   -0.3210    0.0618    0.3307    0.5435
   43 H9     2px       -0.0000    0.0000   -0.0000    0.0000    0.0000    0.0000   -0.0000    0.0000    0.0000    0.0000
   44 H9     2py        0.0000    0.0000   -0.0000   -0.0000   -0.0000   -0.0000   -0.0000   -0.0000    0.0000    0.0000
   45 H9     2pz       -0.0009   -0.0003    0.0000    0.0003   -0.0008   -0.0025   -0.0034    0.0211   -0.0304    0.0099
   46 H10    1s         0.4407    0.3236   -0.1134    0.1419    0.0737   -0.0267    0.0811   -0.0602    0.0049   -0.0118
   47 H10    2s         0.0730    0.0545    0.1937   -0.2638   -0.1653    0.0521   -0.2823    0.4096   -0.3445   -0.0794
   48 H10    2px       -0.0000    0.0000   -0.0000    0.0000    0.0000    0.0000    0.0000   -0.0000    0.0000    0.0000
   49 H10    2py       -0.0000    0.0000   -0.0000    0.0000   -0.0000   -0.0000   -0.0000    0.0000   -0.0000    0.0000
   50 H10    2pz       -0.0008   -0.0009    0.0003    0.0001   -0.0003   -0.0028    0.0045    0.0039   -0.0315   -0.0797
   51 H11    1s        -0.3949   -0.2331   -0.0970    0.1497    0.1427    0.0932   -0.0351    0.0014   -0.0110   -0.0626
   52 H11    2s        -0.0639   -0.0398    0.1534   -0.2490   -0.2581   -0.1825    0.0402    0.1443   -0.3298   -0.4930
   53 H11    2px        0.0000    0.0000    0.0000    0.0000   -0.0000   -0.0000   -0.0000    0.0000   -0.0000    0.0000
   54 H11    2py       -0.0000    0.0000   -0.0000    0.0000    0.0000   -0.0000    0.0000   -0.0000   -0.0000   -0.0000
   55 H11    2pz       -0.0001    0.0001    0.0001    0.0001   -0.0003   -0.0036    0.0118   -0.0249    0.0373    0.0409
   56 H12    1s         0.2810    0.1522   -0.0541    0.0886    0.0942    0.0729   -0.0325   -0.0176    0.0657    0.1058
   57 H12    2s         0.0363    0.0204    0.1407   -0.2569   -0.3393   -0.3917    0.4216   -0.4350    0.4233    0.3939
   58 H12    2px        0.0000   -0.0000    0.0000    0.0000   -0.0000    0.0000   -0.0000   -0.0000    0.0000   -0.0000
   59 H12    2py       -0.0000    0.0000   -0.0000    0.0000    0.0000    0.0000   -0.0000    0.0000   -0.0000    0.0000
   60 H12    2pz       -0.0017   -0.0011    0.0036   -0.0060   -0.0069   -0.0073    0.0087   -0.0132    0.0227    0.0407
 
 
      Orbital               21        22        23        24        25        26        27        28        29        30
      Energy            0.5741    0.6385    0.6975    0.7514    0.7556    0.8597    0.8597    0.8670    0.8670    0.8788
      Occ. No.          0.0000    0.0000    0.0000    0.0000    0.0000    0.0000    0.0000    0.0000    0.0000    0.0000
 
    1 H1     1s         0.1291   -0.1282   -0.1013    0.1107    0.0962    0.0000    0.0000    0.0000   -0.0000    0.0000
    2 H1     2s         0.3532   -0.2867   -0.1966    0.1857    0.1589   -0.0000   -0.0000    0.0000   -0.0000    0.0000
    3 H1     2px        0.0000    0.0000   -0.0000    0.0000    0.0000    0.0873    0.0140   -0.1695   -0.0313   -0.2417
    4 H1     2py       -0.0000    0.0000    0.0000    0.0000    0.0000    0.0140   -0.0873    0.0313   -0.1695    0.0547
    5 H1     2pz       -0.0697    0.1085    0.1438   -0.3132   -0.2925    0.0000    0.0000   -0.0000    0.0000    0.0000
    6 H2     1s        -0.1285    0.1660    0.1406   -0.1157   -0.0935    0.0000   -0.0000    0.0000   -0.0000    0.0000
    7 H2     2s        -0.5883    0.5646    0.4065   -0.3138   -0.2548   -0.0000    0.0000   -0.0000    0.0000   -0.0000
    8 H2     2px        0.0000    0.0000   -0.0000   -0.0000   -0.0000    0.1718    0.0275   -0.3043   -0.0563   -0.3675
    9 H2     2py       -0.0000    0.0000    0.0000   -0.0000   -0.0000    0.0275   -0.1718    0.0563   -0.3043    0.0831
   10 H2     2pz       -0.0230   -0.0284   -0.1033    0.3415    0.3270   -0.0000   -0.0000    0.0000   -0.0000   -0.0000
   11 H3     1s         0.0530   -0.1497   -0.1674    0.1168    0.0848    0.0000    0.0000   -0.0000    0.0000    0.0000
   12 H3     2s         0.2734   -0.5266   -0.4881    0.3143    0.2303    0.0000    0.0000   -0.0000    0.0000   -0.0000
   13 H3     2px        0.0000    0.0000   -0.0000    0.0000    0.0000    0.2461    0.0394   -0.3687   -0.0682   -0.3064
   14 H3     2py        0.0000    0.0000    0.0000   -0.0000   -0.0000    0.0394   -0.2461    0.0682   -0.3687    0.0693
   15 H3     2pz        0.1227   -0.1120   -0.0166   -0.2706   -0.2765    0.0000   -0.0000   -0.0000    0.0000    0.0000
   16 H4     1s         0.0657    0.0531    0.1544   -0.1040   -0.0623   -0.0000   -0.0000    0.0000   -0.0000   -0.0000
   17 H4     2s         0.3240    0.1822    0.4446   -0.2690   -0.1613   -0.0000   -0.0000    0.0000   -0.0000    0.0000
   18 H4     2px       -0.0000    0.0000   -0.0000    0.0000    0.0000    0.3055    0.0489   -0.3479   -0.0644   -0.0909
   19 H4     2py       -0.0000   -0.0000    0.0000   -0.0000   -0.0000    0.0489   -0.3055    0.0644   -0.3479    0.0206
   20 H4     2pz       -0.1146    0.2088    0.1541    0.1818    0.2175   -0.0000    0.0000    0.0000   -0.0000   -0.0000
   21 H5     1s        -0.1253    0.0782   -0.1068    0.0896    0.0357    0.0000    0.0000   -0.0000    0.0000    0.0000
   22 H5     2s        -0.6073    0.2655   -0.3074    0.2285    0.0913    0.0000   -0.0000   -0.0000    0.0000   -0.0000
   23 H5     2px        0.0000    0.0000   -0.0000    0.0000    0.0000    0.3473    0.0556   -0.2467   -0.0456    0.1717
   24 H5     2py       -0.0000    0.0000    0.0000   -0.0000   -0.0000    0.0556   -0.3473    0.0456   -0.2467   -0.0388
   25 H5     2pz       -0.0027   -0.1971   -0.2666   -0.1025   -0.1768    0.0000   -0.0000    0.0000   -0.0000   -0.0000
   26 H6     1s         0.0634   -0.1661    0.0384   -0.0819   -0.0118   -0.0000    0.0000    0.0000   -0.0000   -0.0000
   27 H6     2s         0.2984   -0.5750    0.1089   -0.2075   -0.0293   -0.0000    0.0000    0.0000   -0.0000    0.0000
   28 H6     2px       -0.0000    0.0000   -0.0000   -0.0000    0.0000    0.3687    0.0590   -0.0893   -0.0165    0.3466
   29 H6     2py       -0.0000    0.0000    0.0000    0.0000   -0.0000    0.0590   -0.3687    0.0165   -0.0893   -0.0784
   30 H6     2pz        0.1169    0.0800    0.3290    0.0330    0.1572    0.0000    0.0000   -0.0000    0.0000    0.0000
   31 H7     1s         0.0634    0.1661    0.0384    0.0819   -0.0118   -0.0000    0.0000   -0.0000    0.0000   -0.0000
   32 H7     2s         0.2984    0.5750    0.1089    0.2075   -0.0293    0.0000   -0.0000   -0.0000    0.0000   -0.0000
   33 H7     2px       -0.0000    0.0000   -0.0000   -0.0000    0.0000    0.3687    0.0590    0.0893    0.0165    0.3466
   34 H7     2py       -0.0000   -0.0000    0.0000    0.0000   -0.0000    0.0590   -0.3687   -0.0165    0.0893   -0.0784
   35 H7     2pz       -0.1169    0.0800   -0.3290    0.0330   -0.1572   -0.0000   -0.0000    0.0000   -0.0000   -0.0000
   36 H8     1s        -0.1253   -0.0782   -0.1068   -0.0896    0.0357   -0.0000    0.0000   -0.0000   -0.0000    0.0000
   37 H8     2s        -0.6073   -0.2655   -0.3074   -0.2285    0.0913    0.0000    0.0000    0.0000   -0.0000    0.0000
   38 H8     2px       -0.0000   -0.0000    0.0000   -0.0000    0.0000    0.3473    0.0556    0.2467    0.0456    0.1717
   39 H8     2py        0.0000    0.0000   -0.0000    0.0000   -0.0000    0.0556   -0.3473   -0.0456    0.2467   -0.0388
   40 H8     2pz        0.0027   -0.1971    0.2666   -0.1025    0.1768    0.0000   -0.0000   -0.0000    0.0000   -0.0000
   41 H9     1s         0.0657   -0.0531    0.1544    0.1040   -0.0623   -0.0000    0.0000   -0.0000    0.0000   -0.0000
   42 H9     2s         0.3240   -0.1822    0.4446    0.2690   -0.1613   -0.0000   -0.0000   -0.0000    0.0000   -0.0000
   43 H9     2px        0.0000    0.0000    0.0000   -0.0000    0.0000    0.3055    0.0489    0.3479    0.0644   -0.0909
   44 H9     2py       -0.0000    0.0000    0.0000    0.0000   -0.0000    0.0489   -0.3055   -0.0644    0.3479    0.0206
   45 H9     2pz        0.1146    0.2088   -0.1541    0.1818   -0.2175   -0.0000    0.0000    0.0000   -0.0000    0.0000
   46 H10    1s         0.0530    0.1497   -0.1674   -0.1168    0.0848    0.0000    0.0000   -0.0000    0.0000    0.0000
   47 H10    2s         0.2734    0.5266   -0.4881   -0.3143    0.2303   -0.0000    0.0000    0.0000   -0.0000    0.0000
   48 H10    2px        0.0000    0.0000   -0.0000   -0.0000    0.0000    0.2461    0.0394    0.3687    0.0682   -0.3064
[...]
   44 H9     2py       -0.1216   -0.0000   -0.0000    0.0000   -0.0000   -0.0000    0.0000    0.0000    0.0000   -0.0000
   45 H9     2pz       -0.0000    0.2259    0.4115    0.1939   -0.2019    0.4327   -0.2894   -0.1167   -0.4364    0.3849
   46 H10    1s         0.0000   -0.3835   -0.2142   -0.0809    0.0118   -0.0518    0.0473   -0.0177    0.0094   -0.0147
   47 H10    2s         0.0000   -0.8244   -0.4533   -0.1623    0.0157   -0.0716    0.0535   -0.0123    0.0154   -0.0171
   48 H10    2px        0.2543   -0.0000    0.0000    0.0000    0.0000   -0.0000   -0.0000    0.0000    0.0000   -0.0000
   49 H10    2py        0.0981    0.0000    0.0000   -0.0000    0.0000   -0.0000    0.0000   -0.0000    0.0000    0.0000
   50 H10    2pz       -0.0000    0.0596   -0.2361   -0.4167   -0.4109    0.2058    0.1084   -0.3754   -0.4570    0.3072
   51 H11    1s        -0.0000    0.2739    0.2418    0.1960    0.1434   -0.0923    0.0457   -0.0106    0.0078   -0.0093
   52 H11    2s        -0.0000    0.5847    0.5123    0.3959    0.2678   -0.1594    0.0787   -0.0285   -0.0040   -0.0025
   53 H11    2px       -0.1787    0.0000   -0.0000   -0.0000   -0.0000   -0.0000    0.0000   -0.0000    0.0000   -0.0000
   54 H11    2py       -0.0690   -0.0000    0.0000    0.0000    0.0000    0.0000    0.0000    0.0000    0.0000   -0.0000
   55 H11    2pz        0.0000   -0.2828   -0.1944   -0.0421    0.1462   -0.3208    0.4370   -0.4618   -0.3836    0.2172
   56 H12    1s         0.0000   -0.0990   -0.1001   -0.0956   -0.0892    0.0824   -0.0736    0.0612    0.0444   -0.0234
   57 H12    2s         0.0000   -0.2048   -0.2192   -0.2128   -0.1928    0.1659   -0.1341    0.1006    0.0668   -0.0333
   58 H12    2px        0.0936    0.0000    0.0000    0.0000    0.0000    0.0000    0.0000    0.0000   -0.0000   -0.0000
   59 H12    2py        0.0361    0.0000    0.0000   -0.0000    0.0000   -0.0000   -0.0000   -0.0000    0.0000   -0.0000
   60 H12    2pz       -0.0000    0.2472    0.3222    0.3673    0.3870   -0.3805    0.3449   -0.2840   -0.2020    0.1049
--
 
      Von Neumann Entropy (Root  1) =  5.72812
 

      Mulliken population analysis for root number:  1
      -----------------------------------------------
 
 
++    Molecular charges:
      ------------------
 
      Mulliken charges per centre and basis function type
      ---------------------------------------------------
 
                H1      H2      H3      H4      H5      H6      H7      H8      H9      H10     H11     H12   
      1s       0.9926  1.0012  1.0019  1.0015  1.0017  1.0016  1.0016  1.0017  1.0015  1.0019  1.0012  0.9926
      2s       0.0058  0.0002 -0.0022 -0.0017 -0.0019 -0.0018 -0.0018 -0.0019 -0.0017 -0.0022  0.0002  0.0058
      2px      0.0000  0.0000  0.0000  0.0000  0.0000  0.0000  0.0000  0.0000  0.0000  0.0000  0.0000  0.0000
      2pz     -0.0000  0.0002  0.0002  0.0002  0.0002  0.0002  0.0002  0.0002  0.0002  0.0002  0.0002 -0.0000
      2py      0.0000  0.0000  0.0000  0.0000  0.0000  0.0000  0.0000  0.0000  0.0000  0.0000  0.0000  0.0000
      Total    0.9984  1.0017  0.9999  1.0000  1.0000  1.0000  1.0000  1.0000  1.0000  0.9999  1.0017  0.9984
 
      N-E      0.0016 -0.0017  0.0001 -0.0000  0.0000 -0.0000 -0.0000  0.0000 -0.0000  0.0001 -0.0017  0.0016
 
      Total electronic charge=   12.000000
 
      Total            charge=   -0.000000
--
 
 

      Expectation values of various properties for root number:  1
      -----------------------------------------------------------
 
 
++    Molecular properties:
      ---------------------
 
      Charge (e):
                      =   -0.0000
      Dipole Moment (Debye):
      Origin of the operator (Ang)=    0.0000    0.0000    0.0000
                   X= -4.1023E-13               Y=  5.5369E-13               Z= -4.7679E-12           Total=  4.8174E-12
      Quadrupole Moment (Debye*Ang):
      Origin of the operator (Ang)=    0.0000    0.0000   14.3667
                  XX= -1.8208E+01              XY=  1.3988E-26              XZ=  2.4447E-12              YY= -1.8208E+01
                  YZ= -8.6061E-12              ZZ= -1.7887E+01
      In traceless form (Debye*Ang)
                  XX= -1.6035E-01              XY=  2.0982E-26              XZ=  3.6671E-12              YY= -1.6035E-01
                  YZ= -1.2909E-11              ZZ=  3.2071E-01
--
 

      LoProp population analysis for root number:  1
      -----------------------------------------------
 
 
++    LoProp analysis:
      ----------------
 
 
 
  Input file to MOLDEN was generated!
 
 
++    Static properties:
      ------------------
 
 
      LoProp Charges per center
 

                   H1       H2       H3       H4       H5       H6       H7       H8       H9       H10   
      Nuclear      1.0000   1.0000   1.0000   1.0000   1.0000   1.0000   1.0000   1.0000   1.0000   1.0000
      Electronic  -1.0001  -0.9999  -1.0000  -1.0000  -1.0000  -1.0000  -1.0000  -1.0000  -1.0000  -1.0000
 
      Total       -0.0001   0.0001   0.0000  -0.0000   0.0000  -0.0000  -0.0000   0.0000  -0.0000   0.0000
 

                   H11      H12   
      Nuclear      1.0000   1.0000
      Electronic  -0.9999  -1.0001
 
      Total        0.0001  -0.0001
--
 
 
      Natural Bond Order analysis for root number:  1
 
++    Natural Bond Order analysis
      ---------------------------
      Based on LoProp computed density
      -------------------------------------------------------------------------------------
      Atom A       Atom B       Bond Order
      -------------------------------------------------------------------------------------
      The remaining   12.000 electrons are to be considered as diffuse
--
 
--
 
 
  Input file to MOLDEN was generated!
 
      Average orbitals are written to the RASORB file
      Natural orbitals for root   1 are written to the RASORB.1 file
      Spin density orbitals for root   1 are written to the SPDORB.1 file
 
--- Stop Module: rasscf at Tue Nov 19 07:40:06 2024 /rc=_RC_ALL_IS_WELL_ ---
*** files: H12_2.61.LprOrb H12_2.61.rasscf.molden H12_2.61.LoProp.molden H12_2.61.RasOrb H12_2.61.RasOrb.1 H12_2.61.rasscf.h5 H12_2.61.SpdOrb.1 xmldump
    saved to directory /home/grierjones/DDCASPT2/hydrogen_comps/H12_chain/H12_2.61
--- Module rasscf spent 7 minutes 48 seconds ---

>>> COPY /tmp/H12_2.61/H12_2.61.rasscf.h5 /home/grierjones/DDCASPT2/hydrogen_comps/H12_chain/H12_2.61/

>>> COPY /tmp/H12_2.61/GMJ_Fock_MO.csv /home/grierjones/DDCASPT2/hydrogen_comps/H12_chain/H12_2.61/H12_2.61.GMJ_Fock_MO.csv

>>> COPY /tmp/H12_2.61/GMJ_PT2_Fock_MO.csv /home/grierjones/DDCASPT2/hydrogen_comps/H12_chain/H12_2.61/H12_2.61.GMJ_PT2_Fock_MO.csv

*** symbolic link created: INPORB -> H12_2.61.RasOrb
--- Start Module: motra at Tue Nov 19 07:40:06 2024 ---
 
()()()()()()()()()()()()()()()()()()()()()()()()()()()()()()()()()()()()()()()()()()()()()()()()()()

                                               &MOTRA

                                   only a single process is used
                       available to each process: 2.0 GB of memory, 1 thread?
()()()()()()()()()()()()()()()()()()()()()()()()()()()()()()()()()()()()()()()()()()()()()()()()()()
 
 
      *** WARNING: Default frozen orbitals is overwritten by user input.
      *** Default values:   0
 
      Header of the integral files:
      
       Integrals generated by seward 4.2.0  , Tue Nov 19 07:32:16 2024
 
 
      Header of MO coefficients source file:
      * RASSCF average (pseudo-natural) orbitals                                      
 
 
      Cartesian coordinates in Angstrom:
      -----------------------------------------------------
      No.  Label        X            Y            Z        
      -----------------------------------------------------
       1   H1         0.00000000   0.00000000   0.00000000
       2   H2         0.00000000   0.00000000   2.61212100
       3   H3         0.00000000   0.00000000   5.22424200
       4   H4         0.00000000   0.00000000   7.83636400
       5   H5         0.00000000   0.00000000  10.44848500
       6   H6         0.00000000   0.00000000  13.06060600
       7   H7         0.00000000   0.00000000  15.67272700
       8   H8         0.00000000   0.00000000  18.28484800
       9   H9         0.00000000   0.00000000  20.89697000
      10   H10        0.00000000   0.00000000  23.50909100
      11   H11        0.00000000   0.00000000  26.12121200
      12   H12        0.00000000   0.00000000  28.73333300
      -----------------------------------------------------
      Nuclear repulsion energy =    5.11295339
 
      Orbital specifications:
      -----------------------
 
      Symmetry species:              1
      Number of basis functions:    60
      Frozen orbitals:               0
      Deleted orbitals:              0
      Number of orbitals used:      60

       SYMMETRY  BASIS FUNCTIONS       ORBITALS      INTEGRALS   CPU(SEC)  I/O(SEC)
 
        1 1 1 1   60  60  60  60    60  60  60  60     1675365       0.00      0.00

       TOTAL CPU TIME(SEC)    0.77TOTAL I/O TIME(SEC)    2.16
 
--- Stop Module: motra at Tue Nov 19 07:40:08 2024 /rc=_RC_ALL_IS_WELL_ ---
*** files: xmldump
    saved to directory /home/grierjones/DDCASPT2/hydrogen_comps/H12_chain/H12_2.61
--- Module motra spent 2 seconds ---

>>> COPY /tmp/H12_2.61/GMJ_one_int_indx.csv /home/grierjones/DDCASPT2/hydrogen_comps/H12_chain/H12_2.61/H12_2.61.GMJ_one_int_indx.csv

>>> COPY /tmp/H12_2.61/GMJ_one_int.csv /home/grierjones/DDCASPT2/hydrogen_comps/H12_chain/H12_2.61/H12_2.61.GMJ_one_int.csv

>>> COPY /tmp/H12_2.61/GMJ_two_int_indx.csv /home/grierjones/DDCASPT2/hydrogen_comps/H12_chain/H12_2.61/H12_2.61.GMJ_two_int_indx.csv

>>> COPY /tmp/H12_2.61/GMJ_two_int.csv /home/grierjones/DDCASPT2/hydrogen_comps/H12_chain/H12_2.61/H12_2.61.GMJ_two_int.csv

*** symbolic link created: INPORB -> H12_2.61.RasOrb
--- Start Module: caspt2 at Tue Nov 19 07:40:08 2024 ---
 
()()()()()()()()()()()()()()()()()()()()()()()()()()()()()()()()()()()()()()()()()()()()()()()()()()

                                              &CASPT2

                                   only a single process is used
                       available to each process: 2.0 GB of memory, 1 thread?
()()()()()()()()()()()()()()()()()()()()()()()()()()()()()()()()()()()()()()()()()()()()()()()()()()
 
 Cholesky algorithm in CASPT2 =    1
 
 ###############################################################################
 ###############################################################################
 ###                                                                         ###
 ###                                                                         ###
 ###    User changed nr of frozen orbitals.                                  ###
 ###                                                                         ###
 ###                                                                         ###
 ###############################################################################
 ###############################################################################
 
++    Wave function specifications:
      -----------------------------
 
      Number of closed shell electrons           0
      Number of electrons in active shells      12
      Max number of holes in RAS1 space          0
      Max number of electrons in RAS3 space      0
      Number of inactive orbitals                0
      Number of active orbitals                 12
      Number of secondary orbitals              48
      Spin quantum number                      0.0
      State symmetry                             1
      Number of CSFs                        226512
      Number of root(s) available                1
      Root passed to geometry opt.               1
      A file JOBMIX will be created.
      This is a CASSCF or RASSCF reference function
--
 
++    Orbital specifications:
      -----------------------
 
      Symmetry species                           1
                                                 a
      Frozen orbitals                            0
      Inactive orbitals                          0
      Active orbitals                           12
      Secondary orbitals                        48
      Deleted orbitals                           0
      Number of basis functions                 60
--
 
      Type of Fock operator: STANDARD
      Type of 0-order Hamiltonian: STANDARD WITH DEFAULT IPEA
        "IP-EA" denominator shift =      0.25
      The input orbitals and the CI vector will be transformed.
 
--------------------------------------------------------------------------------
 Estimated memory requirements:
  POLY3 :                 54392696
  RHS:                     1916944
  SIGMA :                   616912
  PRPCTL:                        0
 Available workspace:    230179958
 
++ CASPT2 computation for group   1
 
********************************************************************************
 Multi-State initialization phase begins for group   1
--------------------------------------------------------------------------------
********************************************************************************
 Compute H0 matrices for state    1
--------------------------------------------------------------------------------
--------------------------------------------------------------------------------
 H0 matrices have been computed.
 
********************************************************************************
  CASPT2 EQUATION SOLUTION
--------------------------------------------------------------------------------
 
  Total nr of CASPT2 parameters:
   Before reduction:      249120
   After  reduction:      248160
 
 The contributions to the second order correlation energy in atomic units.
-----------------------------------------------------------------------------------------------------------------------------
  IT.      VJTU        VJTI        ATVX        AIVX        VJAI        BVAT        BJAT        BJAI        TOTAL       RNORM  
-----------------------------------------------------------------------------------------------------------------------------
   1     0.000000    0.000000   -0.001097    0.000000    0.000000   -0.002734    0.000000    0.000000   -0.003831    0.000892
   2     0.000000    0.000000   -0.001108    0.000000    0.000000   -0.002737    0.000000    0.000000   -0.003845    0.000190
   3     0.000000    0.000000   -0.001111    0.000000    0.000000   -0.002738    0.000000    0.000000   -0.003848    0.000062
   4     0.000000    0.000000   -0.001109    0.000000    0.000000   -0.002738    0.000000    0.000000   -0.003847    0.000014
   5     0.000000    0.000000   -0.001109    0.000000    0.000000   -0.002738    0.000000    0.000000   -0.003847    0.000004
-------------------------------------------------------------------------------------------------------------------
 
  FINAL CASPT2 RESULT:
 
  Correlation energy /Case, /Symm, and sums:
 VJTU      0.00000000  0.00000000
 VJTIP     0.00000000  0.00000000
 VJTIM     0.00000000  0.00000000
 ATVX     -0.00110939 -0.00110939
 AIVX      0.00000000  0.00000000
 VJAIP     0.00000000  0.00000000
 VJAIM     0.00000000  0.00000000
 BVATP    -0.00244088 -0.00244088
 BVATM    -0.00029674 -0.00029674
 BJATP     0.00000000  0.00000000
 BJATM     0.00000000  0.00000000
 BJAIP     0.00000000  0.00000000
 BJAIM     0.00000000  0.00000000
 Summed:  -0.00384701 -0.00384701
 
      Reference energy:          -5.9976056040
      E2 (Non-variational):      -0.0038470106
      E2 (Variational):          -0.0038470098
      Total energy:              -6.0014526138
      Residual norm:              0.0000006908
      Reference weight:           0.99746
 
      Contributions to the CASPT2 correlation energy
      Active & Virtual Only:         -0.0038470106
      One Inactive Excited:           0.0000000000
      Two Inactive Excited:           0.0000000000
 
 
++ Denominators, etc.
----------------------------------------------------------------------------------------------------
 Report on small energy denominators, large coefficients, and large energy contributions.
CASE  SYMM ACTIVE-MIX  NON-ACTIVE INDICES          DENOMINATOR     RHS VALUE       COEFFICIENT     CONTRIBUTION
--
 
   (Skipping property calculation,
    use PROP keyword to activate)
--
 
  Total CASPT2 energies:
::    CASPT2 Root  1     Total energy:     -6.00145261
 
  A NEW JOBIPH FILE NAMED 'JOBMIX' IS PREPARED.
********************************************************************************
--- Stop Module: caspt2 at Tue Nov 19 07:41:08 2024 /rc=_RC_ALL_IS_WELL_ ---
*** files: xmldump
    saved to directory /home/grierjones/DDCASPT2/hydrogen_comps/H12_chain/H12_2.61
--- Module caspt2 spent 1 minute 0 seconds ---

>>> EXPORT i = B

>>> EXPORT j = P

>>> IF (-FILE GMJ_e2_${i}_${j}.csv)
(Skipped)

>>> END FOREACH

>>> EXPORT j = M

>>> IF (-FILE GMJ_e2_${i}_${j}.csv)
(Skipped)

>>> END FOREACH

>>> END FOREACH

>>> EXPORT i = E

>>> EXPORT j = P

>>> IF (-FILE GMJ_e2_${i}_${j}.csv)
(Skipped)

>>> END FOREACH

>>> EXPORT j = M

>>> IF (-FILE GMJ_e2_${i}_${j}.csv)
(Skipped)

>>> END FOREACH

>>> END FOREACH

>>> EXPORT i = F

>>> EXPORT j = P

>>> IF (-FILE GMJ_e2_${i}_${j}.csv)

>>> COPY /tmp/H12_2.61/GMJ_RHS_F_P.csv /home/grierjones/DDCASPT2/hydrogen_comps/H12_chain/H12_2.61/GMJ_RHS_F_P.csv

>>> COPY /tmp/H12_2.61/GMJ_IVECW_F_P.csv /home/grierjones/DDCASPT2/hydrogen_comps/H12_chain/H12_2.61/GMJ_IVECW_F_P.csv

>>> COPY /tmp/H12_2.61/GMJ_IVECX_F_P.csv /home/grierjones/DDCASPT2/hydrogen_comps/H12_chain/H12_2.61/GMJ_IVECX_F_P.csv

>>> COPY /tmp/H12_2.61/GMJ_IVECC2_F_P.csv /home/grierjones/DDCASPT2/hydrogen_comps/H12_chain/H12_2.61/GMJ_IVECC2_F_P.csv

>>> COPY /tmp/H12_2.61/GMJ_e2_F_P.csv /home/grierjones/DDCASPT2/hydrogen_comps/H12_chain/H12_2.61/GMJ_e2_F_P.csv

>>> END FOREACH

>>> EXPORT j = M

>>> IF (-FILE GMJ_e2_${i}_${j}.csv)

>>> COPY /tmp/H12_2.61/GMJ_RHS_F_M.csv /home/grierjones/DDCASPT2/hydrogen_comps/H12_chain/H12_2.61/GMJ_RHS_F_M.csv

>>> COPY /tmp/H12_2.61/GMJ_IVECW_F_M.csv /home/grierjones/DDCASPT2/hydrogen_comps/H12_chain/H12_2.61/GMJ_IVECW_F_M.csv

>>> COPY /tmp/H12_2.61/GMJ_IVECX_F_M.csv /home/grierjones/DDCASPT2/hydrogen_comps/H12_chain/H12_2.61/GMJ_IVECX_F_M.csv

>>> COPY /tmp/H12_2.61/GMJ_IVECC2_F_M.csv /home/grierjones/DDCASPT2/hydrogen_comps/H12_chain/H12_2.61/GMJ_IVECC2_F_M.csv

>>> COPY /tmp/H12_2.61/GMJ_e2_F_M.csv /home/grierjones/DDCASPT2/hydrogen_comps/H12_chain/H12_2.61/GMJ_e2_F_M.csv

>>> END FOREACH

>>> END FOREACH

>>> EXPORT i = G

>>> EXPORT j = P

>>> IF (-FILE GMJ_e2_${i}_${j}.csv)
(Skipped)

>>> END FOREACH

>>> EXPORT j = M

>>> IF (-FILE GMJ_e2_${i}_${j}.csv)
(Skipped)

>>> END FOREACH

>>> END FOREACH

>>> EXPORT i = H

>>> EXPORT j = P

>>> IF (-FILE GMJ_e2_${i}_${j}.csv)
(Skipped)

>>> END FOREACH

>>> EXPORT j = M

>>> IF (-FILE GMJ_e2_${i}_${j}.csv)
(Skipped)

>>> END FOREACH

>>> END FOREACH

>>> EXPORT i = A

>>> IF (-FILE GMJ_e2_$i.csv)
(Skipped)

>>> END FOREACH

>>> EXPORT i = C

>>> IF (-FILE GMJ_e2_$i.csv)

>>> COPY /tmp/H12_2.61/GMJ_RHS_C.csv /home/grierjones/DDCASPT2/hydrogen_comps/H12_chain/H12_2.61/GMJ_RHS_C.csv

>>> COPY /tmp/H12_2.61/GMJ_IVECW_C.csv /home/grierjones/DDCASPT2/hydrogen_comps/H12_chain/H12_2.61/GMJ_IVECW_C.csv

>>> COPY /tmp/H12_2.61/GMJ_IVECX_C.csv /home/grierjones/DDCASPT2/hydrogen_comps/H12_chain/H12_2.61/GMJ_IVECX_C.csv

>>> COPY /tmp/H12_2.61/GMJ_IVECC2_C.csv /home/grierjones/DDCASPT2/hydrogen_comps/H12_chain/H12_2.61/GMJ_IVECC2_C.csv

>>> COPY /tmp/H12_2.61/GMJ_e2_C.csv /home/grierjones/DDCASPT2/hydrogen_comps/H12_chain/H12_2.61/GMJ_e2_C.csv

>>> END FOREACH

>>> EXPORT i = D

>>> IF (-FILE GMJ_e2_$i.csv)
(Skipped)

>>> END FOREACH

.########################.
.# Non-zero return code #.
.########################.

    Timing: Wall=532.62 User=527.38 System=5.14
****************************************
*** WorkDir at /tmp/H12_2.61 cleaned ***
****************************************
