   This run of MOLCAS is using the pymolcas driver

                             OPE
                             OPE          NMOL  CASOP  ENMOLC A   SO
                 OPE        NMOLC        AS  OP EN  MO LC     AS  OP
                OPENM       OL CA        SO  PE NM  OL CA     SOP EN
                OP EN      MO   LC       AS  OP ENMOL  CASO   PENMOL
                OP  EN     MO   LC       AS  OP EN     MO     LC ASO
               OP   E  NMOL  C  AS       OP  EN MO     LC     AS  OP
               OP  E   NMO   LC AS        OPEN  MO     LCASOP EN   M
               O  PEN   MO  LCA  SO
            OPE   NMO   L   CAS    OP
        OPENMOL  CASOP     ENMOL   CASOPE
     OPENMOLCA   SOPENMOLCASOPEN   MOLCASOPE
    OPENMOLCAS   OP           EN   MOL    CAS
    OPENMOLCAS       OP  ENM        O     LCA
    OPENMOLCAS    OPEN  MOLCASO     P  E  NMO
    OPENMOLCAS     OP               E  N  MOL
    OPENMOLCA   SO           PENM   O  L  CAS    OPEN    MO    LCAS
    OPENMOLCA   SOP           ENM   O  L  CAS   OP  EN  MOLC  AS   O
    OPENMOLCA   SOPE           NM      O  LCA   S      OP  EN MO
    OPENMOLC                AS         O  PEN   M      OL  CA  SOPE
    OPENMO        LCASOPE  NMOL        C  ASO   P      ENMOLC     AS
    OPE     NMO      LCA  SO     P     E   NM   OL  CA SO  PE N   MO
          OPENMOLCA            SOPE   NMO        LCAS  O    P  ENMO
     OPENMOLCASOPENMOLCASOPENMOLCASOPENMOLCA
        OPENMOLCASOPENMOLCASOPENMOLCASOPE
            OPENMOLCASOPENMOLCASOPENM
               OPENMOLCASOPENMOLCA        version: 1d1d16313-dirty
                   OPENMOLCASO
                       OPE                tag:

 OpenMolcas is free software; you can redistribute it and/or modify it
 under the terms of the GNU Lesser General Public License version 2.1.
 OpenMolcas is distributed in the hope that it will be useful, but it
 is provided "as is" and without any express or implied warranties.
 For more details see the full text of the license in the file
 LICENSE or in <http://www.gnu.org/licenses/>.

                 Copyright (C) The OpenMolcas Authors
           For the author list and the recommended citation,
                   consult the file CONTRIBUTORS.md

           *************************************************
           * pymolcas version py2.28                       *
           *   build c4a6d18ded8cb6cad61d2372a9abd97c      *
           *   (after the EMIL interpreter by V. Veryazov) *
           *************************************************

configuration info
------------------
C Compiler ID: IntelLLVM
C flags: -std=gnu99
Fortran Compiler ID: IntelLLVM
Fortran flags: -standard-semantics -fltconsistency -fpp -i8 -heap-arrays
Definitions: _MOLCAS_;_I8_;_LINUX_
Parallel: OFF (GA=OFF)


   -------------------------------------------------------------------------------
  |
  |              Project: 1.58
  |       Submitted from: /home/grierjones/DDCASPT2/iron_oxo_DDCASPT2/cluster/1.58
  |         Scratch area: /tmp/1.58
  |      Save outputs to: /home/grierjones/DDCASPT2/iron_oxo_DDCASPT2/cluster/1.58
  |               Molcas: /home/grierjones/Test/build
  |
  | Scratch area is empty
  |
  |       MOLCAS_DRIVER = /usr/local/pymolcas
  | MOLCAS_KEEP_WORKDIR = NO
  |  MOLCAS_NEW_WORKDIR = YES
  |       MOLCAS_NPROCS = 1
  |        MOLCAS_PRINT = NORMAL
  |       MOLCAS_SOURCE = /home/grierjones/Test
  |    MOLCAS_STRUCTURE = 0
  |
   -------------------------------------------------------------------------------

++ ---------   Input file   ---------

&GATEWAY
coord=1.58.xyz
Basis = ANO-RCC-VDZP
Group = nosymm
Expert
End of Input

&SEWARD
End of Input

&SCF
UHF
charge
2
spin
5
FileOrb
/home/grierjones/DDCASPT2/iron_oxo_DDCASPT2/cluster/1.57/1.57.UhfOrb

>>> COPY $WorkDir/1.58.scf.h5 $CurrDir/

&RASSCF
Title= RASSCF
FileOrb
/home/grierjones/DDCASPT2/iron_oxo_DDCASPT2/cluster/1.57/1.57.RasOrb
NACTEL
10 0 0
RAS2
14
Symmetry
1
Spin
5
charge
2
orblisting
all
ITERation
300 200

>>> COPY $WorkDir/1.58.rasscf.h5 $CurrDir/

>>> COPY $WorkDir/GMJ_Fock_MO.csv $CurrDir/1.58.GMJ_Fock_MO.csv

>>> COPY $WorkDir/GMJ_PT2_Fock_MO.csv $CurrDir/1.58.GMJ_PT2_Fock_MO.csv

&MOTRA
Frozen=0
LUMORB

>>> COPY $WorkDir/GMJ_one_int_indx.csv $CurrDir/1.58.GMJ_one_int_indx.csv

>>> COPY $WorkDir/GMJ_one_int.csv $CurrDir/1.58.GMJ_one_int.csv

>>> COPY $WorkDir/GMJ_two_int_indx.csv $CurrDir/1.58.GMJ_two_int_indx.csv

>>> COPY $WorkDir/GMJ_two_int.csv $CurrDir/1.58.GMJ_two_int.csv

&CASPT2
Frozen
0
MAXITER
50

>>> FOREACH i IN (B,E,F,G,H)

  >>> FOREACH j IN (P,M)

    >>> IF (-FILE GMJ_e2_${i}_${j}.csv)

      >>> COPY $WorkDir/GMJ_RHS_${i}_${j}.csv $CurrDir/GMJ_RHS_${i}_${j}.csv

      >>> COPY $WorkDir/GMJ_IVECW_${i}_${j}.csv $CurrDir/GMJ_IVECW_${i}_${j}.csv

      >>> COPY $WorkDir/GMJ_IVECX_${i}_${j}.csv $CurrDir/GMJ_IVECX_${i}_${j}.csv

      >>> COPY $WorkDir/GMJ_IVECC2_${i}_${j}.csv $CurrDir/GMJ_IVECC2_${i}_${j}.csv

      >>> COPY $WorkDir/GMJ_e2_${i}_${j}.csv $CurrDir/GMJ_e2_${i}_${j}.csv

    >>> END IF

  >>> END FOREACH

>>> END FOREACH

>>> FOREACH i IN (A,C,D)

  >>> IF (-FILE GMJ_e2_$i.csv)

    >>> COPY $WorkDir/GMJ_RHS_$i.csv $CurrDir/GMJ_RHS_$i.csv

    >>> COPY $WorkDir/GMJ_IVECW_$i.csv $CurrDir/GMJ_IVECW_$i.csv

    >>> COPY $WorkDir/GMJ_IVECX_$i.csv $CurrDir/GMJ_IVECX_$i.csv

    >>> COPY $WorkDir/GMJ_IVECC2_$i.csv $CurrDir/GMJ_IVECC2_$i.csv

    >>> COPY $WorkDir/GMJ_e2_$i.csv $CurrDir/GMJ_e2_$i.csv

  >>> END IF

>>> END FOREACH

-- ----------------------------------

--- Start Module: gateway at Tue Jan 21 15:22:19 2025 ---
 
()()()()()()()()()()()()()()()()()()()()()()()()()()()()()()()()()()()()()()()()()()()()()()()()()()

                                              &GATEWAY

                                   only a single process is used
                       available to each process: 2.0 GB of memory, 1 thread?
()()()()()()()()()()()()()()()()()()()()()()()()()()()()()()()()()()()()()()()()()()()()()()()()()()
 
 ###############################################################################
 ###############################################################################
 ###                                                                         ###
 ###                                                                         ###
 ###                                                                         ###
 ###    WARNING: EXPERT option is ON!                                        ###
 ###                                                                         ###
 ###                                                                         ###
 ###############################################################################
 ###############################################################################
 
++    Symmetry information:
      ---------------------
 
                    Character Table for C1 
 
                             E  
                    a        1  x, y, xy, Rz, z, xz, Ry, yz, Rx, I
--
 
 
++    Basis set information:
      ----------------------
 
 
      Basis set label: O.ANO-RCC...3S2P1D.
 
      Electronic valence basis set:
      ------------------
      Associated Effective Charge   8.000000 au
      Associated Actual Charge      8.000000 au
      Nuclear Model: Point charge
 
      Shell  nPrim  nBasis  Cartesian Spherical Contaminant
         s      14       3        X                  
         p       9       2        X                  
         d       4       1                 X         
 
 
      Basis set label: FE.ANO-RCC...5S4P2D1F.
 
      Electronic valence basis set:
      ------------------
      Associated Effective Charge  26.000000 au
      Associated Actual Charge     26.000000 au
      Nuclear Model: Point charge
 
      Shell  nPrim  nBasis  Cartesian Spherical Contaminant
         s      21       5        X                  
         p      15       4        X                  
         d      10       2                 X         
         f       6       1                 X         
--
 
 
++    Molecular structure info:
      -------------------------
 
                    ************************************************ 
                    **** Cartesian Coordinates / Bohr, Angstrom **** 
                    ************************************************ 
 
     Center  Label                x              y              z                     x              y              z
        1      O1               0.000000       0.000000       3.004929              0.000000       0.000000       1.590140
        2      FE2              0.000000       0.000000       0.018633              0.000000       0.000000       0.009860
--
 
 
            Nuclear Potential Energy             69.65149203 au
 
 ###############################################################################
 ###############################################################################
 ###                                                                         ###
 ###                                                                         ###
 ###    There were warnings during the execution                             ###
 ###    Please, check the output with care!                                  ###
 ###                                                                         ###
 ###                                                                         ###
 ###############################################################################
 ###############################################################################
--- Stop Module: gateway at Tue Jan 21 15:22:20 2025 /rc=_RC_ALL_IS_WELL_ ---
*** files: xmldump
    saved to directory /home/grierjones/DDCASPT2/iron_oxo_DDCASPT2/cluster/1.58

--- Start Module: seward at Tue Jan 21 15:22:20 2025 ---
 
()()()()()()()()()()()()()()()()()()()()()()()()()()()()()()()()()()()()()()()()()()()()()()()()()()

                                              &SEWARD

                                   only a single process is used
                       available to each process: 2.0 GB of memory, 1 thread?
()()()()()()()()()()()()()()()()()()()()()()()()()()()()()()()()()()()()()()()()()()()()()()()()()()
 
 ###############################################################################
 ###############################################################################
 ###                                                                         ###
 ###                                                                         ###
 ###                                                                         ###
 ###    WARNING: EXPERT option is ON!                                        ###
 ###                                                                         ###
 ###                                                                         ###
 ###############################################################################
 ###############################################################################
               SEWARD will generate:
                  Multipole Moment integrals up to order  2
                  Kinetic Energy integrals
                  Nuclear Attraction integrals (point charge)
                  One-Electron Hamiltonian integrals
                  Velocity integrals
                  Relativistic Douglas-Kroll-Hess integrals:
                    - Parametrization         : EXP
                    - DKH order of Hamiltonian: 2
                    - DKH order of Properties : 0
                         - multipole moment operators
                         - electric potential operators
                         - contact operators
                  Atomic mean-field integrals
                  Two-Electron Repulsion integrals
 
                   Integrals are discarded if absolute value <: 0.10E-13
                   Integral cutoff threshold is set to       <: 0.10E-15
 
            Nuclear Potential Energy             69.65149203 au
 
 
      Basis set specifications :
      Symmetry species         a  
      Basis functions           48
 
 
  Input file to MOLDEN was generated!
 
 ###############################################################################
 ###############################################################################
 ###                                                                         ###
 ###                                                                         ###
 ###    There were warnings during the execution                             ###
 ###    Please, check the output with care!                                  ###
 ###                                                                         ###
 ###                                                                         ###
 ###############################################################################
 ###############################################################################
forrtl: warning (525): IEEE_DIVIDE_BY_ZERO is signaling
forrtl: warning (526): IEEE_INVALID is signaling
forrtl: warning (528): IEEE_UNDERFLOW is signaling
--- Stop Module: seward at Tue Jan 21 15:22:21 2025 /rc=_RC_ALL_IS_WELL_ ---
*** files: 1.58.GssOrb 1.58.guessorb.h5 1.58.guessorb.molden xmldump
    saved to directory /home/grierjones/DDCASPT2/iron_oxo_DDCASPT2/cluster/1.58
--- Module seward spent 1 second ---

*** symbolic link created: INPORB -> 1.58.GssOrb
--- Start Module: scf at Tue Jan 21 15:22:21 2025 ---
 
()()()()()()()()()()()()()()()()()()()()()()()()()()()()()()()()()()()()()()()()()()()()()()()()()()

                                                &SCF

                                   only a single process is used
                       available to each process: 2.0 GB of memory, 1 thread?
()()()()()()()()()()()()()()()()()()()()()()()()()()()()()()()()()()()()()()()()()()()()()()()()()()
 
 *** Possible bug in opening file
 *** isFreeUnit resets the unit number
++    Input section:
      --------------
 
      Header of the integral files:
      
       Integrals generated by seward 4.2.0  , Tue Jan 21 15:22:20 2025
 
 
      Cartesian coordinates in Angstrom:
      -----------------------------------------------------
      No.  Label        X            Y            Z        
      -----------------------------------------------------
       1   O1         0.00000000   0.00000000   1.59014000
       2   FE2        0.00000000   0.00000000   0.00986000
      -----------------------------------------------------
      Nuclear repulsion energy =   69.65149203
--
 
++    Orbital specifications:
      -----------------------
 
      Symmetry species               1
                                     a
      Frozen orbitals                0
      Occupied orbitals alpha       18
      Occupied orbitals beta        14
      Secondary orbitals alpha      30
      Secondary orbitals beta       34
      Deleted orbitals               0
      Total number of orbitals      48
      Number of basis functions     48
--
 
      Molecular charge                           2.000
 
++    Optimization specifications:
      ----------------------------
 
      SCF Algorithm: Conventional USCF
      D(i)-D(i-1) density differences are used
      Number of density matrices in core                5
      Maximum number of NDDO SCF iterations           400
      Maximum number of HF SCF iterations             400
      Threshold for SCF energy change            0.10E-08
      Threshold for density matrix               0.10E-03
      Threshold for Fock matrix                  0.15E-03
      Threshold for linear dependence            0.10E-08
      Threshold at which DIIS is turned on       0.15E+00
      Threshold at which QNR/C2DIIS is turned on 0.75E-01
      Threshold for Norm(delta) (QNR/C2DIIS)     0.20E-04
      DIIS extrapolation of the SCF procedure
      All orbitals punched on: UHFORB
--
 
      Input vectors read from INPORB
      Orbital file label: * UHF orbitals
 
 
++ Convergence information
                               UHF SCF        iterations: Energy and convergence statistics
 
Iter     Tot. SCF        One-elec.       Two-elec.     Energy      Max Dij or  Max Fij      DNorm      TNorm      AccCon     Time
         Energy          Energy          Energy        Change      Delta Norm                                                in Sec.
 
 The total and one-electron energies are shifted by a value of      1000. a.u.
 
   1  -345.262189519  -973.645505667   558.731824122   0.00E+00    0.26E-02*   0.18E-02*    0.81E+01   0.19E+03   None         0.
   2  -345.262209475  -973.646846457   558.733144956  -0.20E-04*   0.22E-02*   0.89E-03*    0.11E-01   0.19E+03   EDIIS        0.
   3  -345.262212183  -973.614771650   558.701067440  -0.27E-05*   0.91E-03*   0.34E-03*    0.65E-02   0.19E+03   c2DIIS       0.
   4  -345.262214634  -973.642028768   558.728322108  -0.25E-05*   0.13E-02*   0.30E-03*    0.26E-02   0.19E+03   QNRc2DIIS    0.
   5  -345.262214992  -973.630261144   558.716554126  -0.36E-06*   0.12E-02*   0.16E-03*    0.17E-02   0.19E+03   QNRc2DIIS    0.
   6  -345.262215271  -973.635501152   558.721793855  -0.28E-06*   0.73E-03*   0.70E-04     0.15E-02   0.19E+03   QNRc2DIIS    0.
   7  -345.262215333  -973.638710551   558.725003192  -0.62E-07*   0.94E-03*   0.43E-04     0.90E-03   0.19E+03   QNRc2DIIS    0.
   8  -345.262215380  -973.639446362   558.725738955  -0.47E-07*   0.34E-03*   0.26E-04     0.11E-02   0.19E+03   QNRc2DIIS    0.
   9  -345.262215389  -973.640755832   558.727048417  -0.81E-08*   0.87E-04*   0.15E-04     0.42E-03   0.19E+03   QNRc2DIIS    0.
  10  -345.262215390  -973.640519787   558.726812370  -0.15E-08*   0.14E-04    0.19E-05     0.13E-03   0.19E+03   QNRc2DIIS    0.
  11  -345.262215390  -973.640513274   558.726805857  -0.50E-10    0.59E-05    0.68E-06     0.20E-04   0.19E+03   QNRc2DIIS    0.
 
       Convergence after 11 Macro Iterations
--
 
 *****************************************************************************************************************************
 *                                                                                                                           *
 *                                             SCF/KS-DFT Program, Final results                                             *
 *                                                                                                                           *
 *                                                                                                                           *
 *                                                                                                                           *
 *                                                       Final Results                                                       *
 *                                                                                                                           *
 *****************************************************************************************************************************
 
::    Total SCF energy                              -1345.2622153901
      One-electron energy                           -1973.6405132737
      Two-electron energy                             558.7268058573
      Nuclear repulsion energy                         69.6514920263
      Kinetic energy (interpolated)                  1400.2053748071
      Virial theorem                                    0.9607606424
      Total spin, S(S+1)                                6.8666701325
      Total spin, S                                     2.1677087795
      Max non-diagonal density matrix element           0.0000024032
      Max non-diagonal Fock matrix element              0.0000003974
 
 
      All orbitals with orbital energies smaller than  E(LUMO)+0.5 are printed
 
++    Molecular orbitals:
      -------------------
 
      Title: UHF orbitals (alpha)

      Molecular orbitals for symmetry species 1: a  
 
          Orbital            1         2         3         4         5         6         7         8         9        10    
          Energy         -264.4710  -33.3238  -28.3953  -28.3953  -28.3873  -21.1867   -5.2708   -3.8263   -3.8263   -3.8142
          Occ. No.          1.0000    1.0000    1.0000    1.0000    1.0000    1.0000    1.0000    1.0000    1.0000    1.0000
 
        1 O1     1s        -0.0000    0.0000   -0.0000   -0.0000    0.0001    0.9999   -0.0003   -0.0000   -0.0000   -0.0021
        2 O1     2s         0.0000    0.0001    0.0000    0.0000    0.0008   -0.0004    0.0056    0.0000   -0.0000    0.0196
        3 O1     3s         0.0000   -0.0000    0.0000   -0.0000    0.0005   -0.0011    0.0005   -0.0000   -0.0000   -0.0018
        4 O1     2px        0.0000   -0.0000    0.0000   -0.0000   -0.0000    0.0000   -0.0000   -0.0013    0.0036    0.0000
        5 O1     3px        0.0000    0.0000    0.0000   -0.0001    0.0000    0.0000   -0.0000   -0.0007    0.0020   -0.0000
        6 O1     2py       -0.0000    0.0000   -0.0000   -0.0000    0.0000   -0.0000   -0.0000    0.0036    0.0013   -0.0000
        7 O1     3py        0.0000    0.0000   -0.0001   -0.0000    0.0000   -0.0000   -0.0000    0.0020    0.0007   -0.0000
        8 O1     2pz       -0.0000    0.0000   -0.0000    0.0000   -0.0006    0.0000   -0.0031   -0.0000    0.0000   -0.0093
        9 O1     3pz       -0.0000    0.0000   -0.0000   -0.0000   -0.0005    0.0005    0.0004    0.0000    0.0000    0.0054
       10 O1     3d2-      -0.0000   -0.0000   -0.0000   -0.0000    0.0000    0.0000    0.0000    0.0000   -0.0000    0.0000
       11 O1     3d1-      -0.0000   -0.0000   -0.0001   -0.0000    0.0000    0.0000    0.0000   -0.0007   -0.0003    0.0000
       12 O1     3d0        0.0000   -0.0001    0.0000   -0.0000    0.0002   -0.0012    0.0001    0.0000    0.0000    0.0011
       13 O1     3d1+      -0.0000    0.0000    0.0000   -0.0001    0.0000    0.0000    0.0000    0.0003   -0.0007   -0.0000
       14 O1     3d2+      -0.0000   -0.0000   -0.0000   -0.0000    0.0000    0.0000    0.0000    0.0000    0.0000    0.0000
       15 FE2    1s         1.0000   -0.0000   -0.0000    0.0000   -0.0000    0.0000   -0.0000    0.0000    0.0000   -0.0000
       16 FE2    2s         0.0000    1.0000   -0.0000   -0.0000   -0.0002    0.0001   -0.0035    0.0000    0.0000   -0.0002
       17 FE2    3s        -0.0000    0.0034   -0.0000   -0.0000   -0.0002    0.0004    0.9992   -0.0000   -0.0000   -0.0044
       18 FE2    4s         0.0000   -0.0003   -0.0000    0.0000   -0.0008    0.0005   -0.0050    0.0000    0.0000   -0.0030
       19 FE2    5s        -0.0000    0.0003    0.0000    0.0000    0.0004   -0.0003    0.0046   -0.0000   -0.0000    0.0017
       20 FE2    2px       -0.0000    0.0000   -0.3417    0.9398    0.0000    0.0000    0.0000    0.0011   -0.0031   -0.0000
       21 FE2    3px       -0.0000    0.0000   -0.0011    0.0030    0.0000    0.0000    0.0000   -0.3412    0.9393    0.0000
       22 FE2    4px       -0.0000    0.0000    0.0002   -0.0004   -0.0000   -0.0000    0.0000    0.0060   -0.0166   -0.0000
       23 FE2    5px        0.0000    0.0000   -0.0005    0.0013    0.0000    0.0000   -0.0000   -0.0040    0.0109    0.0000
       24 FE2    2py        0.0000    0.0000    0.9398    0.3417   -0.0000    0.0000    0.0000   -0.0031   -0.0011    0.0000
       25 FE2    3py        0.0000    0.0000    0.0030    0.0011   -0.0000    0.0000    0.0000    0.9393    0.3412   -0.0000
       26 FE2    4py        0.0000   -0.0000   -0.0004   -0.0002    0.0000    0.0000    0.0000   -0.0166   -0.0060    0.0000
       27 FE2    5py       -0.0000    0.0000    0.0013    0.0005   -0.0000   -0.0000   -0.0000    0.0109    0.0040   -0.0000
       28 FE2    2pz       -0.0000    0.0002    0.0000   -0.0000    1.0000    0.0000   -0.0002   -0.0000   -0.0000   -0.0032
       29 FE2    3pz       -0.0000    0.0001    0.0000   -0.0000    0.0029    0.0003    0.0024    0.0000   -0.0000    0.9972
       30 FE2    4pz       -0.0000   -0.0001   -0.0000    0.0000   -0.0011    0.0003   -0.0030   -0.0000    0.0000   -0.0180
       31 FE2    5pz        0.0000    0.0001    0.0000   -0.0000    0.0015   -0.0002    0.0020    0.0000   -0.0000    0.0114
       32 FE2    3d2-      -0.0000   -0.0000   -0.0000    0.0000    0.0000   -0.0000   -0.0000   -0.0000    0.0000    0.0000
       33 FE2    4d2-       0.0000    0.0000   -0.0000   -0.0000   -0.0000   -0.0000    0.0000    0.0000   -0.0000   -0.0000
       34 FE2    3d1-      -0.0000    0.0000    0.0000    0.0000    0.0000    0.0000    0.0000   -0.0005   -0.0002   -0.0000
       35 FE2    4d1-      -0.0000   -0.0000    0.0000    0.0000   -0.0000    0.0000    0.0000   -0.0036   -0.0013    0.0000
       36 FE2    3d0       -0.0000   -0.0001   -0.0000   -0.0000   -0.0002    0.0002   -0.0028   -0.0000   -0.0000    0.0017
       37 FE2    4d0        0.0000    0.0001   -0.0000    0.0000   -0.0003    0.0001   -0.0003    0.0000    0.0000   -0.0033
       38 FE2    3d1+      -0.0000    0.0000   -0.0000    0.0000    0.0000    0.0000   -0.0000    0.0002   -0.0005    0.0000
       39 FE2    4d1+      -0.0000    0.0000   -0.0000    0.0000    0.0000    0.0000    0.0000    0.0013   -0.0036   -0.0000
       40 FE2    3d2+      -0.0000   -0.0000   -0.0000   -0.0000    0.0000   -0.0000   -0.0000   -0.0000   -0.0000    0.0000
       41 FE2    4d2+       0.0000    0.0000    0.0000    0.0000   -0.0000   -0.0000    0.0000    0.0000    0.0000   -0.0000
       42 FE2    4f3-       0.0000   -0.0000   -0.0000   -0.0000    0.0000   -0.0000   -0.0000   -0.0000   -0.0000    0.0000
       43 FE2    4f2-       0.0000    0.0000   -0.0000    0.0000   -0.0000   -0.0000    0.0000   -0.0000    0.0000   -0.0000
       44 FE2    4f1-      -0.0000   -0.0000   -0.0000   -0.0000    0.0000    0.0000    0.0000   -0.0017   -0.0006    0.0000
       45 FE2    4f0        0.0000   -0.0000   -0.0000   -0.0000   -0.0001    0.0001    0.0004   -0.0000   -0.0000   -0.0007
       46 FE2    4f1+      -0.0000    0.0000    0.0000   -0.0000   -0.0000    0.0000    0.0000    0.0006   -0.0017   -0.0000
       47 FE2    4f2+       0.0000    0.0000   -0.0000    0.0000   -0.0000   -0.0000    0.0000   -0.0000   -0.0000   -0.0000
       48 FE2    4f3+      -0.0000    0.0000    0.0000   -0.0000    0.0000   -0.0000   -0.0000    0.0000   -0.0000   -0.0000
 
          Orbital           11        12        13        14        15        16        17        18        19        20    
          Energy           -1.8458   -1.5189   -1.5189   -1.5189   -1.5189   -1.4654   -1.1230   -1.1230   -0.5915   -0.4489
          Occ. No.          1.0000    1.0000    1.0000    1.0000    1.0000    1.0000    1.0000    1.0000    0.0000    0.0000
 
        1 O1     1s        -0.0080    0.0000    0.0000   -0.0000   -0.0000   -0.0194   -0.0000    0.0000   -0.0226    0.0142
        2 O1     2s         0.8881    0.0000    0.0000   -0.0000   -0.0000   -0.4491   -0.0000    0.0000   -0.2939    0.1849
        3 O1     3s        -0.0120    0.0000    0.0000   -0.0000   -0.0000   -0.0471    0.0000   -0.0000   -0.0492    0.0353
        4 O1     2px        0.0000   -0.0413    0.1136   -0.0000   -0.0000   -0.0000   -0.9127   -0.3315    0.0000   -0.0000
        5 O1     3px       -0.0000    0.0130   -0.0357    0.0000    0.0000   -0.0000    0.0282    0.0102    0.0000    0.0000
        6 O1     2py       -0.0000    0.1136    0.0413   -0.0000    0.0000   -0.0000   -0.3315    0.9127    0.0000   -0.0000
        7 O1     3py       -0.0000   -0.0357   -0.0130    0.0000   -0.0000    0.0000    0.0102   -0.0282    0.0000   -0.0000
        8 O1     2pz       -0.1535    0.0000    0.0000    0.0000    0.0000   -0.0168   -0.0000    0.0000   -0.2948    0.8254
        9 O1     3pz       -0.0084   -0.0000   -0.0000    0.0000    0.0000    0.0352    0.0000   -0.0000   -0.0148    0.1689
       10 O1     3d2-       0.0000   -0.0000    0.0000    0.0002    0.0000   -0.0000   -0.0000   -0.0000   -0.0000    0.0000
       11 O1     3d1-       0.0000   -0.0072   -0.0026    0.0000   -0.0000   -0.0000    0.0122   -0.0336   -0.0000    0.0000
       12 O1     3d0       -0.0074   -0.0000   -0.0000    0.0000    0.0000    0.0189    0.0000   -0.0000    0.0181   -0.0329
       13 O1     3d1+       0.0000    0.0026   -0.0072    0.0000    0.0000   -0.0000    0.0336    0.0122   -0.0000    0.0000
       14 O1     3d2+       0.0000   -0.0000   -0.0000   -0.0000    0.0002   -0.0000    0.0000   -0.0000   -0.0000    0.0000
       15 FE2    1s        -0.0018    0.0000    0.0000    0.0000    0.0000    0.0010   -0.0000    0.0000   -0.0007    0.0046
       16 FE2    2s        -0.0130    0.0000    0.0000    0.0000    0.0000    0.0077   -0.0000    0.0000   -0.0048    0.0328
       17 FE2    3s        -0.0813    0.0000    0.0000    0.0000    0.0000    0.0443   -0.0000    0.0000   -0.0180    0.1535
       18 FE2    4s         0.0122    0.0000    0.0000   -0.0000   -0.0000    0.0089    0.0000   -0.0000    0.8700    0.3934
       19 FE2    5s        -0.0106   -0.0000   -0.0000    0.0000    0.0000    0.0067   -0.0000    0.0000   -0.2582    0.0168
       20 FE2    2px       -0.0000    0.0000   -0.0001    0.0000    0.0000    0.0000    0.0018    0.0007   -0.0000   -0.0000
       21 FE2    3px        0.0000    0.0012   -0.0032    0.0000    0.0000    0.0000    0.0392    0.0142   -0.0000   -0.0000
       22 FE2    4px       -0.0000   -0.0018    0.0051   -0.0000   -0.0000    0.0000   -0.0571   -0.0207    0.0000   -0.0000
       23 FE2    5px       -0.0000   -0.0027    0.0073   -0.0000   -0.0000    0.0000    0.0139    0.0051    0.0000   -0.0000
       24 FE2    2py        0.0000   -0.0001   -0.0000    0.0000   -0.0000    0.0000    0.0007   -0.0018   -0.0000    0.0000
       25 FE2    3py        0.0000   -0.0032   -0.0012    0.0000   -0.0000    0.0000    0.0142   -0.0392   -0.0000    0.0000
       26 FE2    4py       -0.0000    0.0051    0.0018   -0.0000    0.0000    0.0000   -0.0207    0.0571    0.0000   -0.0000
       27 FE2    5py        0.0000    0.0073    0.0027   -0.0000    0.0000   -0.0000    0.0051   -0.0139   -0.0000   -0.0000
       28 FE2    2pz       -0.0038    0.0000    0.0000    0.0000    0.0000    0.0017   -0.0000    0.0000   -0.0010    0.0062
       29 FE2    3pz       -0.1054    0.0000    0.0000    0.0000    0.0000    0.0384   -0.0000    0.0000   -0.0132    0.0967
       30 FE2    4pz        0.0222    0.0000    0.0000   -0.0000   -0.0000    0.0026    0.0000   -0.0000   -0.1904   -0.5040
       31 FE2    5pz       -0.0083   -0.0000   -0.0000    0.0000    0.0000    0.0099   -0.0000    0.0000   -0.0109   -0.0089
       32 FE2    3d2-       0.0000   -0.0000    0.0000    0.9885    0.1029   -0.0000   -0.0000   -0.0000    0.0000   -0.0000
       33 FE2    4d2-      -0.0000    0.0000   -0.0000   -0.1098   -0.0114    0.0000    0.0000    0.0000   -0.0000   -0.0000
       34 FE2    3d1-       0.0000    0.9177    0.3334   -0.0000    0.0000    0.0000    0.0764   -0.2102   -0.0000    0.0000
       35 FE2    4d1-      -0.0000   -0.0910   -0.0331    0.0000   -0.0000   -0.0000   -0.0169    0.0465    0.0000   -0.0000
       36 FE2    3d0        0.2910   -0.0000   -0.0000    0.0000    0.0000    0.9504   -0.0000    0.0000   -0.0154    0.1289
       37 FE2    4d0       -0.0213    0.0000    0.0000   -0.0000   -0.0000   -0.0908    0.0000   -0.0000   -0.0097    0.0167
       38 FE2    3d1+       0.0000   -0.3334    0.9177   -0.0000   -0.0000    0.0000    0.2102    0.0764   -0.0000   -0.0000
       39 FE2    4d1+      -0.0000    0.0331   -0.0910    0.0000    0.0000   -0.0000   -0.0465   -0.0169    0.0000    0.0000
       40 FE2    3d2+       0.0000   -0.0000   -0.0000   -0.1029    0.9885   -0.0000    0.0000   -0.0000    0.0000   -0.0000
       41 FE2    4d2+      -0.0000    0.0000    0.0000    0.0114   -0.1098    0.0000   -0.0000    0.0000   -0.0000   -0.0000
       42 FE2    4f3-      -0.0000    0.0000    0.0000    0.0000    0.0000   -0.0000    0.0000   -0.0000    0.0000    0.0000
       43 FE2    4f2-       0.0000    0.0000   -0.0000   -0.0020   -0.0002    0.0000    0.0000    0.0000   -0.0000   -0.0000
       44 FE2    4f1-      -0.0000    0.0004    0.0001   -0.0000    0.0000    0.0000   -0.0039    0.0108    0.0000   -0.0000
       45 FE2    4f0        0.0076   -0.0000   -0.0000   -0.0000   -0.0000   -0.0010    0.0000   -0.0000    0.0030   -0.0085
       46 FE2    4f1+       0.0000   -0.0001    0.0004   -0.0000   -0.0000    0.0000   -0.0108   -0.0039    0.0000    0.0000
       47 FE2    4f2+       0.0000    0.0000    0.0000    0.0002   -0.0020    0.0000   -0.0000    0.0000   -0.0000   -0.0000
       48 FE2    4f3+      -0.0000   -0.0000    0.0000   -0.0000    0.0000    0.0000    0.0000    0.0000   -0.0000   -0.0000
 
          Orbital           21        22        23        24    
          Energy           -0.3887   -0.3887   -0.2564   -0.1909
          Occ. No.          0.0000    0.0000    0.0000    0.0000
 
        1 O1     1s         0.0000    0.0000   -0.0817   -0.0874
        2 O1     2s         0.0000    0.0000   -0.6587   -0.6530
        3 O1     3s         0.0000    0.0000   -0.1876   -0.2205
        4 O1     2px        0.1080   -0.2971    0.0000   -0.0000
        5 O1     3px        0.0325   -0.0893    0.0000    0.0000
        6 O1     2py       -0.2971   -0.1080   -0.0000   -0.0000
        7 O1     3py       -0.0893   -0.0325   -0.0000   -0.0000
        8 O1     2pz        0.0000    0.0000    0.2419    0.6932
        9 O1     3pz        0.0000    0.0000    0.0947    0.3885
       10 O1     3d2-       0.0000   -0.0000   -0.0000   -0.0000
       11 O1     3d1-       0.0010    0.0004   -0.0000    0.0000
       12 O1     3d0       -0.0000   -0.0000   -0.0104   -0.0253
       13 O1     3d1+      -0.0004    0.0010   -0.0000    0.0000
       14 O1     3d2+       0.0000    0.0000   -0.0000   -0.0000
       15 FE2    1s         0.0000    0.0000    0.0038    0.0086
       16 FE2    2s         0.0000    0.0000    0.0272    0.0622
       17 FE2    3s         0.0000    0.0000    0.1382    0.2966
       18 FE2    4s         0.0000    0.0000    0.7394    0.5427
       19 FE2    5s         0.0000    0.0000    0.4621   -1.0013
       20 FE2    2px       -0.0005    0.0015   -0.0000    0.0000
       21 FE2    3px       -0.0128    0.0352   -0.0000    0.0000
       22 FE2    4px       -0.3685    1.0133   -0.0000    0.0000
       23 FE2    5px       -0.0240    0.0659   -0.0000    0.0000
       24 FE2    2py        0.0015    0.0005    0.0000    0.0000
       25 FE2    3py        0.0352    0.0128    0.0000    0.0000
       26 FE2    4py        1.0133    0.3685    0.0000    0.0000
       27 FE2    5py        0.0659    0.0240    0.0000    0.0000
       28 FE2    2pz        0.0000    0.0000    0.0064    0.0119
       29 FE2    3pz        0.0000    0.0000    0.1238    0.2023
       30 FE2    4pz       -0.0000   -0.0000    0.9293    0.7546
       31 FE2    5pz       -0.0000   -0.0000    0.0877    0.0959
       32 FE2    3d2-       0.0000   -0.0000   -0.0000   -0.0000
       33 FE2    4d2-      -0.0000    0.0000   -0.0000   -0.0000
       34 FE2    3d1-       0.0505    0.0184    0.0000    0.0000
       35 FE2    4d1-      -0.0458   -0.0167   -0.0000   -0.0000
       36 FE2    3d0        0.0000    0.0000    0.1318    0.1811
       37 FE2    4d0        0.0000    0.0000   -0.0893   -0.0433
       38 FE2    3d1+      -0.0184    0.0505   -0.0000   -0.0000
       39 FE2    4d1+       0.0167   -0.0458    0.0000    0.0000
       40 FE2    3d2+      -0.0000   -0.0000   -0.0000   -0.0000
       41 FE2    4d2+      -0.0000    0.0000   -0.0000   -0.0000
       42 FE2    4f3-      -0.0000   -0.0000    0.0000    0.0000
       43 FE2    4f2-      -0.0000    0.0000   -0.0000   -0.0000
       44 FE2    4f1-      -0.0038   -0.0014   -0.0000   -0.0000
       45 FE2    4f0       -0.0000   -0.0000   -0.0071   -0.0061
       46 FE2    4f1+       0.0014   -0.0038    0.0000    0.0000
       47 FE2    4f2+      -0.0000   -0.0000   -0.0000   -0.0000
       48 FE2    4f3+       0.0000   -0.0000   -0.0000   -0.0000
--
 
 
  Input file to MOLDEN was generated!
 
 
++    Static properties:
      ------------------
 
 
      LoProp Charges per center
 

                   O1       FE2   
      Nuclear      8.0000  26.0000
      Electronic  -8.2565 -23.7435
 
      Total       -0.2565   2.2565
--
 
 
      All orbitals with orbital energies smaller than  E(LUMO)+0.5 are printed
 
++    Molecular orbitals:
      -------------------
 
      Title: UHF orbitals (beta)

      Molecular orbitals for symmetry species 1: a  
 
          Orbital            1         2         3         4         5         6         7         8         9        10    
          Energy         -264.4683  -33.1717  -28.2423  -28.2398  -28.2398  -21.1919   -4.8647   -3.3532   -3.3229   -3.3229
          Occ. No.          1.0000    1.0000    1.0000    1.0000    1.0000    1.0000    1.0000    1.0000    1.0000    1.0000
 
        1 O1     1s        -0.0000   -0.0000   -0.0001    0.0000   -0.0000    1.0000   -0.0009   -0.0036    0.0000    0.0000
        2 O1     2s         0.0000   -0.0001   -0.0005    0.0000    0.0000    0.0005    0.0063    0.0413   -0.0000   -0.0000
        3 O1     3s         0.0000   -0.0001   -0.0004    0.0000   -0.0000   -0.0007   -0.0002   -0.0019    0.0000    0.0000
        4 O1     2px        0.0000   -0.0000   -0.0000   -0.0000    0.0001    0.0000   -0.0000    0.0000    0.0092   -0.0033
        5 O1     3px        0.0000    0.0000    0.0000   -0.0000    0.0001    0.0000    0.0000   -0.0000   -0.0003    0.0001
        6 O1     2py       -0.0000    0.0000    0.0000    0.0001    0.0000   -0.0000    0.0000    0.0000    0.0033    0.0092
        7 O1     3py        0.0000   -0.0000    0.0000    0.0001    0.0000    0.0000   -0.0000   -0.0000   -0.0001   -0.0003
        8 O1     2pz       -0.0000    0.0000    0.0004   -0.0000    0.0000   -0.0004   -0.0068   -0.0337    0.0000    0.0000
        9 O1     3pz       -0.0000    0.0000    0.0004   -0.0000    0.0000   -0.0002    0.0003    0.0057   -0.0000   -0.0000
       10 O1     3d2-      -0.0000    0.0000   -0.0000   -0.0000   -0.0000   -0.0000    0.0000   -0.0000    0.0000    0.0000
       11 O1     3d1-      -0.0000   -0.0000    0.0000    0.0000    0.0000   -0.0000    0.0000   -0.0000   -0.0008   -0.0023
       12 O1     3d0        0.0000    0.0000   -0.0001    0.0000   -0.0000    0.0008    0.0021    0.0080   -0.0000   -0.0000
       13 O1     3d1+      -0.0000    0.0000    0.0000   -0.0000    0.0000   -0.0000    0.0000   -0.0000   -0.0023    0.0008
       14 O1     3d2+      -0.0000    0.0000   -0.0000   -0.0000   -0.0000   -0.0000    0.0000   -0.0000   -0.0000    0.0000
       15 FE2    1s         1.0000    0.0000    0.0000   -0.0000    0.0000   -0.0000   -0.0000   -0.0002    0.0000    0.0000
       16 FE2    2s        -0.0000    1.0000   -0.0002   -0.0000   -0.0000   -0.0001    0.0006   -0.0010    0.0000    0.0000
       17 FE2    3s        -0.0000   -0.0009   -0.0000    0.0000   -0.0000   -0.0003    0.9983   -0.0002   -0.0000   -0.0000
       18 FE2    4s        -0.0000    0.0003    0.0006   -0.0000    0.0000   -0.0002    0.0001    0.0012    0.0000    0.0000
       19 FE2    5s         0.0000   -0.0002   -0.0003    0.0000   -0.0000    0.0002    0.0008   -0.0002   -0.0000   -0.0000
       20 FE2    2px       -0.0000    0.0000   -0.0000   -0.3456    0.9384    0.0000    0.0000   -0.0000    0.0027   -0.0010
       21 FE2    3px       -0.0000    0.0000    0.0000    0.0010   -0.0027    0.0000    0.0000    0.0000    0.9392   -0.3413
       22 FE2    4px       -0.0000    0.0000   -0.0000   -0.0001    0.0003   -0.0000   -0.0000   -0.0000   -0.0058    0.0021
       23 FE2    5px        0.0000    0.0000    0.0000    0.0004   -0.0010    0.0000    0.0000    0.0000   -0.0001    0.0001
       24 FE2    2py        0.0000    0.0000    0.0000    0.9384    0.3456    0.0000   -0.0000    0.0000    0.0010    0.0027
       25 FE2    3py        0.0000    0.0000   -0.0000   -0.0027   -0.0010   -0.0000    0.0000    0.0000    0.3413    0.9392
       26 FE2    4py        0.0000   -0.0000    0.0000    0.0003    0.0001   -0.0000   -0.0000   -0.0000   -0.0021   -0.0058
       27 FE2    5py       -0.0000    0.0000   -0.0000   -0.0010   -0.0004   -0.0000   -0.0000    0.0000   -0.0001   -0.0001
       28 FE2    2pz        0.0000    0.0002    1.0000   -0.0000    0.0000   -0.0000    0.0002    0.0023   -0.0000   -0.0000
       29 FE2    3pz        0.0000   -0.0002   -0.0025    0.0000   -0.0000   -0.0002   -0.0090    0.9900   -0.0000   -0.0000
       30 FE2    4pz       -0.0000    0.0001    0.0008   -0.0000    0.0000   -0.0001    0.0003   -0.0015   -0.0000   -0.0000
       31 FE2    5pz        0.0000   -0.0001   -0.0012    0.0000   -0.0000    0.0002    0.0006   -0.0026    0.0000    0.0000
       32 FE2    3d2-       0.0000    0.0000   -0.0000   -0.0000    0.0000    0.0000    0.0000   -0.0000    0.0000   -0.0000
       33 FE2    4d2-       0.0000    0.0000    0.0000   -0.0000   -0.0000    0.0000    0.0000    0.0000    0.0000    0.0000
       34 FE2    3d1-      -0.0000    0.0000    0.0000   -0.0000   -0.0000   -0.0000    0.0000    0.0000   -0.0027   -0.0075
       35 FE2    4d1-      -0.0000   -0.0000   -0.0000   -0.0000   -0.0000   -0.0000   -0.0000   -0.0000    0.0006    0.0015
       36 FE2    3d0       -0.0000    0.0001    0.0002   -0.0000   -0.0000   -0.0000   -0.0009   -0.0059    0.0000    0.0000
       37 FE2    4d0       -0.0000    0.0000    0.0001   -0.0000    0.0000   -0.0001    0.0019    0.0039   -0.0000   -0.0000
       38 FE2    3d1+      -0.0000    0.0000    0.0000    0.0000   -0.0000   -0.0000    0.0000    0.0000   -0.0075    0.0027
       39 FE2    4d1+      -0.0000    0.0000    0.0000    0.0000   -0.0000   -0.0000   -0.0000   -0.0000    0.0015   -0.0006
       40 FE2    3d2+       0.0000    0.0000   -0.0000   -0.0000   -0.0000    0.0000    0.0000   -0.0000   -0.0000   -0.0000
       41 FE2    4d2+       0.0000    0.0000    0.0000    0.0000    0.0000    0.0000    0.0000    0.0000   -0.0000   -0.0000
       42 FE2    4f3-       0.0000   -0.0000    0.0000   -0.0000   -0.0000   -0.0000    0.0000   -0.0000   -0.0000   -0.0000
       43 FE2    4f2-       0.0000   -0.0000    0.0000   -0.0000    0.0000    0.0000   -0.0000    0.0000    0.0000   -0.0000
       44 FE2    4f1-      -0.0000    0.0000   -0.0000    0.0001    0.0000   -0.0000    0.0000   -0.0000    0.0008    0.0021
       45 FE2    4f0        0.0000    0.0000   -0.0001   -0.0000   -0.0000   -0.0001    0.0005   -0.0014   -0.0000   -0.0000
       46 FE2    4f1+      -0.0000    0.0000   -0.0000   -0.0000    0.0001    0.0000    0.0000    0.0000    0.0021   -0.0008
       47 FE2    4f2+       0.0000   -0.0000    0.0000   -0.0000   -0.0000    0.0000   -0.0000    0.0000   -0.0000   -0.0000
       48 FE2    4f3+      -0.0000    0.0000    0.0000    0.0000   -0.0000   -0.0000   -0.0000   -0.0000   -0.0000    0.0000
 
          Orbital           11        12        13        14        15        16        17        18        19        20    
          Energy           -1.8629   -1.2552   -1.0609   -1.0609   -0.5498   -0.5231   -0.5231   -0.4943   -0.4943   -0.4620
          Occ. No.          1.0000    1.0000    1.0000    1.0000    0.0000    0.0000    0.0000    0.0000    0.0000    0.0000
 
        1 O1     1s        -0.0061   -0.0176    0.0000    0.0000    0.0108    0.0000    0.0000   -0.0000   -0.0000   -0.0011
        2 O1     2s         0.9496   -0.2682    0.0000    0.0000    0.1268    0.0000    0.0000   -0.0000   -0.0000   -0.0564
        3 O1     3s        -0.0039   -0.0125    0.0000    0.0000    0.0196    0.0000    0.0000   -0.0000   -0.0000   -0.0042
        4 O1     2px        0.0000    0.0000   -0.2612    0.7188    0.0000   -0.5074    0.1843    0.0000    0.0000    0.0000
        5 O1     3px       -0.0000   -0.0000    0.0062   -0.0172   -0.0000   -0.0805    0.0292    0.0000   -0.0000    0.0000
        6 O1     2py       -0.0000    0.0000    0.7188    0.2612    0.0000   -0.1843   -0.5074    0.0000   -0.0000   -0.0000
        7 O1     3py        0.0000   -0.0000   -0.0172   -0.0062    0.0000   -0.0292   -0.0805    0.0000   -0.0000   -0.0000
        8 O1     2pz       -0.1151   -0.9000    0.0000    0.0000   -0.0265   -0.0000   -0.0000    0.0000    0.0000    0.2985
        9 O1     3pz       -0.0321    0.0584   -0.0000   -0.0000   -0.0072   -0.0000   -0.0000    0.0000    0.0000    0.0561
       10 O1     3d2-      -0.0000    0.0000    0.0000   -0.0000    0.0000    0.0000   -0.0000    0.0097    0.0001   -0.0000
       11 O1     3d1-      -0.0000    0.0000   -0.0379   -0.0138   -0.0000   -0.0026   -0.0071   -0.0000   -0.0000   -0.0000
       12 O1     3d0        0.0486    0.0244   -0.0000   -0.0000    0.0132    0.0000    0.0000    0.0000    0.0000    0.0145
       13 O1     3d1+      -0.0000    0.0000    0.0138   -0.0379    0.0000   -0.0071    0.0026    0.0000    0.0000   -0.0000
       14 O1     3d2+      -0.0000    0.0000    0.0000    0.0000    0.0000   -0.0000   -0.0000   -0.0001    0.0097   -0.0000
       15 FE2    1s        -0.0022   -0.0026    0.0000    0.0000   -0.0005   -0.0000   -0.0000    0.0000    0.0000    0.0017
       16 FE2    2s        -0.0166   -0.0189    0.0000    0.0000   -0.0035   -0.0000   -0.0000    0.0000    0.0000    0.0125
       17 FE2    3s        -0.1038   -0.1020    0.0000    0.0000   -0.0189   -0.0000   -0.0000    0.0000    0.0000    0.0628
       18 FE2    4s         0.0090    0.0836   -0.0000   -0.0000   -0.9030   -0.0000   -0.0000    0.0000    0.0000    0.3003
       19 FE2    5s        -0.0096   -0.0352    0.0000    0.0000    0.1905    0.0000    0.0000   -0.0000   -0.0000   -0.0318
       20 FE2    2px       -0.0000    0.0000    0.0006   -0.0018   -0.0000    0.0016   -0.0006   -0.0000   -0.0000   -0.0000
       21 FE2    3px       -0.0000   -0.0000    0.0136   -0.0375   -0.0000    0.0374   -0.0136   -0.0000   -0.0000    0.0000
       22 FE2    4px       -0.0000    0.0000   -0.0317    0.0872   -0.0000   -0.1927    0.0700    0.0000    0.0000   -0.0000
       23 FE2    5px       -0.0000    0.0000    0.0039   -0.0107   -0.0000   -0.0103    0.0037    0.0000    0.0000   -0.0000
       24 FE2    2py       -0.0000   -0.0000   -0.0018   -0.0006   -0.0000    0.0006    0.0016   -0.0000    0.0000    0.0000
       25 FE2    3py       -0.0000   -0.0000   -0.0375   -0.0136   -0.0000    0.0136    0.0374   -0.0000    0.0000    0.0000
       26 FE2    4py       -0.0000    0.0000    0.0872    0.0317    0.0000   -0.0700   -0.1927    0.0000   -0.0000   -0.0000
       27 FE2    5py       -0.0000   -0.0000   -0.0107   -0.0039    0.0000   -0.0037   -0.0103    0.0000   -0.0000   -0.0000
       28 FE2    2pz       -0.0053   -0.0056    0.0000    0.0000   -0.0010   -0.0000   -0.0000    0.0000    0.0000    0.0029
       29 FE2    3pz       -0.1499   -0.1159    0.0000    0.0000   -0.0141   -0.0000   -0.0000    0.0000    0.0000    0.0553
       30 FE2    4pz        0.0282    0.0690   -0.0000   -0.0000    0.1530    0.0000    0.0000   -0.0000   -0.0000   -0.5823
       31 FE2    5pz       -0.0090   -0.0129    0.0000    0.0000    0.0068    0.0000    0.0000   -0.0000   -0.0000   -0.0423
       32 FE2    3d2-       0.0000    0.0000   -0.0000    0.0000    0.0000    0.0000   -0.0000    0.9834    0.0115   -0.0000
       33 FE2    4d2-      -0.0000    0.0000   -0.0000    0.0000    0.0000    0.0000   -0.0000    0.1765    0.0021   -0.0000
       34 FE2    3d1-      -0.0000    0.0000    0.4420    0.1606   -0.0000    0.2976    0.8190   -0.0000    0.0000    0.0000
       35 FE2    4d1-       0.0000    0.0000    0.0721    0.0262   -0.0000    0.0395    0.1087   -0.0000    0.0000    0.0000
       36 FE2    3d0        0.1106    0.2646   -0.0000   -0.0000    0.4073    0.0000    0.0000    0.0000    0.0000    0.7254
       37 FE2    4d0        0.0137    0.0357   -0.0000   -0.0000    0.0673    0.0000    0.0000    0.0000    0.0000    0.1257
       38 FE2    3d1+       0.0000    0.0000   -0.1606    0.4420   -0.0000    0.8190   -0.2976   -0.0000   -0.0000   -0.0000
       39 FE2    4d1+       0.0000    0.0000   -0.0262    0.0721   -0.0000    0.1087   -0.0395   -0.0000   -0.0000   -0.0000
       40 FE2    3d2+       0.0000    0.0000   -0.0000   -0.0000    0.0000   -0.0000   -0.0000   -0.0115    0.9834   -0.0000
       41 FE2    4d2+      -0.0000    0.0000   -0.0000   -0.0000    0.0000   -0.0000   -0.0000   -0.0021    0.1765   -0.0000
       42 FE2    4f3-      -0.0000   -0.0000    0.0000    0.0000   -0.0000   -0.0000   -0.0000    0.0000    0.0000    0.0000
       43 FE2    4f2-       0.0000    0.0000   -0.0000    0.0000   -0.0000    0.0000   -0.0000   -0.0020   -0.0000    0.0000
       44 FE2    4f1-      -0.0000    0.0000    0.0143    0.0052    0.0000   -0.0029   -0.0081    0.0000   -0.0000    0.0000
       45 FE2    4f0        0.0085    0.0130   -0.0000   -0.0000    0.0012    0.0000    0.0000   -0.0000   -0.0000   -0.0053
       46 FE2    4f1+       0.0000   -0.0000   -0.0052    0.0143    0.0000   -0.0081    0.0029    0.0000   -0.0000    0.0000
       47 FE2    4f2+       0.0000    0.0000   -0.0000   -0.0000   -0.0000   -0.0000   -0.0000    0.0000   -0.0020    0.0000
       48 FE2    4f3+      -0.0000    0.0000   -0.0000    0.0000    0.0000   -0.0000    0.0000   -0.0000    0.0000   -0.0000
 
          Orbital           21        22        23        24    
          Energy           -0.3493   -0.3493   -0.2302   -0.1567
          Occ. No.          0.0000    0.0000    0.0000    0.0000
 
        1 O1     1s        -0.0000   -0.0000   -0.0570   -0.1354
        2 O1     2s        -0.0000   -0.0000   -0.4656   -1.0643
        3 O1     3s        -0.0000   -0.0000   -0.1225   -0.3272
        4 O1     2px        0.1703   -0.4686    0.0000    0.0000
        5 O1     3px        0.0491   -0.1352    0.0000    0.0000
        6 O1     2py       -0.4686   -0.1703   -0.0000    0.0000
        7 O1     3py       -0.1352   -0.0491   -0.0000    0.0000
        8 O1     2pz       -0.0000   -0.0000    0.0606    0.6700
        9 O1     3pz       -0.0000   -0.0000    0.0264    0.4213
       10 O1     3d2-      -0.0000    0.0000    0.0000    0.0000
       11 O1     3d1-      -0.0050   -0.0018    0.0000    0.0000
       12 O1     3d0        0.0000    0.0000   -0.0077   -0.0263
       13 O1     3d1+       0.0018   -0.0050    0.0000    0.0000
       14 O1     3d2+      -0.0000   -0.0000    0.0000    0.0000
       15 FE2    1s        -0.0000    0.0000    0.0018    0.0100
       16 FE2    2s        -0.0000    0.0000    0.0131    0.0715
       17 FE2    3s        -0.0000    0.0000    0.0688    0.3457
       18 FE2    4s        -0.0000   -0.0000    0.5256    0.8541
       19 FE2    5s        -0.0000    0.0000    0.7793   -0.7989
       20 FE2    2px       -0.0005    0.0014   -0.0000   -0.0000
       21 FE2    3px       -0.0149    0.0411   -0.0000   -0.0000
       22 FE2    4px       -0.3660    1.0069   -0.0000   -0.0000
       23 FE2    5px       -0.0323    0.0890   -0.0000   -0.0000
       24 FE2    2py        0.0014    0.0005    0.0000   -0.0000
       25 FE2    3py        0.0411    0.0149    0.0000   -0.0000
       26 FE2    4py        1.0069    0.3660    0.0000   -0.0000
       27 FE2    5py        0.0890    0.0323    0.0000   -0.0000
       28 FE2    2pz       -0.0000   -0.0000    0.0032    0.0142
       29 FE2    3pz       -0.0000    0.0000    0.0681    0.2524
       30 FE2    4pz       -0.0000    0.0000    0.5901    1.0729
       31 FE2    5pz       -0.0000    0.0000    0.0567    0.1222
       32 FE2    3d2-       0.0000   -0.0000   -0.0000   -0.0000
       33 FE2    4d2-       0.0000   -0.0000   -0.0000   -0.0000
       34 FE2    3d1-       0.2318    0.0843    0.0000    0.0000
       35 FE2    4d1-      -0.0009   -0.0003    0.0000    0.0000
       36 FE2    3d0        0.0000    0.0000    0.2564    0.5319
       37 FE2    4d0        0.0000    0.0000    0.0136    0.0704
       38 FE2    3d1+      -0.0843    0.2318   -0.0000   -0.0000
       39 FE2    4d1+       0.0003   -0.0009    0.0000    0.0000
       40 FE2    3d2+       0.0000    0.0000   -0.0000   -0.0000
       41 FE2    4d2+       0.0000    0.0000   -0.0000   -0.0000
       42 FE2    4f3-      -0.0000   -0.0000    0.0000   -0.0000
       43 FE2    4f2-      -0.0000    0.0000    0.0000    0.0000
       44 FE2    4f1-      -0.0047   -0.0017   -0.0000    0.0000
       45 FE2    4f0        0.0000    0.0000   -0.0050   -0.0090
       46 FE2    4f1+       0.0017   -0.0047    0.0000    0.0000
       47 FE2    4f2+      -0.0000   -0.0000    0.0000    0.0000
       48 FE2    4f3+       0.0000   -0.0000    0.0000   -0.0000
--
 
 
++    Molecular charges:
      ------------------
 
      Mulliken charges per centre and basis function type
      ---------------------------------------------------
 
                            O1                      FE2   
                     alpha        beta       alpha        beta
      1s           0.9999      1.0000      1.0000      1.0000
      2s           0.9679      0.9718      1.0000      1.0000
      2px          0.9699      0.6713      1.0000      1.0000
      2pz          0.0298      0.8584      1.0000      1.0000
      2py          0.9699      0.6713      1.0000      1.0000
      3s           0.0011     -0.0004      0.9993      0.9996
      3px         -0.0013     -0.0020      0.9991      0.9993
      3pz          0.0020      0.0045      0.9979      0.9980
      3py         -0.0013     -0.0020      0.9991      0.9993
      4s           0.0000      0.0000      0.0026      0.0125
      3d2+         0.0000      0.0000      0.9878      0.0000
      3d1+         0.0018      0.0059      0.9862      0.2727
      3d0          0.0026      0.0032      0.9680      0.1186
      3d1-         0.0018      0.0059      0.9862      0.2727
      3d2-         0.0000      0.0000      0.9878      0.0000
      4px          0.0000      0.0000      0.0188      0.0268
      4pz          0.0000      0.0000      0.0098      0.0158
      4py          0.0000      0.0000      0.0188      0.0268
      5s           0.0000      0.0000      0.0015      0.0084
      4d2+         0.0000      0.0000      0.0122      0.0000
      4d1+         0.0000      0.0000      0.0241      0.0243
      4d0          0.0000      0.0000      0.0165      0.0044
      4d1-         0.0000      0.0000      0.0241      0.0243
      4d2-         0.0000      0.0000      0.0122      0.0000
      5px          0.0000      0.0000     -0.0000     -0.0001
      5pz          0.0000      0.0000      0.0001      0.0034
      5py          0.0000      0.0000     -0.0000     -0.0001
      4f3+         0.0000      0.0000      0.0000      0.0000
      4f2+         0.0000      0.0000      0.0000      0.0000
      4f1+         0.0000      0.0000      0.0015      0.0017
      4f0          0.0000      0.0000      0.0010      0.0019
      4f1-         0.0000      0.0000      0.0015      0.0017
      4f2-         0.0000      0.0000      0.0000      0.0000
      4f3-         0.0000      0.0000      0.0000      0.0000
      Total        3.9443      4.1882     14.0557      9.8118
      Total              8.1324                 23.8676
 
      Charge           -0.1324                  2.1324
 
      Total electronic charge=   32.000000
 
      Total            charge=    2.000000
--
 
 
  Input file to MOLDEN was generated!
 
 
++    Static properties:
      ------------------
 
 
      LoProp Charges per center
 

                   O1       FE2   
      Nuclear      8.0000  26.0000
      Electronic  -8.2565 -23.7435
 
      Total       -0.2565   2.2565
--
 
 
++    Natural Bond Order analysis
      ---------------------------
      Based on LoProp computed density
      -------------------------------------------------------------------------------------
      Atom A       Atom B       Bond Order
        O1           FE2            1.992
      -------------------------------------------------------------------------------------
      NBO located     19.999 core electrons.
      NBO located      1.934 lone pair electrons.
      NBO located      3.985 electrons involved in    1 bonds.
      NBO located      1.000 non-bonded electrons on atom FE2       
      NBO located      1.000 non-bonded electrons on atom FE2       
      The remaining    4.082 electrons are to be considered as diffuse
--
 
 
++    Molecular orbitals:
      -------------------
 
      Title: Natural orbitals

      Molecular orbitals for symmetry species 1: a  
 
          Orbital            1         2         3         4         5         6         7         8         9        10    
          Energy         -264.4697  -32.6340  -21.5458  -27.7590  -27.7578  -27.3235   -5.8135   -4.1255   -4.1268   -4.0124
          Occ. No.          2.0000    2.0000    2.0000    2.0000    2.0000    2.0000    2.0000    1.9999    1.9999    1.9999
 
        1 O1     1s        -0.0000   -0.0527    0.9722    0.0000    0.0000    0.2178   -0.0625   -0.0000   -0.0000    0.0174
        2 O1     2s         0.0000    0.0021   -0.0263    0.0000    0.0000   -0.0171   -0.0345   -0.0000   -0.0000    0.1210
        3 O1     3s         0.0000   -0.0000   -0.0007   -0.0000    0.0000   -0.0003    0.0005   -0.0000   -0.0000    0.0004
        4 O1     2px        0.0000    0.0000    0.0000   -0.0008    0.0022    0.0000    0.0000    0.0111   -0.0306   -0.0000
        5 O1     3px        0.0000    0.0000    0.0000    0.0001   -0.0003   -0.0000   -0.0000   -0.0009    0.0025    0.0000
        6 O1     2py       -0.0000   -0.0000   -0.0000    0.0022    0.0008    0.0000    0.0000   -0.0306   -0.0111   -0.0000
        7 O1     3py        0.0000    0.0000    0.0000   -0.0003   -0.0001   -0.0000   -0.0000    0.0025    0.0009    0.0000
        8 O1     2pz       -0.0000   -0.0001    0.0039    0.0000   -0.0000    0.0021    0.0046    0.0000    0.0000   -0.0170
        9 O1     3pz       -0.0000   -0.0001    0.0007   -0.0000   -0.0000    0.0012    0.0009    0.0000    0.0000   -0.0080
       10 O1     3d2-      -0.0000   -0.0000   -0.0000   -0.0000    0.0000    0.0000    0.0000    0.0000    0.0000   -0.0000
       11 O1     3d1-      -0.0000    0.0000    0.0000    0.0001    0.0000   -0.0000   -0.0000    0.0003    0.0001    0.0000
       12 O1     3d0        0.0000   -0.0001   -0.0007   -0.0000   -0.0000    0.0000   -0.0001    0.0000    0.0000   -0.0002
       13 O1     3d1+      -0.0000   -0.0000    0.0000   -0.0000    0.0001   -0.0000   -0.0000   -0.0001    0.0003    0.0000
       14 O1     3d2+      -0.0000   -0.0000   -0.0000   -0.0000   -0.0000    0.0000    0.0000    0.0000    0.0000   -0.0000
       15 FE2    1s         1.0000   -0.0000    0.0001    0.0000    0.0000    0.0000   -0.0000    0.0000    0.0000   -0.0003
       16 FE2    2s         0.0000    0.9881    0.0636    0.0000    0.0000   -0.0031    0.1406   -0.0000   -0.0000    0.0008
       17 FE2    3s         0.0001   -0.1415    0.0363   -0.0000   -0.0000    0.0951    0.9865    0.0000    0.0000   -0.0443
       18 FE2    4s        -0.0000    0.0003   -0.0002    0.0000    0.0000   -0.0007   -0.0030   -0.0000   -0.0000    0.0042
       19 FE2    5s         0.0000   -0.0004    0.0003   -0.0000   -0.0000    0.0006    0.0032    0.0000    0.0000   -0.0031
       20 FE2    2px       -0.0000    0.0000    0.0000   -0.3379    0.9291    0.0000   -0.0000   -0.0513    0.1412    0.0000
       21 FE2    3px        0.0000   -0.0000   -0.0000    0.0513   -0.1412   -0.0000   -0.0000   -0.3376    0.9289    0.0000
       22 FE2    4px       -0.0000    0.0000    0.0000   -0.0007    0.0020    0.0000    0.0000    0.0053   -0.0146   -0.0000
       23 FE2    5px        0.0000   -0.0000   -0.0000    0.0003   -0.0007   -0.0000    0.0000   -0.0021    0.0057    0.0000
       24 FE2    2py       -0.0000    0.0000   -0.0000    0.9292    0.3378    0.0000    0.0000    0.1410    0.0513    0.0000
       25 FE2    3py        0.0000   -0.0000    0.0000   -0.1410   -0.0513   -0.0000    0.0000    0.9289    0.3376    0.0000
       26 FE2    4py       -0.0000   -0.0000   -0.0000    0.0020    0.0007    0.0000    0.0000   -0.0146   -0.0053   -0.0000
       27 FE2    5py       -0.0000    0.0000    0.0000   -0.0007   -0.0003   -0.0000   -0.0000    0.0057    0.0021    0.0000
       28 FE2    2pz       -0.0000   -0.0277    0.2213    0.0000    0.0000   -0.9620    0.0750    0.0000    0.0000   -0.1385
       29 FE2    3pz       -0.0000    0.0108   -0.0171   -0.0000   -0.0000    0.1350   -0.0448    0.0000    0.0000   -0.9927
       30 FE2    4pz       -0.0000    0.0002   -0.0004    0.0000    0.0000   -0.0021   -0.0021   -0.0000   -0.0000    0.0151
       31 FE2    5pz        0.0000   -0.0002    0.0002   -0.0000   -0.0000    0.0009    0.0015    0.0000    0.0000   -0.0061
       32 FE2    3d2-       0.0000   -0.0000   -0.0000    0.0000   -0.0000   -0.0000    0.0000   -0.0000    0.0000    0.0000
       33 FE2    4d2-       0.0000   -0.0000    0.0000   -0.0000   -0.0000    0.0000    0.0000    0.0000   -0.0000   -0.0000
       34 FE2    3d1-      -0.0000   -0.0000   -0.0000    0.0034    0.0012    0.0000    0.0000   -0.0327   -0.0119   -0.0000
       35 FE2    4d1-      -0.0000   -0.0000   -0.0000    0.0002    0.0001    0.0000    0.0000   -0.0018   -0.0007   -0.0000
       36 FE2    3d0       -0.0000    0.0006   -0.0030    0.0000    0.0000   -0.0051   -0.0078   -0.0000   -0.0000    0.0365
       37 FE2    4d0        0.0000   -0.0000   -0.0001   -0.0000   -0.0000    0.0001    0.0005   -0.0000   -0.0000    0.0002
       38 FE2    3d1+      -0.0000    0.0000    0.0000   -0.0012    0.0034    0.0000    0.0000    0.0119   -0.0327   -0.0000
       39 FE2    4d1+      -0.0000    0.0000    0.0000   -0.0001    0.0002    0.0000   -0.0000    0.0007   -0.0018   -0.0000
       40 FE2    3d2+       0.0000   -0.0000   -0.0000    0.0000    0.0000   -0.0000    0.0000   -0.0000   -0.0000    0.0000
       41 FE2    4d2+       0.0000   -0.0000    0.0000   -0.0000    0.0000    0.0000    0.0000    0.0000    0.0000   -0.0000
       42 FE2    4f3-       0.0000   -0.0000   -0.0000    0.0000    0.0000   -0.0000    0.0000   -0.0000   -0.0000    0.0000
       43 FE2    4f2-       0.0000    0.0000    0.0000    0.0000   -0.0000    0.0000   -0.0000   -0.0000    0.0000   -0.0000
       44 FE2    4f1-      -0.0000   -0.0000    0.0000    0.0001    0.0000    0.0000    0.0000   -0.0004   -0.0001   -0.0000
       45 FE2    4f0        0.0000   -0.0000   -0.0002    0.0000    0.0000   -0.0002    0.0001   -0.0000   -0.0000    0.0026
       46 FE2    4f1+      -0.0000    0.0000    0.0000   -0.0000    0.0001    0.0000    0.0000    0.0001   -0.0004   -0.0000
       47 FE2    4f2+       0.0000    0.0000    0.0000    0.0000    0.0000    0.0000   -0.0000   -0.0000   -0.0000   -0.0000
       48 FE2    4f3+      -0.0000    0.0000    0.0000   -0.0000    0.0000   -0.0000   -0.0000    0.0000   -0.0000    0.0000
 
          Orbital           11        12        13        14        15        16        17        18        19        20    
          Energy           -1.9171   -1.1758   -1.1758   -1.0828   -0.9121   -0.9121   -0.9674   -0.9674   -0.6869    0.2975
          Occ. No.          1.9981    1.9925    1.9925    1.4097    1.0000    1.0000    1.0000    1.0000    0.5903    0.0075
 
        1 O1     1s        -0.0210    0.0000    0.0000   -0.0228    0.0000    0.0000    0.0000    0.0000    0.0028    0.0000
        2 O1     2s        -0.9384    0.0000    0.0000   -0.3502    0.0000    0.0000    0.0000    0.0000   -0.0117    0.0000
        3 O1     3s         0.0041    0.0000    0.0000   -0.0362    0.0000    0.0000    0.0000    0.0000    0.0333    0.0000
        4 O1     2px        0.0000   -0.2709    0.7456    0.0000    0.1823   -0.5017    0.0000   -0.0000    0.0000   -0.4247
        5 O1     3px        0.0000    0.0112   -0.0308   -0.0000    0.0033   -0.0091    0.0000   -0.0000   -0.0000    0.2218
        6 O1     2py        0.0000    0.7456    0.2709    0.0000   -0.5017   -0.1823    0.0000   -0.0000    0.0000   -0.1543
        7 O1     3py       -0.0000   -0.0308   -0.0112   -0.0000   -0.0091   -0.0033    0.0000   -0.0000   -0.0000    0.0806
        8 O1     2pz        0.1467    0.0000    0.0000   -0.5594   -0.0000   -0.0000    0.0000    0.0000   -0.7846   -0.0000
        9 O1     3pz        0.0211   -0.0000   -0.0000    0.0553   -0.0000   -0.0000   -0.0000   -0.0000    0.0242    0.0000
       10 O1     3d2-       0.0000    0.0000   -0.0000    0.0000    0.0000    0.0000    0.0002    0.0000    0.0000   -0.0000
       11 O1     3d1-      -0.0000   -0.0342   -0.0124   -0.0000    0.0162    0.0059   -0.0000    0.0000    0.0000   -0.0225
       12 O1     3d0       -0.0198   -0.0000   -0.0000    0.0239    0.0000    0.0000   -0.0000   -0.0000    0.0051    0.0000
       13 O1     3d1+      -0.0000    0.0124   -0.0342    0.0000   -0.0059    0.0162   -0.0000    0.0000   -0.0000   -0.0620
       14 O1     3d2+       0.0000    0.0000    0.0000    0.0000   -0.0000   -0.0000   -0.0000    0.0002    0.0000    0.0000
       15 FE2    1s         0.0021    0.0000    0.0000   -0.0011   -0.0000   -0.0000   -0.0000   -0.0000   -0.0030   -0.0000
       16 FE2    2s         0.0113    0.0000    0.0000   -0.0076   -0.0000   -0.0000   -0.0000   -0.0000   -0.0215   -0.0000
       17 FE2    3s         0.0457    0.0000    0.0000   -0.0363   -0.0000   -0.0000   -0.0000   -0.0000   -0.1133   -0.0000
       18 FE2    4s        -0.0106   -0.0000   -0.0000    0.0560    0.0000    0.0000   -0.0000   -0.0000    0.0667    0.0000
       19 FE2    5s         0.0107    0.0000    0.0000   -0.0179   -0.0000   -0.0000    0.0000    0.0000   -0.0364   -0.0000
       20 FE2    2px        0.0000   -0.0006    0.0016    0.0000   -0.0005    0.0013   -0.0000    0.0000   -0.0000   -0.0005
       21 FE2    3px       -0.0000   -0.0058    0.0160    0.0000   -0.0126    0.0347   -0.0000    0.0000   -0.0000   -0.0002
       22 FE2    4px        0.0000   -0.0242    0.0665    0.0000    0.0120   -0.0332    0.0000   -0.0000    0.0000    0.3321
       23 FE2    5px        0.0000    0.0029   -0.0080    0.0000   -0.0053    0.0147   -0.0000    0.0000   -0.0000   -0.0438
       24 FE2    2py       -0.0000    0.0016    0.0006   -0.0000    0.0013    0.0005   -0.0000    0.0000   -0.0000   -0.0002
       25 FE2    3py       -0.0000    0.0160    0.0058   -0.0000    0.0347    0.0126   -0.0000    0.0000   -0.0000   -0.0001
       26 FE2    4py        0.0000    0.0665    0.0242    0.0000   -0.0332   -0.0120    0.0000   -0.0000    0.0000    0.1207
       27 FE2    5py       -0.0000   -0.0080   -0.0029   -0.0000    0.0147    0.0053   -0.0000    0.0000   -0.0000   -0.0159
       28 FE2    2pz       -0.0048    0.0000    0.0000   -0.0020   -0.0000   -0.0000    0.0000    0.0000   -0.0057   -0.0000
       29 FE2    3pz       -0.0353    0.0000    0.0000   -0.0240   -0.0000   -0.0000    0.0000    0.0000   -0.1127   -0.0000
       30 FE2    4pz       -0.0239   -0.0000   -0.0000    0.0440    0.0000    0.0000   -0.0000   -0.0000    0.0570    0.0000
       31 FE2    5pz        0.0089    0.0000    0.0000   -0.0025   -0.0000   -0.0000    0.0000    0.0000   -0.0196    0.0000
       32 FE2    3d2-      -0.0000   -0.0000    0.0000    0.0000    0.0000    0.0000    0.9885    0.1029   -0.0000    0.0000
       33 FE2    4d2-       0.0000    0.0000    0.0000   -0.0000   -0.0000   -0.0000   -0.1098   -0.0114    0.0000    0.0000
       34 FE2    3d1-       0.0000    0.4363    0.1585    0.0000    0.8369    0.3040   -0.0000    0.0000   -0.0000    0.0319
       35 FE2    4d1-       0.0000    0.0244    0.0089   -0.0000   -0.0996   -0.0362    0.0000   -0.0000    0.0000    0.2823
       36 FE2    3d0       -0.1161   -0.0000   -0.0000    0.7424   -0.0000   -0.0000   -0.0000   -0.0000   -0.6682   -0.0000
       37 FE2    4d0       -0.0050   -0.0000   -0.0000   -0.0345    0.0000    0.0000    0.0000    0.0000    0.1182   -0.0000
       38 FE2    3d1+       0.0000   -0.1585    0.4363    0.0000   -0.3040    0.8369   -0.0000    0.0000   -0.0000    0.0878
       39 FE2    4d1+       0.0000   -0.0089    0.0244   -0.0000    0.0362   -0.0996    0.0000   -0.0000    0.0000    0.7771
       40 FE2    3d2+      -0.0000   -0.0000   -0.0000    0.0000   -0.0000   -0.0000   -0.1029    0.9885   -0.0000   -0.0000
       41 FE2    4d2+       0.0000   -0.0000   -0.0000   -0.0000    0.0000    0.0000    0.0114   -0.1098    0.0000   -0.0000
       42 FE2    4f3-       0.0000    0.0000    0.0000   -0.0000    0.0000    0.0000    0.0000    0.0000   -0.0000    0.0000
       43 FE2    4f2-      -0.0000   -0.0000    0.0000    0.0000   -0.0000   -0.0000   -0.0020   -0.0002    0.0000    0.0000
       44 FE2    4f1-       0.0000    0.0114    0.0041    0.0000   -0.0067   -0.0024    0.0000   -0.0000    0.0000    0.0178
       45 FE2    4f0       -0.0080   -0.0000   -0.0000    0.0077    0.0000    0.0000   -0.0000   -0.0000    0.0113   -0.0000
       46 FE2    4f1+       0.0000   -0.0041    0.0114    0.0000    0.0024   -0.0067    0.0000   -0.0000    0.0000    0.0491
       47 FE2    4f2+      -0.0000   -0.0000   -0.0000    0.0000    0.0000    0.0000    0.0002   -0.0020    0.0000   -0.0000
       48 FE2    4f3+       0.0000   -0.0000    0.0000    0.0000   -0.0000    0.0000   -0.0000    0.0000    0.0000    0.0000
 
          Orbital           21        22        23        24        25        26        27        28        29        30    
          Energy            0.2975    1.6511    1.2178    1.0796    1.0796   -0.1171    1.2440    1.3515    1.3515    1.0216
          Occ. No.          0.0075    0.0019    0.0001    0.0001    0.0001    0.0000    0.0000    0.0000    0.0000    0.0000
 
        1 O1     1s         0.0000   -0.0350   -0.0499    0.0000    0.0000    0.0939   -0.0447   -0.0000   -0.0000    0.1949
        2 O1     2s         0.0000   -0.2129   -0.4441    0.0000    0.0000    0.7586   -0.4174   -0.0000   -0.0000    1.2810
        3 O1     3s         0.0000   -0.0149   -0.0385    0.0000    0.0000    0.1672   -0.8599   -0.0000   -0.0000    0.6367
        4 O1     2px        0.1543    0.0000    0.0000    0.1522   -0.0552   -0.0000    0.0000    0.1389   -0.3843    0.0000
        5 O1     3px       -0.0806    0.0000    0.0000    0.2478   -0.0899   -0.0000    0.0000    0.2811   -0.7780    0.0000
        6 O1     2py       -0.4247    0.0000    0.0000    0.0552    0.1522   -0.0000    0.0000   -0.3843   -0.1389    0.0000
        7 O1     3py        0.2218   -0.0000    0.0000    0.0899    0.2478   -0.0000    0.0000   -0.7780   -0.2811    0.0000
        8 O1     2pz       -0.0000    0.0346    0.3995   -0.0000   -0.0000   -0.5829    0.5476    0.0000    0.0000   -0.4523
        9 O1     3pz        0.0000   -0.2472    0.1759   -0.0000   -0.0000   -0.1212    0.7229    0.0000    0.0000   -0.0049
       10 O1     3d2-       0.0000   -0.0000    0.0000   -0.0000    0.0000   -0.0000   -0.0000    0.0000    0.0000   -0.0000
       11 O1     3d1-      -0.0620   -0.0000    0.0000    0.0174    0.0479   -0.0000    0.0000   -0.2562   -0.0926   -0.0000
       12 O1     3d0        0.0000    0.9746   -0.2750    0.0000    0.0000    0.2597   -0.2864   -0.0000   -0.0000    0.3716
       13 O1     3d1+       0.0225   -0.0000    0.0000    0.0479   -0.0174   -0.0000    0.0000    0.0926   -0.2562   -0.0000
       14 O1     3d2+       0.0000   -0.0000    0.0000    0.0000    0.0000   -0.0000   -0.0000    0.0000    0.0000   -0.0000
       15 FE2    1s        -0.0000   -0.0064    0.0053   -0.0000   -0.0000   -0.0065    0.0155    0.0000    0.0000   -0.0085
       16 FE2    2s        -0.0000   -0.0462    0.0385   -0.0000   -0.0000   -0.0473    0.1109    0.0000    0.0000   -0.0617
       17 FE2    3s        -0.0000   -0.1987    0.1866   -0.0000   -0.0000   -0.2400    0.4949    0.0000    0.0000   -0.3133
       18 FE2    4s         0.0000    0.0295    0.1053   -0.0000   -0.0000   -1.0520    0.8972    0.0000    0.0000   -0.6255
       19 FE2    5s        -0.0000    0.0092   -0.0493    0.0000    0.0000    0.8439   -0.3612   -0.0000   -0.0000    0.1789
       20 FE2    2px        0.0002   -0.0000   -0.0000   -0.0015    0.0005    0.0000   -0.0000   -0.0013    0.0037   -0.0000
       21 FE2    3px        0.0001   -0.0000   -0.0000   -0.0336    0.0122    0.0000   -0.0000   -0.0238    0.0658   -0.0000
       22 FE2    4px       -0.1207   -0.0000   -0.0000   -0.5297    0.1921    0.0000   -0.0000   -0.2658    0.7356   -0.0000
       23 FE2    5px        0.0159   -0.0000    0.0000    0.7319   -0.2654   -0.0000   -0.0000   -0.2196    0.6077    0.0000
       24 FE2    2py       -0.0005   -0.0000   -0.0000   -0.0005   -0.0015   -0.0000   -0.0000    0.0037    0.0013   -0.0000
       25 FE2    3py       -0.0002   -0.0000   -0.0000   -0.0122   -0.0336   -0.0000   -0.0000    0.0658    0.0238   -0.0000
       26 FE2    4py        0.3321   -0.0000   -0.0000   -0.1921   -0.5297   -0.0000   -0.0000    0.7356    0.2658   -0.0000
       27 FE2    5py       -0.0438   -0.0000    0.0000    0.2654    0.7319    0.0000   -0.0000    0.6077    0.2196    0.0000
       28 FE2    2pz       -0.0000   -0.0117    0.0091   -0.0000   -0.0000   -0.0119    0.0202    0.0000    0.0000   -0.0169
       29 FE2    3pz       -0.0000   -0.1346    0.1551   -0.0000   -0.0000   -0.2099    0.2763    0.0000    0.0000   -0.2900
       30 FE2    4pz        0.0000    0.1790    0.7807   -0.0000   -0.0000   -0.3962   -0.0831    0.0000   -0.0000   -0.8398
       31 FE2    5pz        0.0000   -0.0271   -0.8434    0.0000    0.0000    0.1971   -0.7710   -0.0000   -0.0000   -0.0033
       32 FE2    3d2-      -0.0000    0.0000   -0.0000    0.0000   -0.0000    0.0000    0.0000   -0.0000   -0.0000    0.0000
       33 FE2    4d2-      -0.0000    0.0000    0.0000    0.0000    0.0000    0.0000   -0.0000   -0.0000   -0.0000   -0.0000
       34 FE2    3d1-       0.0878   -0.0000    0.0000   -0.0087   -0.0241   -0.0000   -0.0000    0.0815    0.0294   -0.0000
       35 FE2    4d1-       0.7771   -0.0000    0.0000    0.0363    0.1000    0.0000   -0.0000    0.2178    0.0787   -0.0000
       36 FE2    3d0       -0.0000   -0.0314    0.1440   -0.0000   -0.0000   -0.2436    0.1083    0.0000    0.0000   -0.4109
       37 FE2    4d0       -0.0000    0.3330    0.0355   -0.0000   -0.0000   -0.1663    0.1333    0.0000    0.0000   -1.3372
       38 FE2    3d1+      -0.0319   -0.0000   -0.0000   -0.0241    0.0087    0.0000   -0.0000   -0.0294    0.0815   -0.0000
       39 FE2    4d1+      -0.2823   -0.0000    0.0000    0.1000   -0.0363    0.0000   -0.0000   -0.0787    0.2178   -0.0000
       40 FE2    3d2+      -0.0000    0.0000   -0.0000   -0.0000   -0.0000    0.0000    0.0000    0.0000   -0.0000    0.0000
       41 FE2    4d2+      -0.0000    0.0000    0.0000    0.0000    0.0000    0.0000   -0.0000    0.0000   -0.0000   -0.0000
       42 FE2    4f3-       0.0000   -0.0000   -0.0000   -0.0000   -0.0000   -0.0000    0.0000    0.0000    0.0000    0.0000
       43 FE2    4f2-      -0.0000    0.0000    0.0000   -0.0000    0.0000    0.0000   -0.0000    0.0000    0.0000   -0.0000
       44 FE2    4f1-       0.0491   -0.0000   -0.0000   -0.0811   -0.2236   -0.0000   -0.0000    0.4317    0.1560    0.0000
       45 FE2    4f0       -0.0000    0.0166   -0.0946    0.0000    0.0000   -0.0034    0.2644    0.0000    0.0000   -0.2142
       46 FE2    4f1+      -0.0178   -0.0000   -0.0000   -0.2236    0.0811    0.0000   -0.0000   -0.1560    0.4317    0.0000
       47 FE2    4f2+      -0.0000    0.0000    0.0000    0.0000    0.0000    0.0000   -0.0000    0.0000    0.0000   -0.0000
       48 FE2    4f3+      -0.0000   -0.0000   -0.0000   -0.0000    0.0000    0.0000   -0.0000   -0.0000    0.0000   -0.0000
 
          Orbital           31        32        33        34        35        36        37        38        39        40    
          Energy            0.4198    0.4022    0.5466    0.4000    1.0852    2.2109    0.5113    1.4504    1.6438    0.3213
          Occ. No.          0.0000    0.0000    0.0000    0.0000    0.0000    0.0000    0.0000    0.0000    0.0000    0.0000
 
        1 O1     1s         0.0167    0.0000    0.0139   -0.0000    0.2559    0.0834   -0.0000    0.0000    0.0000    0.0000
        2 O1     2s         0.0648    0.0000    0.0667   -0.0001    1.9492    0.6819   -0.0000    0.0000    0.0001    0.0000
        3 O1     3s         0.2871    0.0000    0.0833   -0.0001    1.6724    1.1790   -0.0000    0.0000    0.0002   -0.0000
        4 O1     2px        0.0000   -0.0143   -0.0001   -0.0399   -0.0000    0.0000   -0.1146   -0.2855   -0.1139   -0.0014
        5 O1     3px        0.0000   -0.1089   -0.0005   -0.3014   -0.0000    0.0001   -0.3537   -0.8780   -0.3476   -0.0131
        6 O1     2py       -0.0000    0.0393   -0.0000   -0.0145    0.0000   -0.0001   -0.0456   -0.1040    0.3063   -0.0107
        7 O1     3py       -0.0000    0.2997   -0.0002   -0.1096    0.0000   -0.0002   -0.1422   -0.3163    0.9449   -0.0331
        8 O1     2pz       -0.0522   -0.0000    0.2286   -0.0004   -0.8797   -0.2052    0.0000   -0.0000    0.0000   -0.0000
        9 O1     3pz        0.3399    0.0000    1.0474   -0.0017   -0.9651   -0.0039    0.0000   -0.0000    0.0001   -0.0000
       10 O1     3d2-       0.0000    0.0000    0.0000   -0.0000   -0.0000   -0.0001   -0.0511    0.0268   -0.0147    0.0183
       11 O1     3d1-      -0.0000    0.1771   -0.0001   -0.0643   -0.0000    0.0000    0.0202    0.0556   -0.1470    0.0051
       12 O1     3d0        0.0718    0.0000    0.0154   -0.0000    0.1416    0.0289   -0.0000    0.0000   -0.0000    0.0000
       13 O1     3d1+       0.0000   -0.0644   -0.0003   -0.1768    0.0000   -0.0000    0.0547    0.1405    0.0592   -0.0100
       14 O1     3d2+       0.0000    0.0000    0.0000    0.0000   -0.0000   -0.0000    0.0028   -0.0022   -0.0008    0.0667
       15 FE2    1s         0.0013    0.0000    0.0106   -0.0000   -0.0247   -0.0079    0.0000   -0.0000   -0.0000   -0.0000
       16 FE2    2s         0.0086    0.0000    0.0750   -0.0001   -0.1774   -0.0570    0.0000   -0.0000   -0.0000   -0.0000
       17 FE2    3s         0.0250   -0.0000    0.3064   -0.0005   -0.8240   -0.2743    0.0000   -0.0000   -0.0000   -0.0000
       18 FE2    4s         0.5105   -0.0000    0.0142   -0.0000   -1.9693   -0.6919    0.0000   -0.0000   -0.0001   -0.0000
       19 FE2    5s         0.5183   -0.0000   -0.7129    0.0012    0.4154    0.1519    0.0000    0.0000    0.0000    0.0000
       20 FE2    2px       -0.0000    0.0003    0.0000    0.0009    0.0000   -0.0000    0.0024    0.0059    0.0023    0.0000
       21 FE2    3px       -0.0000    0.0028    0.0000    0.0079    0.0000   -0.0000    0.0414    0.1032    0.0412    0.0004
       22 FE2    4px        0.0000   -0.1965   -0.0009   -0.5396    0.0000   -0.0000    0.2125    0.5287    0.2097    0.0050
       23 FE2    5px        0.0000   -0.0681   -0.0003   -0.1871    0.0000   -0.0000    0.0209    0.0521    0.0205    0.0006
       24 FE2    2py        0.0000   -0.0009    0.0000    0.0003   -0.0000    0.0000    0.0009    0.0021   -0.0063    0.0002
       25 FE2    3py        0.0000   -0.0077    0.0000    0.0029   -0.0000    0.0000    0.0165    0.0377   -0.1107    0.0039
       26 FE2    4py       -0.0000    0.5406   -0.0003   -0.1961   -0.0000    0.0001    0.0850    0.1916   -0.5668    0.0199
       27 FE2    5py       -0.0000    0.1872   -0.0001   -0.0680   -0.0000    0.0000    0.0084    0.0188   -0.0556    0.0020
       28 FE2    2pz       -0.0013   -0.0000    0.0077   -0.0000   -0.0342   -0.0131    0.0000   -0.0000   -0.0000   -0.0000
       29 FE2    3pz       -0.0327   -0.0000    0.0738   -0.0001   -0.5341   -0.2081    0.0000   -0.0000   -0.0000   -0.0000
       30 FE2    4pz       -0.2997   -0.0000   -0.1032    0.0002   -1.8386   -0.7220    0.0000   -0.0000   -0.0001   -0.0000
       31 FE2    5pz       -0.0611   -0.0000   -0.0921    0.0002   -0.0805   -0.0652    0.0000    0.0000   -0.0000    0.0000
[...]
      NBO located      0.998 non-bonded electrons on atom FE2       
      The remaining    2.451 electrons are to be considered as diffuse
--
 
--
 
 
  Input file to MOLDEN was generated!
 
 
  Input file to MOLDEN was generated!
 
      Average orbitals are written to the RASORB file
      Natural orbitals for root   1 are written to the RASORB.1 file
      Spin density orbitals for root   1 are written to the SPDORB.1 file
 
forrtl: warning (525): IEEE_DIVIDE_BY_ZERO is signaling
forrtl: warning (526): IEEE_INVALID is signaling
forrtl: warning (528): IEEE_UNDERFLOW is signaling
--- Stop Module: rasscf at Tue Jan 21 15:25:05 2025 /rc=_RC_ALL_IS_WELL_ ---
*** files: 1.58.LprOrb 1.58.rasscf.molden 1.58.rasscf.molden.1 1.58.LoProp.molden 1.58.RasOrb 1.58.RasOrb.1 1.58.rasscf.h5 1.58.SpdOrb.1 xmldump
    saved to directory /home/grierjones/DDCASPT2/iron_oxo_DDCASPT2/cluster/1.58
--- Module rasscf spent 2 minutes 43 seconds ---

>>> COPY /tmp/1.58/1.58.rasscf.h5 /home/grierjones/DDCASPT2/iron_oxo_DDCASPT2/cluster/1.58/

>>> COPY /tmp/1.58/GMJ_Fock_MO.csv /home/grierjones/DDCASPT2/iron_oxo_DDCASPT2/cluster/1.58/1.58.GMJ_Fock_MO.csv

>>> COPY /tmp/1.58/GMJ_PT2_Fock_MO.csv /home/grierjones/DDCASPT2/iron_oxo_DDCASPT2/cluster/1.58/1.58.GMJ_PT2_Fock_MO.csv

*** symbolic link created: INPORB -> 1.58.RasOrb
--- Start Module: motra at Tue Jan 21 15:25:05 2025 ---
 
()()()()()()()()()()()()()()()()()()()()()()()()()()()()()()()()()()()()()()()()()()()()()()()()()()

                                               &MOTRA

                                   only a single process is used
                       available to each process: 2.0 GB of memory, 1 thread?
()()()()()()()()()()()()()()()()()()()()()()()()()()()()()()()()()()()()()()()()()()()()()()()()()()
 
 
      *** WARNING: Default frozen orbitals is overwritten by user input.
      *** Default values:   7
 
      Header of the integral files:
      
       Integrals generated by seward 4.2.0  , Tue Jan 21 15:22:20 2025
 
 
      Header of MO coefficients source file:
      * RASSCF average (pseudo-natural) orbitals                                      
 
 
      Cartesian coordinates in Angstrom:
      -----------------------------------------------------
      No.  Label        X            Y            Z        
      -----------------------------------------------------
       1   O1         0.00000000   0.00000000   1.59014000
       2   FE2        0.00000000   0.00000000   0.00986000
      -----------------------------------------------------
      Nuclear repulsion energy =   69.65149203
 
      Orbital specifications:
      -----------------------
 
      Symmetry species:              1
      Number of basis functions:    48
      Frozen orbitals:               0
      Deleted orbitals:              0
      Number of orbitals used:      48

       SYMMETRY  BASIS FUNCTIONS       ORBITALS      INTEGRALS   CPU(SEC)  I/O(SEC)
 
        1 1 1 1   48  48  48  48    48  48  48  48      692076       0.00      0.00

       TOTAL CPU TIME(SEC)    0.42TOTAL I/O TIME(SEC)    0.91
 
--- Stop Module: motra at Tue Jan 21 15:25:06 2025 /rc=_RC_ALL_IS_WELL_ ---
*** files: xmldump
    saved to directory /home/grierjones/DDCASPT2/iron_oxo_DDCASPT2/cluster/1.58

>>> COPY /tmp/1.58/GMJ_one_int_indx.csv /home/grierjones/DDCASPT2/iron_oxo_DDCASPT2/cluster/1.58/1.58.GMJ_one_int_indx.csv

>>> COPY /tmp/1.58/GMJ_one_int.csv /home/grierjones/DDCASPT2/iron_oxo_DDCASPT2/cluster/1.58/1.58.GMJ_one_int.csv

>>> COPY /tmp/1.58/GMJ_two_int_indx.csv /home/grierjones/DDCASPT2/iron_oxo_DDCASPT2/cluster/1.58/1.58.GMJ_two_int_indx.csv

>>> COPY /tmp/1.58/GMJ_two_int.csv /home/grierjones/DDCASPT2/iron_oxo_DDCASPT2/cluster/1.58/1.58.GMJ_two_int.csv

*** symbolic link created: INPORB -> 1.58.RasOrb
--- Start Module: caspt2 at Tue Jan 21 15:25:06 2025 ---
 
()()()()()()()()()()()()()()()()()()()()()()()()()()()()()()()()()()()()()()()()()()()()()()()()()()

                                              &CASPT2

                                   only a single process is used
                       available to each process: 2.0 GB of memory, 1 thread?
()()()()()()()()()()()()()()()()()()()()()()()()()()()()()()()()()()()()()()()()()()()()()()()()()()
 
 Cholesky algorithm in CASPT2 =    1
 
 ###############################################################################
 ###############################################################################
 ###                                                                         ###
 ###                                                                         ###
 ###    User changed nr of frozen orbitals.                                  ###
 ###                                                                         ###
 ###                                                                         ###
 ###############################################################################
 ###############################################################################
 
++    Wave function specifications:
      -----------------------------
 
      Number of closed shell electrons          22
      Number of electrons in active shells      10
      Max number of holes in RAS1 space          0
      Max number of electrons in RAS3 space      0
      Number of inactive orbitals               11
      Number of active orbitals                 14
      Number of secondary orbitals              23
      Spin quantum number                      2.0
      State symmetry                             1
      Number of CSFs                        975975
      Number of root(s) available                1
      Root passed to geometry opt.               1
      A file JOBMIX will be created.
      This is a CASSCF or RASSCF reference function
--
 
++    Orbital specifications:
      -----------------------
 
      Symmetry species                           1
                                                 a
      Frozen orbitals                            0
      Inactive orbitals                         11
      Active orbitals                           14
      Secondary orbitals                        23
      Deleted orbitals                           0
      Number of basis functions                 48
--
 
      Type of Fock operator: STANDARD
      Type of 0-order Hamiltonian: STANDARD WITH DEFAULT IPEA
        "IP-EA" denominator shift =      0.25
      The input orbitals and the CI vector will be transformed.
 
--------------------------------------------------------------------------------
 Estimated memory requirements:
  POLY3 :                227658189
  RHS:                     4146972
  SIGMA :                   646704
  PRPCTL:                        0
 Available workspace:    229020647
 
++ CASPT2 computation for group   1
 
********************************************************************************
 Multi-State initialization phase begins for group   1
--------------------------------------------------------------------------------
********************************************************************************
 Compute H0 matrices for state    1
--------------------------------------------------------------------------------
--------------------------------------------------------------------------------
 H0 matrices have been computed.
 
********************************************************************************
  CASPT2 EQUATION SOLUTION
--------------------------------------------------------------------------------
 
  Total nr of CASPT2 parameters:
   Before reduction:      408969
   After  reduction:      408240
 
 The contributions to the second order correlation energy in atomic units.
-----------------------------------------------------------------------------------------------------------------------------
  IT.      VJTU        VJTI        ATVX        AIVX        VJAI        BVAT        BJAT        BJAI        TOTAL       RNORM  
-----------------------------------------------------------------------------------------------------------------------------
   1    -0.008171   -0.031080   -0.023769   -0.182448   -0.020512   -0.081056   -0.022309   -0.043504   -0.412849    0.008042
   2    -0.008223   -0.031128   -0.023997   -0.182892   -0.020518   -0.081183   -0.022299   -0.043519   -0.413760    0.001258
   3    -0.008227   -0.031133   -0.024006   -0.182929   -0.020522   -0.081187   -0.022306   -0.043522   -0.413832    0.000209
   4    -0.008226   -0.031131   -0.024005   -0.182917   -0.020521   -0.081183   -0.022306   -0.043522   -0.413812    0.000035
   5    -0.008226   -0.031131   -0.024005   -0.182916   -0.020521   -0.081183   -0.022306   -0.043522   -0.413810    0.000006
   6    -0.008226   -0.031131   -0.024005   -0.182917   -0.020521   -0.081183   -0.022306   -0.043522   -0.413811    0.000001
-------------------------------------------------------------------------------------------------------------------
 
  FINAL CASPT2 RESULT:
 
  Correlation energy /Case, /Symm, and sums:
 VJTU     -0.00822570 -0.00822570
 VJTIP    -0.01273945 -0.01273945
 VJTIM    -0.01839184 -0.01839184
 ATVX     -0.02400518 -0.02400518
 AIVX     -0.18291676 -0.18291676
 VJAIP    -0.01467577 -0.01467577
 VJAIM    -0.00584556 -0.00584556
 BVATP    -0.02968497 -0.02968497
 BVATM    -0.05149814 -0.05149814
 BJATP    -0.01219345 -0.01219345
 BJATM    -0.01011236 -0.01011236
 BJAIP    -0.02932562 -0.02932562
 BJAIM    -0.01419595 -0.01419595
 Summed:  -0.41381073 -0.41381073
 
      Reference energy:       -1345.4529277341
      E2 (Non-variational):      -0.4138107309
      E2 (Variational):          -0.4138107143
      Total energy:           -1345.8667384484
      Residual norm:              0.0000001888
      Reference weight:           0.93600
 
      Contributions to the CASPT2 correlation energy
      Active & Virtual Only:         -0.1051882943
      One Inactive Excited:          -0.2134482582
      Two Inactive Excited:          -0.0951741784
 
 
++ Denominators, etc.
----------------------------------------------------------------------------------------------------
 Report on small energy denominators, large coefficients, and large energy contributions.
CASE  SYMM ACTIVE-MIX  NON-ACTIVE INDICES          DENOMINATOR     RHS VALUE       COEFFICIENT     CONTRIBUTION
VJTIM    1  Mu1.0006  In1.010 In1.009               5.44583678     -0.15022501      0.02758153     -0.00414344
ATVX     1  Mu1.0001  Se1.026                       0.16917917     -0.00000000      0.00000000     -0.00000000
ATVX     1  Mu1.0002  Se1.026                       0.16925618     -0.00000000      0.00000000     -0.00000000
ATVX     1  Mu1.0003  Se1.026                       0.18316942     -0.00000000      0.00000000     -0.00000000
ATVX     1  Mu1.0004  Se1.026                       0.18316942     -0.00000000      0.00000000     -0.00000000
--
 
   (Skipping property calculation,
    use PROP keyword to activate)
--
 
  Total CASPT2 energies:
::    CASPT2 Root  1     Total energy:  -1345.86673845
 
  A NEW JOBIPH FILE NAMED 'JOBMIX' IS PREPARED.
********************************************************************************
forrtl: warning (528): IEEE_UNDERFLOW is signaling
--- Stop Module: caspt2 at Tue Jan 21 15:39:45 2025 /rc=_RC_ALL_IS_WELL_ ---
*** files: xmldump
    saved to directory /home/grierjones/DDCASPT2/iron_oxo_DDCASPT2/cluster/1.58
--- Module caspt2 spent 14 minutes 38 seconds ---

>>> EXPORT i = B

>>> EXPORT j = P

>>> IF (-FILE GMJ_e2_${i}_${j}.csv)

>>> COPY /tmp/1.58/GMJ_RHS_B_P.csv /home/grierjones/DDCASPT2/iron_oxo_DDCASPT2/cluster/1.58/GMJ_RHS_B_P.csv

>>> COPY /tmp/1.58/GMJ_IVECW_B_P.csv /home/grierjones/DDCASPT2/iron_oxo_DDCASPT2/cluster/1.58/GMJ_IVECW_B_P.csv

>>> COPY /tmp/1.58/GMJ_IVECX_B_P.csv /home/grierjones/DDCASPT2/iron_oxo_DDCASPT2/cluster/1.58/GMJ_IVECX_B_P.csv

>>> COPY /tmp/1.58/GMJ_IVECC2_B_P.csv /home/grierjones/DDCASPT2/iron_oxo_DDCASPT2/cluster/1.58/GMJ_IVECC2_B_P.csv

>>> COPY /tmp/1.58/GMJ_e2_B_P.csv /home/grierjones/DDCASPT2/iron_oxo_DDCASPT2/cluster/1.58/GMJ_e2_B_P.csv

>>> END FOREACH

>>> EXPORT j = M

>>> IF (-FILE GMJ_e2_${i}_${j}.csv)

>>> COPY /tmp/1.58/GMJ_RHS_B_M.csv /home/grierjones/DDCASPT2/iron_oxo_DDCASPT2/cluster/1.58/GMJ_RHS_B_M.csv

>>> COPY /tmp/1.58/GMJ_IVECW_B_M.csv /home/grierjones/DDCASPT2/iron_oxo_DDCASPT2/cluster/1.58/GMJ_IVECW_B_M.csv

>>> COPY /tmp/1.58/GMJ_IVECX_B_M.csv /home/grierjones/DDCASPT2/iron_oxo_DDCASPT2/cluster/1.58/GMJ_IVECX_B_M.csv

>>> COPY /tmp/1.58/GMJ_IVECC2_B_M.csv /home/grierjones/DDCASPT2/iron_oxo_DDCASPT2/cluster/1.58/GMJ_IVECC2_B_M.csv

>>> COPY /tmp/1.58/GMJ_e2_B_M.csv /home/grierjones/DDCASPT2/iron_oxo_DDCASPT2/cluster/1.58/GMJ_e2_B_M.csv

>>> END FOREACH

>>> END FOREACH

>>> EXPORT i = E

>>> EXPORT j = P

>>> IF (-FILE GMJ_e2_${i}_${j}.csv)

>>> COPY /tmp/1.58/GMJ_RHS_E_P.csv /home/grierjones/DDCASPT2/iron_oxo_DDCASPT2/cluster/1.58/GMJ_RHS_E_P.csv

>>> COPY /tmp/1.58/GMJ_IVECW_E_P.csv /home/grierjones/DDCASPT2/iron_oxo_DDCASPT2/cluster/1.58/GMJ_IVECW_E_P.csv

>>> COPY /tmp/1.58/GMJ_IVECX_E_P.csv /home/grierjones/DDCASPT2/iron_oxo_DDCASPT2/cluster/1.58/GMJ_IVECX_E_P.csv

>>> COPY /tmp/1.58/GMJ_IVECC2_E_P.csv /home/grierjones/DDCASPT2/iron_oxo_DDCASPT2/cluster/1.58/GMJ_IVECC2_E_P.csv

>>> COPY /tmp/1.58/GMJ_e2_E_P.csv /home/grierjones/DDCASPT2/iron_oxo_DDCASPT2/cluster/1.58/GMJ_e2_E_P.csv

>>> END FOREACH

>>> EXPORT j = M

>>> IF (-FILE GMJ_e2_${i}_${j}.csv)

>>> COPY /tmp/1.58/GMJ_RHS_E_M.csv /home/grierjones/DDCASPT2/iron_oxo_DDCASPT2/cluster/1.58/GMJ_RHS_E_M.csv

>>> COPY /tmp/1.58/GMJ_IVECW_E_M.csv /home/grierjones/DDCASPT2/iron_oxo_DDCASPT2/cluster/1.58/GMJ_IVECW_E_M.csv

>>> COPY /tmp/1.58/GMJ_IVECX_E_M.csv /home/grierjones/DDCASPT2/iron_oxo_DDCASPT2/cluster/1.58/GMJ_IVECX_E_M.csv

>>> COPY /tmp/1.58/GMJ_IVECC2_E_M.csv /home/grierjones/DDCASPT2/iron_oxo_DDCASPT2/cluster/1.58/GMJ_IVECC2_E_M.csv

>>> COPY /tmp/1.58/GMJ_e2_E_M.csv /home/grierjones/DDCASPT2/iron_oxo_DDCASPT2/cluster/1.58/GMJ_e2_E_M.csv

>>> END FOREACH

>>> END FOREACH

>>> EXPORT i = F

>>> EXPORT j = P

>>> IF (-FILE GMJ_e2_${i}_${j}.csv)

>>> COPY /tmp/1.58/GMJ_RHS_F_P.csv /home/grierjones/DDCASPT2/iron_oxo_DDCASPT2/cluster/1.58/GMJ_RHS_F_P.csv

>>> COPY /tmp/1.58/GMJ_IVECW_F_P.csv /home/grierjones/DDCASPT2/iron_oxo_DDCASPT2/cluster/1.58/GMJ_IVECW_F_P.csv

>>> COPY /tmp/1.58/GMJ_IVECX_F_P.csv /home/grierjones/DDCASPT2/iron_oxo_DDCASPT2/cluster/1.58/GMJ_IVECX_F_P.csv

>>> COPY /tmp/1.58/GMJ_IVECC2_F_P.csv /home/grierjones/DDCASPT2/iron_oxo_DDCASPT2/cluster/1.58/GMJ_IVECC2_F_P.csv

>>> COPY /tmp/1.58/GMJ_e2_F_P.csv /home/grierjones/DDCASPT2/iron_oxo_DDCASPT2/cluster/1.58/GMJ_e2_F_P.csv

>>> END FOREACH

>>> EXPORT j = M

>>> IF (-FILE GMJ_e2_${i}_${j}.csv)

>>> COPY /tmp/1.58/GMJ_RHS_F_M.csv /home/grierjones/DDCASPT2/iron_oxo_DDCASPT2/cluster/1.58/GMJ_RHS_F_M.csv

>>> COPY /tmp/1.58/GMJ_IVECW_F_M.csv /home/grierjones/DDCASPT2/iron_oxo_DDCASPT2/cluster/1.58/GMJ_IVECW_F_M.csv

>>> COPY /tmp/1.58/GMJ_IVECX_F_M.csv /home/grierjones/DDCASPT2/iron_oxo_DDCASPT2/cluster/1.58/GMJ_IVECX_F_M.csv

>>> COPY /tmp/1.58/GMJ_IVECC2_F_M.csv /home/grierjones/DDCASPT2/iron_oxo_DDCASPT2/cluster/1.58/GMJ_IVECC2_F_M.csv

>>> COPY /tmp/1.58/GMJ_e2_F_M.csv /home/grierjones/DDCASPT2/iron_oxo_DDCASPT2/cluster/1.58/GMJ_e2_F_M.csv

>>> END FOREACH

>>> END FOREACH

>>> EXPORT i = G

>>> EXPORT j = P

>>> IF (-FILE GMJ_e2_${i}_${j}.csv)

>>> COPY /tmp/1.58/GMJ_RHS_G_P.csv /home/grierjones/DDCASPT2/iron_oxo_DDCASPT2/cluster/1.58/GMJ_RHS_G_P.csv

>>> COPY /tmp/1.58/GMJ_IVECW_G_P.csv /home/grierjones/DDCASPT2/iron_oxo_DDCASPT2/cluster/1.58/GMJ_IVECW_G_P.csv

>>> COPY /tmp/1.58/GMJ_IVECX_G_P.csv /home/grierjones/DDCASPT2/iron_oxo_DDCASPT2/cluster/1.58/GMJ_IVECX_G_P.csv

>>> COPY /tmp/1.58/GMJ_IVECC2_G_P.csv /home/grierjones/DDCASPT2/iron_oxo_DDCASPT2/cluster/1.58/GMJ_IVECC2_G_P.csv

>>> COPY /tmp/1.58/GMJ_e2_G_P.csv /home/grierjones/DDCASPT2/iron_oxo_DDCASPT2/cluster/1.58/GMJ_e2_G_P.csv

>>> END FOREACH

>>> EXPORT j = M

>>> IF (-FILE GMJ_e2_${i}_${j}.csv)

>>> COPY /tmp/1.58/GMJ_RHS_G_M.csv /home/grierjones/DDCASPT2/iron_oxo_DDCASPT2/cluster/1.58/GMJ_RHS_G_M.csv

>>> COPY /tmp/1.58/GMJ_IVECW_G_M.csv /home/grierjones/DDCASPT2/iron_oxo_DDCASPT2/cluster/1.58/GMJ_IVECW_G_M.csv

>>> COPY /tmp/1.58/GMJ_IVECX_G_M.csv /home/grierjones/DDCASPT2/iron_oxo_DDCASPT2/cluster/1.58/GMJ_IVECX_G_M.csv

>>> COPY /tmp/1.58/GMJ_IVECC2_G_M.csv /home/grierjones/DDCASPT2/iron_oxo_DDCASPT2/cluster/1.58/GMJ_IVECC2_G_M.csv

>>> COPY /tmp/1.58/GMJ_e2_G_M.csv /home/grierjones/DDCASPT2/iron_oxo_DDCASPT2/cluster/1.58/GMJ_e2_G_M.csv

>>> END FOREACH

>>> END FOREACH

>>> EXPORT i = H

>>> EXPORT j = P

>>> IF (-FILE GMJ_e2_${i}_${j}.csv)

>>> COPY /tmp/1.58/GMJ_RHS_H_P.csv /home/grierjones/DDCASPT2/iron_oxo_DDCASPT2/cluster/1.58/GMJ_RHS_H_P.csv

>>> COPY /tmp/1.58/GMJ_IVECW_H_P.csv /home/grierjones/DDCASPT2/iron_oxo_DDCASPT2/cluster/1.58/GMJ_IVECW_H_P.csv

>>> COPY /tmp/1.58/GMJ_IVECX_H_P.csv /home/grierjones/DDCASPT2/iron_oxo_DDCASPT2/cluster/1.58/GMJ_IVECX_H_P.csv

>>> COPY /tmp/1.58/GMJ_IVECC2_H_P.csv /home/grierjones/DDCASPT2/iron_oxo_DDCASPT2/cluster/1.58/GMJ_IVECC2_H_P.csv

>>> COPY /tmp/1.58/GMJ_e2_H_P.csv /home/grierjones/DDCASPT2/iron_oxo_DDCASPT2/cluster/1.58/GMJ_e2_H_P.csv

>>> END FOREACH

>>> EXPORT j = M

>>> IF (-FILE GMJ_e2_${i}_${j}.csv)

>>> COPY /tmp/1.58/GMJ_RHS_H_M.csv /home/grierjones/DDCASPT2/iron_oxo_DDCASPT2/cluster/1.58/GMJ_RHS_H_M.csv

>>> COPY /tmp/1.58/GMJ_IVECW_H_M.csv /home/grierjones/DDCASPT2/iron_oxo_DDCASPT2/cluster/1.58/GMJ_IVECW_H_M.csv

>>> COPY /tmp/1.58/GMJ_IVECX_H_M.csv /home/grierjones/DDCASPT2/iron_oxo_DDCASPT2/cluster/1.58/GMJ_IVECX_H_M.csv

>>> COPY /tmp/1.58/GMJ_IVECC2_H_M.csv /home/grierjones/DDCASPT2/iron_oxo_DDCASPT2/cluster/1.58/GMJ_IVECC2_H_M.csv

>>> COPY /tmp/1.58/GMJ_e2_H_M.csv /home/grierjones/DDCASPT2/iron_oxo_DDCASPT2/cluster/1.58/GMJ_e2_H_M.csv

>>> END FOREACH

>>> END FOREACH

>>> EXPORT i = A

>>> IF (-FILE GMJ_e2_$i.csv)

>>> COPY /tmp/1.58/GMJ_RHS_A.csv /home/grierjones/DDCASPT2/iron_oxo_DDCASPT2/cluster/1.58/GMJ_RHS_A.csv

>>> COPY /tmp/1.58/GMJ_IVECW_A.csv /home/grierjones/DDCASPT2/iron_oxo_DDCASPT2/cluster/1.58/GMJ_IVECW_A.csv

>>> COPY /tmp/1.58/GMJ_IVECX_A.csv /home/grierjones/DDCASPT2/iron_oxo_DDCASPT2/cluster/1.58/GMJ_IVECX_A.csv

>>> COPY /tmp/1.58/GMJ_IVECC2_A.csv /home/grierjones/DDCASPT2/iron_oxo_DDCASPT2/cluster/1.58/GMJ_IVECC2_A.csv

>>> COPY /tmp/1.58/GMJ_e2_A.csv /home/grierjones/DDCASPT2/iron_oxo_DDCASPT2/cluster/1.58/GMJ_e2_A.csv

>>> END FOREACH

>>> EXPORT i = C

>>> IF (-FILE GMJ_e2_$i.csv)

>>> COPY /tmp/1.58/GMJ_RHS_C.csv /home/grierjones/DDCASPT2/iron_oxo_DDCASPT2/cluster/1.58/GMJ_RHS_C.csv

>>> COPY /tmp/1.58/GMJ_IVECW_C.csv /home/grierjones/DDCASPT2/iron_oxo_DDCASPT2/cluster/1.58/GMJ_IVECW_C.csv

>>> COPY /tmp/1.58/GMJ_IVECX_C.csv /home/grierjones/DDCASPT2/iron_oxo_DDCASPT2/cluster/1.58/GMJ_IVECX_C.csv

>>> COPY /tmp/1.58/GMJ_IVECC2_C.csv /home/grierjones/DDCASPT2/iron_oxo_DDCASPT2/cluster/1.58/GMJ_IVECC2_C.csv

>>> COPY /tmp/1.58/GMJ_e2_C.csv /home/grierjones/DDCASPT2/iron_oxo_DDCASPT2/cluster/1.58/GMJ_e2_C.csv

>>> END FOREACH

>>> EXPORT i = D

>>> IF (-FILE GMJ_e2_$i.csv)

>>> COPY /tmp/1.58/GMJ_RHS_D.csv /home/grierjones/DDCASPT2/iron_oxo_DDCASPT2/cluster/1.58/GMJ_RHS_D.csv

>>> COPY /tmp/1.58/GMJ_IVECW_D.csv /home/grierjones/DDCASPT2/iron_oxo_DDCASPT2/cluster/1.58/GMJ_IVECW_D.csv

>>> COPY /tmp/1.58/GMJ_IVECX_D.csv /home/grierjones/DDCASPT2/iron_oxo_DDCASPT2/cluster/1.58/GMJ_IVECX_D.csv

>>> COPY /tmp/1.58/GMJ_IVECC2_D.csv /home/grierjones/DDCASPT2/iron_oxo_DDCASPT2/cluster/1.58/GMJ_IVECC2_D.csv

>>> COPY /tmp/1.58/GMJ_e2_D.csv /home/grierjones/DDCASPT2/iron_oxo_DDCASPT2/cluster/1.58/GMJ_e2_D.csv

>>> END FOREACH

.########################.
.# Non-zero return code #.
.########################.

    Timing: Wall=1045.12 User=1041.38 System=3.46
************************************
*** WorkDir at /tmp/1.58 cleaned ***
************************************
