   This run of MOLCAS is using the pymolcas driver

                             OPE
                             OPE          NMOL  CASOP  ENMOLC A   SO
                 OPE        NMOLC        AS  OP EN  MO LC     AS  OP
                OPENM       OL CA        SO  PE NM  OL CA     SOP EN
                OP EN      MO   LC       AS  OP ENMOL  CASO   PENMOL
                OP  EN     MO   LC       AS  OP EN     MO     LC ASO
               OP   E  NMOL  C  AS       OP  EN MO     LC     AS  OP
               OP  E   NMO   LC AS        OPEN  MO     LCASOP EN   M
               O  PEN   MO  LCA  SO
            OPE   NMO   L   CAS    OP
        OPENMOL  CASOP     ENMOL   CASOPE
     OPENMOLCA   SOPENMOLCASOPEN   MOLCASOPE
    OPENMOLCAS   OP           EN   MOL    CAS
    OPENMOLCAS       OP  ENM        O     LCA
    OPENMOLCAS    OPEN  MOLCASO     P  E  NMO
    OPENMOLCAS     OP               E  N  MOL
    OPENMOLCA   SO           PENM   O  L  CAS    OPEN    MO    LCAS
    OPENMOLCA   SOP           ENM   O  L  CAS   OP  EN  MOLC  AS   O
    OPENMOLCA   SOPE           NM      O  LCA   S      OP  EN MO
    OPENMOLC                AS         O  PEN   M      OL  CA  SOPE
    OPENMO        LCASOPE  NMOL        C  ASO   P      ENMOLC     AS
    OPE     NMO      LCA  SO     P     E   NM   OL  CA SO  PE N   MO
          OPENMOLCA            SOPE   NMO        LCAS  O    P  ENMO
     OPENMOLCASOPENMOLCASOPENMOLCASOPENMOLCA
        OPENMOLCASOPENMOLCASOPENMOLCASOPE
            OPENMOLCASOPENMOLCASOPENM
               OPENMOLCASOPENMOLCA        version: 44d3b5344-dirty
                   OPENMOLCASO
                       OPE                tag:

 OpenMolcas is free software; you can redistribute it and/or modify it
 under the terms of the GNU Lesser General Public License version 2.1.
 OpenMolcas is distributed in the hope that it will be useful, but it
 is provided "as is" and without any express or implied warranties.
 For more details see the full text of the license in the file
 LICENSE or in <http://www.gnu.org/licenses/>.

                 Copyright (C) The OpenMolcas Authors
           For the author list and the recommended citation,
                   consult the file CONTRIBUTORS.md

           *************************************************
           * pymolcas version py2.28                       *
           *   build c4a6d18ded8cb6cad61d2372a9abd97c      *
           *   (after the EMIL interpreter by V. Veryazov) *
           *************************************************

configuration info
------------------
C Compiler ID: GNU
C flags: -std=gnu99
Fortran Compiler ID: Intel
Fortran flags: -fpp -i8 -r8 -heap-arrays
Definitions: _MOLCAS_;_I8_;_LINUX_
Parallel: OFF (GA=OFF)


   ----------------------------------------------------------------------------------------------------------
  |
  |              Project: H6_0.77
  |       Submitted from: /home/grierjones/DDCASPT2/hydrogen_comps/minimal_2e_2o/chains/even/H6_chain/H6_0.77
  |         Scratch area: /tmp/H6_0.77
  |      Save outputs to: /home/grierjones/DDCASPT2/hydrogen_comps/minimal_2e_2o/chains/even/H6_chain/H6_0.77
  |               Molcas: /home/grierjones/Test/build
  |
  | Scratch area is empty
  |
  |       MOLCAS_DRIVER = /usr/local/pymolcas
  | MOLCAS_KEEP_WORKDIR = NO
  |  MOLCAS_NEW_WORKDIR = YES
  |       MOLCAS_NPROCS = 1
  |       MOLCAS_SOURCE = /home/grierjones/Test/build
  |    MOLCAS_STRUCTURE = 0
  |
   ----------------------------------------------------------------------------------------------------------

++ ---------   Input file   ---------

&GATEWAY
coord=H6_0.77.xyz
Basis = ANO-RCC-VDZP
Group = nosymm
Expert
End of Input

&SEWARD
End of Input

&MOTRA
Frozen=0

>>> COPY $WorkDir/GMJ_one_int_indx.csv $CurrDir/H6_0.77.GMJ_one_int_indx.csv

>>> COPY $WorkDir/GMJ_one_int.csv $CurrDir/H6_0.77.GMJ_one_int.csv

>>> COPY $WorkDir/GMJ_two_int_indx.csv $CurrDir/H6_0.77.GMJ_two_int_indx.csv

>>> COPY $WorkDir/GMJ_two_int.csv $CurrDir/H6_0.77.GMJ_two_int.csv

&SCF

>>> COPY $WorkDir/H6_0.77.scf.h5 $CurrDir/

&RASSCF
Title= RASSCF
FileOrb
/home/grierjones/DDCASPT2/hydrogen_comps/minimal_2e_2o/chains/even/H6_chain/H6_0.75/H6_0.75.RasOrb

NACTEL
6 0 0
Inactive
0
RAS2
6
Symmetry
1
Spin
1
orblisting
all
ITERation
200 100
CIMX
200
SDAV
500

>>> COPY $WorkDir/H6_0.77.rasscf.h5 $CurrDir/

>>> COPY $WorkDir/GMJ_Fock_MO.csv $CurrDir/H6_0.77.GMJ_Fock_MO.csv

&CASPT2
Frozen
0
Imaginary Shift
0.0

>>> FOREACH i IN (B,E,F,G,H)

  >>> FOREACH j IN (P,M)

    >>> IF (-FILE GMJ_e2_${i}_${j}.csv)

      >>> COPY $WorkDir/GMJ_RHS_${i}_${j}.csv $CurrDir/GMJ_RHS_${i}_${j}.csv

      >>> COPY $WorkDir/GMJ_IVECW_${i}_${j}.csv $CurrDir/GMJ_IVECW_${i}_${j}.csv

      >>> COPY $WorkDir/GMJ_e2_${i}_${j}.csv $CurrDir/GMJ_e2_${i}_${j}.csv

    >>> END IF

  >>> END FOREACH

>>> END FOREACH

>>> FOREACH i IN (A,C,D)

  >>> IF (-FILE GMJ_e2_$i.csv)

    >>> COPY $WorkDir/GMJ_RHS_$i.csv $CurrDir/GMJ_RHS_$i.csv

    >>> COPY $WorkDir/GMJ_IVECW_$i.csv $CurrDir/GMJ_IVECW_$i.csv

    >>> COPY $WorkDir/GMJ_e2_$i.csv $CurrDir/GMJ_e2_$i.csv

  >>> END IF

>>> END FOREACH

-- ----------------------------------

--- Start Module: gateway at Fri Aug  9 15:35:55 2024 ---
 
()()()()()()()()()()()()()()()()()()()()()()()()()()()()()()()()()()()()()()()()()()()()()()()()()()

                                              &GATEWAY

                                   only a single process is used
                       available to each process: 2.0 GB of memory, 1 thread?
()()()()()()()()()()()()()()()()()()()()()()()()()()()()()()()()()()()()()()()()()()()()()()()()()()
 
 ###############################################################################
 ###############################################################################
 ###                                                                         ###
 ###                                                                         ###
 ###                                                                         ###
 ###    WARNING: EXPERT option is ON!                                        ###
 ###                                                                         ###
 ###                                                                         ###
 ###############################################################################
 ###############################################################################
 
++    Symmetry information:
      ---------------------
 
                    Character Table for C1 
 
                             E  
                    a        1  x, y, xy, Rz, z, xz, Ry, yz, Rx, I
--
 
 
++    Basis set information:
      ----------------------
 
 
      Basis set label: H.ANO-RCC...2S1P.
 
      Electronic valence basis set:
      ------------------
      Associated Effective Charge   1.000000 au
      Associated Actual Charge      1.000000 au
      Nuclear Model: Point charge
 
      Shell  nPrim  nBasis  Cartesian Spherical Contaminant
         s       8       2        X                  
         p       4       1        X                  
--
 
 
++    Molecular structure info:
      -------------------------
 
                    ************************************************ 
                    **** Cartesian Coordinates / Bohr, Angstrom **** 
                    ************************************************ 
 
     Center  Label                x              y              z                     x              y              z
        1      H1               0.000000       0.000000       0.000000              0.000000       0.000000       0.000000
        2      H2               0.000000       0.000000       1.454517              0.000000       0.000000       0.769697
        3      H3               0.000000       0.000000       2.909033              0.000000       0.000000       1.539394
        4      H4               0.000000       0.000000       4.363550              0.000000       0.000000       2.309091
        5      H5               0.000000       0.000000       5.818066              0.000000       0.000000       3.078788
        6      H6               0.000000       0.000000       7.272583              0.000000       0.000000       3.848485
 
                    *************************************** 
                    *    InterNuclear Distances / Bohr    * 
                    *************************************** 
 
               1 H1            2 H2            3 H3            4 H4            5 H5            6 H6    
    1 H1       0.000000
    2 H2       1.454517        0.000000
    3 H3       2.909033        1.454517        0.000000
    4 H4       4.363550        2.909033        1.454517        0.000000
    5 H5       5.818066        4.363550        2.909033        1.454517        0.000000
    6 H6       7.272583        5.818066        4.363550        2.909033        1.454517        0.000000
 
                    ******************************************* 
                    *    InterNuclear Distances / Angstrom    * 
                    ******************************************* 
 
               1 H1            2 H2            3 H3            4 H4            5 H5            6 H6    
    1 H1       0.000000
    2 H2       0.769697        0.000000
    3 H3       1.539394        0.769697        0.000000
    4 H4       2.309091        1.539394        0.769697        0.000000
    5 H5       3.078788        2.309091        1.539394        0.769697        0.000000
    6 H6       3.848485        3.078788        2.309091        1.539394        0.769697        0.000000
 
                    ************************************** 
                    *    Valence Bond Angles / Degree    * 
                    ************************************** 
                          Atom centers                 Phi
                      2 H2       1 H1       3 H3         0.00
                      1 H1       2 H2       3 H3       180.00
                      1 H1       2 H2       4 H4       180.00
                      3 H3       2 H2       4 H4         0.00
                      1 H1       3 H3       2 H2         0.00
                      1 H1       3 H3       4 H4       180.00
                      1 H1       3 H3       5 H5       180.00
                      2 H2       3 H3       4 H4       180.00
                      2 H2       3 H3       5 H5       180.00
                      4 H4       3 H3       5 H5         0.00
                      2 H2       4 H4       3 H3         0.00
                      2 H2       4 H4       5 H5       180.00
                      2 H2       4 H4       6 H6       180.00
                      3 H3       4 H4       5 H5       180.00
                      3 H3       4 H4       6 H6       180.00
                      5 H5       4 H4       6 H6         0.00
                      3 H3       5 H5       4 H4         0.00
                      3 H3       5 H5       6 H6       180.00
                      4 H4       5 H5       6 H6       180.00
                      4 H4       6 H6       5 H5         0.00
--
 
 
            Nuclear Potential Energy              5.98136894 au
 
 ###############################################################################
 ###############################################################################
 ###                                                                         ###
 ###                                                                         ###
 ###    There were warnings during the execution                             ###
 ###    Please, check the output with care!                                  ###
 ###                                                                         ###
 ###                                                                         ###
 ###############################################################################
 ###############################################################################
--- Stop Module: gateway at Fri Aug  9 15:35:55 2024 /rc=_RC_ALL_IS_WELL_ ---
*** files: xmldump
    saved to directory /home/grierjones/DDCASPT2/hydrogen_comps/minimal_2e_2o/chains/even/H6_chain/H6_0.77

--- Start Module: seward at Fri Aug  9 15:35:55 2024 ---
 
()()()()()()()()()()()()()()()()()()()()()()()()()()()()()()()()()()()()()()()()()()()()()()()()()()

                                              &SEWARD

                                   only a single process is used
                       available to each process: 2.0 GB of memory, 1 thread?
()()()()()()()()()()()()()()()()()()()()()()()()()()()()()()()()()()()()()()()()()()()()()()()()()()
 
 ###############################################################################
 ###############################################################################
 ###                                                                         ###
 ###                                                                         ###
 ###                                                                         ###
 ###    WARNING: EXPERT option is ON!                                        ###
 ###                                                                         ###
 ###                                                                         ###
 ###############################################################################
 ###############################################################################
               SEWARD will generate:
                  Multipole Moment integrals up to order  2
                  Kinetic Energy integrals
                  Nuclear Attraction integrals (point charge)
                  One-Electron Hamiltonian integrals
                  Velocity integrals
                  Relativistic Douglas-Kroll-Hess integrals:
                    - Parametrization         : EXP
                    - DKH order of Hamiltonian: 2
                    - DKH order of Properties : 0
                         - multipole moment operators
                         - electric potential operators
                         - contact operators
                  Atomic mean-field integrals
                  Two-Electron Repulsion integrals
 
                   Integrals are discarded if absolute value <: 0.10E-13
                   Integral cutoff threshold is set to       <: 0.10E-15
 
            Nuclear Potential Energy              5.98136894 au
 
 
      Basis set specifications :
      Symmetry species         a  
      Basis functions           30
 
 
  Input file to MOLDEN was generated!
 
 ###############################################################################
 ###############################################################################
 ###                                                                         ###
 ###                                                                         ###
 ###    There were warnings during the execution                             ###
 ###    Please, check the output with care!                                  ###
 ###                                                                         ###
 ###                                                                         ###
 ###############################################################################
 ###############################################################################
--- Stop Module: seward at Fri Aug  9 15:35:56 2024 /rc=_RC_ALL_IS_WELL_ ---
*** files: H6_0.77.GssOrb H6_0.77.guessorb.h5 H6_0.77.guessorb.molden xmldump
    saved to directory /home/grierjones/DDCASPT2/hydrogen_comps/minimal_2e_2o/chains/even/H6_chain/H6_0.77

*** symbolic link created: INPORB -> H6_0.77.GssOrb
--- Start Module: motra at Fri Aug  9 15:35:56 2024 ---
 
()()()()()()()()()()()()()()()()()()()()()()()()()()()()()()()()()()()()()()()()()()()()()()()()()()

                                               &MOTRA

                                   only a single process is used
                       available to each process: 2.0 GB of memory, 1 thread?
()()()()()()()()()()()()()()()()()()()()()()()()()()()()()()()()()()()()()()()()()()()()()()()()()()
 
 
      *** WARNING: Default frozen orbitals is overwritten by user input.
      *** Default values:   0
 
      Header of the integral files:
      
       Integrals generated by seward 4.2.0  , Fri Aug  9 15:35:55 2024
 
 
      Header of MO coefficients source file:
      *Guess orbitals                                                                 
 
 
      Cartesian coordinates in Angstrom:
      -----------------------------------------------------
      No.  Label        X            Y            Z        
      -----------------------------------------------------
       1   H1         0.00000000   0.00000000   0.00000000
       2   H2         0.00000000   0.00000000   0.76969700
       3   H3         0.00000000   0.00000000   1.53939400
       4   H4         0.00000000   0.00000000   2.30909100
       5   H5         0.00000000   0.00000000   3.07878800
       6   H6         0.00000000   0.00000000   3.84848500
      -----------------------------------------------------
      Nuclear repulsion energy =    5.98136894
 
      Orbital specifications:
      -----------------------
 
      Symmetry species:              1
      Number of basis functions:    30
      Frozen orbitals:               0
      Deleted orbitals:              0
      Number of orbitals used:      30

       SYMMETRY  BASIS FUNCTIONS       ORBITALS      INTEGRALS   CPU(SEC)  I/O(SEC)
 
        1 1 1 1   30  30  30  30    30  30  30  30      108345       0.00      0.00

       TOTAL CPU TIME(SEC)    0.96TOTAL I/O TIME(SEC)    1.61
 
--- Stop Module: motra at Fri Aug  9 15:35:57 2024 /rc=_RC_ALL_IS_WELL_ ---
*** files: xmldump
    saved to directory /home/grierjones/DDCASPT2/hydrogen_comps/minimal_2e_2o/chains/even/H6_chain/H6_0.77
--- Module motra spent 1 second ---

>>> COPY /tmp/H6_0.77/GMJ_one_int_indx.csv /home/grierjones/DDCASPT2/hydrogen_comps/minimal_2e_2o/chains/even/H6_chain/H6_0.77/H6_0.77.GMJ_one_int_indx.csv

>>> COPY /tmp/H6_0.77/GMJ_one_int.csv /home/grierjones/DDCASPT2/hydrogen_comps/minimal_2e_2o/chains/even/H6_chain/H6_0.77/H6_0.77.GMJ_one_int.csv

>>> COPY /tmp/H6_0.77/GMJ_two_int_indx.csv /home/grierjones/DDCASPT2/hydrogen_comps/minimal_2e_2o/chains/even/H6_chain/H6_0.77/H6_0.77.GMJ_two_int_indx.csv

>>> COPY /tmp/H6_0.77/GMJ_two_int.csv /home/grierjones/DDCASPT2/hydrogen_comps/minimal_2e_2o/chains/even/H6_chain/H6_0.77/H6_0.77.GMJ_two_int.csv

*** symbolic link created: INPORB -> H6_0.77.GssOrb
--- Start Module: scf at Fri Aug  9 15:35:57 2024 ---
 
()()()()()()()()()()()()()()()()()()()()()()()()()()()()()()()()()()()()()()()()()()()()()()()()()()

                                                &SCF

                                   only a single process is used
                       available to each process: 2.0 GB of memory, 1 thread?
()()()()()()()()()()()()()()()()()()()()()()()()()()()()()()()()()()()()()()()()()()()()()()()()()()
 
++    Input section:
      --------------
 
      Header of the integral files:
      
       Integrals generated by seward 4.2.0  , Fri Aug  9 15:35:55 2024
 
 
      Cartesian coordinates in Angstrom:
      -----------------------------------------------------
      No.  Label        X            Y            Z        
      -----------------------------------------------------
       1   H1         0.00000000   0.00000000   0.00000000
       2   H2         0.00000000   0.00000000   0.76969700
       3   H3         0.00000000   0.00000000   1.53939400
       4   H4         0.00000000   0.00000000   2.30909100
       5   H5         0.00000000   0.00000000   3.07878800
       6   H6         0.00000000   0.00000000   3.84848500
      -----------------------------------------------------
      Nuclear repulsion energy =    5.98136894
--
 
++    Orbital specifications:
      -----------------------
 
      Symmetry species               1
                                     a
      Frozen orbitals                0
      Occupied orbitals              3
      Secondary orbitals            27
      Deleted orbitals               0
      Total number of orbitals      30
      Number of basis functions     30
--
 
      Molecular charge                           0.000
 
++    Optimization specifications:
      ----------------------------
 
      SCF Algorithm: Conventional
      Minimized density differences are used
      Number of density matrices in core                5
      Maximum number of NDDO SCF iterations           400
      Maximum number of HF SCF iterations             400
      Threshold for SCF energy change            0.10E-08
      Threshold for density matrix               0.10E-03
      Threshold for Fock matrix                  0.15E-03
      Threshold for linear dependence            0.10E-08
      Threshold at which DIIS is turned on       0.15E+00
      Threshold at which QNR/C2DIIS is turned on 0.75E-01
      Threshold for Norm(delta) (QNR/C2DIIS)     0.20E-04
      DIIS extrapolation of the SCF procedure
      All orbitals punched on: SCFORB
--
 
      Input vectors read from INPORB
      Orbital file label: *Guess orbitals
 
 
++ Convergence information
                                   SCF        iterations: Energy and convergence statistics
 
Iter     Tot. SCF        One-elec.       Two-elec.     Energy      Max Dij or  Max Fij      DNorm      TNorm      AccCon     Time
         Energy          Energy          Energy        Change      Delta Norm                                                in Sec.
   1    -3.061699215   -14.105917900     5.062849740   0.00E+00    0.27E+00*   0.15E+00*    0.34E+01   0.13E+02   None         0.
   2    -3.186372270   -14.550561263     5.382820047  -0.12E+00*   0.52E-01*   0.27E-01*    0.18E+01   0.13E+02   EDIIS        0.
   3    -3.189982381   -14.538503112     5.367151786  -0.36E-02*   0.11E-01*   0.57E-02*    0.41E+00   0.13E+02   EDIIS        0.
   4    -3.190136693   -14.540650077     5.369144439  -0.15E-03*   0.50E-03*   0.16E-02*    0.24E-01   0.13E+02   c2DIIS       0.
   5    -3.190144943   -14.540644989     5.369131101  -0.82E-05*   0.81E-04*   0.40E-04     0.25E-02   0.13E+02   QNRc2DIIS    0.
   6    -3.190144957   -14.540649018     5.369135115  -0.14E-07*   0.40E-04*   0.11E-04     0.27E-03   0.13E+02   QNRc2DIIS    0.
   7    -3.190144959   -14.540634019     5.369120115  -0.16E-08*   0.26E-05    0.13E-05     0.66E-04   0.13E+02   QNRc2DIIS    0.
   8    -3.190144959   -14.540633991     5.369120087  -0.12E-10    0.73E-06    0.30E-06     0.88E-05   0.13E+02   QNRc2DIIS    0.
 
       Convergence after  8 Macro Iterations
--
 
 *****************************************************************************************************************************
 *                                                                                                                           *
 *                                             SCF/KS-DFT Program, Final results                                             *
 *                                                                                                                           *
 *                                                                                                                           *
 *                                                                                                                           *
 *                                                       Final Results                                                       *
 *                                                                                                                           *
 *****************************************************************************************************************************
 
::    Total SCF energy                                 -3.1901449590
      One-electron energy                             -14.5406339911
      Two-electron energy                               5.3691200872
      Nuclear repulsion energy                          5.9813689450
      Kinetic energy (interpolated)                     3.6667527766
      Virial theorem                                    0.8700191023
      Total spin, S(S+1)                                0.0000000000
      Total spin, S                                     0.0000000000
      Max non-diagonal density matrix element           0.0000007650
      Max non-diagonal Fock matrix element              0.0000001125
 
 
      All orbitals with orbital energies smaller than  E(LUMO)+0.5 are printed
 
++    Molecular orbitals:
      -------------------
 
      Title: SCF orbitals

      Molecular orbitals for symmetry species 1: a  
 
          Orbital            1         2         3         4         5         6         7         8         9    
          Energy           -0.8541   -0.6648   -0.3823    0.1246    0.1690    0.3520    0.3776    0.5258    0.5258
          Occ. No.          2.0000    2.0000    2.0000    0.0000    0.0000    0.0000    0.0000    0.0000    0.0000
 
        1 H1     1s         0.2300   -0.4041    0.4801   -1.4703    0.4401    2.3430    0.0608   -0.0000   -0.0000
        2 H1     2s         0.0576   -0.0319    0.0389   -1.0486    0.5878    1.7905    0.5885   -0.0000   -0.0000
        3 H1     2px        0.0000   -0.0000    0.0000   -0.0000    0.0000    0.0000    0.0000    0.0427    0.1723
        4 H1     2py        0.0000   -0.0000    0.0000   -0.0000    0.0000    0.0000    0.0000    0.1723   -0.0427
        5 H1     2pz        0.0256   -0.0354    0.0113   -0.0696    0.0348    0.1606    0.1551   -0.0000   -0.0000
        6 H2     1s         0.1529   -0.2634    0.3499    1.6228   -0.8926   -2.9537   -0.6994    0.0000    0.0000
        7 H2     2s        -0.1133    0.1414    0.0922    0.9769   -0.3484   -2.1858   -0.3915    0.0000    0.0000
        8 H2     2px        0.0000   -0.0000    0.0000   -0.0000    0.0000    0.0000   -0.0000    0.0612    0.2470
        9 H2     2py        0.0000   -0.0000    0.0000   -0.0000    0.0000   -0.0000    0.0000    0.2470   -0.0612
       10 H2     2pz        0.0146    0.0023   -0.0500   -0.0585    0.0412    0.2113    0.2479   -0.0000   -0.0000
       11 H3     1s         0.3507   -0.1420   -0.5173   -0.5467    0.3337    0.9822    2.4512   -0.0000    0.0000
       12 H3     2s        -0.0532    0.0271   -0.0963   -0.5974    0.4158    0.3486    1.6612   -0.0000    0.0000
       13 H3     2px       -0.0000   -0.0000    0.0000   -0.0000    0.0000    0.0000   -0.0000    0.0760    0.3067
       14 H3     2py       -0.0000    0.0000    0.0000   -0.0000    0.0000    0.0000    0.0000    0.3067   -0.0760
       15 H3     2pz        0.0069    0.0279   -0.0359   -0.1015    0.0074    0.0485    0.2034   -0.0000   -0.0000
       16 H4     1s         0.3507    0.1420   -0.5173    0.5467    0.3337    0.9822   -2.4512    0.0000   -0.0000
       17 H4     2s        -0.0532   -0.0271   -0.0963    0.5974    0.4158    0.3486   -1.6612    0.0000    0.0000
       18 H4     2px       -0.0000   -0.0000   -0.0000   -0.0000    0.0000    0.0000   -0.0000    0.0760    0.3067
       19 H4     2py        0.0000   -0.0000   -0.0000   -0.0000    0.0000    0.0000    0.0000    0.3067   -0.0760
       20 H4     2pz       -0.0069    0.0279    0.0359   -0.1015   -0.0074   -0.0485    0.2034   -0.0000   -0.0000
       21 H5     1s         0.1529    0.2634    0.3499   -1.6228   -0.8926   -2.9537    0.6994    0.0000    0.0000
       22 H5     2s        -0.1133   -0.1414    0.0922   -0.9769   -0.3484   -2.1858    0.3915    0.0000    0.0000
       23 H5     2px       -0.0000    0.0000    0.0000   -0.0000    0.0000    0.0000    0.0000    0.0612    0.2470
       24 H5     2py       -0.0000   -0.0000    0.0000   -0.0000    0.0000   -0.0000    0.0000    0.2470   -0.0612
       25 H5     2pz       -0.0146    0.0023    0.0500   -0.0585   -0.0412   -0.2113    0.2479   -0.0000    0.0000
       26 H6     1s         0.2300    0.4041    0.4801    1.4703    0.4401    2.3430   -0.0608   -0.0000   -0.0000
       27 H6     2s         0.0576    0.0319    0.0389    1.0486    0.5878    1.7905   -0.5885    0.0000   -0.0000
       28 H6     2px       -0.0000   -0.0000    0.0000   -0.0000    0.0000    0.0000    0.0000    0.0427    0.1723
       29 H6     2py        0.0000    0.0000   -0.0000    0.0000   -0.0000    0.0000    0.0000    0.1723   -0.0427
       30 H6     2pz       -0.0256   -0.0354   -0.0113   -0.0696   -0.0348   -0.1606    0.1551   -0.0000    0.0000
--
 
 
++    Molecular charges:
      ------------------
 
      Mulliken charges per centre and basis function type
      ---------------------------------------------------
 
                H1      H2      H3      H4      H5      H6    
      1s       1.1932  0.6933  0.9915  0.9915  0.6933  1.1932
      2s       0.0122  0.0214 -0.0852 -0.0852  0.0214  0.0122
      2px      0.0000  0.0000  0.0000 -0.0000  0.0000  0.0000
      2pz      0.0326  0.0741  0.0670  0.0670  0.0741  0.0326
      2py      0.0000  0.0000  0.0000  0.0000  0.0000  0.0000
      Total    1.2380  0.7887  0.9733  0.9733  0.7887  1.2380
 
      N-E     -0.2380  0.2113  0.0267  0.0267  0.2113 -0.2380
 
      Total electronic charge=    6.000000
 
      Total            charge=   -0.000000
--
 
 
  Input file to MOLDEN was generated!
 
 
++    Static properties:
      ------------------
 
 
      LoProp Charges per center
 

                   H1       H2       H3       H4       H5       H6    
      Nuclear      1.0000   1.0000   1.0000   1.0000   1.0000   1.0000
      Electronic  -1.0642  -0.9655  -0.9703  -0.9703  -0.9655  -1.0642
 
      Total       -0.0642   0.0345   0.0297   0.0297   0.0345  -0.0642
--
 
 
++    Natural Bond Order analysis
      ---------------------------
      Based on LoProp computed density
      -------------------------------------------------------------------------------------
      Atom A       Atom B       Bond Order | Atom A       Atom B       Bond Order
        H1           H2             0.965  |   H5           H6             0.965
        H3           H4             0.944  |
      -------------------------------------------------------------------------------------
      NBO located      5.749 electrons involved in    3 bonds.
      The remaining    0.251 electrons are to be considered as diffuse
--
 
 
++    Molecular properties:
      ---------------------
 
      Charge (e):
                      =   -0.0000
      Dipole Moment (Debye):
      Origin of the operator (Ang)=    0.0000    0.0000    0.0000
                   X= -7.6559E-14               Y= -3.7237E-14               Z=  3.9823E-12           Total=  3.9832E-12
      Quadrupole Moment (Debye*Ang):
      Origin of the operator (Ang)=    0.0000    0.0000    1.9242
                  XX= -5.9668E+00              XY= -2.6664E-28              XZ=  1.7632E-13              YY= -5.9668E+00
                  YZ=  6.1906E-14              ZZ= -8.4054E+00
      In traceless form (Debye*Ang)
                  XX=  1.2193E+00              XY= -3.9996E-28              XZ=  2.6449E-13              YY=  1.2193E+00
                  YZ=  9.2858E-14              ZZ= -2.4386E+00
--
 
 
  Input file to MOLDEN was generated!
 
 ###############################################################################
 ###############################################################################
 ###                                                                         ###
 ###                                                                         ###
 ###    RunFile label nBas                                                   ###
 ###    was used       78 times                                              ###
 ###                                                                         ###
 ###                                                                         ###
 ###############################################################################
 ###############################################################################
--- Stop Module: scf at Fri Aug  9 15:35:57 2024 /rc=_RC_ALL_IS_WELL_ ---
*** files: H6_0.77.LprOrb H6_0.77.LoProp.molden H6_0.77.scf.molden H6_0.77.ScfOrb H6_0.77.scf.h5 xmldump
    saved to directory /home/grierjones/DDCASPT2/hydrogen_comps/minimal_2e_2o/chains/even/H6_chain/H6_0.77

>>> COPY /tmp/H6_0.77/H6_0.77.scf.h5 /home/grierjones/DDCASPT2/hydrogen_comps/minimal_2e_2o/chains/even/H6_chain/H6_0.77/

*** symbolic link created: INPORB -> H6_0.77.ScfOrb
--- Start Module: rasscf at Fri Aug  9 15:35:57 2024 ---
 
()()()()()()()()()()()()()()()()()()()()()()()()()()()()()()()()()()()()()()()()()()()()()()()()()()

                                              &RASSCF

                                   only a single process is used
                       available to each process: 2.0 GB of memory, 1 thread?
()()()()()()()()()()()()()()()()()()()()()()()()()()()()()()()()()()()()()()()()()()()()()()()()()()
 
 
      Header of the ONEINT file:
      --------------------------
      
      Integrals generated by seward 4.2.0  , Fri Aug  9 15:35:55 2024
 
 
      OrdInt status: non-squared
 
 
      Cartesian coordinates in Angstrom:
      -----------------------------------------------------
      No.  Label        X            Y            Z        
      -----------------------------------------------------
       1   H1         0.00000000   0.00000000   0.00000000
       2   H2         0.00000000   0.00000000   0.76969700
       3   H3         0.00000000   0.00000000   1.53939400
       4   H4         0.00000000   0.00000000   2.30909100
       5   H5         0.00000000   0.00000000   3.07878800
       6   H6         0.00000000   0.00000000   3.84848500
      -----------------------------------------------------
      Nuclear repulsion energy =    5.98136894
 
++    Wave function specifications:
      -----------------------------
 
      Number of closed shell electrons           0
      Number of electrons in active shells       6
      Max number of holes in RAS1 space          0
      Max nr of electrons in RAS3 space          0
      Number of inactive orbitals                0
      Number of active orbitals                  6
      Number of secondary orbitals              24
      Spin quantum number                      0.0
      State symmetry                             1
--
 
++    Orbital specifications:
      -----------------------
 
      Symmetry species                           1
                                                 a
      Frozen orbitals                            0
      Inactive orbitals                          0
      Active orbitals                            6
      RAS1 orbitals                              0
      RAS2 orbitals                              6
      RAS3 orbitals                              0
      Secondary orbitals                        24
      Deleted orbitals                           0
      Number of basis functions                 30
--
 
++    CI expansion specifications:
      ----------------------------
 
      Number of CSFs                           175
      Number of determinants                   210
      Number of root(s) required                 1
      Root chosen for geometry opt.              1
      CI root used                               1
         
      highest root included in the CI            1
      max. size of the explicit Hamiltonian    175
--
 
++    Optimization specifications:
      ----------------------------
 
      RASSCF algorithm: Conventional
      Maximum number of macro iterations       200
      Maximum number of SX iterations          100
      Threshold for RASSCF energy            0.100E-07
      Threshold for max MO rotation          0.100E+00
      Threshold for max BLB element          0.100E-03
      Level shift parameter                  0.500E+00
      Make Quasi-Newton update
--
 
      The MO-coefficients are taken from the file:
      /home/grierjones/DDCASPT2/hydrogen_comps/minimal_2e_2o/chains/even/H6_chain/H6_0.75/H6_0.75.RasOrb                              
      Title: RASSCF average (pseudo-natural) orbitals                                      
 
      Total molecular charge    0.00
 
      ************************************************************************************************************************
      *                                                                                                                      *
      *                                            Wave function control section                                             *
      *                                                                                                                      *
      ************************************************************************************************************************
 
 
                                         RASSCF iterations: Energy and convergence statistics
                                         ----------------------------------------------------
 
      Iter CI   SX   CI       RASSCF       Energy    max ROT     max BLB   max BLB  Level Ln srch  Step   QN   Walltime
          iter iter root      energy       change     param      element    value   shift minimum  type update hh:mm:ss
 Nr of preliminary CI iterations:   1
        1   1    5    1    -3.24869273    0.00E+00   0.88E-02    1   7 1 -0.17E-01*  0.00   0.00    SX    NO    0:00:00
        2   1    4    1    -3.24912090   -0.43E-03*  0.34E-02    1   7 1 -0.36E-02*  0.00   0.00    SX    NO    0:00:00
        3   1    4    1    -3.24913779   -0.17E-04* -0.18E-02    1   7 1 -0.74E-03*  0.00   0.00    SX    NO    0:00:00
        4   1    4    1    -3.24913952   -0.17E-05* -0.13E-02    2  14 1  0.16E-03*  0.00   0.00    SX    NO    0:00:00
        5   1    4    1    -3.24913996   -0.44E-06* -0.17E-02    3  27 1  0.76E-04   0.00   2.31    LS   YES    0:00:00
        6   1    4    1    -3.24914016   -0.21E-06* -0.37E-03    1   7 1  0.13E-03*  0.00   1.01    QN   YES    0:00:00
        7   1    3    1    -3.24914019   -0.24E-07*  0.20E-03    1   7 1  0.35E-04   0.00   1.46    QN   YES    0:00:00
        8   1    3    1    -3.24914019   -0.30E-08  -0.11E-04    1   7 1 -0.24E-05   0.00   1.03    QN   YES    0:00:00
      Convergence after  8 iterations
        9   1    3    1    -3.24914019   -0.43E-10  -0.11E-04    1   7 1 -0.11E-05   0.00   1.03    QN   YES    0:00:00
 
      ************************************************************************************************************************
                                                      Wave function printout:
                       occupation of active orbitals, and spin coupling of open shells (u,d: Spin up or down)
      ************************************************************************************************************************
 
      Note: transformation to natural orbitals
      has been made, which may change the order of the CSFs.
 
      printout of CI-coefficients larger than  0.05 for root  1
      energy=      -3.249140
      conf/sym  111111     Coeff  Weight
             1  222000  -0.97901 0.95846
            11  220200   0.13098 0.01716
            20  2udu0d   0.07123 0.00507
            24  u2dud0  -0.05069 0.00257
            29  202200   0.05298 0.00281
            48  2uud0d  -0.05856 0.00343
 
      Natural orbitals and occupation numbers for root  1
      sym 1:   1.988699   1.978109   1.949431   0.057411   0.007232   0.019117
 
      ************************************************************************************************************************
      *                                                                                                                      *
      *                                                    Final results                                                     *
      *                                                                                                                      *
      ************************************************************************************************************************
 
 
++    Wave function specifications:
      -----------------------------
 
      Number of closed shell electrons           0
      Number of electrons in active shells       6
      Max number of holes in RAS1 space          0
      Max nr of electrons in RAS3 space          0
      Number of inactive orbitals                0
      Number of active orbitals                  6
      Number of secondary orbitals              24
      Spin quantum number                      0.0
      State symmetry                             1
--
 
++    Orbital specifications:
      -----------------------
 
      Symmetry species                           1
                                                 a
      Frozen orbitals                            0
      Inactive orbitals                          0
      Active orbitals                            6
      RAS1 orbitals                              0
      RAS2 orbitals                              6
      RAS3 orbitals                              0
      Secondary orbitals                        24
      Deleted orbitals                           0
      Number of basis functions                 30
--
 
++    CI expansion specifications:
      ----------------------------
 
      Number of CSFs                           175
      Number of determinants                   210
      Number of root(s) required                 1
      CI root used                               1
      highest root included in the CI            1
      Root passed to geometry opt.               1
--
 
++    Final optimization conditions:
      ------------------------------
 
      Average CI energy                              -3.24914019
      RASSCF energy for state  1                     -3.24914019
      Super-CI energy                                -0.00000000
      RASSCF energy change                           -0.00000000
      Max change in MO coefficients               0.131E-03
      Max non-diagonal density matrix element    -0.113E-04
      Maximum BLB matrix element                 -0.113E-05
      (orbital pair   1,   7 in symmetry   1)
      Norm of electronic gradient            0.176E-05
--
 
 
      Final state energy(ies):
      ------------------------
 
::    RASSCF root number  1 Total energy:     -3.24914019
 
++    Molecular orbitals:
      -------------------
 
      Pseudonatural active orbitals and approximate occupation numbers
 
 
 
 
      Molecular orbitals for symmetry species 1: a  
 
 
      Orbital                1         2         3         4         5         6         7         8         9        10
      Energy            0.0000    0.0000    0.0000    0.0000    0.0000    0.0000    0.1943    0.3148    0.5163    0.5295
      Occ. No.          1.9887    1.9781    1.9494    0.0574    0.0072    0.0191    0.0000    0.0000    0.0000    0.0000
 
    1 H1     1s         0.2570   -0.4121    0.4782   -0.4930    0.8511   -0.7555   -0.2417    0.6387   -2.0215   -0.0000
    2 H1     2s         0.0604   -0.0379    0.0321    0.1573    0.1036    0.0359    0.1286    0.9519   -1.9978   -0.0000
    3 H1     2px       -0.0000    0.0000   -0.0000    0.0000   -0.0000    0.0000    0.0000    0.0000   -0.0000   -0.0396
    4 H1     2py        0.0000   -0.0000   -0.0000    0.0000   -0.0000    0.0000    0.0000    0.0000    0.0000   -0.1736
    5 H1     2pz        0.0242   -0.0334    0.0048    0.0477   -0.0875    0.0786    0.0233    0.2125   -0.3432   -0.0000
    6 H2     1s         0.1751   -0.2384    0.3046    0.0044   -1.8874    0.9759    0.0829   -0.4941    1.9186    0.0000
    7 H2     2s        -0.1093    0.1672    0.0701   -0.2962   -0.4625   -0.0880    0.2973   -0.2388    1.6245    0.0000
    8 H2     2px        0.0000   -0.0000   -0.0000   -0.0000   -0.0000    0.0000    0.0000    0.0000   -0.0000   -0.0566
    9 H2     2py       -0.0000    0.0000    0.0000    0.0000    0.0000    0.0000    0.0000    0.0000    0.0000   -0.2481
   10 H2     2pz        0.0123   -0.0009   -0.0510    0.0848    0.1013   -0.0025    0.0121    0.2489   -0.3888   -0.0000
   11 H3     1s         0.3197   -0.1808   -0.5103    0.9190    2.6485   -0.4158   -0.0717    0.5836   -0.1026   -0.0000
   12 H3     2s        -0.0601    0.0051   -0.0668    0.1934    0.8045    0.0477    0.2309    0.5963    0.1678   -0.0000
   13 H3     2px       -0.0000    0.0000    0.0000    0.0000    0.0000   -0.0000    0.0000    0.0000   -0.0000   -0.0702
   14 H3     2py       -0.0000   -0.0000    0.0000   -0.0000   -0.0000   -0.0000   -0.0000    0.0000    0.0000   -0.3077
   15 H3     2pz        0.0028    0.0273   -0.0347   -0.0427   -0.0138   -0.1362   -0.0133    0.2501   -0.0356    0.0000
   16 H4     1s         0.3197    0.1808   -0.5103   -0.9190   -2.6485   -0.4158   -0.0717   -0.5836   -0.1026    0.0000
   17 H4     2s        -0.0601   -0.0051   -0.0668   -0.1934   -0.8045    0.0477    0.2309   -0.5963    0.1678    0.0000
   18 H4     2px        0.0000   -0.0000   -0.0000    0.0000   -0.0000    0.0000   -0.0000    0.0000   -0.0000   -0.0702
   19 H4     2py        0.0000    0.0000   -0.0000    0.0000   -0.0000    0.0000   -0.0000    0.0000    0.0000   -0.3077
   20 H4     2pz       -0.0028    0.0273    0.0347   -0.0427   -0.0138    0.1362    0.0133    0.2501    0.0356    0.0000
   21 H5     1s         0.1751    0.2384    0.3046   -0.0044    1.8874    0.9759    0.0829    0.4941    1.9186   -0.0000
   22 H5     2s        -0.1093   -0.1672    0.0701    0.2962    0.4625   -0.0880    0.2973    0.2388    1.6245   -0.0000
   23 H5     2px       -0.0000    0.0000   -0.0000    0.0000    0.0000   -0.0000   -0.0000    0.0000   -0.0000   -0.0566
   24 H5     2py       -0.0000   -0.0000   -0.0000    0.0000   -0.0000   -0.0000   -0.0000    0.0000    0.0000   -0.2481
   25 H5     2pz       -0.0123   -0.0009    0.0510    0.0848    0.1013    0.0025   -0.0121    0.2489    0.3888    0.0000
   26 H6     1s         0.2570    0.4121    0.4782    0.4930   -0.8511   -0.7555   -0.2417   -0.6387   -2.0215    0.0000
   27 H6     2s         0.0604    0.0379    0.0321   -0.1573   -0.1036    0.0359    0.1286   -0.9519   -1.9978   -0.0000
   28 H6     2px        0.0000   -0.0000    0.0000   -0.0000   -0.0000   -0.0000   -0.0000    0.0000   -0.0000   -0.0396
   29 H6     2py        0.0000    0.0000    0.0000    0.0000   -0.0000   -0.0000   -0.0000    0.0000    0.0000   -0.1736
   30 H6     2pz       -0.0242   -0.0334   -0.0048    0.0477   -0.0875   -0.0786   -0.0233    0.2125    0.3432    0.0000
 
 
      Orbital               11        12        13        14        15        16        17        18        19        20
      Energy            0.5295    0.7395    0.7395    0.8745    1.0808    1.0808    1.3953    1.5897    1.5897    2.0543
      Occ. No.          0.0000    0.0000    0.0000    0.0000    0.0000    0.0000    0.0000    0.0000    0.0000    0.0000
 
    1 H1     1s        -0.0000    0.0000   -0.0000   -3.7705   -0.0000   -0.0000    3.3277    0.0000   -0.0000    2.9669
    2 H1     2s        -0.0000    0.0000   -0.0000   -2.9706   -0.0000   -0.0000    2.3755    0.0000   -0.0000    2.1077
    3 H1     2px        0.1736   -0.0434   -0.3783    0.0000    0.2609    0.5169   -0.0000   -0.4011    0.5988   -0.0000
    4 H1     2py       -0.0396   -0.3783    0.0434   -0.0000    0.5169   -0.2609    0.0000   -0.5988   -0.4011    0.0000
    5 H1     2pz       -0.0000    0.0000    0.0000   -0.4124   -0.0000   -0.0000    0.0876    0.0000   -0.0000   -0.2361
    6 H2     1s         0.0000   -0.0000    0.0000    6.4727    0.0000   -0.0000   -8.2146   -0.0000    0.0000  -12.8568
    7 H2     2s         0.0000   -0.0000    0.0000    5.5286    0.0000    0.0000   -6.8209   -0.0000    0.0000   -9.9371
    8 H2     2px        0.2481   -0.0404   -0.3521    0.0000    0.0553    0.1097   -0.0000    0.2701   -0.4031   -0.0000
    9 H2     2py       -0.0566   -0.3521    0.0404    0.0000    0.1097   -0.0553   -0.0000    0.4031    0.2701   -0.0000
   10 H2     2pz       -0.0000    0.0000    0.0000   -0.1239   -0.0000   -0.0000   -0.2278    0.0000   -0.0000   -0.6494
   11 H3     1s         0.0000    0.0000   -0.0000   -3.8576   -0.0000    0.0000    5.1205    0.0000   -0.0000   23.6015
   12 H3     2s         0.0000    0.0000   -0.0000   -2.7430   -0.0000    0.0000    4.3863    0.0000   -0.0000   18.5654
   13 H3     2px        0.3077   -0.0179   -0.1561    0.0000   -0.1925   -0.3813   -0.0000    0.3095   -0.4621   -0.0000
   14 H3     2py       -0.0702   -0.1561    0.0179    0.0000   -0.3813    0.1925   -0.0000    0.4621    0.3095    0.0000
   15 H3     2pz       -0.0000   -0.0000    0.0000    0.2907    0.0000   -0.0000   -0.5744   -0.0000    0.0000    0.1532
   16 H4     1s        -0.0000   -0.0000    0.0000    3.8576    0.0000    0.0000    5.1205    0.0000   -0.0000  -23.6015
   17 H4     2s        -0.0000   -0.0000    0.0000    2.7430    0.0000    0.0000    4.3863    0.0000   -0.0000  -18.5654
   18 H4     2px        0.3077    0.0179    0.1561    0.0000   -0.1925   -0.3813    0.0000   -0.3095    0.4621    0.0000
   19 H4     2py       -0.0702    0.1561   -0.0179    0.0000   -0.3813    0.1925    0.0000   -0.4621   -0.3095   -0.0000
   20 H4     2pz       -0.0000   -0.0000    0.0000    0.2907    0.0000    0.0000    0.5744    0.0000   -0.0000    0.1532
   21 H5     1s         0.0000    0.0000   -0.0000   -6.4727   -0.0000   -0.0000   -8.2146   -0.0000    0.0000   12.8568
   22 H5     2s         0.0000    0.0000   -0.0000   -5.5286   -0.0000   -0.0000   -6.8209   -0.0000    0.0000    9.9371
   23 H5     2px        0.2481    0.0404    0.3521   -0.0000    0.0553    0.1097    0.0000   -0.2701    0.4031   -0.0000
   24 H5     2py       -0.0566    0.3521   -0.0404    0.0000    0.1097   -0.0553    0.0000   -0.4031   -0.2701   -0.0000
   25 H5     2pz        0.0000   -0.0000   -0.0000   -0.1239   -0.0000   -0.0000    0.2278    0.0000   -0.0000   -0.6494
   26 H6     1s        -0.0000   -0.0000    0.0000    3.7705    0.0000    0.0000    3.3277    0.0000   -0.0000   -2.9669
   27 H6     2s        -0.0000    0.0000    0.0000    2.9706    0.0000    0.0000    2.3755    0.0000   -0.0000   -2.1077
   28 H6     2px        0.1736    0.0434    0.3783   -0.0000    0.2609    0.5169   -0.0000    0.4011   -0.5988    0.0000
   29 H6     2py       -0.0396    0.3783   -0.0434    0.0000    0.5169   -0.2609   -0.0000    0.5988    0.4011    0.0000
   30 H6     2pz        0.0000   -0.0000   -0.0000   -0.4124   -0.0000   -0.0000   -0.0876   -0.0000   -0.0000   -0.2361
 
 
      Orbital               21        22        23        24        25        26        27        28        29        30
      Energy            2.1554    2.3184    2.3184    2.6715    3.3022    3.3022    3.7426    4.8419    6.0114    7.3104
      Occ. No.          0.0000    0.0000    0.0000    0.0000    0.0000    0.0000    0.0000    0.0000    0.0000    0.0000
 
    1 H1     1s        -2.7177   -0.0000    0.0000    4.7603   -0.0000   -0.0000   -3.2752    3.1953   -2.2818    1.2336
    2 H1     2s        -1.8356   -0.0000    0.0000    2.7677   -0.0000   -0.0000   -1.1825    0.6608   -0.0486   -0.4946
    3 H1     2px        0.0000   -0.1255   -0.7301    0.0000   -0.1703   -0.5021   -0.0000    0.0000   -0.0000    0.0000
    4 H1     2py       -0.0000    0.7301   -0.1255    0.0000   -0.5021    0.1703    0.0000    0.0000   -0.0000    0.0000
    5 H1     2pz       -1.1736   -0.0000   -0.0000    1.5060   -0.0000   -0.0000   -1.2616    1.1653   -0.8494    0.4536
    6 H2     1s         4.8575    0.0000   -0.0000  -11.6988    0.0000    0.0000    4.9693   -1.3639   -2.6126    4.5322
    7 H2     2s         3.4729    0.0000   -0.0000   -7.8863    0.0000    0.0000    2.0309   -0.2645   -1.1981    1.1284
    8 H2     2px       -0.0000    0.1969    1.1455   -0.0000    0.3847    1.1345   -0.0000   -0.0000   -0.0000    0.0000
    9 H2     2py       -0.0000   -1.1455    0.1969   -0.0000    1.1345   -0.3847   -0.0000    0.0000   -0.0000   -0.0000
   10 H2     2pz        0.1455    0.0000   -0.0000   -0.0547   -0.0000    0.0000   -0.9765    2.3720   -3.0833    2.9330
   11 H3     1s        -2.0386   -0.0000    0.0000   15.9889   -0.0000   -0.0000   -1.6163   -4.4222    4.9366    1.4142
   12 H3     2s        -1.7753   -0.0000    0.0000   11.4325   -0.0000   -0.0000   -0.9418   -1.4321    1.1750    0.0436
   13 H3     2px        0.0000   -0.0949   -0.5520    0.0000   -0.5160   -1.5215    0.0000    0.0000    0.0000   -0.0000
   14 H3     2py        0.0000    0.5520   -0.0949   -0.0000   -1.5215    0.5160    0.0000   -0.0000    0.0000    0.0000
   15 H3     2pz       -0.3278   -0.0000   -0.0000    0.5789    0.0000    0.0000    0.9388   -0.3954   -1.9570    5.2324
   16 H4     1s        -2.0386    0.0000   -0.0000  -15.9889   -0.0000    0.0000   -1.6163    4.4222    4.9366   -1.4142
   17 H4     2s        -1.7753    0.0000   -0.0000  -11.4325   -0.0000    0.0000   -0.9418    1.4321    1.1750   -0.0436
   18 H4     2px        0.0000   -0.0949   -0.5520   -0.0000    0.5160    1.5215   -0.0000   -0.0000   -0.0000    0.0000
   19 H4     2py        0.0000    0.5520   -0.0949    0.0000    1.5215   -0.5160   -0.0000    0.0000   -0.0000   -0.0000
   20 H4     2pz        0.3278   -0.0000    0.0000    0.5789   -0.0000   -0.0000   -0.9388   -0.3954    1.9570    5.2324
   21 H5     1s         4.8575   -0.0000    0.0000   11.6988    0.0000   -0.0000    4.9693    1.3639   -2.6126   -4.5322
   22 H5     2s         3.4729   -0.0000    0.0000    7.8863    0.0000   -0.0000    2.0309    0.2645   -1.1981   -1.1284
   23 H5     2px       -0.0000    0.1969    1.1455    0.0000   -0.3847   -1.1345    0.0000    0.0000    0.0000    0.0000
   24 H5     2py       -0.0000   -1.1455    0.1969   -0.0000   -1.1345    0.3847    0.0000   -0.0000    0.0000    0.0000
   25 H5     2pz       -0.1455    0.0000   -0.0000   -0.0547    0.0000    0.0000    0.9765    2.3720    3.0833    2.9330
   26 H6     1s        -2.7177    0.0000   -0.0000   -4.7603   -0.0000   -0.0000   -3.2752   -3.1953   -2.2818   -1.2336
   27 H6     2s        -1.8356    0.0000   -0.0000   -2.7677   -0.0000   -0.0000   -1.1825   -0.6608   -0.0486    0.4946
   28 H6     2px        0.0000   -0.1255   -0.7301    0.0000    0.1703    0.5021   -0.0000   -0.0000    0.0000    0.0000
   29 H6     2py        0.0000    0.7301   -0.1255    0.0000    0.5021   -0.1703   -0.0000    0.0000   -0.0000   -0.0000
   30 H6     2pz        1.1736   -0.0000    0.0000    1.5060    0.0000    0.0000    1.2616    1.1653    0.8494    0.4536
--
 
      Von Neumann Entropy (Root  1) =  0.30035
 

      Mulliken population analysis for root number:  1
      -----------------------------------------------
 
 
++    Molecular charges:
      ------------------
 
      Mulliken charges per centre and basis function type
      ---------------------------------------------------
 
                H1      H2      H3      H4      H5      H6    
      1s       1.2079  0.6487  0.9957  0.9957  0.6487  1.2079
      2s       0.0131  0.0325 -0.0703 -0.0703  0.0325  0.0131
      2px      0.0000  0.0000 -0.0000  0.0000  0.0000  0.0000
      2pz      0.0328  0.0744  0.0652  0.0652  0.0744  0.0328
      2py      0.0000 -0.0000  0.0000  0.0000  0.0000 -0.0000
      Total    1.2539  0.7556  0.9906  0.9906  0.7556  1.2539
 
      N-E     -0.2539  0.2444  0.0094  0.0094  0.2444 -0.2539
 
      Total electronic charge=    6.000000
 
      Total            charge=   -0.000000
--
 
 

      Expectation values of various properties for root number:  1
      -----------------------------------------------------------
 
 
++    Molecular properties:
      ---------------------
 
      Charge (e):
                      =   -0.0000
      Dipole Moment (Debye):
      Origin of the operator (Ang)=    0.0000    0.0000    0.0000
                   X= -5.7317E-13               Y=  7.2407E-15               Z= -7.9465E-12           Total=  7.9671E-12
      Quadrupole Moment (Debye*Ang):
      Origin of the operator (Ang)=    0.0000    0.0000    1.9242
                  XX= -5.8304E+00              XY= -1.9224E-26              XZ= -1.4752E-12              YY= -5.8304E+00
                  YZ= -1.0366E-15              ZZ= -8.4308E+00
      In traceless form (Debye*Ang)
                  XX=  1.3002E+00              XY= -2.8836E-26              XZ= -2.2128E-12              YY=  1.3002E+00
                  YZ= -1.5549E-15              ZZ= -2.6004E+00
--
 

      LoProp population analysis for root number:  1
      -----------------------------------------------
 
 
++    LoProp analysis:
      ----------------
 
 
 
  Input file to MOLDEN was generated!
 
 
++    Static properties:
      ------------------
 
 
      LoProp Charges per center
 

                   H1       H2       H3       H4       H5       H6    
      Nuclear      1.0000   1.0000   1.0000   1.0000   1.0000   1.0000
      Electronic  -1.0631  -0.9659  -0.9710  -0.9710  -0.9659  -1.0631
 
      Total       -0.0631   0.0341   0.0290   0.0290   0.0341  -0.0631
--
 
 
      Natural Bond Order analysis for root number:  1
 
++    Natural Bond Order analysis
      ---------------------------
      Based on LoProp computed density
      -------------------------------------------------------------------------------------
      Atom A       Atom B       Bond Order | Atom A       Atom B       Bond Order
        H1           H2             0.935  |   H5           H6             0.935
        H3           H4             0.916  |
      -------------------------------------------------------------------------------------
      NBO located      5.573 electrons involved in    3 bonds.
      The remaining    0.427 electrons are to be considered as diffuse
--
 
--
 
 
  Input file to MOLDEN was generated!
 
      Average orbitals are written to the RASORB file
      Natural orbitals for root   1 are written to the RASORB.1 file
      Spin density orbitals for root   1 are written to the SPDORB.1 file
 
--- Stop Module: rasscf at Fri Aug  9 15:35:58 2024 /rc=_RC_ALL_IS_WELL_ ---
*** files: H6_0.77.LprOrb H6_0.77.rasscf.molden H6_0.77.LoProp.molden H6_0.77.RasOrb H6_0.77.RasOrb.1 H6_0.77.rasscf.h5 H6_0.77.SpdOrb.1 xmldump
    saved to directory /home/grierjones/DDCASPT2/hydrogen_comps/minimal_2e_2o/chains/even/H6_chain/H6_0.77

>>> COPY /tmp/H6_0.77/H6_0.77.rasscf.h5 /home/grierjones/DDCASPT2/hydrogen_comps/minimal_2e_2o/chains/even/H6_chain/H6_0.77/

>>> COPY /tmp/H6_0.77/GMJ_Fock_MO.csv /home/grierjones/DDCASPT2/hydrogen_comps/minimal_2e_2o/chains/even/H6_chain/H6_0.77/H6_0.77.GMJ_Fock_MO.csv

*** symbolic link created: INPORB -> H6_0.77.RasOrb
--- Start Module: caspt2 at Fri Aug  9 15:35:58 2024 ---
 
()()()()()()()()()()()()()()()()()()()()()()()()()()()()()()()()()()()()()()()()()()()()()()()()()()

                                              &CASPT2

                                   only a single process is used
                       available to each process: 2.0 GB of memory, 1 thread?
()()()()()()()()()()()()()()()()()()()()()()()()()()()()()()()()()()()()()()()()()()()()()()()()()()
 
 Cholesky algorithm in CASPT2 =    1
 
 ###############################################################################
 ###############################################################################
 ###                                                                         ###
 ###                                                                         ###
 ###    User changed nr of frozen orbitals.                                  ###
 ###                                                                         ###
 ###                                                                         ###
 ###############################################################################
 ###############################################################################
 
++    Wave function specifications:
      -----------------------------
 
      Number of closed shell electrons           0
      Number of electrons in active shells       6
      Max number of holes in RAS1 space          0
      Max number of electrons in RAS3 space      0
      Number of inactive orbitals                0
      Number of active orbitals                  6
      Number of secondary orbitals              24
      Spin quantum number                      0.0
      State symmetry                             1
      Number of CSFs                           175
      Number of root(s) available                1
      Root passed to geometry opt.               1
      A file JOBMIX will be created.
      This is a CASSCF or RASSCF reference function
--
 
++    Orbital specifications:
      -----------------------
 
      Symmetry species                           1
                                                 a
      Frozen orbitals                            0
      Inactive orbitals                          0
      Active orbitals                            6
      Secondary orbitals                        24
      Deleted orbitals                           0
      Number of basis functions                 30
--
 
      Type of Fock operator: STANDARD
      Type of 0-order Hamiltonian: STANDARD WITH DEFAULT IPEA
        "IP-EA" denominator shift =      0.25
      The input orbitals and the CI vector will be transformed.
 
--------------------------------------------------------------------------------
 Estimated memory requirements:
  POLY3 :                   262414
  RHS:                      285604
  SIGMA :                   275200
  PRPCTL:                        0
 Available workspace:    230396124
 
++ CASPT2 computation for group   1
 
********************************************************************************
 Multi-State initialization phase begins for group   1
--------------------------------------------------------------------------------
********************************************************************************
 Compute H0 matrices for state    1
--------------------------------------------------------------------------------
--------------------------------------------------------------------------------
 H0 matrices have been computed.
 
********************************************************************************
  CASPT2 EQUATION SOLUTION
--------------------------------------------------------------------------------
 
  Total nr of CASPT2 parameters:
   Before reduction:       15624
   After  reduction:       15360
 
 The contributions to the second order correlation energy in atomic units.
-----------------------------------------------------------------------------------------------------------------------------
  IT.      VJTU        VJTI        ATVX        AIVX        VJAI        BVAT        BJAT        BJAI        TOTAL       RNORM  
-----------------------------------------------------------------------------------------------------------------------------
   1     0.000000    0.000000   -0.011328    0.000000    0.000000   -0.038986    0.000000    0.000000   -0.050314    0.005453
   2     0.000000    0.000000   -0.011514    0.000000    0.000000   -0.039076    0.000000    0.000000   -0.050589    0.000932
   3     0.000000    0.000000   -0.011519    0.000000    0.000000   -0.039081    0.000000    0.000000   -0.050600    0.000175
   4     0.000000    0.000000   -0.011513    0.000000    0.000000   -0.039081    0.000000    0.000000   -0.050594    0.000027
   5     0.000000    0.000000   -0.011513    0.000000    0.000000   -0.039081    0.000000    0.000000   -0.050594    0.000006
-------------------------------------------------------------------------------------------------------------------
 
  FINAL CASPT2 RESULT:
 
  Correlation energy /Case, /Symm, and sums:
 VJTU      0.00000000  0.00000000
 VJTIP     0.00000000  0.00000000
 VJTIM     0.00000000  0.00000000
 ATVX     -0.01151296 -0.01151296
 AIVX      0.00000000  0.00000000
 VJAIP     0.00000000  0.00000000
 VJAIM     0.00000000  0.00000000
 BVATP    -0.03591134 -0.03591134
 BVATM    -0.00316978 -0.00316978
 BJATP     0.00000000  0.00000000
 BJATM     0.00000000  0.00000000
 BJAIP     0.00000000  0.00000000
 BJAIM     0.00000000  0.00000000
 Summed:  -0.05059408 -0.05059408
 
      Reference energy:          -3.2491401915
      E2 (Non-variational):      -0.0505940775
      E2 (Variational):          -0.0505940809
      Total energy:              -3.2997342724
      Residual norm:              0.0000009851
      Reference weight:           0.98375
 
      Contributions to the CASPT2 correlation energy
      Active & Virtual Only:         -0.0505940775
      One Inactive Excited:           0.0000000000
      Two Inactive Excited:           0.0000000000
 
 
++ Denominators, etc.
----------------------------------------------------------------------------------------------------
 Report on small energy denominators, large coefficients, and large energy contributions.
CASE  SYMM ACTIVE-MIX  NON-ACTIVE INDICES          DENOMINATOR     RHS VALUE       COEFFICIENT     CONTRIBUTION
--
 
   (Skipping property calculation,
    use PROP keyword to activate)
--
 
  Total CASPT2 energies:
::    CASPT2 Root  1     Total energy:     -3.29973427
 
  A NEW JOBIPH FILE NAMED 'JOBMIX' IS PREPARED.
********************************************************************************
--- Stop Module: caspt2 at Fri Aug  9 15:35:58 2024 /rc=_RC_ALL_IS_WELL_ ---
*** files: xmldump
    saved to directory /home/grierjones/DDCASPT2/hydrogen_comps/minimal_2e_2o/chains/even/H6_chain/H6_0.77

>>> EXPORT i = B

>>> EXPORT j = P

>>> IF (-FILE GMJ_e2_${i}_${j}.csv)
(Skipped)

>>> END FOREACH

>>> EXPORT j = M

>>> IF (-FILE GMJ_e2_${i}_${j}.csv)
(Skipped)

>>> END FOREACH

>>> END FOREACH

>>> EXPORT i = E

>>> EXPORT j = P

>>> IF (-FILE GMJ_e2_${i}_${j}.csv)
(Skipped)

>>> END FOREACH

>>> EXPORT j = M

>>> IF (-FILE GMJ_e2_${i}_${j}.csv)
(Skipped)

>>> END FOREACH

>>> END FOREACH

>>> EXPORT i = F

>>> EXPORT j = P

>>> IF (-FILE GMJ_e2_${i}_${j}.csv)

>>> COPY /tmp/H6_0.77/GMJ_RHS_F_P.csv /home/grierjones/DDCASPT2/hydrogen_comps/minimal_2e_2o/chains/even/H6_chain/H6_0.77/GMJ_RHS_F_P.csv

>>> COPY /tmp/H6_0.77/GMJ_IVECW_F_P.csv /home/grierjones/DDCASPT2/hydrogen_comps/minimal_2e_2o/chains/even/H6_chain/H6_0.77/GMJ_IVECW_F_P.csv

>>> COPY /tmp/H6_0.77/GMJ_e2_F_P.csv /home/grierjones/DDCASPT2/hydrogen_comps/minimal_2e_2o/chains/even/H6_chain/H6_0.77/GMJ_e2_F_P.csv

>>> END FOREACH

>>> EXPORT j = M

>>> IF (-FILE GMJ_e2_${i}_${j}.csv)

>>> COPY /tmp/H6_0.77/GMJ_RHS_F_M.csv /home/grierjones/DDCASPT2/hydrogen_comps/minimal_2e_2o/chains/even/H6_chain/H6_0.77/GMJ_RHS_F_M.csv

>>> COPY /tmp/H6_0.77/GMJ_IVECW_F_M.csv /home/grierjones/DDCASPT2/hydrogen_comps/minimal_2e_2o/chains/even/H6_chain/H6_0.77/GMJ_IVECW_F_M.csv

>>> COPY /tmp/H6_0.77/GMJ_e2_F_M.csv /home/grierjones/DDCASPT2/hydrogen_comps/minimal_2e_2o/chains/even/H6_chain/H6_0.77/GMJ_e2_F_M.csv

>>> END FOREACH

>>> END FOREACH

>>> EXPORT i = G

>>> EXPORT j = P

>>> IF (-FILE GMJ_e2_${i}_${j}.csv)
(Skipped)

>>> END FOREACH

>>> EXPORT j = M

>>> IF (-FILE GMJ_e2_${i}_${j}.csv)
(Skipped)

>>> END FOREACH

>>> END FOREACH

>>> EXPORT i = H

>>> EXPORT j = P

>>> IF (-FILE GMJ_e2_${i}_${j}.csv)
(Skipped)

>>> END FOREACH

>>> EXPORT j = M

>>> IF (-FILE GMJ_e2_${i}_${j}.csv)
(Skipped)

>>> END FOREACH

>>> END FOREACH

>>> EXPORT i = A

>>> IF (-FILE GMJ_e2_$i.csv)
(Skipped)

>>> END FOREACH

>>> EXPORT i = C

>>> IF (-FILE GMJ_e2_$i.csv)

>>> COPY /tmp/H6_0.77/GMJ_RHS_C.csv /home/grierjones/DDCASPT2/hydrogen_comps/minimal_2e_2o/chains/even/H6_chain/H6_0.77/GMJ_RHS_C.csv

>>> COPY /tmp/H6_0.77/GMJ_IVECW_C.csv /home/grierjones/DDCASPT2/hydrogen_comps/minimal_2e_2o/chains/even/H6_chain/H6_0.77/GMJ_IVECW_C.csv

>>> COPY /tmp/H6_0.77/GMJ_e2_C.csv /home/grierjones/DDCASPT2/hydrogen_comps/minimal_2e_2o/chains/even/H6_chain/H6_0.77/GMJ_e2_C.csv

>>> END FOREACH

>>> EXPORT i = D

>>> IF (-FILE GMJ_e2_$i.csv)
(Skipped)

>>> END FOREACH

.########################.
.# Non-zero return code #.
.########################.

    Timing: Wall=2.97 User=1.97 System=0.98
***************************************
*** WorkDir at /tmp/H6_0.77 cleaned ***
***************************************
