[Molden Format]
[N_Atoms]
                     2
[Atoms] (AU)
BE1         1      4           0.00000000      0.00000000      0.00000000
F2          2      9           0.00000000      0.00000000      4.15739747
[Charge] (Mulliken)
  0.341303019369829     
 -0.341303019369848     
[GTO] (AU)
   1
   s  14
  2.262859900E+04  8.443999941E-05
  3.372318100E+03  4.601499968E-04
  7.603504000E+02  2.285389984E-03
  2.117404800E+02  9.648129932E-03
  6.722346800E+01  3.494469975E-02
  2.337217700E+01  1.061099893E-01
  8.721373000E+00  2.458240383E-01
  3.468091000E+00  3.862428773E-01
  1.452144000E+00  3.105526078E-01
  6.086150000E-01  6.415933955E-02
  2.576860000E-01 -2.265049984E-03
  1.041760000E-01 -5.217499963E-04
  4.242700000E-02 -8.757499938E-04
  1.484900000E-02  1.242199991E-04
   s  14
  2.262859900E+04 -1.586999994E-05
  3.372318100E+03 -8.656999968E-05
  7.603504000E+02 -4.302199984E-04
  2.117404800E+02 -1.825079993E-03
  6.722346800E+01 -6.682749976E-03
  2.337217700E+01 -2.095119992E-02
  8.721373000E+00 -5.200308981E-02
  3.468091000E+00 -9.849176964E-02
  1.452144000E+00 -1.355800695E-01
  6.086150000E-01 -6.429875976E-02
  2.576860000E-01  3.125414989E-01
  1.041760000E-01  6.270468577E-01
  4.242700000E-02  2.110231492E-01
  1.484900000E-02 -4.104669985E-03
   p   9
  3.371018400E+01  1.069960000E-03
  8.057649500E+00  6.828550001E-03
  2.836471400E+00  2.119065000E-02
  1.099965700E+00  5.843696001E-02
  4.433964000E-01  2.020920800E-01
  1.822264000E-01  4.582953101E-01
  7.572410000E-02  3.691239601E-01
  3.168540000E-02  6.611471001E-02
  1.108990000E-02  1.405160000E-03
 
   2
   s  14
  1.031094600E+05  1.713099991E-04
  1.528100700E+04  7.123999962E-04
  3.441539200E+03  2.990479984E-03
  9.670948300E+02  1.164036994E-02
  3.140353400E+02  3.968642979E-02
  1.134423000E+02  1.128546094E-01
  4.464472700E+01  2.473650687E-01
  1.894287400E+01  3.672702681E-01
  8.532743000E+00  2.896286985E-01
  3.919401000E+00  7.786681959E-02
  1.568157000E+00  4.562139976E-03
  6.232900000E-01  2.468879987E-03
  2.408610000E-01  1.106309994E-03
  8.430100000E-02  1.739699991E-04
   s  14
  1.031094600E+05 -4.044999995E-05
  1.528100700E+04 -1.682299998E-04
  3.441539200E+03 -7.084299991E-04
  9.670948300E+02 -2.767999996E-03
  3.140353400E+02 -9.611379987E-03
  1.134423000E+02 -2.833957996E-02
  4.464472700E+01 -6.839343991E-02
  1.894287400E+01 -1.237379298E-01
  8.532743000E+00 -1.512859698E-01
  3.919401000E+00 -9.099909988E-03
  1.568157000E+00  3.716257695E-01
  6.232900000E-01  5.500214393E-01
  2.408610000E-01  2.092318697E-01
  8.430100000E-02  8.074639989E-03
   p   9
  2.453302900E+02  1.024860004E-03
  5.691900500E+01  8.344290032E-03
  1.760456800E+01  4.078927016E-02
  6.274995000E+00  1.351370605E-01
  2.447030000E+00  2.798830811E-01
  9.950600000E-01  3.597966414E-01
  4.039730000E-01  3.055347412E-01
  1.548100000E-01  1.354703905E-01
  5.418400000E-02  2.804449011E-02
 
[MO]
Sym=     1a  
Ene=   -26.1880
Spin= Alpha
Occup=    1.00000
   1        -0.00002151
   2        -0.00024569
   3         0.00000000
   4         0.00000000
   5        -0.00030823
   6         1.00000796
   7        -0.00225972
   8         0.00000000
   9         0.00000000
  10        -0.00041094
Sym=     1a  
Ene=   -26.1600
Spin= Beta
Occup=    1.00000
   1        -0.00001630
   2        -0.00011464
   3         0.00000000
   4         0.00000000
   5        -0.00015186
   6         0.99999908
   7        -0.00345333
   8        -0.00000000
   9         0.00000000
  10        -0.00032500
Sym=     2a  
Ene=    -4.7979
Spin= Alpha
Occup=    1.00000
   1         0.99999075
   2         0.00203279
   3         0.00000000
   4        -0.00000000
   5        -0.00061338
   6         0.00001311
   7         0.00034152
   8        -0.00000000
   9         0.00000000
  10        -0.00033241
Sym=     2a  
Ene=    -4.7878
Spin= Beta
Occup=    1.00000
   1         0.99999098
   2         0.00245784
   3        -0.00000000
   4        -0.00000000
   5         0.00069226
   6        -0.00002440
   7         0.00006100
   8        -0.00000000
   9         0.00000000
  10        -0.00030668
Sym=     3a  
Ene=    -1.5071
Spin= Alpha
Occup=    1.00000
   1        -0.00392522
   2         0.00907290
   3        -0.00000000
   4         0.00000000
   5         0.01212815
   6         0.00193999
   7         0.99489903
   8         0.00000000
   9        -0.00000000
  10        -0.03529488
Sym=     3a  
Ene=    -1.4008
Spin= Beta
Occup=    1.00000
   1        -0.00335277
   2         0.03076413
   3         0.00000000
   4         0.00000000
   5         0.02932874
   6         0.00237626
   7         0.98764728
   8        -0.00000000
   9        -0.00000000
  10         0.00523270
Sym=     4a  
Ene=    -0.6480
Spin= Alpha
Occup=    1.00000
   1         0.01752400
   2        -0.07274579
   3        -0.00000000
   4        -0.00000000
   5        -0.04275657
   6         0.00240300
   7         0.06055176
   8        -0.00000000
   9        -0.00000000
  10         0.97733023
Sym=     4a  
Ene=    -0.5570
Spin= Beta
Occup=    1.00000
   1         0.00000000
   2        -0.00000000
   3         0.02875179
   4         0.02082606
   5        -0.00000000
   6         0.00000000
   7         0.00000000
   8         0.80642299
   9         0.58412395
  10         0.00000000
Sym=     5a  
Ene=    -0.5846
Spin= Alpha
Occup=    1.00000
   1         0.00000000
   2        -0.00000000
   3         0.02291107
   4         0.00822567
   5        -0.00000000
   6         0.00000000
   7         0.00000000
   8         0.93856326
   9         0.33696881
  10         0.00000000
Sym=     5a  
Ene=    -0.5570
Spin= Beta
Occup=    1.00000
   1        -0.00000000
   2        -0.00000000
   3        -0.02082606
   4         0.02875179
   5         0.00000000
   6        -0.00000000
   7         0.00000000
   8        -0.58412395
   9         0.80642299
  10        -0.00000000
Sym=     6a  
Ene=    -0.5846
Spin= Alpha
Occup=    1.00000
   1         0.00000000
   2        -0.00000000
   3         0.00822567
   4        -0.02291107
   5         0.00000000
   6         0.00000000
   7        -0.00000000
   8         0.33696881
   9        -0.93856326
  10         0.00000000
Sym=     6a  
Ene=    -0.3674
Spin= Beta
Occup=    1.00000
   1         0.01122703
   2        -0.67287635
   3        -0.00000000
   4        -0.00000000
   5        -0.31955645
   6         0.01697634
   7         0.20439041
   8        -0.00000000
   9        -0.00000000
  10         0.54670638
Sym=     7a  
Ene=    -0.3648
Spin= Alpha
Occup=    1.00000
   1         0.00025510
   2         0.92559141
   3         0.00000000
   4         0.00000000
   5        -0.38541384
   6        -0.00246546
   7        -0.04160479
   8        -0.00000000
   9        -0.00000000
  10         0.12644577
Sym=     7a  
Ene=     0.0249
Spin= Beta
Occup=    0.00000
   1         0.00832009
   2         0.74498039
   3        -0.00000000
   4         0.00000000
   5        -0.44425074
   6         0.00139138
   7        -0.00705932
   8        -0.00000000
   9        -0.00000000
  10         0.53827579
Sym=     8a  
Ene=     0.0661
Spin= Alpha
Occup=    0.00000
   1         0.00000000
   2        -0.00000000
   3         1.00167724
   4        -0.08118192
   5        -0.00000000
   6         0.00000000
   7         0.00000000
   8        -0.12643734
   9         0.01024724
  10        -0.00000000
Sym=     8a  
Ene=     0.0940
Spin= Beta
Occup=    0.00000
   1         0.00000000
   2        -0.00000000
   3         1.00122213
   4        -0.08266944
   5        -0.00000000
   6         0.00000000
   7         0.00000000
   8        -0.13745090
   9         0.01134912
  10        -0.00000000
Sym=     9a  
Ene=     0.0661
Spin= Alpha
Occup=    0.00000
   1         0.00000000
   2        -0.00000000
   3         0.08118192
   4         1.00167724
   5         0.00000000
   6        -0.00000000
   7         0.00000000
   8        -0.01024724
   9        -0.12643734
  10         0.00000000
Sym=     9a  
Ene=     0.0940
Spin= Beta
Occup=    0.00000
   1        -0.00000000
   2        -0.00000000
   3         0.08266944
   4         1.00122213
   5        -0.00000000
   6        -0.00000000
   7         0.00000000
   8        -0.01134912
   9        -0.13745090
  10        -0.00000000
Sym=    10a  
Ene=     0.1533
Spin= Alpha
Occup=    0.00000
   1         0.00599374
   2         0.43632360
   3         0.00000000
   4         0.00000000
   5         0.97633938
   6        -0.02965797
   7        -0.31092299
   8         0.00000000
   9         0.00000000
  10         0.30224882
Sym=    10a  
Ene=     0.2264
Spin= Beta
Occup=    0.00000
   1         0.01230931
   2         0.20920172
   3         0.00000000
   4         0.00000000
   5         0.89633831
   6        -0.02484360
   7        -0.27315843
   8        -0.00000000
   9        -0.00000000
  10         0.68928006
