[Molden Format]
[N_Atoms]
                     2
[Atoms] (AU)
B1          1      5           0.00000000      0.00000000      0.00000000
O2          2      8           0.00000000      0.00000000      2.64561657
[Charge] (Mulliken)
  0.463070207508116     
 -0.463070207508142     
[GTO] (AU)
   1
   s  14
  3.336021700E+04  1.039699991E-04
  4.972095200E+03  5.254399956E-04
  1.125641700E+03  2.509059979E-03
  3.164913600E+02  1.031887991E-02
  1.020072600E+02  3.636632969E-02
  3.629587300E+01  1.064607991E-01
  1.397141000E+01  2.403999880E-01
  5.741156000E+00  3.748581168E-01
  2.494268000E+00  3.100066974E-01
  1.114202000E+00  7.922455933E-02
  4.215490000E-01 -4.947589958E-03
  1.696330000E-01 -7.737119935E-03
  6.853500000E-02 -1.501079987E-03
  2.398700000E-02 -1.333299989E-04
   s  14
  3.336021700E+04 -2.030000008E-05
  4.972095200E+03 -1.025700004E-04
  1.125641700E+03 -4.911300020E-04
  3.164913600E+02 -2.026570008E-03
  1.020072600E+02 -7.261010030E-03
  3.629587300E+01 -2.197722009E-02
  1.397141000E+01 -5.408428022E-02
  5.741156000E+00 -1.022402604E-01
  2.494268000E+00 -1.423595206E-01
  1.114202000E+00 -4.658690019E-02
  4.215490000E-01  3.799402916E-01
  1.696330000E-01  5.890463624E-01
  6.853500000E-02  1.749075107E-01
  2.398700000E-02 -1.142030005E-03
   p   9
  5.500000000E+01  1.229800005E-03
  1.336610100E+01  8.827380035E-03
  4.135394000E+00  3.843340015E-02
  1.481256000E+00  1.150031805E-01
  6.021360000E-01  2.733674011E-01
  2.556360000E-01  4.061972116E-01
  1.111510000E-01  3.014967912E-01
  4.764800000E-02  7.684809030E-02
  1.667700000E-02 -8.170000032E-06
 
   2
   s  14
  1.053749500E+05  1.238600013E-04
  1.567924000E+04  5.120100053E-04
  3.534544700E+03  2.152910022E-03
  9.873651600E+02  8.528440089E-03
  3.159787500E+02  3.018049031E-02
  1.116542800E+02  9.099702095E-02
  4.269945100E+01  2.177936423E-01
  1.739559600E+01  3.686245738E-01
  7.438309000E+00  3.366707335E-01
  3.222862000E+00  9.657630101E-02
  1.253877000E+00  2.144520022E-03
  4.951550000E-01  1.194350012E-03
  1.916650000E-01  5.390200056E-04
  6.708300000E-02  2.103400022E-04
   s  14
  1.053749500E+05 -2.815000008E-05
  1.567924000E+04 -1.163000003E-04
  3.534544700E+03 -4.909200013E-04
  9.873651600E+02 -1.946160005E-03
  3.159787500E+02 -7.005300019E-03
  1.116542800E+02 -2.167814006E-02
  4.269945100E+01 -5.641213015E-02
  1.739559600E+01 -1.127053003E-01
  7.438309000E+00 -1.589119704E-01
  3.222862000E+00 -3.355083009E-02
  1.253877000E+00  3.531902810E-01
  4.951550000E-01  5.534199315E-01
  1.916650000E-01  2.301839106E-01
  6.708300000E-02  1.127267003E-02
   p   9
  2.000000000E+02  9.173000030E-04
  4.653336700E+01  7.377140024E-03
  1.462180900E+01  3.483515011E-02
  5.313064000E+00  1.144397004E-01
  2.102525000E+00  2.554966408E-01
  8.502230000E-01  3.722557412E-01
  3.375970000E-01  3.323314911E-01
  1.288920000E-01  1.400847905E-01
  4.511200000E-02  2.395784008E-02
 
[MO]
Sym=     1a  
Ene=   -20.6170
Spin= Alpha
Occup=    1.00000
   1        -0.00014425
   2        -0.00064064
   3        -0.00000000
   4        -0.00000000
   5        -0.00040228
   6         1.00004875
   7        -0.00019382
   8        -0.00000000
   9        -0.00000000
  10        -0.00147048
Sym=     1a  
Ene=   -20.6490
Spin= Beta
Occup=    1.00000
   1        -0.00024267
   2        -0.00113966
   3        -0.00000000
   4        -0.00000000
   5        -0.00094616
   6         1.00010188
   7         0.00173613
   8         0.00000000
   9        -0.00000000
  10        -0.00175327
Sym=     2a  
Ene=    -7.8309
Spin= Alpha
Occup=    1.00000
   1         0.99975535
   2         0.01567196
   3         0.00000000
   4        -0.00000000
   5         0.00032436
   6        -0.00024006
   7         0.00057812
   8        -0.00000000
   9         0.00000000
  10        -0.00128952
Sym=     2a  
Ene=    -7.7896
Spin= Beta
Occup=    1.00000
   1         0.99981283
   2         0.01347795
   3         0.00000000
   4        -0.00000000
   5         0.00092953
   6        -0.00018238
   7         0.00044585
   8        -0.00000000
   9         0.00000000
  10        -0.00103236
Sym=     3a  
Ene=    -1.2783
Spin= Alpha
Occup=    1.00000
   1        -0.04555653
   2         0.16897176
   3         0.00000000
   4        -0.00000000
   5         0.12688998
   6        -0.01411846
   7         0.83993076
   8         0.00000000
   9        -0.00000000
  10        -0.15924736
Sym=     3a  
Ene=    -1.3726
Spin= Beta
Occup=    1.00000
   1        -0.04406190
   2         0.07759731
   3         0.00000000
   4        -0.00000000
   5         0.08907108
   6        -0.00966487
   7         0.91135470
   8         0.00000000
   9        -0.00000000
  10        -0.13764717
Sym=     4a  
Ene=    -0.6767
Spin= Alpha
Occup=    1.00000
   1         0.03970192
   2        -0.64561033
   3         0.00000000
   4        -0.00000000
   5         0.07898839
   6         0.01955431
   7         0.44610904
   8         0.00000000
   9        -0.00000000
  10         0.57122589
Sym=     4a  
Ene=    -0.6359
Spin= Beta
Occup=    1.00000
   1         0.05366657
   2        -0.29243744
   3         0.00000000
   4         0.00000000
   5        -0.20424250
   6         0.02475051
   7         0.39398860
   8         0.00000000
   9         0.00000000
  10         0.80645617
Sym=     5a  
Ene=    -0.5288
Spin= Alpha
Occup=    1.00000
   1         0.03204873
   2         0.59751445
   3        -0.00000000
   4         0.00000000
   5        -0.59961746
   6         0.01771399
   7         0.17286042
   8        -0.00000000
   9         0.00000000
  10         0.59941461
Sym=     5a  
Ene=    -0.5978
Spin= Beta
Occup=    1.00000
   1        -0.00000000
   2         0.00000000
   3         0.06960559
   4         0.13197899
   5         0.00000000
   6        -0.00000000
   7        -0.00000000
   8         0.44303037
   9         0.84002878
  10        -0.00000000
Sym=     6a  
Ene=    -0.4573
Spin= Alpha
Occup=    1.00000
   1        -0.00000000
   2         0.00000000
   3         0.58769568
   4        -0.00275872
   5        -0.00000000
   6         0.00000000
   7         0.00000000
   8         0.66699019
   9        -0.00313094
  10         0.00000000
Sym=     6a  
Ene=    -0.5978
Spin= Beta
Occup=    1.00000
   1        -0.00000000
   2         0.00000000
   3        -0.13197899
   4         0.06960559
   5         0.00000000
   6        -0.00000000
   7        -0.00000000
   8        -0.84002878
   9         0.44303037
  10        -0.00000000
Sym=     7a  
Ene=    -0.4573
Spin= Alpha
Occup=    1.00000
   1        -0.00000000
   2        -0.00000000
   3         0.00275872
   4         0.58769568
   5         0.00000000
   6        -0.00000000
   7        -0.00000000
   8         0.00313094
   9         0.66699019
  10        -0.00000000
Sym=     7a  
Ene=     0.0126
Spin= Beta
Occup=    0.00000
   1         0.01665963
   2         0.90384189
   3        -0.00000000
   4         0.00000000
   5        -0.46517016
   6        -0.00265865
   7        -0.09238930
   8         0.00000000
   9        -0.00000000
  10         0.32432845
Sym=     8a  
Ene=     0.0989
Spin= Alpha
Occup=    0.00000
   1         0.00000000
   2        -0.00000000
   3        -0.84240094
   4         0.14845911
   5         0.00000000
   6        -0.00000000
   7        -0.00000000
   8         0.78303538
   9        -0.13799692
  10         0.00000000
Sym=     8a  
Ene=     0.1654
Spin= Beta
Occup=    0.00000
   1         0.00000000
   2        -0.00000000
   3        -1.00728369
   4         0.20047308
   5         0.00000000
   6        -0.00000000
   7        -0.00000000
   8         0.41045784
   9        -0.08169074
  10         0.00000000
Sym=     9a  
Ene=     0.0989
Spin= Alpha
Occup=    0.00000
   1         0.00000000
   2         0.00000000
   3        -0.14845911
   4        -0.84240094
   5         0.00000000
   6        -0.00000000
   7         0.00000000
   8         0.13799692
   9         0.78303538
  10         0.00000000
Sym=     9a  
Ene=     0.1654
Spin= Beta
Occup=    0.00000
   1         0.00000000
   2         0.00000000
   3        -0.20047308
   4        -1.00728369
   5        -0.00000000
   6        -0.00000000
   7        -0.00000000
   8         0.08169074
   9         0.41045784
  10         0.00000000
Sym=    10a  
Ene=     0.4759
Spin= Alpha
Occup=    0.00000
   1         0.07781012
   2         0.80838712
   3         0.00000000
   4         0.00000000
   5         1.06868235
   6        -0.09855228
   7        -0.85950235
   8        -0.00000000
   9         0.00000000
  10         0.77171403
Sym=    10a  
Ene=     0.5185
Spin= Beta
Occup=    0.00000
   1         0.07429073
   2         0.73991168
   3         0.00000000
   4        -0.00000000
   5         1.12157472
   6        -0.09893798
   7        -0.82388649
   8        -0.00000000
   9        -0.00000000
  10         0.72937755
