[Molden Format]
[N_Atoms]
                     2
[Atoms] (AU)
F1          1      9           0.00000000      0.00000000      0.00000000
O2          2      8           0.00000000      0.00000000      3.21253441
[Charge] (Mulliken)
 -0.128433089437845     
  0.128433089437829     
[GTO] (AU)
   1
   s  14
  1.031094600E+05  1.713099991E-04
  1.528100700E+04  7.123999962E-04
  3.441539200E+03  2.990479984E-03
  9.670948300E+02  1.164036994E-02
  3.140353400E+02  3.968642979E-02
  1.134423000E+02  1.128546094E-01
  4.464472700E+01  2.473650687E-01
  1.894287400E+01  3.672702681E-01
  8.532743000E+00  2.896286985E-01
  3.919401000E+00  7.786681959E-02
  1.568157000E+00  4.562139976E-03
  6.232900000E-01  2.468879987E-03
  2.408610000E-01  1.106309994E-03
  8.430100000E-02  1.739699991E-04
   s  14
  1.031094600E+05 -4.044999995E-05
  1.528100700E+04 -1.682299998E-04
  3.441539200E+03 -7.084299991E-04
  9.670948300E+02 -2.767999996E-03
  3.140353400E+02 -9.611379987E-03
  1.134423000E+02 -2.833957996E-02
  4.464472700E+01 -6.839343991E-02
  1.894287400E+01 -1.237379298E-01
  8.532743000E+00 -1.512859698E-01
  3.919401000E+00 -9.099909988E-03
  1.568157000E+00  3.716257695E-01
  6.232900000E-01  5.500214393E-01
  2.408610000E-01  2.092318697E-01
  8.430100000E-02  8.074639989E-03
   p   9
  2.453302900E+02  1.024860004E-03
  5.691900500E+01  8.344290032E-03
  1.760456800E+01  4.078927016E-02
  6.274995000E+00  1.351370605E-01
  2.447030000E+00  2.798830811E-01
  9.950600000E-01  3.597966414E-01
  4.039730000E-01  3.055347412E-01
  1.548100000E-01  1.354703905E-01
  5.418400000E-02  2.804449011E-02
 
   2
   s  14
  1.053749500E+05  1.238600013E-04
  1.567924000E+04  5.120100053E-04
  3.534544700E+03  2.152910022E-03
  9.873651600E+02  8.528440089E-03
  3.159787500E+02  3.018049031E-02
  1.116542800E+02  9.099702095E-02
  4.269945100E+01  2.177936423E-01
  1.739559600E+01  3.686245738E-01
  7.438309000E+00  3.366707335E-01
  3.222862000E+00  9.657630101E-02
  1.253877000E+00  2.144520022E-03
  4.951550000E-01  1.194350012E-03
  1.916650000E-01  5.390200056E-04
  6.708300000E-02  2.103400022E-04
   s  14
  1.053749500E+05 -2.815000008E-05
  1.567924000E+04 -1.163000003E-04
  3.534544700E+03 -4.909200013E-04
  9.873651600E+02 -1.946160005E-03
  3.159787500E+02 -7.005300019E-03
  1.116542800E+02 -2.167814006E-02
  4.269945100E+01 -5.641213015E-02
  1.739559600E+01 -1.127053003E-01
  7.438309000E+00 -1.589119704E-01
  3.222862000E+00 -3.355083009E-02
  1.253877000E+00  3.531902810E-01
  4.951550000E-01  5.534199315E-01
  1.916650000E-01  2.301839106E-01
  6.708300000E-02  1.127267003E-02
   p   9
  2.000000000E+02  9.173000030E-04
  4.653336700E+01  7.377140024E-03
  1.462180900E+01  3.483515011E-02
  5.313064000E+00  1.144397004E-01
  2.102525000E+00  2.554966408E-01
  8.502230000E-01  3.722557412E-01
  3.375970000E-01  3.323314911E-01
  1.288920000E-01  1.400847905E-01
  4.511200000E-02  2.395784008E-02
 
[MO]
Sym=     1a  
Ene=   -26.3950
Spin= Alpha
Occup=    2.00000
   1         0.99999708
   2        -0.00321966
   3        -0.00000000
   4        -0.00000000
   5         0.00049852
   6        -0.00000546
   7        -0.00016822
   8         0.00000000
   9        -0.00000000
  10         0.00009139
Sym=     2a  
Ene=   -20.8730
Spin= Alpha
Occup=    2.00000
   1        -0.00003827
   2        -0.00018682
   3        -0.00000000
   4         0.00000000
   5        -0.00005515
   6         1.00000128
   7        -0.00056469
   8         0.00000000
   9        -0.00000000
  10        -0.00056954
Sym=     3a  
Ene=    -1.6107
Spin= Alpha
Occup=    2.00000
   1         0.00082797
   2         0.93673438
   3        -0.00000000
   4        -0.00000000
   5         0.03595535
   6        -0.00413870
   7         0.22839881
   8         0.00000000
   9        -0.00000000
  10        -0.06153320
Sym=     4a  
Ene=    -1.3371
Spin= Alpha
Occup=    2.00000
   1        -0.00596984
   2        -0.32530402
   3        -0.00000000
   4        -0.00000000
   5         0.08686178
   6         0.00051481
   7         0.95730575
   8        -0.00000000
   9        -0.00000000
  10         0.01262062
Sym=     5a  
Ene=    -0.7267
Spin= Alpha
Occup=    2.00000
   1         0.00000000
   2        -0.00000000
   3         0.80957107
   4         0.10730464
   5        -0.00000000
   6         0.00000000
   7         0.00000000
   8         0.50578608
   9         0.06703944
  10         0.00000000
Sym=     6a  
Ene=    -0.7073
Spin= Alpha
Occup=    2.00000
   1         0.00000000
   2         0.00000000
   3        -0.13049603
   4         0.98454097
   5        -0.00000000
   6         0.00000000
   7         0.00000000
   8        -0.00772331
   9         0.05826930
  10         0.00000000
Sym=     7a  
Ene=    -0.6365
Spin= Alpha
Occup=    2.00000
   1         0.00955142
   2         0.14596214
   3         0.00000000
   4        -0.00000000
   5        -0.70644362
   6         0.01075047
   7         0.18930564
   8        -0.00000000
   9        -0.00000000
  10         0.60591036
Sym=     8a  
Ene=    -0.6443
Spin= Alpha
Occup=    2.00000
   1        -0.00000000
   2        -0.00000000
   3        -0.57868869
   4        -0.07670232
   5         0.00000000
   6        -0.00000000
   7        -0.00000000
   8         0.85701013
   9         0.11359245
  10        -0.00000000
Sym=     9a  
Ene=    -0.0000
Spin= Alpha
Occup=    1.00000
   1         0.00000000
   2         0.00000000
   3         0.01919160
   4        -0.14479302
   5        -0.00000000
   6         0.00000000
   7         0.00000000
   8        -0.13167339
   9         0.99342368
  10         0.00000000
Sym=    10a  
Ene=    -0.0317
Spin= Alpha
Occup=    0.00000
   1         0.01482925
   2         0.20178716
   3        -0.00000000
   4        -0.00000000
   5         0.74815172
   6        -0.01200975
   7        -0.19828992
   8        -0.00000000
   9        -0.00000000
  10         0.83557845
