   This run of MOLCAS is using the pymolcas driver

                             OPE
                             OPE          NMOL  CASOP  ENMOLC A   SO
                 OPE        NMOLC        AS  OP EN  MO LC     AS  OP
                OPENM       OL CA        SO  PE NM  OL CA     SOP EN
                OP EN      MO   LC       AS  OP ENMOL  CASO   PENMOL
                OP  EN     MO   LC       AS  OP EN     MO     LC ASO
               OP   E  NMOL  C  AS       OP  EN MO     LC     AS  OP
               OP  E   NMO   LC AS        OPEN  MO     LCASOP EN   M
               O  PEN   MO  LCA  SO
            OPE   NMO   L   CAS    OP
        OPENMOL  CASOP     ENMOL   CASOPE
     OPENMOLCA   SOPENMOLCASOPEN   MOLCASOPE
    OPENMOLCAS   OP           EN   MOL    CAS
    OPENMOLCAS       OP  ENM        O     LCA
    OPENMOLCAS    OPEN  MOLCASO     P  E  NMO
    OPENMOLCAS     OP               E  N  MOL
    OPENMOLCA   SO           PENM   O  L  CAS    OPEN    MO    LCAS
    OPENMOLCA   SOP           ENM   O  L  CAS   OP  EN  MOLC  AS   O
    OPENMOLCA   SOPE           NM      O  LCA   S      OP  EN MO
    OPENMOLC                AS         O  PEN   M      OL  CA  SOPE
    OPENMO        LCASOPE  NMOL        C  ASO   P      ENMOLC     AS
    OPE     NMO      LCA  SO     P     E   NM   OL  CA SO  PE N   MO
          OPENMOLCA            SOPE   NMO        LCAS  O    P  ENMO
     OPENMOLCASOPENMOLCASOPENMOLCASOPENMOLCA
        OPENMOLCASOPENMOLCASOPENMOLCASOPE
            OPENMOLCASOPENMOLCASOPENM
               OPENMOLCASOPENMOLCA        version: 44d3b5344-dirty
                   OPENMOLCASO
                       OPE                tag:

 OpenMolcas is free software; you can redistribute it and/or modify it
 under the terms of the GNU Lesser General Public License version 2.1.
 OpenMolcas is distributed in the hope that it will be useful, but it
 is provided "as is" and without any express or implied warranties.
 For more details see the full text of the license in the file
 LICENSE or in <http://www.gnu.org/licenses/>.

                 Copyright (C) The OpenMolcas Authors
           For the author list and the recommended citation,
                   consult the file CONTRIBUTORS.md

           *************************************************
           * pymolcas version py2.28                       *
           *   build c4a6d18ded8cb6cad61d2372a9abd97c      *
           *   (after the EMIL interpreter by V. Veryazov) *
           *************************************************

configuration info
------------------
C Compiler ID: GNU
C flags: -std=gnu99
Fortran Compiler ID: Intel
Fortran flags: -fpp -i8 -r8 -heap-arrays
Definitions: _MOLCAS_;_I8_;_LINUX_
Parallel: OFF (GA=OFF)


   ----------------------------------------------------------------------------------------------------------
  |
  |              Project: H6_1.23
  |       Submitted from: /home/grierjones/DDCASPT2/hydrogen_comps/minimal_2e_2o/chains/even/H6_chain/H6_1.23
  |         Scratch area: /tmp/H6_1.23
  |      Save outputs to: /home/grierjones/DDCASPT2/hydrogen_comps/minimal_2e_2o/chains/even/H6_chain/H6_1.23
  |               Molcas: /home/grierjones/Test/build
  |
  | Scratch area is empty
  |
  |       MOLCAS_DRIVER = /usr/local/pymolcas
  | MOLCAS_KEEP_WORKDIR = NO
  |  MOLCAS_NEW_WORKDIR = YES
  |       MOLCAS_NPROCS = 1
  |       MOLCAS_SOURCE = /home/grierjones/Test/build
  |    MOLCAS_STRUCTURE = 0
  |
   ----------------------------------------------------------------------------------------------------------

++ ---------   Input file   ---------

&GATEWAY
coord=H6_1.23.xyz
Basis = ANO-RCC-VDZP
Group = nosymm
Expert
End of Input

&SEWARD
End of Input

&MOTRA
Frozen=0

>>> COPY $WorkDir/GMJ_one_int_indx.csv $CurrDir/H6_1.23.GMJ_one_int_indx.csv

>>> COPY $WorkDir/GMJ_one_int.csv $CurrDir/H6_1.23.GMJ_one_int.csv

>>> COPY $WorkDir/GMJ_two_int_indx.csv $CurrDir/H6_1.23.GMJ_two_int_indx.csv

>>> COPY $WorkDir/GMJ_two_int.csv $CurrDir/H6_1.23.GMJ_two_int.csv

&SCF

>>> COPY $WorkDir/H6_1.23.scf.h5 $CurrDir/

&RASSCF
Title= RASSCF
FileOrb
/home/grierjones/DDCASPT2/hydrogen_comps/minimal_2e_2o/chains/even/H6_chain/H6_1.21/H6_1.21.RasOrb

NACTEL
6 0 0
Inactive
0
RAS2
6
Symmetry
1
Spin
1
orblisting
all
ITERation
200 100
CIMX
200
SDAV
500

>>> COPY $WorkDir/H6_1.23.rasscf.h5 $CurrDir/

>>> COPY $WorkDir/GMJ_Fock_MO.csv $CurrDir/H6_1.23.GMJ_Fock_MO.csv

&CASPT2
Frozen
0
Imaginary Shift
0.0

>>> FOREACH i IN (B,E,F,G,H)

  >>> FOREACH j IN (P,M)

    >>> IF (-FILE GMJ_e2_${i}_${j}.csv)

      >>> COPY $WorkDir/GMJ_RHS_${i}_${j}.csv $CurrDir/GMJ_RHS_${i}_${j}.csv

      >>> COPY $WorkDir/GMJ_IVECW_${i}_${j}.csv $CurrDir/GMJ_IVECW_${i}_${j}.csv

      >>> COPY $WorkDir/GMJ_e2_${i}_${j}.csv $CurrDir/GMJ_e2_${i}_${j}.csv

    >>> END IF

  >>> END FOREACH

>>> END FOREACH

>>> FOREACH i IN (A,C,D)

  >>> IF (-FILE GMJ_e2_$i.csv)

    >>> COPY $WorkDir/GMJ_RHS_$i.csv $CurrDir/GMJ_RHS_$i.csv

    >>> COPY $WorkDir/GMJ_IVECW_$i.csv $CurrDir/GMJ_IVECW_$i.csv

    >>> COPY $WorkDir/GMJ_e2_$i.csv $CurrDir/GMJ_e2_$i.csv

  >>> END IF

>>> END FOREACH

-- ----------------------------------

--- Start Module: gateway at Fri Aug  9 15:36:54 2024 ---
 
()()()()()()()()()()()()()()()()()()()()()()()()()()()()()()()()()()()()()()()()()()()()()()()()()()

                                              &GATEWAY

                                   only a single process is used
                       available to each process: 2.0 GB of memory, 1 thread?
()()()()()()()()()()()()()()()()()()()()()()()()()()()()()()()()()()()()()()()()()()()()()()()()()()
 
 ###############################################################################
 ###############################################################################
 ###                                                                         ###
 ###                                                                         ###
 ###                                                                         ###
 ###    WARNING: EXPERT option is ON!                                        ###
 ###                                                                         ###
 ###                                                                         ###
 ###############################################################################
 ###############################################################################
 
++    Symmetry information:
      ---------------------
 
                    Character Table for C1 
 
                             E  
                    a        1  x, y, xy, Rz, z, xz, Ry, yz, Rx, I
--
 
 
++    Basis set information:
      ----------------------
 
 
      Basis set label: H.ANO-RCC...2S1P.
 
      Electronic valence basis set:
      ------------------
      Associated Effective Charge   1.000000 au
      Associated Actual Charge      1.000000 au
      Nuclear Model: Point charge
 
      Shell  nPrim  nBasis  Cartesian Spherical Contaminant
         s       8       2        X                  
         p       4       1        X                  
--
 
 
++    Molecular structure info:
      -------------------------
 
                    ************************************************ 
                    **** Cartesian Coordinates / Bohr, Angstrom **** 
                    ************************************************ 
 
     Center  Label                x              y              z                     x              y              z
        1      H1               0.000000       0.000000       0.000000              0.000000       0.000000       0.000000
        2      H2               0.000000       0.000000       2.324936              0.000000       0.000000       1.230303
        3      H3               0.000000       0.000000       4.649871              0.000000       0.000000       2.460606
        4      H4               0.000000       0.000000       6.974807              0.000000       0.000000       3.690909
        5      H5               0.000000       0.000000       9.299743              0.000000       0.000000       4.921212
        6      H6               0.000000       0.000000      11.624679              0.000000       0.000000       6.151515
 
                    *************************************** 
                    *    InterNuclear Distances / Bohr    * 
                    *************************************** 
 
               1 H1            2 H2            3 H3            4 H4            5 H5            6 H6    
    1 H1       0.000000
    2 H2       2.324936        0.000000
    3 H3       4.649871        2.324936        0.000000
    4 H4       6.974807        4.649871        2.324936        0.000000
    5 H5       9.299743        6.974807        4.649871        2.324936        0.000000
    6 H6      11.624679        9.299743        6.974807        4.649871        2.324936        0.000000
 
                    ******************************************* 
                    *    InterNuclear Distances / Angstrom    * 
                    ******************************************* 
 
               1 H1            2 H2            3 H3            4 H4            5 H5            6 H6    
    1 H1       0.000000
    2 H2       1.230303        0.000000
    3 H3       2.460606        1.230303        0.000000
    4 H4       3.690909        2.460606        1.230303        0.000000
    5 H5       4.921212        3.690909        2.460606        1.230303        0.000000
    6 H6       6.151515        4.921212        3.690909        2.460606        1.230303        0.000000
 
                    ************************************** 
                    *    Valence Bond Angles / Degree    * 
                    ************************************** 
                          Atom centers                 Phi
                      1 H1       2 H2       3 H3       180.00
                      2 H2       3 H3       4 H4       180.00
                      3 H3       4 H4       5 H5       180.00
                      4 H4       5 H5       6 H6       180.00
--
 
 
            Nuclear Potential Energy              3.74203894 au
 
 ###############################################################################
 ###############################################################################
 ###                                                                         ###
 ###                                                                         ###
 ###    There were warnings during the execution                             ###
 ###    Please, check the output with care!                                  ###
 ###                                                                         ###
 ###                                                                         ###
 ###############################################################################
 ###############################################################################
--- Stop Module: gateway at Fri Aug  9 15:36:54 2024 /rc=_RC_ALL_IS_WELL_ ---
*** files: xmldump
    saved to directory /home/grierjones/DDCASPT2/hydrogen_comps/minimal_2e_2o/chains/even/H6_chain/H6_1.23

--- Start Module: seward at Fri Aug  9 15:36:54 2024 ---
 
()()()()()()()()()()()()()()()()()()()()()()()()()()()()()()()()()()()()()()()()()()()()()()()()()()

                                              &SEWARD

                                   only a single process is used
                       available to each process: 2.0 GB of memory, 1 thread?
()()()()()()()()()()()()()()()()()()()()()()()()()()()()()()()()()()()()()()()()()()()()()()()()()()
 
 ###############################################################################
 ###############################################################################
 ###                                                                         ###
 ###                                                                         ###
 ###                                                                         ###
 ###    WARNING: EXPERT option is ON!                                        ###
 ###                                                                         ###
 ###                                                                         ###
 ###############################################################################
 ###############################################################################
               SEWARD will generate:
                  Multipole Moment integrals up to order  2
                  Kinetic Energy integrals
                  Nuclear Attraction integrals (point charge)
                  One-Electron Hamiltonian integrals
                  Velocity integrals
                  Relativistic Douglas-Kroll-Hess integrals:
                    - Parametrization         : EXP
                    - DKH order of Hamiltonian: 2
                    - DKH order of Properties : 0
                         - multipole moment operators
                         - electric potential operators
                         - contact operators
                  Atomic mean-field integrals
                  Two-Electron Repulsion integrals
 
                   Integrals are discarded if absolute value <: 0.10E-13
                   Integral cutoff threshold is set to       <: 0.10E-15
 
            Nuclear Potential Energy              3.74203894 au
 
 
      Basis set specifications :
      Symmetry species         a  
      Basis functions           30
 
 
  Input file to MOLDEN was generated!
 
 ###############################################################################
 ###############################################################################
 ###                                                                         ###
 ###                                                                         ###
 ###    There were warnings during the execution                             ###
 ###    Please, check the output with care!                                  ###
 ###                                                                         ###
 ###                                                                         ###
 ###############################################################################
 ###############################################################################
--- Stop Module: seward at Fri Aug  9 15:36:54 2024 /rc=_RC_ALL_IS_WELL_ ---
*** files: H6_1.23.GssOrb H6_1.23.guessorb.h5 H6_1.23.guessorb.molden xmldump
    saved to directory /home/grierjones/DDCASPT2/hydrogen_comps/minimal_2e_2o/chains/even/H6_chain/H6_1.23

*** symbolic link created: INPORB -> H6_1.23.GssOrb
--- Start Module: motra at Fri Aug  9 15:36:54 2024 ---
 
()()()()()()()()()()()()()()()()()()()()()()()()()()()()()()()()()()()()()()()()()()()()()()()()()()

                                               &MOTRA

                                   only a single process is used
                       available to each process: 2.0 GB of memory, 1 thread?
()()()()()()()()()()()()()()()()()()()()()()()()()()()()()()()()()()()()()()()()()()()()()()()()()()
 
 
      *** WARNING: Default frozen orbitals is overwritten by user input.
      *** Default values:   0
 
      Header of the integral files:
      
       Integrals generated by seward 4.2.0  , Fri Aug  9 15:36:54 2024
 
 
      Header of MO coefficients source file:
      *Guess orbitals                                                                 
 
 
      Cartesian coordinates in Angstrom:
      -----------------------------------------------------
      No.  Label        X            Y            Z        
      -----------------------------------------------------
       1   H1         0.00000000   0.00000000   0.00000000
       2   H2         0.00000000   0.00000000   1.23030300
       3   H3         0.00000000   0.00000000   2.46060600
       4   H4         0.00000000   0.00000000   3.69090900
       5   H5         0.00000000   0.00000000   4.92121200
       6   H6         0.00000000   0.00000000   6.15151500
      -----------------------------------------------------
      Nuclear repulsion energy =    3.74203894
 
      Orbital specifications:
      -----------------------
 
      Symmetry species:              1
      Number of basis functions:    30
      Frozen orbitals:               0
      Deleted orbitals:              0
      Number of orbitals used:      30

       SYMMETRY  BASIS FUNCTIONS       ORBITALS      INTEGRALS   CPU(SEC)  I/O(SEC)
 
        1 1 1 1   30  30  30  30    30  30  30  30      108345       0.00      0.00

       TOTAL CPU TIME(SEC)    0.89TOTAL I/O TIME(SEC)    1.59
 
--- Stop Module: motra at Fri Aug  9 15:36:56 2024 /rc=_RC_ALL_IS_WELL_ ---
*** files: xmldump
    saved to directory /home/grierjones/DDCASPT2/hydrogen_comps/minimal_2e_2o/chains/even/H6_chain/H6_1.23
--- Module motra spent 1 second ---

>>> COPY /tmp/H6_1.23/GMJ_one_int_indx.csv /home/grierjones/DDCASPT2/hydrogen_comps/minimal_2e_2o/chains/even/H6_chain/H6_1.23/H6_1.23.GMJ_one_int_indx.csv

>>> COPY /tmp/H6_1.23/GMJ_one_int.csv /home/grierjones/DDCASPT2/hydrogen_comps/minimal_2e_2o/chains/even/H6_chain/H6_1.23/H6_1.23.GMJ_one_int.csv

>>> COPY /tmp/H6_1.23/GMJ_two_int_indx.csv /home/grierjones/DDCASPT2/hydrogen_comps/minimal_2e_2o/chains/even/H6_chain/H6_1.23/H6_1.23.GMJ_two_int_indx.csv

>>> COPY /tmp/H6_1.23/GMJ_two_int.csv /home/grierjones/DDCASPT2/hydrogen_comps/minimal_2e_2o/chains/even/H6_chain/H6_1.23/H6_1.23.GMJ_two_int.csv

*** symbolic link created: INPORB -> H6_1.23.GssOrb
--- Start Module: scf at Fri Aug  9 15:36:56 2024 ---
 
()()()()()()()()()()()()()()()()()()()()()()()()()()()()()()()()()()()()()()()()()()()()()()()()()()

                                                &SCF

                                   only a single process is used
                       available to each process: 2.0 GB of memory, 1 thread?
()()()()()()()()()()()()()()()()()()()()()()()()()()()()()()()()()()()()()()()()()()()()()()()()()()
 
++    Input section:
      --------------
 
      Header of the integral files:
      
       Integrals generated by seward 4.2.0  , Fri Aug  9 15:36:54 2024
 
 
      Cartesian coordinates in Angstrom:
      -----------------------------------------------------
      No.  Label        X            Y            Z        
      -----------------------------------------------------
       1   H1         0.00000000   0.00000000   0.00000000
       2   H2         0.00000000   0.00000000   1.23030300
       3   H3         0.00000000   0.00000000   2.46060600
       4   H4         0.00000000   0.00000000   3.69090900
       5   H5         0.00000000   0.00000000   4.92121200
       6   H6         0.00000000   0.00000000   6.15151500
      -----------------------------------------------------
      Nuclear repulsion energy =    3.74203894
--
 
++    Orbital specifications:
      -----------------------
 
      Symmetry species               1
                                     a
      Frozen orbitals                0
      Occupied orbitals              3
      Secondary orbitals            27
      Deleted orbitals               0
      Total number of orbitals      30
      Number of basis functions     30
--
 
      Molecular charge                           0.000
 
++    Optimization specifications:
      ----------------------------
 
      SCF Algorithm: Conventional
      Minimized density differences are used
      Number of density matrices in core                5
      Maximum number of NDDO SCF iterations           400
      Maximum number of HF SCF iterations             400
      Threshold for SCF energy change            0.10E-08
      Threshold for density matrix               0.10E-03
      Threshold for Fock matrix                  0.15E-03
      Threshold for linear dependence            0.10E-08
      Threshold at which DIIS is turned on       0.15E+00
      Threshold at which QNR/C2DIIS is turned on 0.75E-01
      Threshold for Norm(delta) (QNR/C2DIIS)     0.20E-04
      DIIS extrapolation of the SCF procedure
      All orbitals punched on: SCFORB
--
 
      Input vectors read from INPORB
      Orbital file label: *Guess orbitals
 
 
++ Convergence information
                                   SCF        iterations: Energy and convergence statistics
 
Iter     Tot. SCF        One-elec.       Two-elec.     Energy      Max Dij or  Max Fij      DNorm      TNorm      AccCon     Time
         Energy          Energy          Energy        Change      Delta Norm                                                in Sec.
   1    -3.092438274   -10.696236882     3.861759668   0.00E+00    0.22E+00*   0.12E+00*    0.31E+01   0.94E+01   None         0.
   2    -3.147070016   -10.784810463     3.895701508  -0.55E-01*   0.54E-01*   0.14E-01*    0.11E+01   0.94E+01   EDIIS        0.
   3    -3.149253022   -10.761508584     3.870216623  -0.22E-02*   0.18E-01*   0.51E-02*    0.18E+00   0.94E+01   c2DIIS       0.
   4    -3.149510378   -10.762832472     3.871283155  -0.26E-03*   0.34E-02*   0.13E-02*    0.59E-01   0.94E+01   QNRc2DIIS    0.
   5    -3.149529514   -10.761892706     3.870324253  -0.19E-04*   0.26E-02*   0.52E-03*    0.39E-02   0.94E+01   QNRc2DIIS    0.
   6    -3.149533918   -10.761984937     3.870412080  -0.44E-05*   0.32E-04*   0.12E-04     0.53E-03   0.94E+01   QNRc2DIIS    0.
   7    -3.149533920   -10.761955292     3.870382433  -0.18E-08*   0.46E-05    0.20E-05     0.52E-04   0.94E+01   QNRc2DIIS    0.
   8    -3.149533920   -10.761954662     3.870381804  -0.35E-10    0.64E-06    0.18E-06     0.51E-05   0.94E+01   QNRc2DIIS    0.
 
       Convergence after  8 Macro Iterations
--
 
 *****************************************************************************************************************************
 *                                                                                                                           *
 *                                             SCF/KS-DFT Program, Final results                                             *
 *                                                                                                                           *
 *                                                                                                                           *
 *                                                                                                                           *
 *                                                       Final Results                                                       *
 *                                                                                                                           *
 *****************************************************************************************************************************
 
::    Total SCF energy                                 -3.1495339195
      One-electron energy                             -10.7619546625
      Two-electron energy                               3.8703818039
      Nuclear repulsion energy                          3.7420389390
      Kinetic energy (interpolated)                     2.5920016446
      Virial theorem                                    1.2150971918
      Total spin, S(S+1)                                0.0000000000
      Total spin, S                                     0.0000000000
      Max non-diagonal density matrix element           0.0000008086
      Max non-diagonal Fock matrix element              0.0000000745
 
 
      All orbitals with orbital energies smaller than  E(LUMO)+0.5 are printed
 
++    Molecular orbitals:
      -------------------
 
      Title: SCF orbitals

      Molecular orbitals for symmetry species 1: a  
 
          Orbital            1         2         3         4         5         6         7         8    
          Energy           -0.6057   -0.5186   -0.3863   -0.0141    0.1479    0.2571    0.2852    0.4489
          Occ. No.          2.0000    2.0000    2.0000    0.0000    0.0000    0.0000    0.0000    0.0000
 
        1 H1     1s         0.1860   -0.3402    0.4140   -0.7118    0.8437   -0.4985   -0.3021   -0.8449
        2 H1     2s         0.0037   -0.0057    0.0444   -0.3376    0.6549   -0.0386   -0.7061   -0.2268
        3 H1     2px       -0.0000    0.0000   -0.0000   -0.0000   -0.0000   -0.0000    0.0000   -0.0000
        4 H1     2py        0.0000   -0.0000    0.0000    0.0000   -0.0000    0.0000   -0.0000    0.0000
        5 H1     2pz        0.0160   -0.0205    0.0124    0.0061   -0.0285   -0.0218    0.0335    0.0366
        6 H2     1s         0.2753   -0.4322    0.3397    0.4241   -1.1793    0.3549    0.8062    1.4351
        7 H2     2s        -0.0185   -0.0373    0.1052    0.1784   -0.5816    0.5049    0.3044    1.1898
        8 H2     2px       -0.0000   -0.0000    0.0000   -0.0000   -0.0000   -0.0000    0.0000   -0.0000
        9 H2     2py       -0.0000    0.0000   -0.0000   -0.0000    0.0000    0.0000   -0.0000    0.0000
       10 H2     2pz        0.0060    0.0113   -0.0308    0.0250    0.0171   -0.0136   -0.0928   -0.0043
       11 H3     1s         0.3815   -0.0939   -0.4697    0.6002    0.4368   -0.3183   -1.0495   -1.6452
       12 H3     2s        -0.0057    0.0339   -0.1111    0.2332    0.2738    0.1999   -0.6888   -0.7990
       13 H3     2px       -0.0000   -0.0000    0.0000    0.0000   -0.0000   -0.0000    0.0000   -0.0000
       14 H3     2py        0.0000   -0.0000    0.0000   -0.0000    0.0000    0.0000   -0.0000    0.0000
       15 H3     2pz        0.0068    0.0223   -0.0213   -0.0252    0.0267   -0.0256   -0.0311    0.0965
       16 H4     1s         0.3815    0.0939   -0.4697   -0.6002    0.4368   -0.3183    1.0495    1.6452
       17 H4     2s        -0.0057   -0.0339   -0.1111   -0.2332    0.2738    0.1999    0.6888    0.7990
       18 H4     2px       -0.0000    0.0000    0.0000    0.0000   -0.0000   -0.0000    0.0000   -0.0000
       19 H4     2py       -0.0000   -0.0000   -0.0000   -0.0000   -0.0000    0.0000   -0.0000   -0.0000
       20 H4     2pz       -0.0068    0.0223    0.0213   -0.0252   -0.0267    0.0256   -0.0311    0.0965
       21 H5     1s         0.2753    0.4322    0.3397   -0.4241   -1.1793    0.3549   -0.8062   -1.4351
       22 H5     2s        -0.0185    0.0373    0.1052   -0.1784   -0.5816    0.5049   -0.3044   -1.1898
       23 H5     2px       -0.0000   -0.0000    0.0000    0.0000   -0.0000   -0.0000    0.0000   -0.0000
       24 H5     2py        0.0000    0.0000   -0.0000   -0.0000   -0.0000    0.0000    0.0000    0.0000
       25 H5     2pz       -0.0060    0.0113    0.0308    0.0250   -0.0171    0.0136   -0.0928   -0.0043
       26 H6     1s         0.1860    0.3402    0.4140    0.7118    0.8437   -0.4985    0.3021    0.8449
       27 H6     2s         0.0037    0.0057    0.0444    0.3376    0.6549   -0.0386    0.7061    0.2268
       28 H6     2px       -0.0000    0.0000    0.0000    0.0000    0.0000   -0.0000   -0.0000   -0.0000
       29 H6     2py       -0.0000    0.0000    0.0000   -0.0000   -0.0000   -0.0000    0.0000    0.0000
       30 H6     2pz       -0.0160   -0.0205   -0.0124    0.0061    0.0285    0.0218    0.0335    0.0366
--
 
 
++    Molecular charges:
      ------------------
 
      Mulliken charges per centre and basis function type
      ---------------------------------------------------
 
                H1      H2      H3      H4      H5      H6    
      1s       0.9401  1.0314  1.0021  1.0021  1.0314  0.9401
      2s       0.0021 -0.0133 -0.0481 -0.0481 -0.0133  0.0021
      2px      0.0000  0.0000  0.0000  0.0000  0.0000  0.0000
      2pz      0.0178  0.0346  0.0333  0.0333  0.0346  0.0178
      2py      0.0000  0.0000 -0.0000  0.0000  0.0000  0.0000
      Total    0.9600  1.0527  0.9873  0.9873  1.0527  0.9600
 
      N-E      0.0400 -0.0527  0.0127  0.0127 -0.0527  0.0400
 
      Total electronic charge=    6.000000
 
      Total            charge=   -0.000000
--
 
 
  Input file to MOLDEN was generated!
 
 
++    Static properties:
      ------------------
 
 
      LoProp Charges per center
 

                   H1       H2       H3       H4       H5       H6    
      Nuclear      1.0000   1.0000   1.0000   1.0000   1.0000   1.0000
      Electronic  -0.9967  -1.0055  -0.9978  -0.9978  -1.0055  -0.9967
 
      Total        0.0033  -0.0055   0.0022   0.0022  -0.0055   0.0033
--
 
 
++    Natural Bond Order analysis
      ---------------------------
      Based on LoProp computed density
      -------------------------------------------------------------------------------------
      Atom A       Atom B       Bond Order
      -------------------------------------------------------------------------------------
      NBO located      0.965 non-bonded electrons on atom H1        
      NBO located      1.013 non-bonded electrons on atom H3        
      NBO located      1.013 non-bonded electrons on atom H4        
      NBO located      0.965 non-bonded electrons on atom H6        
      The remaining    2.045 electrons are to be considered as diffuse
--
 
 
++    Molecular properties:
      ---------------------
 
      Charge (e):
                      =   -0.0000
      Dipole Moment (Debye):
      Origin of the operator (Ang)=    0.0000    0.0000    0.0000
                   X=  8.9503E-14               Y= -1.0499E-14               Z= -5.5445E-12           Total=  5.5452E-12
      Quadrupole Moment (Debye*Ang):
      Origin of the operator (Ang)=    0.0000    0.0000    3.0758
                  XX= -8.2338E+00              XY=  3.3809E-29              XZ= -2.0589E-13              YY= -8.2338E+00
                  YZ=  3.4212E-14              ZZ= -5.0588E+00
      In traceless form (Debye*Ang)
                  XX= -1.5875E+00              XY=  5.0714E-29              XZ= -3.0884E-13              YY= -1.5875E+00
                  YZ=  5.1317E-14              ZZ=  3.1750E+00
--
 
 
  Input file to MOLDEN was generated!
 
 ###############################################################################
 ###############################################################################
 ###                                                                         ###
 ###                                                                         ###
 ###    RunFile label nBas                                                   ###
 ###    was used       78 times                                              ###
 ###                                                                         ###
 ###                                                                         ###
 ###############################################################################
 ###############################################################################
--- Stop Module: scf at Fri Aug  9 15:36:56 2024 /rc=_RC_ALL_IS_WELL_ ---
*** files: H6_1.23.LprOrb H6_1.23.LoProp.molden H6_1.23.scf.molden H6_1.23.ScfOrb H6_1.23.scf.h5 xmldump
    saved to directory /home/grierjones/DDCASPT2/hydrogen_comps/minimal_2e_2o/chains/even/H6_chain/H6_1.23

>>> COPY /tmp/H6_1.23/H6_1.23.scf.h5 /home/grierjones/DDCASPT2/hydrogen_comps/minimal_2e_2o/chains/even/H6_chain/H6_1.23/

*** symbolic link created: INPORB -> H6_1.23.ScfOrb
--- Start Module: rasscf at Fri Aug  9 15:36:56 2024 ---
 
()()()()()()()()()()()()()()()()()()()()()()()()()()()()()()()()()()()()()()()()()()()()()()()()()()

                                              &RASSCF

                                   only a single process is used
                       available to each process: 2.0 GB of memory, 1 thread?
()()()()()()()()()()()()()()()()()()()()()()()()()()()()()()()()()()()()()()()()()()()()()()()()()()
 
 
      Header of the ONEINT file:
      --------------------------
      
      Integrals generated by seward 4.2.0  , Fri Aug  9 15:36:54 2024
 
 
      OrdInt status: non-squared
 
 
      Cartesian coordinates in Angstrom:
      -----------------------------------------------------
      No.  Label        X            Y            Z        
      -----------------------------------------------------
       1   H1         0.00000000   0.00000000   0.00000000
       2   H2         0.00000000   0.00000000   1.23030300
       3   H3         0.00000000   0.00000000   2.46060600
       4   H4         0.00000000   0.00000000   3.69090900
       5   H5         0.00000000   0.00000000   4.92121200
       6   H6         0.00000000   0.00000000   6.15151500
      -----------------------------------------------------
      Nuclear repulsion energy =    3.74203894
 
++    Wave function specifications:
      -----------------------------
 
      Number of closed shell electrons           0
      Number of electrons in active shells       6
      Max number of holes in RAS1 space          0
      Max nr of electrons in RAS3 space          0
      Number of inactive orbitals                0
      Number of active orbitals                  6
      Number of secondary orbitals              24
      Spin quantum number                      0.0
      State symmetry                             1
--
 
++    Orbital specifications:
      -----------------------
 
      Symmetry species                           1
                                                 a
      Frozen orbitals                            0
      Inactive orbitals                          0
      Active orbitals                            6
      RAS1 orbitals                              0
      RAS2 orbitals                              6
      RAS3 orbitals                              0
      Secondary orbitals                        24
      Deleted orbitals                           0
      Number of basis functions                 30
--
 
++    CI expansion specifications:
      ----------------------------
 
      Number of CSFs                           175
      Number of determinants                   210
      Number of root(s) required                 1
      Root chosen for geometry opt.              1
      CI root used                               1
         
      highest root included in the CI            1
      max. size of the explicit Hamiltonian    175
--
 
++    Optimization specifications:
      ----------------------------
 
      RASSCF algorithm: Conventional
      Maximum number of macro iterations       200
      Maximum number of SX iterations          100
      Threshold for RASSCF energy            0.100E-07
      Threshold for max MO rotation          0.100E+00
      Threshold for max BLB element          0.100E-03
      Level shift parameter                  0.500E+00
      Make Quasi-Newton update
--
 
      The MO-coefficients are taken from the file:
      /home/grierjones/DDCASPT2/hydrogen_comps/minimal_2e_2o/chains/even/H6_chain/H6_1.21/H6_1.21.RasOrb                              
      Title: RASSCF average (pseudo-natural) orbitals                                      
 
      Total molecular charge    0.00
 
      ************************************************************************************************************************
      *                                                                                                                      *
      *                                            Wave function control section                                             *
      *                                                                                                                      *
      ************************************************************************************************************************
 
 
                                         RASSCF iterations: Energy and convergence statistics
                                         ----------------------------------------------------
 
      Iter CI   SX   CI       RASSCF       Energy    max ROT     max BLB   max BLB  Level Ln srch  Step   QN   Walltime
          iter iter root      energy       change     param      element    value   shift minimum  type update hh:mm:ss
 Nr of preliminary CI iterations:   1
        1   1    4    1    -3.25892036    0.00E+00   0.51E-02    1   7 1 -0.78E-02*  0.00   0.00    SX    NO    0:00:00
        2   1    3    1    -3.25900124   -0.81E-04* -0.77E-03    1   7 1 -0.12E-02*  0.00   0.00    SX    NO    0:00:00
        3   1    3    1    -3.25900303   -0.18E-05*  0.34E-03    1   7 1 -0.18E-03*  0.00   0.00    SX    NO    0:00:00
        4   1    3    1    -3.25900313   -0.11E-06* -0.14E-03    1   7 1 -0.34E-04   0.00   0.00    SX    NO    0:00:00
        5   1    3    1    -3.25900315   -0.12E-07*  0.92E-04    4  14 1 -0.13E-04   0.00   1.60    QN   YES    0:00:00
        6   1    2    1    -3.25900315   -0.22E-08  -0.36E-05    1   7 1  0.14E-05   0.00   1.02    QN   YES    0:00:00
      Convergence after  6 iterations
        7   1    2    1    -3.25900315   -0.19E-10  -0.36E-05    2  14 1 -0.58E-06   0.00   1.02    QN   YES    0:00:00
 
      ************************************************************************************************************************
                                                      Wave function printout:
                       occupation of active orbitals, and spin coupling of open shells (u,d: Spin up or down)
      ************************************************************************************************************************
 
      Note: transformation to natural orbitals
      has been made, which may change the order of the CSFs.
 
      printout of CI-coefficients larger than  0.05 for root  1
      energy=      -3.259003
      conf/sym  111111     Coeff  Weight
             1  222000  -0.91985 0.84613
            11  220200   0.22293 0.04970
            16  220002   0.05381 0.00290
            20  2udu0d   0.16983 0.02884
            24  u2dud0  -0.13165 0.01733
            29  202200   0.07551 0.00570
            34  202002   0.08289 0.00687
            38  ud2u0d   0.06901 0.00476
            39  ud20ud  -0.07430 0.00552
            41  022200   0.05674 0.00322
            48  2uud0d  -0.07189 0.00517
            50  u2udd0   0.05172 0.00267
 
      Natural orbitals and occupation numbers for root  1
      sym 1:   1.944575   1.912949   1.823316   0.190809   0.045464   0.082888
 
      ************************************************************************************************************************
      *                                                                                                                      *
      *                                                    Final results                                                     *
      *                                                                                                                      *
      ************************************************************************************************************************
 
 
++    Wave function specifications:
      -----------------------------
 
      Number of closed shell electrons           0
      Number of electrons in active shells       6
      Max number of holes in RAS1 space          0
      Max nr of electrons in RAS3 space          0
      Number of inactive orbitals                0
      Number of active orbitals                  6
      Number of secondary orbitals              24
      Spin quantum number                      0.0
      State symmetry                             1
--
 
++    Orbital specifications:
      -----------------------
 
      Symmetry species                           1
                                                 a
      Frozen orbitals                            0
      Inactive orbitals                          0
      Active orbitals                            6
      RAS1 orbitals                              0
      RAS2 orbitals                              6
      RAS3 orbitals                              0
      Secondary orbitals                        24
      Deleted orbitals                           0
      Number of basis functions                 30
--
 
++    CI expansion specifications:
      ----------------------------
 
      Number of CSFs                           175
      Number of determinants                   210
      Number of root(s) required                 1
      CI root used                               1
      highest root included in the CI            1
      Root passed to geometry opt.               1
--
 
++    Final optimization conditions:
      ------------------------------
 
      Average CI energy                              -3.25900315
      RASSCF energy for state  1                     -3.25900315
      Super-CI energy                                -0.00000000
      RASSCF energy change                           -0.00000000
      Max change in MO coefficients              -0.337E-05
      Max non-diagonal density matrix element    -0.364E-05
      Maximum BLB matrix element                 -0.584E-06
      (orbital pair   2,  14 in symmetry   1)
      Norm of electronic gradient            0.140E-05
--
 
 
      Final state energy(ies):
      ------------------------
 
::    RASSCF root number  1 Total energy:     -3.25900315
 
++    Molecular orbitals:
      -------------------
 
      Pseudonatural active orbitals and approximate occupation numbers
 
 
 
 
      Molecular orbitals for symmetry species 1: a  
 
 
      Orbital                1         2         3         4         5         6         7         8         9        10
      Energy            0.0000    0.0000    0.0000    0.0000    0.0000    0.0000    0.2426    0.3111    0.4485    0.5992
      Occ. No.          1.9446    1.9129    1.8233    0.1908    0.0455    0.0829    0.0000    0.0000    0.0000    0.0000
 
    1 H1     1s         0.1914   -0.3486    0.4247   -0.5693    0.5165   -0.6821   -0.0907    0.0920   -0.5455    0.0000
    2 H1     2s         0.0017   -0.0007    0.0295   -0.0106    0.0609   -0.0298    0.2954    0.6667   -1.0231    0.0000
    3 H1     2px        0.0000   -0.0000   -0.0000    0.0000   -0.0000    0.0000   -0.0000   -0.0000   -0.0000    0.1767
    4 H1     2py        0.0000   -0.0000   -0.0000    0.0000   -0.0000    0.0000    0.0000    0.0000   -0.0000   -0.0657
    5 H1     2pz        0.0123   -0.0152    0.0076   -0.0033    0.0105   -0.0080   -0.0288   -0.0143   -0.0251   -0.0000
    6 H2     1s         0.2834   -0.4238    0.3181    0.2699   -0.9730    0.8805   -0.1488   -0.2102    0.3530   -0.0000
    7 H2     2s        -0.0203   -0.0182    0.0811   -0.0233   -0.2410    0.1375    0.1988    0.1074    0.4438   -0.0000
    8 H2     2px       -0.0000   -0.0000   -0.0000    0.0000   -0.0000   -0.0000   -0.0000   -0.0000   -0.0000    0.2955
    9 H2     2py        0.0000   -0.0000    0.0000    0.0000    0.0000   -0.0000    0.0000    0.0000   -0.0000   -0.1099
   10 H2     2pz        0.0077    0.0068   -0.0269    0.0272    0.0095    0.0064    0.0067    0.0861   -0.1938    0.0000
   11 H3     1s         0.3781   -0.1110   -0.4624    0.5730    1.2537   -0.3751   -0.1200    0.0810   -0.0120   -0.0000
   12 H3     2s        -0.0130    0.0266   -0.0837    0.0611    0.3127   -0.1003    0.2662    0.1953    0.4372   -0.0000
   13 H3     2px        0.0000   -0.0000    0.0000    0.0000    0.0000   -0.0000   -0.0000   -0.0000   -0.0000    0.3651
   14 H3     2py        0.0000    0.0000    0.0000   -0.0000   -0.0000    0.0000    0.0000    0.0000   -0.0000   -0.1358
   15 H3     2pz        0.0029    0.0210   -0.0176   -0.0149    0.0093   -0.0236   -0.0125    0.0612   -0.0177   -0.0000
   16 H4     1s         0.3781    0.1110   -0.4624   -0.5730   -1.2537   -0.3751   -0.1200   -0.0810   -0.0120    0.0000
   17 H4     2s        -0.0130   -0.0266   -0.0837   -0.0611   -0.3127   -0.1003    0.2662   -0.1953    0.4372    0.0000
   18 H4     2px       -0.0000    0.0000   -0.0000    0.0000   -0.0000   -0.0000   -0.0000    0.0000    0.0000    0.3651
   19 H4     2py        0.0000   -0.0000   -0.0000    0.0000   -0.0000   -0.0000    0.0000    0.0000   -0.0000   -0.1358
   20 H4     2pz       -0.0029    0.0210    0.0176   -0.0149    0.0093    0.0236    0.0125    0.0612    0.0177   -0.0000
   21 H5     1s         0.2834    0.4238    0.3181   -0.2699    0.9730    0.8805   -0.1488    0.2102    0.3530    0.0000
   22 H5     2s        -0.0203    0.0182    0.0811    0.0233    0.2410    0.1375    0.1988   -0.1074    0.4438    0.0000
   23 H5     2px        0.0000    0.0000   -0.0000    0.0000    0.0000    0.0000   -0.0000    0.0000   -0.0000    0.2955
   24 H5     2py        0.0000    0.0000   -0.0000    0.0000   -0.0000    0.0000   -0.0000    0.0000    0.0000   -0.1099
   25 H5     2pz       -0.0077    0.0068    0.0269    0.0272    0.0095   -0.0064   -0.0067    0.0861    0.1938    0.0000
   26 H6     1s         0.1914    0.3486    0.4247    0.5693   -0.5165   -0.6821   -0.0907   -0.0920   -0.5455   -0.0000
   27 H6     2s         0.0017    0.0007    0.0295    0.0106   -0.0609   -0.0298    0.2954   -0.6667   -1.0231   -0.0000
   28 H6     2px        0.0000   -0.0000    0.0000   -0.0000   -0.0000   -0.0000   -0.0000    0.0000    0.0000    0.1767
   29 H6     2py       -0.0000   -0.0000    0.0000    0.0000   -0.0000   -0.0000   -0.0000    0.0000    0.0000   -0.0657
   30 H6     2pz       -0.0123   -0.0152   -0.0076   -0.0033    0.0105    0.0080    0.0288   -0.0143    0.0251    0.0000
 
 
      Orbital               11        12        13        14        15        16        17        18        19        20
      Energy            0.5992    0.7116    0.7116    0.7333    0.9015    0.9015    1.0691    1.1789    1.1789    1.2461
      Occ. No.          0.0000    0.0000    0.0000    0.0000    0.0000    0.0000    0.0000    0.0000    0.0000    0.0000
 
    1 H1     1s        -0.0000   -0.0000    0.0000   -1.0440    0.0000   -0.0000    0.7353   -0.0000   -0.0000   -0.8979
    2 H1     2s        -0.0000   -0.0000    0.0000   -1.2076   -0.0000    0.0000    0.4470   -0.0000   -0.0000   -1.0313
    3 H1     2px       -0.0657   -0.3646   -0.0499    0.0000    0.4995   -0.1062    0.0000   -0.5781   -0.0563    0.0000
    4 H1     2py       -0.1767    0.0499   -0.3646   -0.0000   -0.1062   -0.4995    0.0000    0.0563   -0.5781    0.0000
    5 H1     2pz        0.0000    0.0000    0.0000   -0.0431   -0.0000    0.0000   -0.2819   -0.0000   -0.0000   -0.2974
    6 H2     1s         0.0000    0.0000   -0.0000    1.0378   -0.0000    0.0000   -1.3499    0.0000    0.0000    1.8273
    7 H2     2s         0.0000    0.0000   -0.0000    1.6044   -0.0000   -0.0000   -1.6421    0.0000    0.0000    2.2775
    8 H2     2px       -0.1099   -0.4170   -0.0571    0.0000    0.1874   -0.0398   -0.0000    0.3009    0.0293   -0.0000
    9 H2     2py       -0.2955    0.0571   -0.4170   -0.0000   -0.0398   -0.1874   -0.0000   -0.0293    0.3009   -0.0000
   10 H2     2pz       -0.0000   -0.0000    0.0000   -0.1628   -0.0000    0.0000    0.1773    0.0000    0.0000    0.2821
   11 H3     1s        -0.0000    0.0000   -0.0000    0.2100    0.0000   -0.0000    0.8285   -0.0000   -0.0000   -0.9974
   12 H3     2s        -0.0000    0.0000   -0.0000    0.5010    0.0000   -0.0000    1.0983   -0.0000   -0.0000   -1.2963
   13 H3     2px       -0.1358   -0.1819   -0.0249    0.0000   -0.3954    0.0841   -0.0000    0.4680    0.0455   -0.0000
   14 H3     2py       -0.3651    0.0249   -0.1819    0.0000    0.0841    0.3954   -0.0000   -0.0455    0.4680   -0.0000
   15 H3     2pz        0.0000    0.0000   -0.0000    0.1957   -0.0000   -0.0000   -0.4155   -0.0000   -0.0000   -0.1394
   16 H4     1s         0.0000   -0.0000   -0.0000   -0.2100   -0.0000   -0.0000    0.8285    0.0000   -0.0000   -0.9974
   17 H4     2s        -0.0000   -0.0000   -0.0000   -0.5010   -0.0000   -0.0000    1.0983    0.0000   -0.0000   -1.2963
   18 H4     2px       -0.1358    0.1819    0.0249   -0.0000   -0.3954    0.0841    0.0000   -0.4680   -0.0455    0.0000
   19 H4     2py       -0.3651   -0.0249    0.1819    0.0000    0.0841    0.3954    0.0000    0.0455   -0.4680    0.0000
   20 H4     2pz        0.0000    0.0000   -0.0000    0.1957    0.0000   -0.0000    0.4155    0.0000    0.0000    0.1394
   21 H5     1s        -0.0000   -0.0000    0.0000   -1.0378   -0.0000    0.0000   -1.3499    0.0000    0.0000    1.8273
   22 H5     2s        -0.0000   -0.0000    0.0000   -1.6044   -0.0000    0.0000   -1.6421    0.0000    0.0000    2.2775
   23 H5     2px       -0.1099    0.4170    0.0571   -0.0000    0.1874   -0.0398    0.0000   -0.3009   -0.0293    0.0000
   24 H5     2py       -0.2955   -0.0571    0.4170    0.0000   -0.0398   -0.1874    0.0000    0.0293   -0.3009    0.0000
   25 H5     2pz       -0.0000   -0.0000    0.0000   -0.1628   -0.0000    0.0000   -0.1773   -0.0000   -0.0000   -0.2821
   26 H6     1s         0.0000    0.0000   -0.0000    1.0440    0.0000   -0.0000    0.7353   -0.0000   -0.0000   -0.8979
   27 H6     2s         0.0000    0.0000   -0.0000    1.2076    0.0000   -0.0000    0.4470   -0.0000   -0.0000   -1.0313
   28 H6     2px       -0.0657    0.3646    0.0499   -0.0000    0.4995   -0.1062   -0.0000    0.5781    0.0563   -0.0000
   29 H6     2py       -0.1767   -0.0499    0.3646    0.0000   -0.1062   -0.4995   -0.0000   -0.0563    0.5781   -0.0000
   30 H6     2pz       -0.0000   -0.0000   -0.0000   -0.0431   -0.0000   -0.0000    0.2819    0.0000    0.0000    0.2974
 
 
      Orbital               21        22        23        24        25        26        27        28        29        30
      Energy            1.3218    1.5275    1.5275    1.8388    1.8713    1.8713    1.8791    2.3639    2.9864    3.7442
      Occ. No.          0.0000    0.0000    0.0000    0.0000    0.0000    0.0000    0.0000    0.0000    0.0000    0.0000
 
    1 H1     1s         0.0068    0.0000    0.0000    1.2306   -0.0000   -0.0000   -1.0873    1.0586   -0.8929    0.6263
    2 H1     2s        -0.2710    0.0000    0.0000    1.1224   -0.0000   -0.0000   -0.8844    0.5652   -0.2627    0.1250
    3 H1     2px       -0.0000   -0.5335    0.0130   -0.0000    0.3145   -0.1030   -0.0000    0.0000   -0.0000    0.0000
    4 H1     2py        0.0000    0.0130    0.5335    0.0000    0.1030    0.3145   -0.0000    0.0000   -0.0000    0.0000
    5 H1     2pz       -0.5582   -0.0000    0.0000    0.4636   -0.0000   -0.0000   -0.8463    0.8183   -0.6757    0.4376
    6 H2     1s        -0.2684   -0.0000   -0.0000   -3.7017    0.0000    0.0000    2.3076   -1.3149    0.0439    0.3959
    7 H2     2s        -0.4714   -0.0000   -0.0000   -3.4435    0.0000    0.0000    1.5737   -0.6694    0.0819   -0.0736
    8 H2     2px       -0.0000    0.7245   -0.0176    0.0000   -0.6150    0.2015    0.0000   -0.0000   -0.0000    0.0000
    9 H2     2py       -0.0000   -0.0176   -0.7245   -0.0000   -0.2015   -0.6150    0.0000    0.0000    0.0000   -0.0000
   10 H2     2pz        0.1964    0.0000   -0.0000   -0.4522   -0.0000    0.0000   -0.0281    0.7528   -1.3295    1.1700
   11 H3     1s         1.1908    0.0000    0.0000    5.6045    0.0000   -0.0000   -1.1308   -0.5826    0.9253    0.2823
   12 H3     2s         1.7354    0.0000    0.0000    5.2783    0.0000   -0.0000   -0.8002    0.0538    0.1076    0.1105
   13 H3     2px        0.0000   -0.3303    0.0080   -0.0000    0.7837   -0.2567   -0.0000    0.0000    0.0000   -0.0000
   14 H3     2py        0.0000    0.0080    0.3303    0.0000    0.2567    0.7837   -0.0000   -0.0000    0.0000    0.0000
   15 H3     2pz       -0.0631   -0.0000    0.0000    0.1963    0.0000    0.0000    0.7120   -0.6863   -0.6676    1.6261
   16 H4     1s        -1.1908    0.0000   -0.0000   -5.6045   -0.0000    0.0000   -1.1308    0.5826    0.9253   -0.2823
   17 H4     2s        -1.7354   -0.0000   -0.0000   -5.2783   -0.0000    0.0000   -0.8002   -0.0538    0.1076   -0.1105
   18 H4     2px        0.0000   -0.3303    0.0080    0.0000   -0.7837    0.2567    0.0000   -0.0000    0.0000    0.0000
   19 H4     2py       -0.0000    0.0080    0.3303   -0.0000   -0.2567   -0.7837    0.0000    0.0000   -0.0000   -0.0000
   20 H4     2pz       -0.0631    0.0000    0.0000    0.1963   -0.0000   -0.0000   -0.7120   -0.6863    0.6676    1.6261
   21 H5     1s         0.2684   -0.0000    0.0000    3.7017    0.0000   -0.0000    2.3076    1.3149    0.0439   -0.3959
   22 H5     2s         0.4714   -0.0000    0.0000    3.4435    0.0000   -0.0000    1.5737    0.6694    0.0819    0.0736
   23 H5     2px       -0.0000    0.7245   -0.0176   -0.0000    0.6150   -0.2015   -0.0000    0.0000   -0.0000   -0.0000
   24 H5     2py       -0.0000   -0.0176   -0.7245    0.0000    0.2015    0.6150   -0.0000    0.0000   -0.0000    0.0000
   25 H5     2pz        0.1964    0.0000   -0.0000   -0.4522   -0.0000    0.0000    0.0281    0.7528    1.3295    1.1700
   26 H6     1s        -0.0068    0.0000   -0.0000   -1.2306   -0.0000    0.0000   -1.0873   -1.0586   -0.8929   -0.6263
   27 H6     2s         0.2710    0.0000   -0.0000   -1.1224   -0.0000    0.0000   -0.8844   -0.5652   -0.2627   -0.1250
   28 H6     2px        0.0000   -0.5335    0.0130    0.0000   -0.3145    0.1030    0.0000   -0.0000    0.0000    0.0000
   29 H6     2py        0.0000    0.0130    0.5335   -0.0000   -0.1030   -0.3145    0.0000    0.0000    0.0000    0.0000
   30 H6     2pz       -0.5582   -0.0000    0.0000    0.4636    0.0000    0.0000    0.8463    0.8183    0.6757    0.4376
--
 
      Von Neumann Entropy (Root  1) =  0.86031
 

      Mulliken population analysis for root number:  1
      -----------------------------------------------
 
 
++    Molecular charges:
      ------------------
 
      Mulliken charges per centre and basis function type
      ---------------------------------------------------
 
                H1      H2      H3      H4      H5      H6    
      1s       0.9732  1.0146  1.0094  1.0094  1.0146  0.9732
      2s      -0.0018 -0.0207 -0.0455 -0.0455 -0.0207 -0.0018
      2px      0.0000  0.0000  0.0000  0.0000  0.0000  0.0000
      2pz      0.0119  0.0301  0.0289  0.0289  0.0301  0.0119
      2py      0.0000  0.0000  0.0000  0.0000  0.0000  0.0000
      Total    0.9833  1.0240  0.9927  0.9927  1.0240  0.9833
 
      N-E      0.0167 -0.0240  0.0073  0.0073 -0.0240  0.0167
 
      Total electronic charge=    6.000000
 
      Total            charge=   -0.000000
--
 
 

      Expectation values of various properties for root number:  1
      -----------------------------------------------------------
 
 
++    Molecular properties:
      ---------------------
 
      Charge (e):
                      =   -0.0000
      Dipole Moment (Debye):
      Origin of the operator (Ang)=    0.0000    0.0000    0.0000
                   X= -5.2425E-13               Y= -9.2306E-14               Z= -4.6415E-12           Total=  4.6719E-12
      Quadrupole Moment (Debye*Ang):
      Origin of the operator (Ang)=    0.0000    0.0000    3.0758
                  XX= -7.6091E+00              XY= -4.1676E-27              XZ= -5.7280E-13              YY= -7.6091E+00
                  YZ=  5.6254E-13              ZZ= -5.6736E+00
      In traceless form (Debye*Ang)
                  XX= -9.6775E-01              XY= -6.2514E-27              XZ= -8.5921E-13              YY= -9.6775E-01
                  YZ=  8.4381E-13              ZZ=  1.9355E+00
--
 

      LoProp population analysis for root number:  1
      -----------------------------------------------
 
 
++    LoProp analysis:
      ----------------
 
 
 
  Input file to MOLDEN was generated!
 
 
++    Static properties:
      ------------------
 
 
      LoProp Charges per center
 

                   H1       H2       H3       H4       H5       H6    
      Nuclear      1.0000   1.0000   1.0000   1.0000   1.0000   1.0000
      Electronic  -1.0059  -0.9962  -0.9978  -0.9978  -0.9962  -1.0059
 
      Total       -0.0059   0.0038   0.0022   0.0022   0.0038  -0.0059
--
 
 
      Natural Bond Order analysis for root number:  1
 
++    Natural Bond Order analysis
      ---------------------------
      Based on LoProp computed density
      -------------------------------------------------------------------------------------
      Atom A       Atom B       Bond Order
      -------------------------------------------------------------------------------------
      NBO located      0.985 non-bonded electrons on atom H1        
      NBO located      1.013 non-bonded electrons on atom H3        
      NBO located      1.013 non-bonded electrons on atom H4        
      NBO located      0.985 non-bonded electrons on atom H6        
      The remaining    2.005 electrons are to be considered as diffuse
--
 
--
 
 
  Input file to MOLDEN was generated!
 
      Average orbitals are written to the RASORB file
      Natural orbitals for root   1 are written to the RASORB.1 file
      Spin density orbitals for root   1 are written to the SPDORB.1 file
 
--- Stop Module: rasscf at Fri Aug  9 15:36:57 2024 /rc=_RC_ALL_IS_WELL_ ---
*** files: H6_1.23.LprOrb H6_1.23.rasscf.molden H6_1.23.LoProp.molden H6_1.23.RasOrb H6_1.23.RasOrb.1 H6_1.23.rasscf.h5 H6_1.23.SpdOrb.1 xmldump
    saved to directory /home/grierjones/DDCASPT2/hydrogen_comps/minimal_2e_2o/chains/even/H6_chain/H6_1.23

>>> COPY /tmp/H6_1.23/H6_1.23.rasscf.h5 /home/grierjones/DDCASPT2/hydrogen_comps/minimal_2e_2o/chains/even/H6_chain/H6_1.23/

>>> COPY /tmp/H6_1.23/GMJ_Fock_MO.csv /home/grierjones/DDCASPT2/hydrogen_comps/minimal_2e_2o/chains/even/H6_chain/H6_1.23/H6_1.23.GMJ_Fock_MO.csv

*** symbolic link created: INPORB -> H6_1.23.RasOrb
--- Start Module: caspt2 at Fri Aug  9 15:36:57 2024 ---
 
()()()()()()()()()()()()()()()()()()()()()()()()()()()()()()()()()()()()()()()()()()()()()()()()()()

                                              &CASPT2

                                   only a single process is used
                       available to each process: 2.0 GB of memory, 1 thread?
()()()()()()()()()()()()()()()()()()()()()()()()()()()()()()()()()()()()()()()()()()()()()()()()()()
 
 Cholesky algorithm in CASPT2 =    1
 
 ###############################################################################
 ###############################################################################
 ###                                                                         ###
 ###                                                                         ###
 ###    User changed nr of frozen orbitals.                                  ###
 ###                                                                         ###
 ###                                                                         ###
 ###############################################################################
 ###############################################################################
 
++    Wave function specifications:
      -----------------------------
 
      Number of closed shell electrons           0
      Number of electrons in active shells       6
      Max number of holes in RAS1 space          0
      Max number of electrons in RAS3 space      0
      Number of inactive orbitals                0
      Number of active orbitals                  6
      Number of secondary orbitals              24
      Spin quantum number                      0.0
      State symmetry                             1
      Number of CSFs                           175
      Number of root(s) available                1
      Root passed to geometry opt.               1
      A file JOBMIX will be created.
      This is a CASSCF or RASSCF reference function
--
 
++    Orbital specifications:
      -----------------------
 
      Symmetry species                           1
                                                 a
      Frozen orbitals                            0
      Inactive orbitals                          0
      Active orbitals                            6
      Secondary orbitals                        24
      Deleted orbitals                           0
      Number of basis functions                 30
--
 
      Type of Fock operator: STANDARD
      Type of 0-order Hamiltonian: STANDARD WITH DEFAULT IPEA
        "IP-EA" denominator shift =      0.25
      The input orbitals and the CI vector will be transformed.
 
--------------------------------------------------------------------------------
 Estimated memory requirements:
  POLY3 :                   262414
  RHS:                      285604
  SIGMA :                   275200
  PRPCTL:                        0
 Available workspace:    230396124
 
++ CASPT2 computation for group   1
 
********************************************************************************
 Multi-State initialization phase begins for group   1
--------------------------------------------------------------------------------
********************************************************************************
 Compute H0 matrices for state    1
--------------------------------------------------------------------------------
--------------------------------------------------------------------------------
 H0 matrices have been computed.
 
********************************************************************************
  CASPT2 EQUATION SOLUTION
--------------------------------------------------------------------------------
 
  Total nr of CASPT2 parameters:
   Before reduction:       15624
   After  reduction:       15384
 
 The contributions to the second order correlation energy in atomic units.
-----------------------------------------------------------------------------------------------------------------------------
  IT.      VJTU        VJTI        ATVX        AIVX        VJAI        BVAT        BJAT        BJAI        TOTAL       RNORM  
-----------------------------------------------------------------------------------------------------------------------------
   1     0.000000    0.000000   -0.009384    0.000000    0.000000   -0.026166    0.000000    0.000000   -0.035550    0.002295
   2     0.000000    0.000000   -0.009504    0.000000    0.000000   -0.026199    0.000000    0.000000   -0.035703    0.000191
   3     0.000000    0.000000   -0.009504    0.000000    0.000000   -0.026200    0.000000    0.000000   -0.035704    0.000026
   4     0.000000    0.000000   -0.009504    0.000000    0.000000   -0.026200    0.000000    0.000000   -0.035703    0.000002
-------------------------------------------------------------------------------------------------------------------
 
  FINAL CASPT2 RESULT:
 
  Correlation energy /Case, /Symm, and sums:
 VJTU      0.00000000  0.00000000
 VJTIP     0.00000000  0.00000000
 VJTIM     0.00000000  0.00000000
 ATVX     -0.00950350 -0.00950350
 AIVX      0.00000000  0.00000000
 VJAIP     0.00000000  0.00000000
 VJAIM     0.00000000  0.00000000
 BVATP    -0.02489450 -0.02489450
 BVATM    -0.00130513 -0.00130513
 BJATP     0.00000000  0.00000000
 BJATM     0.00000000  0.00000000
 BJAIP     0.00000000  0.00000000
 BJAIM     0.00000000  0.00000000
 Summed:  -0.03570312 -0.03570312
 
      Reference energy:          -3.2590031477
      E2 (Non-variational):      -0.0357031248
      E2 (Variational):          -0.0357031298
      Total energy:              -3.2947062774
      Residual norm:              0.0000002702
      Reference weight:           0.98484
 
      Contributions to the CASPT2 correlation energy
      Active & Virtual Only:         -0.0357031248
      One Inactive Excited:           0.0000000000
      Two Inactive Excited:           0.0000000000
 
 
++ Denominators, etc.
----------------------------------------------------------------------------------------------------
 Report on small energy denominators, large coefficients, and large energy contributions.
CASE  SYMM ACTIVE-MIX  NON-ACTIVE INDICES          DENOMINATOR     RHS VALUE       COEFFICIENT     CONTRIBUTION
--
 
   (Skipping property calculation,
    use PROP keyword to activate)
--
 
  Total CASPT2 energies:
::    CASPT2 Root  1     Total energy:     -3.29470628
 
  A NEW JOBIPH FILE NAMED 'JOBMIX' IS PREPARED.
********************************************************************************
--- Stop Module: caspt2 at Fri Aug  9 15:36:57 2024 /rc=_RC_ALL_IS_WELL_ ---
*** files: xmldump
    saved to directory /home/grierjones/DDCASPT2/hydrogen_comps/minimal_2e_2o/chains/even/H6_chain/H6_1.23

>>> EXPORT i = B

>>> EXPORT j = P

>>> IF (-FILE GMJ_e2_${i}_${j}.csv)
(Skipped)

>>> END FOREACH

>>> EXPORT j = M

>>> IF (-FILE GMJ_e2_${i}_${j}.csv)
(Skipped)

>>> END FOREACH

>>> END FOREACH

>>> EXPORT i = E

>>> EXPORT j = P

>>> IF (-FILE GMJ_e2_${i}_${j}.csv)
(Skipped)

>>> END FOREACH

>>> EXPORT j = M

>>> IF (-FILE GMJ_e2_${i}_${j}.csv)
(Skipped)

>>> END FOREACH

>>> END FOREACH

>>> EXPORT i = F

>>> EXPORT j = P

>>> IF (-FILE GMJ_e2_${i}_${j}.csv)

>>> COPY /tmp/H6_1.23/GMJ_RHS_F_P.csv /home/grierjones/DDCASPT2/hydrogen_comps/minimal_2e_2o/chains/even/H6_chain/H6_1.23/GMJ_RHS_F_P.csv

>>> COPY /tmp/H6_1.23/GMJ_IVECW_F_P.csv /home/grierjones/DDCASPT2/hydrogen_comps/minimal_2e_2o/chains/even/H6_chain/H6_1.23/GMJ_IVECW_F_P.csv

>>> COPY /tmp/H6_1.23/GMJ_e2_F_P.csv /home/grierjones/DDCASPT2/hydrogen_comps/minimal_2e_2o/chains/even/H6_chain/H6_1.23/GMJ_e2_F_P.csv

>>> END FOREACH

>>> EXPORT j = M

>>> IF (-FILE GMJ_e2_${i}_${j}.csv)

>>> COPY /tmp/H6_1.23/GMJ_RHS_F_M.csv /home/grierjones/DDCASPT2/hydrogen_comps/minimal_2e_2o/chains/even/H6_chain/H6_1.23/GMJ_RHS_F_M.csv

>>> COPY /tmp/H6_1.23/GMJ_IVECW_F_M.csv /home/grierjones/DDCASPT2/hydrogen_comps/minimal_2e_2o/chains/even/H6_chain/H6_1.23/GMJ_IVECW_F_M.csv

>>> COPY /tmp/H6_1.23/GMJ_e2_F_M.csv /home/grierjones/DDCASPT2/hydrogen_comps/minimal_2e_2o/chains/even/H6_chain/H6_1.23/GMJ_e2_F_M.csv

>>> END FOREACH

>>> END FOREACH

>>> EXPORT i = G

>>> EXPORT j = P

>>> IF (-FILE GMJ_e2_${i}_${j}.csv)
(Skipped)

>>> END FOREACH

>>> EXPORT j = M

>>> IF (-FILE GMJ_e2_${i}_${j}.csv)
(Skipped)

>>> END FOREACH

>>> END FOREACH

>>> EXPORT i = H

>>> EXPORT j = P

>>> IF (-FILE GMJ_e2_${i}_${j}.csv)
(Skipped)

>>> END FOREACH

>>> EXPORT j = M

>>> IF (-FILE GMJ_e2_${i}_${j}.csv)
(Skipped)

>>> END FOREACH

>>> END FOREACH

>>> EXPORT i = A

>>> IF (-FILE GMJ_e2_$i.csv)
(Skipped)

>>> END FOREACH

>>> EXPORT i = C

>>> IF (-FILE GMJ_e2_$i.csv)

>>> COPY /tmp/H6_1.23/GMJ_RHS_C.csv /home/grierjones/DDCASPT2/hydrogen_comps/minimal_2e_2o/chains/even/H6_chain/H6_1.23/GMJ_RHS_C.csv

>>> COPY /tmp/H6_1.23/GMJ_IVECW_C.csv /home/grierjones/DDCASPT2/hydrogen_comps/minimal_2e_2o/chains/even/H6_chain/H6_1.23/GMJ_IVECW_C.csv

>>> COPY /tmp/H6_1.23/GMJ_e2_C.csv /home/grierjones/DDCASPT2/hydrogen_comps/minimal_2e_2o/chains/even/H6_chain/H6_1.23/GMJ_e2_C.csv

>>> END FOREACH

>>> EXPORT i = D

>>> IF (-FILE GMJ_e2_$i.csv)
(Skipped)

>>> END FOREACH

.########################.
.# Non-zero return code #.
.########################.

    Timing: Wall=2.91 User=1.83 System=1.05
***************************************
*** WorkDir at /tmp/H6_1.23 cleaned ***
***************************************
