[Molden Format]
[N_Atoms]
                     2
[Atoms] (AU)
C1          1      6           0.00000000      0.00000000      0.00000000
LI2         2      3           0.00000000      0.00000000      2.83458919
[Charge] (Mulliken)
 -0.326002732204108     
  0.326002732204095     
[GTO] (AU)
   1
   s  14
  5.055750100E+04  1.128874000E-04
  7.524785600E+03  5.295373000E-04
  1.694327600E+03  2.450038300E-03
  4.728227900E+02  1.005398470E-02
  1.517107500E+02  3.545398060E-02
  5.391874600E+01  1.044071086E-01
  2.065931100E+01  2.412894918E-01
  8.383976000E+00  3.834225483E-01
  3.577015000E+00  3.078514393E-01
  1.547118000E+00  6.872442990E-02
  6.130130000E-01  2.224445000E-04
  2.460680000E-01  1.976748900E-03
  9.908700000E-02  2.057859400E-03
  3.468000000E-02  4.182020000E-04
   s  14
  5.055750100E+04 -2.507420000E-05
  7.524785600E+03 -1.175945000E-04
  1.694327600E+03 -5.456275000E-04
  4.728227900E+02 -2.245077100E-03
  1.517107500E+02 -8.043471800E-03
  5.391874600E+01 -2.442588710E-02
  2.065931100E+01 -6.136791180E-02
  8.383976000E+00 -1.177767835E-01
  3.577015000E+00 -1.550487783E-01
  1.547118000E+00 -1.933316860E-02
  6.130130000E-01  3.996930678E-01
  2.460680000E-01  5.589420949E-01
  9.908700000E-02  1.711195023E-01
  3.468000000E-02  7.456244600E-03
   p   9
  8.333315500E+01  1.344656000E-03
  1.955761100E+01  1.023555500E-02
  6.080365000E+00  4.520067100E-02
  2.179317000E+00  1.410756198E-01
  8.651500000E-01  3.047388085E-01
  3.619440000E-01  3.995281011E-01
  1.547400000E-01  2.719163432E-01
  6.542900000E-02  5.857669330E-02
  2.290000000E-02 -1.263813000E-04
 
   2
   s  14
  9.497934400E+03  9.668999974E-05
  1.416811200E+03  6.087099984E-04
  3.214599400E+02  3.101519992E-03
  9.112416300E+01  1.266904997E-02
  2.999989100E+01  4.248012989E-02
  1.101763100E+01  1.150183297E-01
  4.372801000E+00  2.398650094E-01
  1.831256000E+00  3.584300090E-01
  8.022610000E-01  3.048527792E-01
  3.626480000E-01  8.824261976E-02
  1.139950000E-01 -8.445899977E-04
  5.123700000E-02 -7.943959979E-03
  2.246800000E-02 -3.764419990E-03
  7.860000000E-03 -8.868999976E-05
   s  14
  9.497934400E+03 -1.244999993E-05
  1.416811200E+03 -7.838999954E-05
  3.214599400E+02 -4.007099976E-04
  9.112416300E+01 -1.645249990E-03
  2.999989100E+01 -5.634599967E-03
  1.101763100E+01 -1.590780991E-02
  4.372801000E+00 -3.612581979E-02
  1.831256000E+00 -6.459927962E-02
  8.022610000E-01 -1.008321794E-01
  3.626480000E-01 -9.757613942E-02
  1.139950000E-01  2.301215886E-01
  5.123700000E-02  6.102389764E-01
  2.246800000E-02  2.849406083E-01
  7.860000000E-03  4.026899976E-03
   p   9
  1.311950400E+01  1.524940000E-03
  3.077424200E+00  8.314830000E-03
  1.098800500E+00  1.933203000E-02
  4.357784000E-01  4.934293000E-02
  1.802432000E-01  1.623554000E-01
  7.613330000E-02  3.847505400E-01
  3.254650000E-02  4.336100400E-01
  1.401820000E-02  1.287005900E-01
  4.906400000E-03 -1.018520000E-03
 
[MO]
Sym=     1a  
Ene=   -11.1830
Spin= Alpha
Occup=    1.00000
   1         1.00020821
   2        -0.00029056
   3         0.00000000
   4         0.00000000
   5         0.00037729
   6        -0.00057188
   7        -0.00173390
   8        -0.00000000
   9        -0.00000000
  10         0.00131641
Sym=     1a  
Ene=   -11.1830
Spin= Beta
Occup=    1.00000
   1         1.00020821
   2        -0.00029056
   3         0.00000000
   4         0.00000000
   5         0.00037729
   6        -0.00057188
   7        -0.00173390
   8        -0.00000000
   9        -0.00000000
  10         0.00131641
Sym=     2a  
Ene=    -2.5223
Spin= Alpha
Occup=    1.00000
   1        -0.00272443
   2         0.01485863
   3         0.00000000
   4        -0.00000000
   5         0.00936055
   6         0.99622320
   7         0.00994580
   8        -0.00000000
   9        -0.00000000
  10         0.00116589
Sym=     2a  
Ene=    -2.5223
Spin= Beta
Occup=    1.00000
   1        -0.00272443
   2         0.01485863
   3         0.00000000
   4        -0.00000000
   5         0.00936055
   6         0.99622320
   7         0.00994580
   8        -0.00000000
   9        -0.00000000
  10         0.00116589
Sym=     3a  
Ene=    -0.6708
Spin= Alpha
Occup=    1.00000
   1         0.00747940
   2        -0.93506440
   3        -0.00000000
   4        -0.00000000
   5        -0.09203461
   6         0.14263943
   7        -0.05661509
   8        -0.00000000
   9         0.00000000
  10         0.07783401
Sym=     3a  
Ene=    -0.6708
Spin= Beta
Occup=    1.00000
   1         0.00747940
   2        -0.93506440
   3        -0.00000000
   4        -0.00000000
   5        -0.09203461
   6         0.14263943
   7        -0.05661509
   8        -0.00000000
   9         0.00000000
  10         0.07783401
Sym=     4a  
Ene=    -0.0908
Spin= Alpha
Occup=    1.00000
   1         0.00000000
   2        -0.00000000
   3        -0.67622535
   4         0.61618670
   5         0.00000000
   6         0.00000000
   7        -0.00000000
   8        -0.14910709
   9         0.13586862
  10         0.00000000
Sym=     4a  
Ene=    -0.0908
Spin= Beta
Occup=    0.00000
   1         0.00000000
   2        -0.00000000
   3        -0.67622535
   4         0.61618670
   5         0.00000000
   6         0.00000000
   7        -0.00000000
   8        -0.14910709
   9         0.13586862
  10         0.00000000
Sym=     5a  
Ene=     0.0000
Spin= Alpha
Occup=    1.00000
   1        -0.00000000
   2        -0.00000000
   3         0.55848953
   4         0.61290641
   5         0.00000000
   6         0.00000000
   7         0.00000000
   8         0.23441204
   9         0.25725216
  10         0.00000000
Sym=     5a  
Ene=     0.0000
Spin= Beta
Occup=    1.00000
   1        -0.00000000
   2        -0.00000000
   3         0.55848953
   4         0.61290641
   5         0.00000000
   6         0.00000000
   7         0.00000000
   8         0.23441204
   9         0.25725216
  10         0.00000000
Sym=     6a  
Ene=     0.0127
Spin= Alpha
Occup=    0.00000
   1        -0.00225607
   2        -0.10732561
   3         0.00000000
   4        -0.00000000
   5         0.05843750
   6        -0.00959551
   7         0.82537120
   8        -0.00000000
   9        -0.00000000
  10         0.55407788
Sym=     6a  
Ene=     0.0127
Spin= Beta
Occup=    0.00000
   1        -0.00225607
   2        -0.10732561
   3         0.00000000
   4        -0.00000000
   5         0.05843750
   6        -0.00959551
   7         0.82537120
   8        -0.00000000
   9        -0.00000000
  10         0.55407788
Sym=     7a  
Ene=     0.1401
Spin= Alpha
Occup=    0.00000
   1         0.00000000
   2         0.00000000
   3        -0.39560801
   4         0.36048396
   5        -0.00000000
   6         0.00000000
   7        -0.00000000
   8         0.76912515
   9        -0.70083839
  10         0.00000000
Sym=     7a  
Ene=     0.1401
Spin= Beta
Occup=    0.00000
   1         0.00000000
   2         0.00000000
   3        -0.39560801
   4         0.36048396
   5        -0.00000000
   6         0.00000000
   7        -0.00000000
   8         0.76912515
   9        -0.70083839
  10         0.00000000
Sym=     8a  
Ene=     0.1422
Spin= Alpha
Occup=    0.00000
   1         0.00000000
   2         0.00000000
   3        -0.44466188
   4        -0.48798787
   5         0.00000000
   6        -0.00000000
   7        -0.00000000
   8         0.67430389
   9         0.74000523
  10         0.00000000
Sym=     8a  
Ene=     0.1422
Spin= Beta
Occup=    0.00000
   1         0.00000000
   2         0.00000000
   3        -0.44466188
   4        -0.48798787
   5         0.00000000
   6        -0.00000000
   7        -0.00000000
   8         0.67430389
   9         0.74000523
  10         0.00000000
Sym=     9a  
Ene=     0.1622
Spin= Alpha
Occup=    0.00000
   1        -0.02209708
   2        -0.22387586
   3        -0.00000000
   4         0.00000000
   5         0.98878558
   6        -0.17691439
   7        -0.02644406
   8         0.00000000
   9        -0.00000000
  10        -0.29196635
Sym=     9a  
Ene=     0.1622
Spin= Beta
Occup=    0.00000
   1        -0.02209708
   2        -0.22387586
   3        -0.00000000
   4         0.00000000
   5         0.98878558
   6        -0.17691439
   7        -0.02644406
   8         0.00000000
   9        -0.00000000
  10        -0.29196635
Sym=    10a  
Ene=     0.2187
Spin= Alpha
Occup=    0.00000
   1         0.13699551
   2         1.00134599
   3         0.00000000
   4         0.00000000
   5         0.29910218
   6        -0.17093357
   7        -0.87481803
   8        -0.00000000
   9        -0.00000000
  10         1.05617126
Sym=    10a  
Ene=     0.2187
Spin= Beta
Occup=    0.00000
   1         0.13699551
   2         1.00134599
   3         0.00000000
   4         0.00000000
   5         0.29910218
   6        -0.17093357
   7        -0.87481803
   8        -0.00000000
   9        -0.00000000
  10         1.05617126
