[Molden Format]
[N_Atoms]
                     2
[Atoms] (AU)
C1          1      6           0.00000000      0.00000000      0.00000000
LI2         2      3           0.00000000      0.00000000      2.83458919
[Charge] (Mulliken)
 -0.293800869163718     
  0.293800869163708     
[GTO] (AU)
   1
   s  14
  5.055750100E+04  1.128874000E-04
  7.524785600E+03  5.295373000E-04
  1.694327600E+03  2.450038300E-03
  4.728227900E+02  1.005398470E-02
  1.517107500E+02  3.545398060E-02
  5.391874600E+01  1.044071086E-01
  2.065931100E+01  2.412894918E-01
  8.383976000E+00  3.834225483E-01
  3.577015000E+00  3.078514393E-01
  1.547118000E+00  6.872442990E-02
  6.130130000E-01  2.224445000E-04
  2.460680000E-01  1.976748900E-03
  9.908700000E-02  2.057859400E-03
  3.468000000E-02  4.182020000E-04
   s  14
  5.055750100E+04 -2.507420000E-05
  7.524785600E+03 -1.175945000E-04
  1.694327600E+03 -5.456275000E-04
  4.728227900E+02 -2.245077100E-03
  1.517107500E+02 -8.043471800E-03
  5.391874600E+01 -2.442588710E-02
  2.065931100E+01 -6.136791180E-02
  8.383976000E+00 -1.177767835E-01
  3.577015000E+00 -1.550487783E-01
  1.547118000E+00 -1.933316860E-02
  6.130130000E-01  3.996930678E-01
  2.460680000E-01  5.589420949E-01
  9.908700000E-02  1.711195023E-01
  3.468000000E-02  7.456244600E-03
   p   9
  8.333315500E+01  1.344656000E-03
  1.955761100E+01  1.023555500E-02
  6.080365000E+00  4.520067100E-02
  2.179317000E+00  1.410756198E-01
  8.651500000E-01  3.047388085E-01
  3.619440000E-01  3.995281011E-01
  1.547400000E-01  2.719163432E-01
  6.542900000E-02  5.857669330E-02
  2.290000000E-02 -1.263813000E-04
 
   2
   s  14
  9.497934400E+03  9.668999974E-05
  1.416811200E+03  6.087099984E-04
  3.214599400E+02  3.101519992E-03
  9.112416300E+01  1.266904997E-02
  2.999989100E+01  4.248012989E-02
  1.101763100E+01  1.150183297E-01
  4.372801000E+00  2.398650094E-01
  1.831256000E+00  3.584300090E-01
  8.022610000E-01  3.048527792E-01
  3.626480000E-01  8.824261976E-02
  1.139950000E-01 -8.445899977E-04
  5.123700000E-02 -7.943959979E-03
  2.246800000E-02 -3.764419990E-03
  7.860000000E-03 -8.868999976E-05
   s  14
  9.497934400E+03 -1.244999993E-05
  1.416811200E+03 -7.838999954E-05
  3.214599400E+02 -4.007099976E-04
  9.112416300E+01 -1.645249990E-03
  2.999989100E+01 -5.634599967E-03
  1.101763100E+01 -1.590780991E-02
  4.372801000E+00 -3.612581979E-02
  1.831256000E+00 -6.459927962E-02
  8.022610000E-01 -1.008321794E-01
  3.626480000E-01 -9.757613942E-02
  1.139950000E-01  2.301215886E-01
  5.123700000E-02  6.102389764E-01
  2.246800000E-02  2.849406083E-01
  7.860000000E-03  4.026899976E-03
   p   9
  1.311950400E+01  1.524940000E-03
  3.077424200E+00  8.314830000E-03
  1.098800500E+00  1.933203000E-02
  4.357784000E-01  4.934293000E-02
  1.802432000E-01  1.623554000E-01
  7.613330000E-02  3.847505400E-01
  3.254650000E-02  4.336100400E-01
  1.401820000E-02  1.287005900E-01
  4.906400000E-03 -1.018520000E-03
 
[MO]
Sym=     1a  
Ene=   -11.2150
Spin= Alpha
Occup=    1.00000
   1         1.00026507
   2         0.00153807
   3        -0.00000000
   4         0.00000000
   5         0.00041560
   6        -0.00075887
   7        -0.00214662
   8         0.00000000
   9        -0.00000000
  10         0.00169869
Sym=     1a  
Ene=   -11.1840
Spin= Beta
Occup=    1.00000
   1         1.00014640
   2        -0.00221188
   3        -0.00000000
   4         0.00000000
   5         0.00030667
   6        -0.00037163
   7        -0.00130296
   8        -0.00000000
   9        -0.00000000
  10         0.00091695
Sym=     2a  
Ene=    -2.5232
Spin= Alpha
Occup=    1.00000
   1        -0.00275820
   2         0.01658683
   3        -0.00000000
   4         0.00000000
   5         0.00987333
   6         0.99589541
   7         0.00962372
   8        -0.00000000
   9        -0.00000000
  10         0.00112310
Sym=     2a  
Ene=    -2.5252
Spin= Beta
Occup=    1.00000
   1        -0.00269475
   2         0.01358426
   3        -0.00000000
   4         0.00000000
   5         0.00925536
   6         0.99640653
   7         0.01014071
   8        -0.00000000
   9        -0.00000000
  10         0.00104161
Sym=     3a  
Ene=    -0.7550
Spin= Alpha
Occup=    1.00000
   1        -0.00490771
   2         0.96637999
   3         0.00000000
   4         0.00000000
   5         0.06944008
   6        -0.14293457
   7         0.02503583
   8        -0.00000000
   9         0.00000000
  10        -0.05137775
Sym=     3a  
Ene=    -0.6070
Spin= Beta
Occup=    1.00000
   1        -0.00957503
   2         0.90508446
   3        -0.00000000
   4        -0.00000000
   5         0.11833678
   6        -0.14373246
   7         0.08539021
   8         0.00000000
   9         0.00000000
  10        -0.10089817
Sym=     4a  
Ene=    -0.3778
Spin= Alpha
Occup=    1.00000
   1        -0.00000000
   2         0.00000000
   3         0.52106836
   4         0.77402835
   5        -0.00000000
   6         0.00000000
   7         0.00000000
   8         0.09219168
   9         0.13694743
  10        -0.00000000
Sym=     4a  
Ene=    -0.2226
Spin= Beta
Occup=    1.00000
   1        -0.00000000
   2         0.00000000
   3         0.58407020
   4        -0.39319038
   5        -0.00000000
   6         0.00000000
   7        -0.00000000
   8         0.42647492
   9        -0.28709877
  10        -0.00000000
Sym=     5a  
Ene=    -0.3307
Spin= Alpha
Occup=    1.00000
   1         0.00000000
   2         0.00000000
   3         0.75565142
   4        -0.50869719
   5        -0.00000000
   6         0.00000000
   7        -0.00000000
   8         0.17364302
   9        -0.11689479
  10         0.00000000
Sym=     5a  
Ene=     0.0106
Spin= Beta
Occup=    0.00000
   1        -0.00232662
   2        -0.11982351
   3         0.00000000
   4        -0.00000000
   5         0.04426817
   6        -0.00513203
   7         0.82678378
   8         0.00000000
   9         0.00000000
  10         0.55622551
Sym=     6a  
Ene=     0.0155
Spin= Alpha
Occup=    0.00000
   1        -0.00366540
   2        -0.10595597
   3         0.00000000
   4         0.00000000
   5         0.09520244
   6        -0.01737248
   7         0.82828160
   8         0.00000000
   9         0.00000000
  10         0.53714417
Sym=     6a  
Ene=     0.0434
Spin= Beta
Occup=    0.00000
   1        -0.00000000
   2        -0.00000000
   3         0.14178491
   4         0.21061639
   5         0.00000000
   6        -0.00000000
   7        -0.00000000
   8         0.49518746
   9         0.73558319
  10        -0.00000000
Sym=     7a  
Ene=     0.1106
Spin= Alpha
Occup=    0.00000
   1        -0.00000000
   2        -0.00000000
   3        -0.28077373
   4        -0.41707930
   5         0.00000000
   6        -0.00000000
   7        -0.00000000
   8         0.58467668
   9         0.86851622
  10        -0.00000000
Sym=     7a  
Ene=     0.1657
Spin= Beta
Occup=    0.00000
   1         0.00000000
   2         0.00000000
   3        -0.65721916
   4         0.44243355
   5         0.00000000
   6        -0.00000000
   7        -0.00000000
   8         0.76889152
   9        -0.51761030
  10         0.00000000
Sym=     8a  
Ene=     0.1280
Spin= Alpha
Occup=    0.00000
   1        -0.00000000
   2        -0.00000000
   3        -0.44951747
   4         0.30261079
   5         0.00000000
   6        -0.00000000
   7        -0.00000000
   8         0.86192989
   9        -0.58024282
  10        -0.00000000
Sym=     8a  
Ene=     0.1743
Spin= Beta
Occup=    0.00000
   1        -0.01239196
   2        -0.18261653
   3         0.00000000
   4        -0.00000000
   5         1.00474471
   6        -0.18423998
   7        -0.07981736
   8        -0.00000000
   9        -0.00000000
  10        -0.20760021
Sym=     9a  
Ene=     0.1305
Spin= Alpha
Occup=    0.00000
   1         0.02118596
   2         0.18677598
   3        -0.00000000
   4         0.00000000
   5        -0.98992689
   6         0.18182604
   7         0.06111269
   8         0.00000000
   9        -0.00000000
  10         0.30819804
Sym=     9a  
Ene=     0.2223
Spin= Beta
Occup=    0.00000
   1         0.13852879
   2         1.03529006
   3        -0.00000000
   4        -0.00000000
   5         0.23145445
   6        -0.16112177
   7        -0.86787812
   8         0.00000000
   9         0.00000000
  10         1.07291126
Sym=    10a  
Ene=     0.2080
Spin= Alpha
Occup=    0.00000
   1         0.13680932
   2         0.97909119
   3         0.00000000
   4         0.00000000
   5         0.29187974
   6        -0.16677838
   7        -0.87180358
   8        -0.00000000
   9         0.00000000
  10         1.06190955
Sym=    10a  
Ene=     0.2926
Spin= Beta
Occup=    0.00000
   1        -0.00000000
   2        -0.00000000
   3        -0.57466787
   4        -0.85364850
   5         0.00000000
   6        -0.00000000
   7         0.00000000
   8         0.32424606
   9         0.48165589
  10        -0.00000000
