[Molden Format]
[N_Atoms]
                     2
[Atoms] (AU)
BE1         1      4           0.00000000      0.00000000      0.00000000
LI2         2      3           0.00000000      0.00000000      2.26767135
[Charge] (Mulliken)
 -1.663174356650199E-002
  1.663174356648423E-002
[GTO] (AU)
   1
   s  14
  2.262859900E+04  8.443999941E-05
  3.372318100E+03  4.601499968E-04
  7.603504000E+02  2.285389984E-03
  2.117404800E+02  9.648129932E-03
  6.722346800E+01  3.494469975E-02
  2.337217700E+01  1.061099893E-01
  8.721373000E+00  2.458240383E-01
  3.468091000E+00  3.862428773E-01
  1.452144000E+00  3.105526078E-01
  6.086150000E-01  6.415933955E-02
  2.576860000E-01 -2.265049984E-03
  1.041760000E-01 -5.217499963E-04
  4.242700000E-02 -8.757499938E-04
  1.484900000E-02  1.242199991E-04
   s  14
  2.262859900E+04 -1.586999994E-05
  3.372318100E+03 -8.656999968E-05
  7.603504000E+02 -4.302199984E-04
  2.117404800E+02 -1.825079993E-03
  6.722346800E+01 -6.682749976E-03
  2.337217700E+01 -2.095119992E-02
  8.721373000E+00 -5.200308981E-02
  3.468091000E+00 -9.849176964E-02
  1.452144000E+00 -1.355800695E-01
  6.086150000E-01 -6.429875976E-02
  2.576860000E-01  3.125414989E-01
  1.041760000E-01  6.270468577E-01
  4.242700000E-02  2.110231492E-01
  1.484900000E-02 -4.104669985E-03
   p   9
  3.371018400E+01  1.069960000E-03
  8.057649500E+00  6.828550001E-03
  2.836471400E+00  2.119065000E-02
  1.099965700E+00  5.843696001E-02
  4.433964000E-01  2.020920800E-01
  1.822264000E-01  4.582953101E-01
  7.572410000E-02  3.691239601E-01
  3.168540000E-02  6.611471001E-02
  1.108990000E-02  1.405160000E-03
 
   2
   s  14
  9.497934400E+03  9.668999974E-05
  1.416811200E+03  6.087099984E-04
  3.214599400E+02  3.101519992E-03
  9.112416300E+01  1.266904997E-02
  2.999989100E+01  4.248012989E-02
  1.101763100E+01  1.150183297E-01
  4.372801000E+00  2.398650094E-01
  1.831256000E+00  3.584300090E-01
  8.022610000E-01  3.048527792E-01
  3.626480000E-01  8.824261976E-02
  1.139950000E-01 -8.445899977E-04
  5.123700000E-02 -7.943959979E-03
  2.246800000E-02 -3.764419990E-03
  7.860000000E-03 -8.868999976E-05
   s  14
  9.497934400E+03 -1.244999993E-05
  1.416811200E+03 -7.838999954E-05
  3.214599400E+02 -4.007099976E-04
  9.112416300E+01 -1.645249990E-03
  2.999989100E+01 -5.634599967E-03
  1.101763100E+01 -1.590780991E-02
  4.372801000E+00 -3.612581979E-02
  1.831256000E+00 -6.459927962E-02
  8.022610000E-01 -1.008321794E-01
  3.626480000E-01 -9.757613942E-02
  1.139950000E-01  2.301215886E-01
  5.123700000E-02  6.102389764E-01
  2.246800000E-02  2.849406083E-01
  7.860000000E-03  4.026899976E-03
   p   9
  1.311950400E+01  1.524940000E-03
  3.077424200E+00  8.314830000E-03
  1.098800500E+00  1.933203000E-02
  4.357784000E-01  4.934293000E-02
  1.802432000E-01  1.623554000E-01
  7.613330000E-02  3.847505400E-01
  3.254650000E-02  4.336100400E-01
  1.401820000E-02  1.287005900E-01
  4.906400000E-03 -1.018520000E-03
 
[MO]
Sym=     1a  
Ene=    -4.9176
Spin= Alpha
Occup=    1.00000
   1         0.99957337
   2         0.00237030
   3        -0.00000000
   4         0.00000000
   5         0.00526214
   6         0.00673330
   7        -0.00119030
   8         0.00000000
   9        -0.00000000
  10        -0.00213624
Sym=     1a  
Ene=    -4.9166
Spin= Beta
Occup=    1.00000
   1         0.99946962
   2         0.00151551
   3         0.00000000
   4         0.00000000
   5         0.00583748
   6         0.00681009
   7        -0.00098408
   8        -0.00000000
   9        -0.00000000
  10        -0.00262088
Sym=     2a  
Ene=    -2.6841
Spin= Alpha
Occup=    1.00000
   1        -0.03656960
   2         0.00814909
   3        -0.00000000
   4         0.00000000
   5         0.01484078
   6         0.99317761
   7         0.00273283
   8        -0.00000000
   9         0.00000000
  10        -0.00963769
Sym=     2a  
Ene=    -2.6812
Spin= Beta
Occup=    1.00000
   1        -0.03650572
   2         0.00991396
   3         0.00000000
   4         0.00000000
   5         0.01600345
   6         0.99234908
   7         0.00126650
   8        -0.00000000
   9         0.00000000
  10        -0.00990120
Sym=     3a  
Ene=    -0.3956
Spin= Alpha
Occup=    1.00000
   1        -0.00764238
   2         0.94416124
   3        -0.00000000
   4         0.00000000
   5        -0.10205460
   6        -0.19319754
   7         0.08812971
   8         0.00000000
   9        -0.00000000
  10        -0.00620769
Sym=     3a  
Ene=    -0.3690
Spin= Beta
Occup=    1.00000
   1         0.02767039
   2        -0.89113947
   3        -0.00000000
   4         0.00000000
   5        -0.10546421
   6         0.25510760
   7        -0.07533746
   8         0.00000000
   9        -0.00000000
  10         0.15099575
Sym=     4a  
Ene=    -0.1948
Spin= Alpha
Occup=    1.00000
   1        -0.02071207
   2        -0.31913820
   3         0.00000000
   4        -0.00000000
   5         0.33873535
   6        -0.04798322
   7         0.77314445
   8         0.00000000
   9        -0.00000000
  10         0.42772734
Sym=     4a  
Ene=    -0.0361
Spin= Beta
Occup=    0.00000
   1         0.00000000
   2         0.00000000
   3         0.63386696
   4         0.20754463
   5        -0.00000000
   6         0.00000000
   7        -0.00000000
   8         0.40302644
   9         0.13196140
  10        -0.00000000
Sym=     5a  
Ene=    -0.0471
Spin= Alpha
Occup=    0.00000
   1        -0.00000000
   2         0.00000000
   3         0.58917688
   4         0.09238447
   5        -0.00000000
   6         0.00000000
   7        -0.00000000
   8         0.49324444
   9         0.07734201
  10        -0.00000000
Sym=     5a  
Ene=    -0.0361
Spin= Beta
Occup=    0.00000
   1        -0.00000000
   2        -0.00000000
   3        -0.20754463
   4         0.63386696
   5         0.00000000
   6        -0.00000000
   7         0.00000000
   8        -0.13196140
   9         0.40302644
  10         0.00000000
Sym=     6a  
Ene=    -0.0471
Spin= Alpha
Occup=    0.00000
   1         0.00000000
   2        -0.00000000
   3        -0.09238447
   4         0.58917688
   5         0.00000000
   6        -0.00000000
   7         0.00000000
   8        -0.07734201
   9         0.49324444
  10         0.00000000
Sym=     6a  
Ene=     0.0553
Spin= Beta
Occup=    0.00000
   1        -0.02292726
   2        -0.35936748
   3         0.00000000
   4        -0.00000000
   5         0.31110218
   6        -0.02830226
   7         0.79613830
   8        -0.00000000
   9         0.00000000
  10         0.43356257
Sym=     7a  
Ene=     0.0962
Spin= Alpha
Occup=    0.00000
   1         0.19873992
   2         0.61588229
   3        -0.00000000
   4         0.00000000
   5        -0.99546334
   6         0.21024524
   7        -0.23201171
   8         0.00000000
   9        -0.00000000
  10         1.10669691
Sym=     7a  
Ene=     0.1490
Spin= Beta
Occup=    0.00000
   1         0.12927019
   2         0.44151325
   3         0.00000000
   4        -0.00000000
   5        -1.07889424
   6         0.27924158
   7         0.07474145
   8        -0.00000000
   9         0.00000000
  10         0.89530526
Sym=     8a  
Ene=     0.1443
Spin= Alpha
Occup=    0.00000
   1        -0.00000000
   2        -0.00000000
   3        -0.80347367
   4        -0.88590651
   5         0.00000000
   6        -0.00000000
   7        -0.00000000
   8         0.83281877
   9         0.91826228
  10        -0.00000000
Sym=     8a  
Ene=     0.1725
Spin= Beta
Occup=    0.00000
   1         0.00000000
   2         0.00000000
   3        -0.77707736
   4        -0.85869276
   5        -0.00000000
   6        -0.00000000
   7        -0.00000000
   8         0.85039296
   9         0.93970861
  10         0.00000000
Sym=     9a  
Ene=     0.1443
Spin= Alpha
Occup=    0.00000
   1        -0.00000000
   2        -0.00000000
   3        -0.88590651
   4         0.80347367
   5         0.00000000
   6        -0.00000000
   7         0.00000000
   8         0.91826228
   9        -0.83281877
  10        -0.00000000
Sym=     9a  
Ene=     0.1725
Spin= Beta
Occup=    0.00000
   1         0.00000000
   2         0.00000000
   3        -0.85869276
   4         0.77707736
   5        -0.00000000
   6         0.00000000
   7         0.00000000
   8         0.93970861
   9        -0.85039296
  10         0.00000000
Sym=    10a  
Ene=     0.2373
Spin= Alpha
Occup=    0.00000
   1         0.46439981
   2         2.44171348
   3         0.00000000
   4        -0.00000000
   5         0.61813397
   6        -0.78517793
   7        -2.17861119
   8        -0.00000000
   9         0.00000000
  10         1.26050158
Sym=    10a  
Ene=     0.2354
Spin= Beta
Occup=    0.00000
   1         0.48771111
   2         2.49325657
   3         0.00000000
   4        -0.00000000
   5         0.47563782
   6        -0.74707589
   7        -2.18188071
   8        -0.00000000
   9         0.00000000
  10         1.40864343
