[Molden Format]
[N_Atoms]
                     2
[Atoms] (AU)
B1          1      5           0.00000000      0.00000000      0.00000000
F2          2      9           0.00000000      0.00000000      2.64561657
[Charge] (Mulliken)
   2.09229214897334     
 -9.229214897336391E-002
[GTO] (AU)
   1
   s  14
  3.336021700E+04  1.039699991E-04
  4.972095200E+03  5.254399956E-04
  1.125641700E+03  2.509059979E-03
  3.164913600E+02  1.031887991E-02
  1.020072600E+02  3.636632969E-02
  3.629587300E+01  1.064607991E-01
  1.397141000E+01  2.403999880E-01
  5.741156000E+00  3.748581168E-01
  2.494268000E+00  3.100066974E-01
  1.114202000E+00  7.922455933E-02
  4.215490000E-01 -4.947589958E-03
  1.696330000E-01 -7.737119935E-03
  6.853500000E-02 -1.501079987E-03
  2.398700000E-02 -1.333299989E-04
   s  14
  3.336021700E+04 -2.030000008E-05
  4.972095200E+03 -1.025700004E-04
  1.125641700E+03 -4.911300020E-04
  3.164913600E+02 -2.026570008E-03
  1.020072600E+02 -7.261010030E-03
  3.629587300E+01 -2.197722009E-02
  1.397141000E+01 -5.408428022E-02
  5.741156000E+00 -1.022402604E-01
  2.494268000E+00 -1.423595206E-01
  1.114202000E+00 -4.658690019E-02
  4.215490000E-01  3.799402916E-01
  1.696330000E-01  5.890463624E-01
  6.853500000E-02  1.749075107E-01
  2.398700000E-02 -1.142030005E-03
   p   9
  5.500000000E+01  1.229800005E-03
  1.336610100E+01  8.827380035E-03
  4.135394000E+00  3.843340015E-02
  1.481256000E+00  1.150031805E-01
  6.021360000E-01  2.733674011E-01
  2.556360000E-01  4.061972116E-01
  1.111510000E-01  3.014967912E-01
  4.764800000E-02  7.684809030E-02
  1.667700000E-02 -8.170000032E-06
 
   2
   s  14
  1.031094600E+05  1.713099991E-04
  1.528100700E+04  7.123999962E-04
  3.441539200E+03  2.990479984E-03
  9.670948300E+02  1.164036994E-02
  3.140353400E+02  3.968642979E-02
  1.134423000E+02  1.128546094E-01
  4.464472700E+01  2.473650687E-01
  1.894287400E+01  3.672702681E-01
  8.532743000E+00  2.896286985E-01
  3.919401000E+00  7.786681959E-02
  1.568157000E+00  4.562139976E-03
  6.232900000E-01  2.468879987E-03
  2.408610000E-01  1.106309994E-03
  8.430100000E-02  1.739699991E-04
   s  14
  1.031094600E+05 -4.044999995E-05
  1.528100700E+04 -1.682299998E-04
  3.441539200E+03 -7.084299991E-04
  9.670948300E+02 -2.767999996E-03
  3.140353400E+02 -9.611379987E-03
  1.134423000E+02 -2.833957996E-02
  4.464472700E+01 -6.839343991E-02
  1.894287400E+01 -1.237379298E-01
  8.532743000E+00 -1.512859698E-01
  3.919401000E+00 -9.099909988E-03
  1.568157000E+00  3.716257695E-01
  6.232900000E-01  5.500214393E-01
  2.408610000E-01  2.092318697E-01
  8.430100000E-02  8.074639989E-03
   p   9
  2.453302900E+02  1.024860004E-03
  5.691900500E+01  8.344290032E-03
  1.760456800E+01  4.078927016E-02
  6.274995000E+00  1.351370605E-01
  2.447030000E+00  2.798830811E-01
  9.950600000E-01  3.597966414E-01
  4.039730000E-01  3.055347412E-01
  1.548100000E-01  1.354703905E-01
  5.418400000E-02  2.804449011E-02
 
[MO]
Sym=     1a  
Ene=   -27.2140
Spin= Alpha
Occup=    2.00000
   1        -0.00010186
   2        -0.00053160
   3         0.00000011
   4        -0.00000000
   5        -0.00037028
   6         1.00003071
   7        -0.00320390
   8        -0.00000102
   9         0.00000004
  10        -0.00106535
Sym=     2a  
Ene=    -8.9362
Spin= Alpha
Occup=    2.00000
   1         0.99969994
   2         0.01284078
   3         0.00000044
   4        -0.00000002
   5        -0.00052870
   6        -0.00003535
   7         0.00069082
   8         0.00000939
   9        -0.00000034
  10        -0.00307374
Sym=     3a  
Ene=    -2.3646
Spin= Alpha
Occup=    2.00000
   1        -0.02716631
   2        -0.01539469
   3        -0.00006842
   4         0.00000245
   5         0.03761588
   6         0.00186302
   7         0.98680393
   8        -0.00055009
   9         0.00001969
  10        -0.04809132
Sym=     4a  
Ene=    -1.4155
Spin= Alpha
Occup=    2.00000
   1         0.00000000
   2        -0.00000000
   3         0.00455268
   4         0.12719521
   5        -0.00000000
   6         0.00000000
   7         0.00000000
   8         0.03444019
   9         0.96220776
  10         0.00000000
Sym=     5a  
Ene=    -1.4155
Spin= Alpha
Occup=    2.00000
   1         0.00014674
   2        -0.00163599
   3         0.12726188
   4        -0.00455507
   5        -0.00086081
   6         0.00010519
   7         0.00159027
   8         0.96217761
   9        -0.03443911
  10         0.00257276
Sym=     6a  
Ene=    -1.4547
Spin= Alpha
Occup=    1.93398
   1        -0.04862764
   2         0.48847699
   3         0.00067273
   4        -0.00002408
   5         0.18362076
   6        -0.02637902
   7        -0.26751118
   8         0.00335743
   9        -0.00012017
  10        -0.72239371
Sym=     7a  
Ene=    -0.0031
Spin= Alpha
Occup=    0.06602
   1        -0.04524849
   2        -1.02233570
   3        -0.00283076
   4         0.00010132
   5        -0.18791870
   6         0.04192191
   7         0.35379277
   8         0.00112083
   9        -0.00004012
  10        -0.76132279
Sym=     8a  
Ene=    -0.6936
Spin= Alpha
Occup=    0.00000
   1         0.00005478
   2        -0.00280557
   3         1.01936887
   4        -0.03648615
   5         0.00521731
   6        -0.00020301
   7        -0.00163192
   8        -0.35991754
   9         0.01288248
  10        -0.00034330
Sym=     9a  
Ene=    -0.6936
Spin= Alpha
Occup=    0.00000
   1         0.00000000
   2        -0.00000000
   3        -0.03648706
   4        -1.01939430
   5        -0.00000000
   6         0.00000000
   7        -0.00000000
   8         0.01288044
   9         0.35986051
  10         0.00000000
Sym=    10a  
Ene=    -0.5532
Spin= Alpha
Occup=    0.00000
   1        -0.03350430
   2        -0.03026729
   3         0.00513940
   4        -0.00018395
   5        -1.14054532
   6         0.06420740
   7         0.52732584
   8        -0.00203489
   9         0.00007283
  10        -0.32103030
