[Molden Format]
[N_Atoms]
                     2
[Atoms] (AU)
BE1         1      4           0.00000000      0.00000000      0.00000000
LI2         2      3           0.00000000      0.00000000      1.13383567
[Charge] (Mulliken)
 -0.401393467635391     
  0.401393467635379     
[GTO] (AU)
   1
   s  14
  2.262859900E+04  8.443999941E-05
  3.372318100E+03  4.601499968E-04
  7.603504000E+02  2.285389984E-03
  2.117404800E+02  9.648129932E-03
  6.722346800E+01  3.494469975E-02
  2.337217700E+01  1.061099893E-01
  8.721373000E+00  2.458240383E-01
  3.468091000E+00  3.862428773E-01
  1.452144000E+00  3.105526078E-01
  6.086150000E-01  6.415933955E-02
  2.576860000E-01 -2.265049984E-03
  1.041760000E-01 -5.217499963E-04
  4.242700000E-02 -8.757499938E-04
  1.484900000E-02  1.242199991E-04
   s  14
  2.262859900E+04 -1.586999994E-05
  3.372318100E+03 -8.656999968E-05
  7.603504000E+02 -4.302199984E-04
  2.117404800E+02 -1.825079993E-03
  6.722346800E+01 -6.682749976E-03
  2.337217700E+01 -2.095119992E-02
  8.721373000E+00 -5.200308981E-02
  3.468091000E+00 -9.849176964E-02
  1.452144000E+00 -1.355800695E-01
  6.086150000E-01 -6.429875976E-02
  2.576860000E-01  3.125414989E-01
  1.041760000E-01  6.270468577E-01
  4.242700000E-02  2.110231492E-01
  1.484900000E-02 -4.104669985E-03
   p   9
  3.371018400E+01  1.069960000E-03
  8.057649500E+00  6.828550001E-03
  2.836471400E+00  2.119065000E-02
  1.099965700E+00  5.843696001E-02
  4.433964000E-01  2.020920800E-01
  1.822264000E-01  4.582953101E-01
  7.572410000E-02  3.691239601E-01
  3.168540000E-02  6.611471001E-02
  1.108990000E-02  1.405160000E-03
 
   2
   s  14
  9.497934400E+03  9.668999974E-05
  1.416811200E+03  6.087099984E-04
  3.214599400E+02  3.101519992E-03
  9.112416300E+01  1.266904997E-02
  2.999989100E+01  4.248012989E-02
  1.101763100E+01  1.150183297E-01
  4.372801000E+00  2.398650094E-01
  1.831256000E+00  3.584300090E-01
  8.022610000E-01  3.048527792E-01
  3.626480000E-01  8.824261976E-02
  1.139950000E-01 -8.445899977E-04
  5.123700000E-02 -7.943959979E-03
  2.246800000E-02 -3.764419990E-03
  7.860000000E-03 -8.868999976E-05
   s  14
  9.497934400E+03 -1.244999993E-05
  1.416811200E+03 -7.838999954E-05
  3.214599400E+02 -4.007099976E-04
  9.112416300E+01 -1.645249990E-03
  2.999989100E+01 -5.634599967E-03
  1.101763100E+01 -1.590780991E-02
  4.372801000E+00 -3.612581979E-02
  1.831256000E+00 -6.459927962E-02
  8.022610000E-01 -1.008321794E-01
  3.626480000E-01 -9.757613942E-02
  1.139950000E-01  2.301215886E-01
  5.123700000E-02  6.102389764E-01
  2.246800000E-02  2.849406083E-01
  7.860000000E-03  4.026899976E-03
   p   9
  1.311950400E+01  1.524940000E-03
  3.077424200E+00  8.314830000E-03
  1.098800500E+00  1.933203000E-02
  4.357784000E-01  4.934293000E-02
  1.802432000E-01  1.623554000E-01
  7.613330000E-02  3.847505400E-01
  3.254650000E-02  4.336100400E-01
  1.401820000E-02  1.287005900E-01
  4.906400000E-03 -1.018520000E-03
 
[MO]
Sym=     1a  
Ene=    -5.4415
Spin= Alpha
Occup=    1.00000
   1         0.93275492
   2        -0.07005375
   3         0.00000000
   4         0.00000000
   5        -0.00613327
   6         0.18799225
   7         0.04756695
   8        -0.00000000
   9        -0.00000000
  10        -0.01627746
Sym=     1a  
Ene=    -5.4362
Spin= Beta
Occup=    1.00000
   1         0.93254656
   2        -0.07019911
   3         0.00000000
   4         0.00000000
   5        -0.00588767
   6         0.18839531
   7         0.04757236
   8        -0.00000000
   9        -0.00000000
  10        -0.01651707
Sym=     2a  
Ene=    -3.0834
Spin= Alpha
Occup=    1.00000
   1        -0.44142740
   2        -0.11468811
   3        -0.00000000
   4        -0.00000000
   5         0.00826586
   6         1.05518514
   7         0.07697950
   8         0.00000000
   9         0.00000000
  10        -0.03215707
Sym=     2a  
Ene=    -3.0756
Spin= Beta
Occup=    1.00000
   1        -0.44172161
   2        -0.11403902
   3        -0.00000000
   4        -0.00000000
   5         0.00931745
   6         1.05451469
   7         0.07608574
   8         0.00000000
   9         0.00000000
  10        -0.03290761
Sym=     3a  
Ene=    -0.4436
Spin= Alpha
Occup=    1.00000
   1         0.10300589
   2         1.13882157
   3        -0.00000000
   4        -0.00000000
   5        -0.23005987
   6        -0.22131203
   7        -0.08383135
   8         0.00000000
   9         0.00000000
  10         0.18219367
Sym=     3a  
Ene=    -0.4007
Spin= Beta
Occup=    1.00000
   1         0.09158394
   2         1.11201364
   3         0.00000000
   4         0.00000000
   5        -0.15455985
   6        -0.23908925
   7        -0.08035847
   8        -0.00000000
   9        -0.00000000
  10         0.06780575
Sym=     4a  
Ene=    -0.2094
Spin= Alpha
Occup=    1.00000
   1         0.04448671
   2        -0.31432967
   3         0.00000000
   4         0.00000000
   5         0.33521576
   6        -0.05227307
   7         0.65078197
   8         0.00000000
   9         0.00000000
  10         0.55382684
Sym=     4a  
Ene=    -0.0824
Spin= Beta
Occup=    0.00000
   1        -0.00000000
   2         0.00000000
   3         0.73248821
   4         0.50109322
   5        -0.00000000
   6         0.00000000
   7        -0.00000000
   8         0.11311690
   9         0.07738297
  10        -0.00000000
Sym=     5a  
Ene=    -0.0922
Spin= Alpha
Occup=    0.00000
   1        -0.00000000
   2         0.00000000
   3         0.67047017
   4         0.50890553
   5        -0.00000000
   6         0.00000000
   7        -0.00000000
   8         0.15173605
   9         0.11517189
  10        -0.00000000
Sym=     5a  
Ene=    -0.0824
Spin= Beta
Occup=    0.00000
   1         0.00000000
   2        -0.00000000
   3        -0.50109322
   4         0.73248821
   5         0.00000000
   6        -0.00000000
   7         0.00000000
   8        -0.07738297
   9         0.11311690
  10         0.00000000
Sym=     6a  
Ene=    -0.0922
Spin= Alpha
Occup=    0.00000
   1         0.00000000
   2        -0.00000000
   3        -0.50890553
   4         0.67047017
   5         0.00000000
   6        -0.00000000
   7         0.00000000
   8        -0.11517189
   9         0.15173605
  10         0.00000000
Sym=     6a  
Ene=     0.0430
Spin= Beta
Occup=    0.00000
   1         0.06503370
   2        -0.19457299
   3         0.00000000
   4         0.00000000
   5         0.21692515
   6        -0.04440298
   7         0.58658228
   8        -0.00000000
   9        -0.00000000
  10         0.67819104
Sym=     7a  
Ene=     0.1237
Spin= Alpha
Occup=    0.00000
   1         0.00000000
   2         0.00000000
   3        -1.14775738
   4        -0.83711637
   5        -0.00000000
   6        -0.00000000
   7        -0.00000000
   8         1.32519861
   9         0.96653305
  10         0.00000000
Sym=     7a  
Ene=     0.1447
Spin= Beta
Occup=    0.00000
   1        -0.00000000
   2        -0.00000000
   3        -1.10513507
   4        -0.84715345
   5         0.00000000
   6         0.00000000
   7         0.00000000
   8         1.30598739
   9         1.00111901
  10        -0.00000000
Sym=     8a  
Ene=     0.1237
Spin= Alpha
Occup=    0.00000
   1        -0.00000000
   2        -0.00000000
   3         0.83711637
   4        -1.14775738
   5         0.00000000
   6         0.00000000
   7         0.00000000
   8        -0.96653305
   9         1.32519861
  10        -0.00000000
Sym=     8a  
Ene=     0.1447
Spin= Beta
Occup=    0.00000
   1         0.00000000
   2         0.00000000
   3         0.84715345
   4        -1.10513507
   5        -0.00000000
   6        -0.00000000
   7        -0.00000000
   8        -1.00111901
   9         1.30598739
  10         0.00000000
Sym=     9a  
Ene=     0.1545
Spin= Alpha
Occup=    0.00000
   1         0.46059577
   2         2.03302518
   3         0.00000000
   4         0.00000000
   5        -0.75602197
   6        -0.38227772
   7        -1.94160420
   8        -0.00000000
   9        -0.00000000
  10         1.50905350
Sym=     9a  
Ene=     0.1685
Spin= Beta
Occup=    0.00000
   1        -0.47418423
   2        -2.15298275
   3         0.00000000
   4         0.00000000
   5         0.69670752
   6         0.43883498
   7         2.04651274
   8        -0.00000000
   9        -0.00000000
  10        -1.43706215
Sym=    10a  
Ene=     0.3799
Spin= Alpha
Occup=    0.00000
   1        -0.23709536
   2        -1.14933320
   3         0.00000000
   4         0.00000000
   5        -1.39889035
   6         0.88648032
   7         1.21611728
   8        -0.00000000
   9        -0.00000000
  10         0.68500491
Sym=    10a  
Ene=     0.4150
Spin= Beta
Occup=    0.00000
   1        -0.20883746
   2        -0.96965783
   3        -0.00000000
   4        -0.00000000
   5        -1.46198441
   6         0.85629807
   7         1.06803494
   8         0.00000000
   9         0.00000000
  10         0.74608837
