   This run of MOLCAS is using the pymolcas driver

                             OPE
                             OPE          NMOL  CASOP  ENMOLC A   SO
                 OPE        NMOLC        AS  OP EN  MO LC     AS  OP
                OPENM       OL CA        SO  PE NM  OL CA     SOP EN
                OP EN      MO   LC       AS  OP ENMOL  CASO   PENMOL
                OP  EN     MO   LC       AS  OP EN     MO     LC ASO
               OP   E  NMOL  C  AS       OP  EN MO     LC     AS  OP
               OP  E   NMO   LC AS        OPEN  MO     LCASOP EN   M
               O  PEN   MO  LCA  SO
            OPE   NMO   L   CAS    OP
        OPENMOL  CASOP     ENMOL   CASOPE
     OPENMOLCA   SOPENMOLCASOPEN   MOLCASOPE
    OPENMOLCAS   OP           EN   MOL    CAS
    OPENMOLCAS       OP  ENM        O     LCA
    OPENMOLCAS    OPEN  MOLCASO     P  E  NMO
    OPENMOLCAS     OP               E  N  MOL
    OPENMOLCA   SO           PENM   O  L  CAS    OPEN    MO    LCAS
    OPENMOLCA   SOP           ENM   O  L  CAS   OP  EN  MOLC  AS   O
    OPENMOLCA   SOPE           NM      O  LCA   S      OP  EN MO
    OPENMOLC                AS         O  PEN   M      OL  CA  SOPE
    OPENMO        LCASOPE  NMOL        C  ASO   P      ENMOLC     AS
    OPE     NMO      LCA  SO     P     E   NM   OL  CA SO  PE N   MO
          OPENMOLCA            SOPE   NMO        LCAS  O    P  ENMO
     OPENMOLCASOPENMOLCASOPENMOLCASOPENMOLCA
        OPENMOLCASOPENMOLCASOPENMOLCASOPE
            OPENMOLCASOPENMOLCASOPENM
               OPENMOLCASOPENMOLCA        version: ea724fe96-dirty
                   OPENMOLCASO
                       OPE                tag:

 OpenMolcas is free software; you can redistribute it and/or modify it
 under the terms of the GNU Lesser General Public License version 2.1.
 OpenMolcas is distributed in the hope that it will be useful, but it
 is provided "as is" and without any express or implied warranties.
 For more details see the full text of the license in the file
 LICENSE or in <http://www.gnu.org/licenses/>.

                 Copyright (C) The OpenMolcas Authors
           For the author list and the recommended citation,
                   consult the file CONTRIBUTORS.md

           *************************************************
           * pymolcas version py2.28                       *
           *   build c4a6d18ded8cb6cad61d2372a9abd97c      *
           *   (after the EMIL interpreter by V. Veryazov) *
           *************************************************

configuration info
------------------
C Compiler ID: Intel
C flags: -std=gnu99
Fortran Compiler ID: Intel
Fortran flags: -fpp -i8 -r8 -heap-arrays
Definitions: _MOLCAS_;_I8_;_LINUX_
Parallel: OFF (GA=OFF)


   ----------------------------------------------------------------------------------
  |
  |              Project: H10_0.96
  |       Submitted from: /home/grierjones/DDCASPT2/hydrogen_comps/H10_chain/H10_0.96
  |         Scratch area: /tmp/H10_0.96
  |      Save outputs to: /home/grierjones/DDCASPT2/hydrogen_comps/H10_chain/H10_0.96
  |               Molcas: /home/grierjones/Test/build
  |
  | Scratch area is empty
  |
  |       MOLCAS_DRIVER = /usr/local/pymolcas
  | MOLCAS_KEEP_WORKDIR = NO
  |  MOLCAS_NEW_WORKDIR = YES
  |       MOLCAS_NPROCS = 1
  |        MOLCAS_PRINT = NORMAL
  |       MOLCAS_SOURCE = /home/grierjones/Test/build
  |    MOLCAS_STRUCTURE = 0
  |
   ----------------------------------------------------------------------------------

++ ---------   Input file   ---------

&GATEWAY
coord=H10_0.96.xyz
Basis = ANO-RCC-VDZP
Group = nosymm
Expert
End of Input

&SEWARD
End of Input

&SCF

>>> COPY $WorkDir/H10_0.96.scf.h5 $CurrDir/

&RASSCF
Title= RASSCF
FileOrb
/home/grierjones/DDCASPT2/hydrogen_comps/H10_chain/H10_0.94/H10_0.94.RasOrb
NACTEL
10 0 0
Inactive
0
RAS2
10
Symmetry
1
Spin
1
orblisting
all
ITERation
200 100
CIMX
200
SDAV
500

>>> COPY $WorkDir/H10_0.96.rasscf.h5 $CurrDir/

>>> COPY $WorkDir/GMJ_Fock_MO.csv $CurrDir/H10_0.96.GMJ_Fock_MO.csv

>>> COPY $WorkDir/GMJ_PT2_Fock_MO.csv $CurrDir/H10_0.96.GMJ_PT2_Fock_MO.csv

&MOTRA
Frozen=0
LUMORB

>>> COPY $WorkDir/GMJ_one_int_indx.csv $CurrDir/H10_0.96.GMJ_one_int_indx.csv

>>> COPY $WorkDir/GMJ_one_int.csv $CurrDir/H10_0.96.GMJ_one_int.csv

>>> COPY $WorkDir/GMJ_two_int_indx.csv $CurrDir/H10_0.96.GMJ_two_int_indx.csv

>>> COPY $WorkDir/GMJ_two_int.csv $CurrDir/H10_0.96.GMJ_two_int.csv

&CASPT2
Frozen
0

>>> FOREACH i IN (B,E,F,G,H)

  >>> FOREACH j IN (P,M)

    >>> IF (-FILE GMJ_e2_${i}_${j}.csv)

      >>> COPY $WorkDir/GMJ_RHS_${i}_${j}.csv $CurrDir/GMJ_RHS_${i}_${j}.csv

      >>> COPY $WorkDir/GMJ_IVECW_${i}_${j}.csv $CurrDir/GMJ_IVECW_${i}_${j}.csv

      >>> COPY $WorkDir/GMJ_IVECX_${i}_${j}.csv $CurrDir/GMJ_IVECX_${i}_${j}.csv

      >>> COPY $WorkDir/GMJ_IVECC2_${i}_${j}.csv $CurrDir/GMJ_IVECC2_${i}_${j}.csv

      >>> COPY $WorkDir/GMJ_e2_${i}_${j}.csv $CurrDir/GMJ_e2_${i}_${j}.csv

    >>> END IF

  >>> END FOREACH

>>> END FOREACH

>>> FOREACH i IN (A,C,D)

  >>> IF (-FILE GMJ_e2_$i.csv)

    >>> COPY $WorkDir/GMJ_RHS_$i.csv $CurrDir/GMJ_RHS_$i.csv

    >>> COPY $WorkDir/GMJ_IVECW_$i.csv $CurrDir/GMJ_IVECW_$i.csv

    >>> COPY $WorkDir/GMJ_IVECX_$i.csv $CurrDir/GMJ_IVECX_$i.csv

    >>> COPY $WorkDir/GMJ_IVECC2_$i.csv $CurrDir/GMJ_IVECC2_$i.csv

    >>> COPY $WorkDir/GMJ_e2_$i.csv $CurrDir/GMJ_e2_$i.csv

  >>> END IF

>>> END FOREACH

-- ----------------------------------

--- Start Module: gateway at Tue Nov 12 17:02:48 2024 ---
 
()()()()()()()()()()()()()()()()()()()()()()()()()()()()()()()()()()()()()()()()()()()()()()()()()()

                                              &GATEWAY

                                   only a single process is used
                       available to each process: 2.0 GB of memory, 1 thread?
()()()()()()()()()()()()()()()()()()()()()()()()()()()()()()()()()()()()()()()()()()()()()()()()()()
 
 ###############################################################################
 ###############################################################################
 ###                                                                         ###
 ###                                                                         ###
 ###                                                                         ###
 ###    WARNING: EXPERT option is ON!                                        ###
 ###                                                                         ###
 ###                                                                         ###
 ###############################################################################
 ###############################################################################
 
++    Symmetry information:
      ---------------------
 
                    Character Table for C1 
 
                             E  
                    a        1  x, y, xy, Rz, z, xz, Ry, yz, Rx, I
--
 
 
++    Basis set information:
      ----------------------
 
 
      Basis set label: H.ANO-RCC...2S1P.
 
      Electronic valence basis set:
      ------------------
      Associated Effective Charge   1.000000 au
      Associated Actual Charge      1.000000 au
      Nuclear Model: Point charge
 
      Shell  nPrim  nBasis  Cartesian Spherical Contaminant
         s       8       2        X                  
         p       4       1        X                  
--
 
 
++    Molecular structure info:
      -------------------------
 
                    ************************************************ 
                    **** Cartesian Coordinates / Bohr, Angstrom **** 
                    ************************************************ 
 
     Center  Label                x              y              z                     x              y              z
        1      H1               0.000000       0.000000       0.000000              0.000000       0.000000       0.000000
        2      H2               0.000000       0.000000       1.821008              0.000000       0.000000       0.963636
        3      H3               0.000000       0.000000       3.642018              0.000000       0.000000       1.927273
        4      H4               0.000000       0.000000       5.463026              0.000000       0.000000       2.890909
        5      H5               0.000000       0.000000       7.284034              0.000000       0.000000       3.854545
        6      H6               0.000000       0.000000       9.105044              0.000000       0.000000       4.818182
        7      H7               0.000000       0.000000      10.926053              0.000000       0.000000       5.781818
        8      H8               0.000000       0.000000      12.747063              0.000000       0.000000       6.745455
        9      H9               0.000000       0.000000      14.568071              0.000000       0.000000       7.709091
       10      H10              0.000000       0.000000      16.389079              0.000000       0.000000       8.672727
 
                    *************************************** 
                    *    InterNuclear Distances / Bohr    * 
                    *************************************** 
 
               1 H1            2 H2            3 H3            4 H4            5 H5            6 H6    
    1 H1       0.000000
    2 H2       1.821008        0.000000
    3 H3       3.642018        1.821010        0.000000
    4 H4       5.463026        3.642018        1.821008        0.000000
    5 H5       7.284034        5.463026        3.642016        1.821008        0.000000
    6 H6       9.105044        7.284036        5.463026        3.642018        1.821010        0.000000
    7 H7      10.926053        9.105044        7.284034        5.463026        3.642018        1.821008
    8 H8      12.747063       10.926054        9.105044        7.284036        5.463028        3.642018
    9 H9      14.568071       12.747063       10.926053        9.105044        7.284036        5.463026
   10 H10     16.389079       14.568071       12.747061       10.926053        9.105044        7.284034
 
               7 H7            8 H8            9 H9           10 H10   
    7 H7       0.000000
    8 H8       1.821010        0.000000
    9 H9       3.642018        1.821008        0.000000
   10 H10      5.463026        3.642016        1.821008        0.000000
 
                    ******************************************* 
                    *    InterNuclear Distances / Angstrom    * 
                    ******************************************* 
 
               1 H1            2 H2            3 H3            4 H4            5 H5            6 H6    
    1 H1       0.000000
    2 H2       0.963636        0.000000
    3 H3       1.927273        0.963637        0.000000
    4 H4       2.890909        1.927273        0.963636        0.000000
    5 H5       3.854545        2.890909        1.927272        0.963636        0.000000
    6 H6       4.818182        3.854546        2.890909        1.927273        0.963637        0.000000
    7 H7       5.781818        4.818182        3.854545        2.890909        1.927273        0.963636
    8 H8       6.745455        5.781819        4.818182        3.854546        2.890910        1.927273
    9 H9       7.709091        6.745455        5.781818        4.818182        3.854546        2.890909
   10 H10      8.672727        7.709091        6.745454        5.781818        4.818182        3.854545
 
               7 H7            8 H8            9 H9           10 H10   
    7 H7       0.000000
    8 H8       0.963637        0.000000
    9 H9       1.927273        0.963636        0.000000
   10 H10      2.890909        1.927272        0.963636        0.000000
 
                    ************************************** 
                    *    Valence Bond Angles / Degree    * 
                    ************************************** 
                          Atom centers                 Phi
                      1 H1       2 H2       3 H3       180.00
                      2 H2       3 H3       4 H4       180.00
                      3 H3       4 H4       5 H5       180.00
                      4 H4       5 H5       6 H6       180.00
                      5 H5       6 H6       7 H7       180.00
                      6 H6       7 H7       8 H8       180.00
                      7 H7       8 H8       9 H9       180.00
                      8 H8       9 H9      10 H10      180.00
--
 
 
            Nuclear Potential Energy             10.59285520 au
 
 ###############################################################################
 ###############################################################################
 ###                                                                         ###
 ###                                                                         ###
 ###    There were warnings during the execution                             ###
 ###    Please, check the output with care!                                  ###
 ###                                                                         ###
 ###                                                                         ###
 ###############################################################################
 ###############################################################################
--- Stop Module: gateway at Tue Nov 12 17:02:48 2024 /rc=_RC_ALL_IS_WELL_ ---
*** files: xmldump
    saved to directory /home/grierjones/DDCASPT2/hydrogen_comps/H10_chain/H10_0.96

--- Start Module: seward at Tue Nov 12 17:02:48 2024 ---
 
()()()()()()()()()()()()()()()()()()()()()()()()()()()()()()()()()()()()()()()()()()()()()()()()()()

                                              &SEWARD

                                   only a single process is used
                       available to each process: 2.0 GB of memory, 1 thread?
()()()()()()()()()()()()()()()()()()()()()()()()()()()()()()()()()()()()()()()()()()()()()()()()()()
 
 ###############################################################################
 ###############################################################################
 ###                                                                         ###
 ###                                                                         ###
 ###                                                                         ###
 ###    WARNING: EXPERT option is ON!                                        ###
 ###                                                                         ###
 ###                                                                         ###
 ###############################################################################
 ###############################################################################
               SEWARD will generate:
                  Multipole Moment integrals up to order  2
                  Kinetic Energy integrals
                  Nuclear Attraction integrals (point charge)
                  One-Electron Hamiltonian integrals
                  Velocity integrals
                  Relativistic Douglas-Kroll-Hess integrals:
                    - Parametrization         : EXP
                    - DKH order of Hamiltonian: 2
                    - DKH order of Properties : 0
                         - multipole moment operators
                         - electric potential operators
                         - contact operators
                  Atomic mean-field integrals
                  Two-Electron Repulsion integrals
 
                   Integrals are discarded if absolute value <: 0.10E-13
                   Integral cutoff threshold is set to       <: 0.10E-15
 
            Nuclear Potential Energy             10.59285520 au
 
 
      Basis set specifications :
      Symmetry species         a  
      Basis functions           50
 
 
  Input file to MOLDEN was generated!
 
 ###############################################################################
 ###############################################################################
 ###                                                                         ###
 ###                                                                         ###
 ###    There were warnings during the execution                             ###
 ###    Please, check the output with care!                                  ###
 ###                                                                         ###
 ###                                                                         ###
 ###############################################################################
 ###############################################################################
--- Stop Module: seward at Tue Nov 12 17:02:49 2024 /rc=_RC_ALL_IS_WELL_ ---
*** files: H10_0.96.GssOrb H10_0.96.guessorb.h5 H10_0.96.guessorb.molden xmldump
    saved to directory /home/grierjones/DDCASPT2/hydrogen_comps/H10_chain/H10_0.96

*** symbolic link created: INPORB -> H10_0.96.GssOrb
--- Start Module: scf at Tue Nov 12 17:02:49 2024 ---
 
()()()()()()()()()()()()()()()()()()()()()()()()()()()()()()()()()()()()()()()()()()()()()()()()()()

                                                &SCF

                                   only a single process is used
                       available to each process: 2.0 GB of memory, 1 thread?
()()()()()()()()()()()()()()()()()()()()()()()()()()()()()()()()()()()()()()()()()()()()()()()()()()
 
++    Input section:
      --------------
 
      Header of the integral files:
      
       Integrals generated by seward 4.2.0  , Tue Nov 12 17:02:48 2024
 
 
      Cartesian coordinates in Angstrom:
      -----------------------------------------------------
      No.  Label        X            Y            Z        
      -----------------------------------------------------
       1   H1         0.00000000   0.00000000   0.00000000
       2   H2         0.00000000   0.00000000   0.96363600
       3   H3         0.00000000   0.00000000   1.92727300
       4   H4         0.00000000   0.00000000   2.89090900
       5   H5         0.00000000   0.00000000   3.85454500
       6   H6         0.00000000   0.00000000   4.81818200
       7   H7         0.00000000   0.00000000   5.78181800
       8   H8         0.00000000   0.00000000   6.74545500
       9   H9         0.00000000   0.00000000   7.70909100
      10   H10        0.00000000   0.00000000   8.67272700
      -----------------------------------------------------
      Nuclear repulsion energy =   10.59285520
--
 
++    Orbital specifications:
      -----------------------
 
      Symmetry species               1
                                     a
      Frozen orbitals                0
      Occupied orbitals              5
      Secondary orbitals            45
      Deleted orbitals               0
      Total number of orbitals      50
      Number of basis functions     50
--
 
      Molecular charge                           0.000
 
++    Optimization specifications:
      ----------------------------
 
      SCF Algorithm: Conventional
      Minimized density differences are used
      Number of density matrices in core                5
      Maximum number of NDDO SCF iterations           400
      Maximum number of HF SCF iterations             400
      Threshold for SCF energy change            0.10E-08
      Threshold for density matrix               0.10E-03
      Threshold for Fock matrix                  0.15E-03
      Threshold for linear dependence            0.10E-08
      Threshold at which DIIS is turned on       0.15E+00
      Threshold at which QNR/C2DIIS is turned on 0.75E-01
      Threshold for Norm(delta) (QNR/C2DIIS)     0.20E-04
      DIIS extrapolation of the SCF procedure
      All orbitals punched on: SCFORB
--
 
      Input vectors read from INPORB
      Orbital file label: *Guess orbitals
 
 
++ Convergence information
                                   SCF        iterations: Energy and convergence statistics
 
Iter     Tot. SCF        One-elec.       Two-elec.     Energy      Max Dij or  Max Fij      DNorm      TNorm      AccCon     Time
         Energy          Energy          Energy        Change      Delta Norm                                                in Sec.
   1    -5.265799285   -25.848196417     9.989541932   0.00E+00    0.19E+00*   0.18E+00*    0.42E+01   0.19E+02   None         0.
   2    -5.384536793   -26.254426158    10.277034163  -0.12E+00*   0.67E-01*   0.19E-01*    0.19E+01   0.19E+02   EDIIS        0.
   3    -5.389491672   -26.231119839    10.248772966  -0.50E-02*   0.16E-01*   0.46E-02*    0.41E+00   0.19E+02   EDIIS        0.
   4    -5.389985832   -26.238799710    10.255958676  -0.49E-03*   0.72E-02*   0.31E-02*    0.11E+00   0.19E+02   c2DIIS       0.
   5    -5.390088603   -26.238565997    10.255622193  -0.10E-03*   0.16E-02*   0.51E-03*    0.22E-01   0.19E+02   QNRc2DIIS    0.
   6    -5.390093044   -26.238975573    10.256027328  -0.44E-05*   0.13E-02*   0.22E-03*    0.21E-02   0.19E+02   QNRc2DIIS    0.
   7    -5.390094171   -26.238846581    10.255897209  -0.11E-05*   0.37E-04*   0.17E-04     0.43E-03   0.19E+02   QNRc2DIIS    0.
   8    -5.390094174   -26.238851915    10.255902540  -0.31E-08*   0.99E-05    0.41E-05     0.61E-04   0.19E+02   QNRc2DIIS    0.
   9    -5.390094174   -26.238855327    10.255905952  -0.15E-09    0.27E-06    0.11E-06     0.93E-05   0.19E+02   QNRc2DIIS    0.
 
       Convergence after  9 Macro Iterations
--
 
 *****************************************************************************************************************************
 *                                                                                                                           *
 *                                             SCF/KS-DFT Program, Final results                                             *
 *                                                                                                                           *
 *                                                                                                                           *
 *                                                                                                                           *
 *                                                       Final Results                                                       *
 *                                                                                                                           *
 *****************************************************************************************************************************
 
::    Total SCF energy                                 -5.3900941743
      One-electron energy                             -26.2388553269
      Two-electron energy                              10.2559059517
      Nuclear repulsion energy                         10.5928552010
      Kinetic energy (interpolated)                     5.2175355859
      Virial theorem                                    1.0330728148
      Total spin, S(S+1)                                0.0000000000
      Total spin, S                                     0.0000000000
      Max non-diagonal density matrix element           0.0000002439
      Max non-diagonal Fock matrix element              0.0000000073
 
 
      All orbitals with orbital energies smaller than  E(LUMO)+0.5 are printed
 
++    Molecular orbitals:
      -------------------
 
      Title: SCF orbitals

      Molecular orbitals for symmetry species 1: a  
 
          Orbital            1         2         3         4         5         6         7         8         9        10    
          Energy           -0.7476   -0.6932   -0.6046   -0.4828   -0.3354    0.0304    0.1566    0.2073    0.2307    0.3581
          Occ. No.          2.0000    2.0000    2.0000    2.0000    2.0000    0.0000    0.0000    0.0000    0.0000    0.0000
 
        1 H1     1s         0.0924   -0.1866    0.2653   -0.3311    0.3653   -0.7125    0.8307   -0.7015   -0.3084   -1.2553
        2 H1     2s         0.0095   -0.0118    0.0020   -0.0046    0.0510   -0.3915    0.7183   -0.4117   -0.5899   -0.9481
        3 H1     2px       -0.0000    0.0000   -0.0000    0.0000   -0.0000    0.0000   -0.0000   -0.0000    0.0000    0.0000
        4 H1     2py       -0.0000   -0.0000   -0.0000    0.0000   -0.0000    0.0000   -0.0000    0.0000    0.0000    0.0000
        5 H1     2pz        0.0091   -0.0175    0.0194   -0.0142    0.0067   -0.0037    0.0072   -0.0230   -0.0126   -0.0452
        6 H2     1s         0.1154   -0.2254    0.3068   -0.3389    0.2318    0.4324   -1.0702    0.6307    0.8003    1.7225
        7 H2     2s        -0.0310    0.0474   -0.0252   -0.0492    0.0845    0.2030   -0.5180    0.5006    0.2987    1.3364
        8 H2     2px       -0.0000   -0.0000   -0.0000    0.0000   -0.0000    0.0000   -0.0000   -0.0000    0.0000    0.0000
        9 H2     2py        0.0000   -0.0000    0.0000    0.0000   -0.0000    0.0000   -0.0000    0.0000    0.0000    0.0000
       10 H2     2pz        0.0056   -0.0076   -0.0050    0.0248   -0.0317    0.0144    0.0244   -0.0402   -0.0593   -0.0950
       11 H3     1s         0.2261   -0.2845    0.1226    0.2044   -0.4733    0.5318    0.1333   -0.0984   -0.7417   -1.1415
       12 H3     2s        -0.0109    0.0349   -0.0402    0.0538   -0.1166    0.1816    0.2190    0.1001   -0.6280   -0.4315
       13 H3     2px        0.0000   -0.0000   -0.0000    0.0000   -0.0000    0.0000   -0.0000   -0.0000    0.0000    0.0000
       14 H3     2py        0.0000   -0.0000    0.0000    0.0000   -0.0000    0.0000   -0.0000    0.0000    0.0000    0.0000
       15 H3     2pz        0.0065   -0.0011   -0.0203    0.0301   -0.0160   -0.0215    0.0276   -0.0482   -0.0346   -0.0116
       16 H4     1s         0.2444   -0.2532   -0.0189    0.3292   -0.3361   -0.3679    0.4368   -0.4560    0.3016    0.2616
       17 H4     2s        -0.0356    0.0095    0.0385    0.0041   -0.0903   -0.1237    0.2625    0.0235    0.0712    0.4490
       18 H4     2px        0.0000    0.0000   -0.0000   -0.0000    0.0000   -0.0000   -0.0000   -0.0000    0.0000    0.0000
       19 H4     2py        0.0000   -0.0000   -0.0000    0.0000   -0.0000    0.0000   -0.0000   -0.0000    0.0000    0.0000
       20 H4     2pz        0.0014    0.0112   -0.0248    0.0016    0.0286   -0.0313    0.0052   -0.0244   -0.0328    0.0724
       21 H5     1s         0.2867   -0.0416   -0.3026    0.1234    0.4291   -0.5776   -0.3533    0.1633    0.3586    0.7298
       22 H5     2s        -0.0283    0.0353    0.0078   -0.0194    0.1071   -0.2444   -0.0858    0.3404    0.1114    0.4708
       23 H5     2px       -0.0000   -0.0000    0.0000   -0.0000    0.0000    0.0000   -0.0000    0.0000    0.0000    0.0000
       24 H5     2py       -0.0000    0.0000    0.0000    0.0000   -0.0000    0.0000   -0.0000   -0.0000   -0.0000    0.0000
       25 H5     2pz        0.0029    0.0152   -0.0125   -0.0237    0.0240    0.0229   -0.0183    0.0057   -0.0631    0.0788
       26 H6     1s         0.2867    0.0416   -0.3026   -0.1234    0.4291    0.5776   -0.3533    0.1633   -0.3586   -0.7298
       27 H6     2s        -0.0283   -0.0353    0.0078    0.0194    0.1071    0.2444   -0.0858    0.3404   -0.1114   -0.4708
       28 H6     2px       -0.0000   -0.0000    0.0000    0.0000    0.0000   -0.0000   -0.0000    0.0000   -0.0000    0.0000
       29 H6     2py        0.0000    0.0000   -0.0000    0.0000   -0.0000    0.0000    0.0000   -0.0000   -0.0000    0.0000
       30 H6     2pz       -0.0029    0.0152    0.0125   -0.0237   -0.0240    0.0229    0.0183   -0.0057   -0.0631    0.0788
       31 H7     1s         0.2444    0.2532   -0.0189   -0.3292   -0.3361    0.3679    0.4368   -0.4560   -0.3016   -0.2617
       32 H7     2s        -0.0356   -0.0095    0.0385   -0.0041   -0.0903    0.1237    0.2625    0.0235   -0.0712   -0.4490
       33 H7     2px       -0.0000    0.0000   -0.0000    0.0000    0.0000    0.0000    0.0000   -0.0000    0.0000    0.0000
       34 H7     2py       -0.0000   -0.0000    0.0000    0.0000    0.0000   -0.0000    0.0000    0.0000   -0.0000    0.0000
       35 H7     2pz       -0.0014    0.0112    0.0248    0.0016   -0.0286   -0.0313   -0.0052    0.0244   -0.0328    0.0724
       36 H8     1s         0.2261    0.2845    0.1226   -0.2044   -0.4733   -0.5318    0.1333   -0.0984    0.7417    1.1415
       37 H8     2s        -0.0109   -0.0349   -0.0402   -0.0538   -0.1166   -0.1816    0.2190    0.1001    0.6280    0.4315
       38 H8     2px        0.0000   -0.0000   -0.0000    0.0000   -0.0000   -0.0000   -0.0000   -0.0000    0.0000    0.0000
       39 H8     2py        0.0000    0.0000   -0.0000    0.0000   -0.0000   -0.0000    0.0000   -0.0000   -0.0000    0.0000
       40 H8     2pz       -0.0065   -0.0011    0.0203    0.0301    0.0160   -0.0215   -0.0276    0.0482   -0.0346   -0.0116
       41 H9     1s         0.1154    0.2254    0.3068    0.3389    0.2318   -0.4324   -1.0702    0.6307   -0.8003   -1.7225
       42 H9     2s        -0.0310   -0.0474   -0.0252    0.0492    0.0845   -0.2030   -0.5180    0.5006   -0.2987   -1.3364
       43 H9     2px        0.0000   -0.0000    0.0000   -0.0000   -0.0000    0.0000    0.0000    0.0000    0.0000   -0.0000
       44 H9     2py        0.0000    0.0000    0.0000    0.0000    0.0000    0.0000   -0.0000    0.0000   -0.0000   -0.0000
       45 H9     2pz       -0.0056   -0.0076    0.0050    0.0248    0.0317    0.0144   -0.0244    0.0402   -0.0593   -0.0950
       46 H10    1s         0.0924    0.1866    0.2653    0.3311    0.3653    0.7125    0.8307   -0.7015    0.3084    1.2553
       47 H10    2s         0.0095    0.0118    0.0020    0.0046    0.0510    0.3915    0.7183   -0.4117    0.5899    0.9481
       48 H10    2px        0.0000    0.0000   -0.0000   -0.0000    0.0000    0.0000   -0.0000    0.0000   -0.0000   -0.0000
       49 H10    2py       -0.0000    0.0000    0.0000    0.0000   -0.0000   -0.0000   -0.0000    0.0000   -0.0000   -0.0000
       50 H10    2pz       -0.0091   -0.0175   -0.0194   -0.0142   -0.0067   -0.0037   -0.0072    0.0230   -0.0126   -0.0452
 
          Orbital           11        12        13    
          Energy            0.3643    0.5227    0.5227
          Occ. No.          0.0000    0.0000    0.0000
 
        1 H1     1s         0.0675    0.0000    0.0000
        2 H1     2s        -0.4740    0.0000   -0.0000
        3 H1     2px        0.0000    0.0917    0.0063
        4 H1     2py       -0.0000   -0.0063    0.0917
        5 H1     2pz       -0.0506   -0.0000    0.0000
        6 H2     1s         0.1466   -0.0000    0.0000
        7 H2     2s        -0.0273   -0.0000    0.0000
        8 H2     2px        0.0000    0.1542    0.0105
        9 H2     2py       -0.0000   -0.0105    0.1542
       10 H2     2pz       -0.1330    0.0000   -0.0000
       11 H3     1s        -0.8889    0.0000   -0.0000
       12 H3     2s        -0.6004    0.0000   -0.0000
       13 H3     2px        0.0000    0.2134    0.0146
       14 H3     2py        0.0000   -0.0146    0.2134
       15 H3     2pz       -0.0714   -0.0000    0.0000
       16 H4     1s         1.1813   -0.0000    0.0000
       17 H4     2s         0.8311   -0.0000    0.0000
       18 H4     2px        0.0000    0.2554    0.0174
       19 H4     2py        0.0000   -0.0174    0.2554
       20 H4     2pz       -0.0822    0.0000    0.0000
       21 H5     1s        -0.4379   -0.0000   -0.0000
       22 H5     2s         0.0009   -0.0000   -0.0000
       23 H5     2px        0.0000    0.2778    0.0190
       24 H5     2py        0.0000   -0.0190    0.2778
       25 H5     2pz       -0.0489    0.0000   -0.0000
       26 H6     1s        -0.4379    0.0000    0.0000
       27 H6     2s         0.0009    0.0000   -0.0000
       28 H6     2px        0.0000    0.2778    0.0190
       29 H6     2py       -0.0000   -0.0190    0.2778
       30 H6     2pz        0.0489    0.0000   -0.0000
       31 H7     1s         1.1813   -0.0000    0.0000
       32 H7     2s         0.8311   -0.0000    0.0000
       33 H7     2px        0.0000    0.2554    0.0174
       34 H7     2py        0.0000   -0.0174    0.2554
       35 H7     2pz        0.0822   -0.0000   -0.0000
       36 H8     1s        -0.8889    0.0000   -0.0000
       37 H8     2s        -0.6004    0.0000   -0.0000
       38 H8     2px        0.0000    0.2134    0.0146
       39 H8     2py       -0.0000   -0.0146    0.2134
       40 H8     2pz        0.0714   -0.0000   -0.0000
       41 H9     1s         0.1466   -0.0000    0.0000
       42 H9     2s        -0.0273   -0.0000    0.0000
       43 H9     2px        0.0000    0.1542    0.0105
       44 H9     2py        0.0000   -0.0105    0.1542
       45 H9     2pz        0.1330   -0.0000    0.0000
       46 H10    1s         0.0675    0.0000   -0.0000
       47 H10    2s        -0.4740    0.0000   -0.0000
       48 H10    2px        0.0000    0.0917    0.0063
       49 H10    2py        0.0000   -0.0063    0.0917
       50 H10    2pz        0.0506   -0.0000    0.0000
--
 
 
++    Molecular charges:
      ------------------
 
      Mulliken charges per centre and basis function type
      ---------------------------------------------------
 
                H1      H2      H3      H4      H5      H6      H7      H8      H9      H10   
      1s       1.0271  0.9577  1.0215  0.9680  0.9958  0.9958  0.9680  1.0215  0.9577  1.0271
      2s       0.0004 -0.0256 -0.0818 -0.0461 -0.0477 -0.0477 -0.0461 -0.0818 -0.0256  0.0004
      2px      0.0000  0.0000  0.0000 -0.0000  0.0000  0.0000  0.0000  0.0000  0.0000  0.0000
      2pz      0.0219  0.0537  0.0526  0.0516  0.0509  0.0509  0.0516  0.0526  0.0537  0.0219
      2py      0.0000  0.0000  0.0000  0.0000  0.0000  0.0000  0.0000  0.0000  0.0000  0.0000
      Total    1.0494  0.9859  0.9923  0.9735  0.9989  0.9989  0.9735  0.9923  0.9859  1.0494
 
      N-E     -0.0494  0.0141  0.0077  0.0265  0.0011  0.0011  0.0265  0.0077  0.0141 -0.0494
 
      Total electronic charge=   10.000000
 
      Total            charge=   -0.000000
--
 
 
  Input file to MOLDEN was generated!
 
 
++    Static properties:
      ------------------
 
 
      LoProp Charges per center
 

                   H1       H2       H3       H4       H5       H6       H7       H8       H9       H10   
      Nuclear      1.0000   1.0000   1.0000   1.0000   1.0000   1.0000   1.0000   1.0000   1.0000   1.0000
      Electronic  -1.0371  -0.9844  -0.9964  -0.9876  -0.9945  -0.9945  -0.9876  -0.9964  -0.9844  -1.0371
 
      Total       -0.0371   0.0156   0.0036   0.0124   0.0055   0.0055   0.0124   0.0036   0.0156  -0.0371
--
 
 
++    Natural Bond Order analysis
      ---------------------------
      Based on LoProp computed density
      -------------------------------------------------------------------------------------
      Atom A       Atom B       Bond Order | Atom A       Atom B       Bond Order
        H1           H2             0.985  |   H5           H6             0.941
        H3           H4             0.948  |   H7           H8             0.948
        H9           H10            0.985  |
      -------------------------------------------------------------------------------------
      NBO located      9.616 electrons involved in    5 bonds.
      The remaining    0.384 electrons are to be considered as diffuse
--
 
 
++    Molecular properties:
      ---------------------
 
      Charge (e):
                      =   -0.0000
      Dipole Moment (Debye):
      Origin of the operator (Ang)=    0.0000    0.0000    0.0000
                   X=  5.2708E-14               Y= -5.7208E-15               Z= -1.7328E-06           Total=  1.7328E-06
      Quadrupole Moment (Debye*Ang):
      Origin of the operator (Ang)=    0.0000    0.0000    4.3364
                  XX= -1.1013E+01              XY= -2.7632E-28              XZ= -2.5219E-13              YY= -1.1013E+01
                  YZ= -5.6549E-14              ZZ= -1.4548E+01
      In traceless form (Debye*Ang)
                  XX=  1.7676E+00              XY= -4.1448E-28              XZ= -3.7828E-13              YY=  1.7676E+00
                  YZ= -8.4824E-14              ZZ= -3.5353E+00
--
 
 
  Input file to MOLDEN was generated!
 
 ###############################################################################
 ###############################################################################
 ###                                                                         ###
 ###                                                                         ###
 ###    RunFile label nBas                                                   ###
 ###    was used       78 times                                              ###
 ###                                                                         ###
 ###                                                                         ###
 ###############################################################################
 ###############################################################################
--- Stop Module: scf at Tue Nov 12 17:02:49 2024 /rc=_RC_ALL_IS_WELL_ ---
*** files: H10_0.96.LprOrb H10_0.96.LoProp.molden H10_0.96.scf.molden H10_0.96.ScfOrb H10_0.96.scf.h5 xmldump
    saved to directory /home/grierjones/DDCASPT2/hydrogen_comps/H10_chain/H10_0.96

>>> COPY /tmp/H10_0.96/H10_0.96.scf.h5 /home/grierjones/DDCASPT2/hydrogen_comps/H10_chain/H10_0.96/

*** symbolic link created: INPORB -> H10_0.96.ScfOrb
--- Start Module: rasscf at Tue Nov 12 17:02:49 2024 ---
 
()()()()()()()()()()()()()()()()()()()()()()()()()()()()()()()()()()()()()()()()()()()()()()()()()()

                                              &RASSCF

                                   only a single process is used
                       available to each process: 2.0 GB of memory, 1 thread?
()()()()()()()()()()()()()()()()()()()()()()()()()()()()()()()()()()()()()()()()()()()()()()()()()()
 
 
      Header of the ONEINT file:
      --------------------------
      
      Integrals generated by seward 4.2.0  , Tue Nov 12 17:02:48 2024
 
 
      OrdInt status: non-squared
 
 
      Cartesian coordinates in Angstrom:
      -----------------------------------------------------
      No.  Label        X            Y            Z        
      -----------------------------------------------------
       1   H1         0.00000000   0.00000000   0.00000000
       2   H2         0.00000000   0.00000000   0.96363600
       3   H3         0.00000000   0.00000000   1.92727300
       4   H4         0.00000000   0.00000000   2.89090900
       5   H5         0.00000000   0.00000000   3.85454500
       6   H6         0.00000000   0.00000000   4.81818200
       7   H7         0.00000000   0.00000000   5.78181800
       8   H8         0.00000000   0.00000000   6.74545500
       9   H9         0.00000000   0.00000000   7.70909100
      10   H10        0.00000000   0.00000000   8.67272700
      -----------------------------------------------------
      Nuclear repulsion energy =   10.59285520
 
++    Wave function specifications:
      -----------------------------
 
      Number of closed shell electrons           0
      Number of electrons in active shells      10
      Max number of holes in RAS1 space          0
      Max nr of electrons in RAS3 space          0
      Number of inactive orbitals                0
      Number of active orbitals                 10
      Number of secondary orbitals              40
      Spin quantum number                      0.0
      State symmetry                             1
--
 
++    Orbital specifications:
      -----------------------
 
      Symmetry species                           1
                                                 a
      Frozen orbitals                            0
      Inactive orbitals                          0
      Active orbitals                           10
      RAS1 orbitals                              0
      RAS2 orbitals                             10
      RAS3 orbitals                              0
      Secondary orbitals                        40
      Deleted orbitals                           0
      Number of basis functions                 50
--
 
++    CI expansion specifications:
      ----------------------------
 
      Number of CSFs                         19404
      Number of determinants                 31878
      Number of root(s) required                 1
      Root chosen for geometry opt.              1
      CI root used                               1
         
      highest root included in the CI            1
      max. size of the explicit Hamiltonian    500
--
 
++    Optimization specifications:
      ----------------------------
 
      RASSCF algorithm: Conventional
      Maximum number of macro iterations       200
      Maximum number of SX iterations          100
      Threshold for RASSCF energy            0.100E-07
      Threshold for max MO rotation          0.100E+00
      Threshold for max BLB element          0.100E-03
      Level shift parameter                  0.500E+00
      Make Quasi-Newton update
--
 
      The MO-coefficients are taken from the file:
      /home/grierjones/DDCASPT2/hydrogen_comps/H10_chain/H10_0.94/H10_0.94.RasOrb                                                     
      Title: RASSCF average (pseudo-natural) orbitals                                      
 
      Total molecular charge    0.00
 
      ************************************************************************************************************************
      *                                                                                                                      *
      *                                            Wave function control section                                             *
      *                                                                                                                      *
      ************************************************************************************************************************
 
 
                                         RASSCF iterations: Energy and convergence statistics
                                         ----------------------------------------------------
 
      Iter CI   SX   CI       RASSCF       Energy    max ROT     max BLB   max BLB  Level Ln srch  Step   QN   Walltime
          iter iter root      energy       change     param      element    value   shift minimum  type update hh:mm:ss
 Nr of preliminary CI iterations:   4
        1   1    5    1    -5.50012748    0.00E+00  -0.60E-02    1  11 1 -0.12E-01*  0.05   0.00    SX    NO    0:00:00
        2   1    4    1    -5.50047083   -0.34E-03*  0.16E-02    1  11 1 -0.30E-02*  0.05   0.00    SX    NO    0:00:00
        3   2    4    1    -5.50050022   -0.29E-04*  0.17E-02    1  11 1 -0.78E-03*  0.05   0.00    SX    NO    0:00:00
        4   5    4    1    -5.50050653   -0.63E-05* -0.21E-02    1  11 1 -0.22E-03*  0.05   0.00    SX    NO    0:00:00
        5   4    4    1    -5.50050819   -0.17E-05* -0.31E-02    9  26 1  0.11E-03*  0.05   2.50    LS   YES    0:00:00
        6   4    4    1    -5.50050937   -0.12E-05*  0.17E-02    1  11 1  0.19E-03*  0.05   1.25    QN   YES    0:00:00
        7   4    4    1    -5.50050980   -0.43E-06*  0.10E-02    1  11 1  0.11E-03*  0.05   1.64    LS   YES    0:00:00
        8   4    4    1    -5.50050988   -0.78E-07*  0.21E-03    1  11 1  0.66E-04   0.05   1.01    QN   YES    0:00:00
        9   3    3    1    -5.50050992   -0.46E-07* -0.17E-03    4  23 1 -0.13E-04   0.05   1.39    QN   YES    0:00:00
       10   2    3    1    -5.50050993   -0.77E-08  -0.61E-04    1  11 1 -0.86E-05   0.05   1.18    QN   YES    0:00:00
      Convergence after 10 iterations
 
  Dmat in MO in SXCTL bf call to SXHAM                                                                                    
  mat. size =    10x   10
 
        1.9894466121607157
        0.0000000012956498      1.9771419078900496
       -0.0007714112948669      0.0000000008791326      1.9670014780253657
        0.0000000091374044      0.0001160261268495     -0.0000000243672518      1.9417225781558161
        0.0010477782494379     -0.0000000059673624     -0.0008210769715658     -0.0000001797495107      1.8946053308615292
       -0.0000892445338012     -0.0000000014084580     -0.0002712610026257      0.0000002467971943     -0.0003592152684086
        0.0180302149034652
       -0.0000001087009039      0.0005013451077634      0.0000000180942945      0.0000087369018314      0.0000004222085018
        0.0000000058681677      0.0288552869133518
        0.0004669062661875     -0.0000003190106233     -0.0013271460095026     -0.0000000657892821      0.0035110637593922
        0.0001353740063502     -0.0000000272872553      0.0578963482868176
       -0.0000000135544630     -0.0014748783812010     -0.0000005679238025      0.0029050949059576      0.0000001497164386
       -0.0000000068758762      0.0000002803825081     -0.0000001999696411      0.1208522034966230
       -0.0000000000000006     -0.0000000000000041      0.0000000000000006      0.0000000000000139     -0.0000000000000006
       -0.0000000000000000      0.0000000000000175     -0.0000000000000000     -0.0000000000000351      0.0044480393062635
       11   1    3    1    -5.50050993   -0.76E-09  -0.61E-04    1  11 1 -0.38E-05   0.05   1.18    QN   YES    0:00:00
 
      ************************************************************************************************************************
                                                      Wave function printout:
                       occupation of active orbitals, and spin coupling of open shells (u,d: Spin up or down)
      ************************************************************************************************************************
 
      Note: transformation to natural orbitals
      has been made, which may change the order of the CSFs.
 
      printout of CI-coefficients larger than  0.05 for root  1
      energy=      -5.500510
      conf/sym  1111111111     Coeff  Weight
             1  2222200000   0.94268 0.88864
            32  2222000200  -0.05010 0.00251
            36  2222000020  -0.16511 0.02726
            50  222ud00ud0  -0.11991 0.01438
            64  22u2d0u0d0  -0.07170 0.00514
            78  2u22du00d0  -0.06231 0.00388
           107  2220200200  -0.05565 0.00310
           111  2220200020  -0.06682 0.00446
           257  222uu00dd0  -0.07036 0.00495
 
      Natural orbitals and occupation numbers for root  1
      sym 1:   1.989485   1.977144   1.966984   1.941727   1.894591   0.018030   0.028855   0.057889   0.120846   0.004448

 
      ************************************************************************************************************************
      *                                                                                                                      *
      *                                                    Final results                                                     *
      *                                                                                                                      *
      ************************************************************************************************************************
 
 
++    Wave function specifications:
      -----------------------------
 
      Number of closed shell electrons           0
      Number of electrons in active shells      10
      Max number of holes in RAS1 space          0
      Max nr of electrons in RAS3 space          0
      Number of inactive orbitals                0
      Number of active orbitals                 10
      Number of secondary orbitals              40
      Spin quantum number                      0.0
      State symmetry                             1
--
 
++    Orbital specifications:
      -----------------------
 
      Symmetry species                           1
                                                 a
      Frozen orbitals                            0
      Inactive orbitals                          0
      Active orbitals                           10
      RAS1 orbitals                              0
      RAS2 orbitals                             10
      RAS3 orbitals                              0
      Secondary orbitals                        40
      Deleted orbitals                           0
      Number of basis functions                 50
--
 
++    CI expansion specifications:
      ----------------------------
 
      Number of CSFs                         19404
      Number of determinants                 31878
      Number of root(s) required                 1
      CI root used                               1
      highest root included in the CI            1
      Root passed to geometry opt.               1
--
 
++    Final optimization conditions:
      ------------------------------
 
      Average CI energy                              -5.50050993
      RASSCF energy for state  1                     -5.50050993
      Super-CI energy                                -0.00000000
      RASSCF energy change                            0.00000000
      Max change in MO coefficients               0.752E-04
      Max non-diagonal density matrix element    -0.610E-04
      Maximum BLB matrix element                 -0.378E-05
      (orbital pair   1,  11 in symmetry   1)
      Norm of electronic gradient            0.777E-05
--
 
 
      Final state energy(ies):
      ------------------------
 
::    RASSCF root number  1 Total energy:     -5.50050993
 
++    Molecular orbitals:
      -------------------
 
      Pseudonatural active orbitals and approximate occupation numbers
 
 
 
 
      Molecular orbitals for symmetry species 1: a  
 
 
      Orbital                1         2         3         4         5         6         7         8         9        10
      Energy            0.0000    0.0000    0.0000    0.0000    0.0000    0.0000    0.0000    0.0000    0.0000    0.0000
      Occ. No.          1.9895    1.9771    1.9670    1.9417    1.8946    0.0180    0.0289    0.0579    0.1208    0.0044
 
    1 H1     1s         0.0549    0.1686    0.2588   -0.3423    0.3943    0.5881   -0.6840   -0.5832   -0.4532    0.0000
    2 H1     2s         0.0122    0.0114    0.0007   -0.0016    0.0441    0.0962   -0.0447    0.0265    0.0321    0.0000
    3 H1     2px        0.0000    0.0000   -0.0000    0.0000   -0.0000    0.0000   -0.0000   -0.0000   -0.0000    0.0001
    4 H1     2py        0.0000    0.0000    0.0000   -0.0000    0.0000    0.0000    0.0000   -0.0000   -0.0000    0.0012
    5 H1     2pz        0.0039    0.0147    0.0181   -0.0121    0.0042   -0.0051    0.0091    0.0098    0.0057   -0.0000
    6 H2     1s         0.0593    0.2090    0.3082   -0.3299    0.2223   -1.1301    1.0988    0.5609    0.1215   -0.0000
    7 H2     2s        -0.0151   -0.0518   -0.0468   -0.0239    0.0656   -0.2896    0.2037    0.0192   -0.0649   -0.0000
    8 H2     2px        0.0000    0.0000   -0.0000    0.0000    0.0000   -0.0000   -0.0000    0.0000   -0.0000   -0.0001
    9 H2     2py       -0.0000   -0.0000   -0.0000    0.0000   -0.0000    0.0000    0.0000    0.0000   -0.0000   -0.0018
   10 H2     2pz        0.0042    0.0103    0.0012    0.0209   -0.0315    0.0277   -0.0011    0.0340    0.0430    0.0000
   11 H3     1s         0.1445    0.2960    0.2163    0.1527   -0.4691    1.3597   -0.8849    0.1504    0.5722    0.0000
   12 H3     2s        -0.0140   -0.0332   -0.0293    0.0344   -0.1007    0.3629   -0.2445   -0.0162    0.0734    0.0000
   13 H3     2px        0.0000    0.0000   -0.0000    0.0000    0.0000    0.0000    0.0000    0.0000   -0.0000   -0.0004
   14 H3     2py        0.0000    0.0000   -0.0000   -0.0000    0.0000   -0.0000    0.0000    0.0000   -0.0000   -0.0084
   15 H3     2pz        0.0092    0.0020   -0.0176    0.0296   -0.0165    0.0299   -0.0567   -0.0442   -0.0125   -0.0000
   16 H4     1s         0.2190    0.2617    0.0439    0.3254   -0.3305   -1.1755    0.2154   -0.6910   -0.4499   -0.0000
   17 H4     2s        -0.0497   -0.0172    0.0262    0.0026   -0.0697   -0.3899    0.1149   -0.1322   -0.0840   -0.0000
   18 H4     2px        0.0000    0.0000   -0.0000    0.0000    0.0000    0.0000   -0.0000   -0.0000   -0.0000   -0.0027
   19 H4     2py       -0.0000    0.0000   -0.0000   -0.0000    0.0000    0.0000   -0.0000   -0.0000    0.0000   -0.0534
   20 H4     2pz        0.0111   -0.0082   -0.0242    0.0049    0.0248   -0.0471    0.0618    0.0048   -0.0401    0.0000
   21 H5     1s         0.3834    0.0693   -0.2380    0.1387    0.3687    0.4696    0.4008    0.3877   -0.2482    0.0000
   22 H5     2s        -0.0202   -0.0252    0.0001   -0.0141    0.0971    0.2090    0.0281    0.1137    0.0440    0.0000
   23 H5     2px        0.0000    0.0000    0.0000    0.0000    0.0000    0.0000    0.0000   -0.0000   -0.0000    0.0307
   24 H5     2py        0.0000   -0.0000    0.0000    0.0000    0.0000    0.0000    0.0000   -0.0000   -0.0000    0.5964
   25 H5     2pz        0.0068   -0.0166   -0.0124   -0.0247    0.0230    0.0615   -0.0275    0.0482    0.0340    0.0000
   26 H6     1s         0.3834   -0.0693   -0.2380   -0.1387    0.3687    0.4696   -0.4008    0.3877    0.2482   -0.0000
   27 H6     2s        -0.0202    0.0252    0.0001    0.0141    0.0971    0.2090   -0.0281    0.1137   -0.0440   -0.0000
   28 H6     2px        0.0000    0.0000   -0.0000    0.0000    0.0000    0.0000    0.0000    0.0000   -0.0000    0.0307
   29 H6     2py       -0.0000   -0.0000    0.0000    0.0000   -0.0000   -0.0000    0.0000    0.0000   -0.0000    0.5964
   30 H6     2pz       -0.0068   -0.0166    0.0124   -0.0247   -0.0230   -0.0615   -0.0275   -0.0482    0.0340    0.0000
   31 H7     1s         0.2190   -0.2617    0.0439   -0.3254   -0.3305   -1.1755   -0.2154   -0.6910    0.4499    0.0000
   32 H7     2s        -0.0497    0.0172    0.0262   -0.0026   -0.0697   -0.3899   -0.1149   -0.1322    0.0840    0.0000
   33 H7     2px        0.0000    0.0000   -0.0000    0.0000    0.0000    0.0000   -0.0000    0.0000    0.0000   -0.0027
   34 H7     2py       -0.0000    0.0000    0.0000   -0.0000   -0.0000   -0.0000   -0.0000    0.0000    0.0000   -0.0534
   35 H7     2pz       -0.0111   -0.0082    0.0242    0.0049   -0.0248    0.0471    0.0618   -0.0048   -0.0401    0.0000
   36 H8     1s         0.1445   -0.2960    0.2163   -0.1527   -0.4691    1.3597    0.8849    0.1504   -0.5722   -0.0000
   37 H8     2s        -0.0140    0.0332   -0.0293   -0.0344   -0.1007    0.3629    0.2445   -0.0162   -0.0734   -0.0000
   38 H8     2px        0.0000    0.0000   -0.0000    0.0000    0.0000    0.0000    0.0000   -0.0000    0.0000   -0.0004
   39 H8     2py        0.0000   -0.0000    0.0000   -0.0000    0.0000    0.0000    0.0000   -0.0000    0.0000   -0.0084
   40 H8     2pz       -0.0092    0.0020    0.0176    0.0296    0.0165   -0.0299   -0.0567    0.0442   -0.0125   -0.0000
   41 H9     1s         0.0593   -0.2090    0.3082    0.3299    0.2223   -1.1301   -1.0988    0.5609   -0.1215    0.0000
   42 H9     2s        -0.0151    0.0518   -0.0468    0.0239    0.0656   -0.2896   -0.2037    0.0192    0.0649    0.0000
   43 H9     2px        0.0000    0.0000   -0.0000    0.0000   -0.0000    0.0000    0.0000   -0.0000    0.0000   -0.0001
   44 H9     2py       -0.0000   -0.0000    0.0000    0.0000    0.0000   -0.0000   -0.0000   -0.0000    0.0000   -0.0018
   45 H9     2pz       -0.0042    0.0103   -0.0012    0.0209    0.0315   -0.0277   -0.0011   -0.0340    0.0430    0.0000
   46 H10    1s         0.0549   -0.1686    0.2588    0.3423    0.3943    0.5881    0.6840   -0.5832    0.4532   -0.0000
   47 H10    2s         0.0122   -0.0114    0.0007    0.0016    0.0441    0.0962    0.0447    0.0265   -0.0321   -0.0000
   48 H10    2px        0.0000    0.0000   -0.0000    0.0000    0.0000   -0.0000   -0.0000   -0.0000    0.0000    0.0001
   49 H10    2py       -0.0000    0.0000    0.0000   -0.0000   -0.0000    0.0000   -0.0000    0.0000    0.0000    0.0012
   50 H10    2pz       -0.0039    0.0147   -0.0181   -0.0121   -0.0042    0.0051    0.0091   -0.0098    0.0057   -0.0000
 
 
      Orbital               11        12        13        14        15        16        17        18        19        20
      Energy            0.1925    0.2441    0.3306    0.4617    0.5280    0.5942    0.5942    0.6267    0.6964    0.7030
      Occ. No.          0.0000    0.0000    0.0000    0.0000    0.0000    0.0000    0.0000    0.0000    0.0000    0.0000
 
    1 H1     1s        -0.0993   -0.0339   -0.3501    0.9827   -0.0000   -0.0000    0.0000   -0.0000   -1.3757    0.0000
    2 H1     2s         0.1246   -0.4185   -0.7810    1.2104    0.0000   -0.0000    0.0000    0.0000   -1.4161    0.0000
    3 H1     2px       -0.0000    0.0000    0.0000   -0.0000    0.0930   -0.1902   -0.0098    0.0124   -0.0000    0.2892
    4 H1     2py        0.0000    0.0000    0.0000   -0.0000   -0.0048    0.0098   -0.1902    0.2417    0.0000   -0.0149
    5 H1     2pz       -0.0068   -0.0175   -0.0722    0.1260    0.0000   -0.0000   -0.0000    0.0000   -0.1574   -0.0000
    6 H2     1s        -0.0571    0.2090    0.3141   -0.9371    0.0000    0.0000   -0.0000    0.0000    1.4522   -0.0000
    7 H2     2s         0.1372   -0.1038    0.0913   -0.8615    0.0000    0.0000   -0.0000    0.0000    1.6223   -0.0000
    8 H2     2px       -0.0000    0.0000    0.0000   -0.0000    0.1557   -0.2743   -0.0141    0.0166   -0.0000    0.3138
    9 H2     2py        0.0000    0.0000    0.0000   -0.0000   -0.0080    0.0141   -0.2743    0.3222   -0.0000   -0.0161
   10 H2     2pz       -0.0070   -0.0494   -0.1459    0.2139    0.0000   -0.0000    0.0000    0.0000   -0.1972    0.0000
   11 H3     1s        -0.0682   -0.1477   -0.2022    0.4940   -0.0000   -0.0000   -0.0000   -0.0000    0.1084    0.0000
   12 H3     2s         0.1735   -0.3475   -0.1749    0.0554   -0.0000   -0.0000   -0.0000   -0.0000    0.4364    0.0000
   13 H3     2px       -0.0000    0.0000    0.0000   -0.0000    0.2145   -0.2914   -0.0150    0.0149   -0.0000    0.1548
   14 H3     2py       -0.0000    0.0000    0.0000   -0.0000   -0.0110    0.0150   -0.2914    0.2903   -0.0000   -0.0080
   15 H3     2pz       -0.0178   -0.0330   -0.0923    0.0374    0.0000    0.0000   -0.0000    0.0000    0.1373    0.0000
   16 H4     1s        -0.0674    0.2166    0.1298   -0.8597   -0.0000    0.0000    0.0000    0.0000    0.0586   -0.0000
   17 H4     2s         0.1902   -0.0067    0.2847   -0.9604   -0.0000    0.0000    0.0000    0.0000    0.0955   -0.0000
   18 H4     2px       -0.0000    0.0000    0.0000   -0.0000    0.2553   -0.2188   -0.0113    0.0068    0.0000   -0.1063
   19 H4     2py       -0.0000    0.0000    0.0000   -0.0000   -0.0131    0.0113   -0.2188    0.1316   -0.0000    0.0055
   20 H4     2pz       -0.0088   -0.0625   -0.0943   -0.0257    0.0000    0.0000   -0.0000   -0.0000    0.1663    0.0000
   21 H5     1s        -0.0974   -0.1867    0.0375    0.6414    0.0000   -0.0000    0.0000   -0.0000   -0.4540    0.0000
   22 H5     2s         0.1930   -0.1825    0.2971    0.2834   -0.0000   -0.0000    0.0000   -0.0000   -0.7918    0.0000
   23 H5     2px       -0.0000    0.0000    0.0000   -0.0000    0.2765   -0.0808   -0.0042   -0.0038    0.0000   -0.2992
   24 H5     2py       -0.0000    0.0000    0.0000   -0.0000   -0.0142    0.0042   -0.0808   -0.0730   -0.0000    0.0154
   25 H5     2pz       -0.0058   -0.0649   -0.0214   -0.1306   -0.0000    0.0000   -0.0000   -0.0000    0.1239    0.0000
   26 H6     1s        -0.0974    0.1867    0.0375   -0.6414   -0.0000    0.0000    0.0000    0.0000   -0.4540   -0.0000
   27 H6     2s         0.1930    0.1825    0.2971   -0.2834   -0.0000   -0.0000    0.0000    0.0000   -0.7918   -0.0000
   28 H6     2px       -0.0000    0.0000    0.0000   -0.0000    0.2765    0.0808    0.0042   -0.0038   -0.0000   -0.2992
   29 H6     2py        0.0000    0.0000    0.0000   -0.0000   -0.0142   -0.0042    0.0808   -0.0730    0.0000    0.0154
   30 H6     2pz        0.0058   -0.0649    0.0214   -0.1306   -0.0000    0.0000    0.0000   -0.0000   -0.1239    0.0000
   31 H7     1s        -0.0674   -0.2166    0.1298    0.8597    0.0000   -0.0000   -0.0000   -0.0000    0.0586    0.0000
   32 H7     2s         0.1902    0.0067    0.2847    0.9604    0.0000   -0.0000   -0.0000   -0.0000    0.0955    0.0000
   33 H7     2px       -0.0000    0.0000    0.0000   -0.0000    0.2553    0.2188    0.0113    0.0068   -0.0000   -0.1063
   34 H7     2py        0.0000    0.0000    0.0000   -0.0000   -0.0131   -0.0113    0.2188    0.1316    0.0000    0.0055
   35 H7     2pz        0.0088   -0.0625    0.0943   -0.0257   -0.0000   -0.0000    0.0000   -0.0000   -0.1663   -0.0000
   36 H8     1s        -0.0682    0.1477   -0.2022   -0.4940   -0.0000   -0.0000    0.0000    0.0000    0.1084   -0.0000
   37 H8     2s         0.1735    0.3475   -0.1749   -0.0554   -0.0000   -0.0000    0.0000    0.0000    0.4364    0.0000
   38 H8     2px       -0.0000    0.0000    0.0000   -0.0000    0.2145    0.2914    0.0150    0.0149   -0.0000    0.1548
   39 H8     2py        0.0000    0.0000    0.0000   -0.0000   -0.0110   -0.0150    0.2914    0.2903    0.0000   -0.0080
   40 H8     2pz        0.0178   -0.0330    0.0923    0.0374   -0.0000   -0.0000    0.0000    0.0000   -0.1373   -0.0000
   41 H9     1s        -0.0571   -0.2090    0.3141    0.9371    0.0000    0.0000   -0.0000   -0.0000    1.4522    0.0000
   42 H9     2s         0.1372    0.1038    0.0913    0.8615    0.0000    0.0000   -0.0000   -0.0000    1.6223    0.0000
   43 H9     2px       -0.0000    0.0000    0.0000   -0.0000    0.1557    0.2743    0.0141    0.0166   -0.0000    0.3138
   44 H9     2py        0.0000    0.0000   -0.0000   -0.0000   -0.0080   -0.0141    0.2743    0.3222   -0.0000   -0.0161
   45 H9     2pz        0.0070   -0.0494    0.1459    0.2139    0.0000   -0.0000   -0.0000    0.0000    0.1972    0.0000
   46 H10    1s        -0.0993    0.0339   -0.3501   -0.9827   -0.0000   -0.0000    0.0000    0.0000   -1.3757   -0.0000
   47 H10    2s         0.1246    0.4185   -0.7810   -1.2104   -0.0000   -0.0000    0.0000   -0.0000   -1.4161   -0.0000
   48 H10    2px       -0.0000    0.0000    0.0000   -0.0000    0.0930    0.1902    0.0098    0.0124   -0.0000    0.2892
   49 H10    2py        0.0000    0.0000   -0.0000   -0.0000   -0.0048   -0.0098    0.1902    0.2417   -0.0000   -0.0149
   50 H10    2pz        0.0068   -0.0175    0.0722    0.1260    0.0000   -0.0000   -0.0000    0.0000    0.1574    0.0000
 
 
      Orbital               21        22        23        24        25        26        27        28        29        30
      Energy            0.8551    0.8551    0.8833    0.9761    1.0295    1.0540    1.2586    1.3071    1.3071    1.5609
      Occ. No.          0.0000    0.0000    0.0000    0.0000    0.0000    0.0000    0.0000    0.0000    0.0000    0.0000
 
    1 H1     1s         0.0000   -0.0000   -1.2713   -0.0000    1.0151    0.0000    1.5110   -0.0000   -0.0000    1.0117
    2 H1     2s         0.0000   -0.0000   -0.8614   -0.0000    1.0764    0.0000    1.1453   -0.0000   -0.0000    0.7225
    3 H1     2px       -0.0196   -0.3806   -0.0000    0.0235    0.0000    0.4523   -0.0000   -0.0257   -0.4992    0.0000
    4 H1     2py       -0.3806    0.0196   -0.0000    0.4567    0.0000   -0.0233   -0.0000   -0.4992    0.0257    0.0000
    5 H1     2pz       -0.0000    0.0000    0.0273   -0.0000    0.1968    0.0000   -0.0131   -0.0000   -0.0000   -0.1955
    6 H2     1s        -0.0000    0.0000    2.7207    0.0000   -0.9153   -0.0000   -3.4022    0.0000    0.0000   -3.1623
    7 H2     2s        -0.0000    0.0000    2.3591    0.0000   -1.3737   -0.0000   -3.2695    0.0000    0.0000   -2.9875
    8 H2     2px       -0.0123   -0.2387   -0.0000    0.0069    0.0000    0.0430    0.0000    0.0124    0.2413   -0.0000
    9 H2     2py       -0.2387    0.0123   -0.0000    0.1345    0.0000   -0.0022    0.0000    0.2413   -0.0124   -0.0000
   10 H2     2pz       -0.0000    0.0000   -0.0164   -0.0000    0.0798    0.0000   -0.0565   -0.0000   -0.0000   -0.1195
   11 H3     1s         0.0000   -0.0000   -2.6729    0.0000   -1.8124   -0.0000    2.2726   -0.0000   -0.0000    3.7978
   12 H3     2s         0.0000   -0.0000   -1.8403    0.0000   -1.2567   -0.0000    2.2254   -0.0000   -0.0000    3.7499
   13 H3     2px        0.0074    0.1441    0.0000   -0.0184   -0.0000   -0.4179    0.0000    0.0226    0.4395   -0.0000
   14 H3     2py        0.1441   -0.0074    0.0000   -0.3584   -0.0000    0.0215    0.0000    0.4395   -0.0226   -0.0000
   15 H3     2pz       -0.0000    0.0000    0.2422    0.0000   -0.2013   -0.0000   -0.3507    0.0000    0.0000   -0.1907
   16 H4     1s        -0.0000    0.0000    2.7203   -0.0000    3.4679    0.0000    1.1597   -0.0000   -0.0000   -0.2863
   17 H4     2s        -0.0000    0.0000    1.3833   -0.0000    2.7596    0.0000    1.3570   -0.0000   -0.0000   -0.5654
   18 H4     2px        0.0191    0.3719    0.0000   -0.0173   -0.0000   -0.2081   -0.0000   -0.0163   -0.3168    0.0000
   19 H4     2py        0.3719   -0.0191    0.0000   -0.3359   -0.0000    0.0107   -0.0000   -0.3167    0.0163    0.0000
   20 H4     2pz        0.0000   -0.0000    0.0131    0.0000   -0.1030   -0.0000    0.2756   -0.0000   -0.0000    0.3909
   21 H5     1s         0.0000   -0.0000   -4.2603   -0.0000   -2.4519   -0.0000   -1.3555    0.0000    0.0000   -3.9505
   22 H5     2s         0.0000   -0.0000   -3.0658   -0.0000   -1.1895   -0.0000   -1.5079    0.0000    0.0000   -3.4016
   23 H5     2px        0.0100    0.1938    0.0000    0.0077    0.0000    0.3390   -0.0000   -0.0198   -0.3844   -0.0000
   24 H5     2py        0.1939   -0.0100    0.0000    0.1492    0.0000   -0.0174   -0.0000   -0.3844    0.0198   -0.0000
   25 H5     2pz        0.0000   -0.0000   -0.1144   -0.0000    0.1766    0.0000    0.1702   -0.0000   -0.0000   -0.2200
   26 H6     1s        -0.0000    0.0000    4.2603    0.0000    2.4519    0.0000   -1.3555    0.0000    0.0000    3.9505
   27 H6     2s        -0.0000    0.0000    3.0658    0.0000    1.1895    0.0000   -1.5078    0.0000    0.0000    3.4016
   28 H6     2px       -0.0100   -0.1938    0.0000    0.0077    0.0000    0.3390    0.0000    0.0198    0.3844   -0.0000
   29 H6     2py       -0.1939    0.0100    0.0000    0.1492    0.0000   -0.0174    0.0000    0.3844   -0.0198   -0.0000
   30 H6     2pz        0.0000   -0.0000   -0.1144   -0.0000    0.1766    0.0000   -0.1702    0.0000    0.0000   -0.2200
   31 H7     1s         0.0000   -0.0000   -2.7203    0.0000   -3.4679   -0.0000    1.1597   -0.0000   -0.0000    0.2863
   32 H7     2s         0.0000   -0.0000   -1.3833    0.0000   -2.7596   -0.0000    1.3570   -0.0000   -0.0000    0.5654
   33 H7     2px       -0.0191   -0.3719    0.0000   -0.0173   -0.0000   -0.2081    0.0000    0.0163    0.3168    0.0000
   34 H7     2py       -0.3719    0.0191    0.0000   -0.3359   -0.0000    0.0107    0.0000    0.3167   -0.0163    0.0000
   35 H7     2pz       -0.0000    0.0000    0.0131    0.0000   -0.1030   -0.0000   -0.2756    0.0000    0.0000    0.3909
   36 H8     1s        -0.0000    0.0000    2.6729   -0.0000    1.8124    0.0000    2.2726   -0.0000   -0.0000   -3.7978
   37 H8     2s        -0.0000    0.0000    1.8403   -0.0000    1.2566    0.0000    2.2254   -0.0000   -0.0000   -3.7499
   38 H8     2px       -0.0074   -0.1441    0.0000   -0.0184   -0.0000   -0.4179   -0.0000   -0.0226   -0.4395   -0.0000
   39 H8     2py       -0.1441    0.0074    0.0000   -0.3584   -0.0000    0.0215   -0.0000   -0.4395    0.0226   -0.0000
   40 H8     2pz       -0.0000    0.0000    0.2422    0.0000   -0.2013   -0.0000    0.3507   -0.0000   -0.0000   -0.1907
   41 H9     1s         0.0000   -0.0000   -2.7207   -0.0000    0.9153    0.0000   -3.4022    0.0000    0.0000    3.1623
   42 H9     2s         0.0000   -0.0000   -2.3591   -0.0000    1.3737    0.0000   -3.2695    0.0000    0.0000    2.9875
   43 H9     2px        0.0123    0.2387   -0.0000    0.0069    0.0000    0.0430   -0.0000   -0.0124   -0.2413   -0.0000
   44 H9     2py        0.2387   -0.0123   -0.0000    0.1345    0.0000   -0.0022   -0.0000   -0.2413    0.0124   -0.0000
   45 H9     2pz        0.0000   -0.0000   -0.0164   -0.0000    0.0798    0.0000    0.0565   -0.0000   -0.0000   -0.1195
   46 H10    1s        -0.0000    0.0000    1.2713    0.0000   -1.0151   -0.0000    1.5110   -0.0000   -0.0000   -1.0117
   47 H10    2s        -0.0000    0.0000    0.8614    0.0000   -1.0764   -0.0000    1.1453   -0.0000   -0.0000   -0.7225
   48 H10    2px        0.0196    0.3806   -0.0000    0.0235    0.0000    0.4523    0.0000    0.0257    0.4992    0.0000
   49 H10    2py        0.3806   -0.0196   -0.0000    0.4567    0.0000   -0.0233    0.0000    0.4992   -0.0257    0.0000
   50 H10    2pz        0.0000   -0.0000    0.0273   -0.0000    0.1968    0.0000    0.0131    0.0000    0.0000   -0.1955
 
 
      Orbital               31        32        33        34        35        36        37        38        39        40
      Energy            1.5663    1.6129    1.6194    1.8505    1.9643    1.9743    1.9743    2.2187    2.3500    2.3638
      Occ. No.          0.0000    0.0000    0.0000    0.0000    0.0000    0.0000    0.0000    0.0000    0.0000    0.0000
 
    1 H1     1s        -0.0000    0.0000   -0.6951    1.6246   -0.8688    0.0000   -0.0000   -2.0004   -0.0000   -0.0000
    2 H1     2s        -0.0000    0.0000   -0.7414    1.3354   -0.6988    0.0000   -0.0000   -1.4063   -0.0000   -0.0000
    3 H1     2px        0.0274    0.5112    0.0000    0.0000    0.0000   -0.0244   -0.4743    0.0000    0.0199    0.3767
    4 H1     2py        0.5326   -0.0263    0.0000    0.0000   -0.0000   -0.4743    0.0244    0.0000    0.3868   -0.0194
    5 H1     2pz        0.0000    0.0000   -0.6114    0.8158    0.0877   -0.0000    0.0000   -0.8624   -0.0000    0.0000
    6 H2     1s         0.0000   -0.0000    0.8259   -3.7111    3.3262   -0.0000    0.0000    5.1333    0.0000    0.0000
    7 H2     2s         0.0000   -0.0000    0.7630   -2.9250    3.0466   -0.0000    0.0000    3.6823    0.0000    0.0000
    8 H2     2px       -0.0266   -0.5369   -0.0000   -0.0000   -0.0000    0.0381    0.7410   -0.0000   -0.0390   -0.7418
    9 H2     2py       -0.5175    0.0276   -0.0000   -0.0000    0.0000    0.7410   -0.0381   -0.0000   -0.7571    0.0382
   10 H2     2pz        0.0000   -0.0000    0.1469   -0.3014    0.2793   -0.0000    0.0000    0.2366    0.0000    0.0000
   11 H3     1s        -0.0000    0.0000    0.9176    3.3518   -6.0106    0.0000   -0.0000   -6.3168   -0.0000   -0.0000
   12 H3     2s        -0.0000    0.0000    0.7737    2.5980   -5.4498    0.0000   -0.0000   -4.7827   -0.0000   -0.0000
   13 H3     2px       -0.0090   -0.0992   -0.0000    0.0000    0.0000   -0.0238   -0.4625    0.0000    0.0445    0.8574
   14 H3     2py       -0.1741    0.0051   -0.0000    0.0000   -0.0000   -0.4625    0.0238    0.0000    0.8640   -0.0441
   15 H3     2pz        0.0000   -0.0000   -0.1848    0.1925   -0.2521    0.0000   -0.0000    0.0106   -0.0000   -0.0000
   16 H4     1s        -0.0000    0.0000   -2.0622   -1.3374    5.9361   -0.0000    0.0000    5.2218    0.0000    0.0000
   17 H4     2s         0.0000    0.0000   -1.9294   -0.5889    5.3789   -0.0000    0.0000    3.9321    0.0000    0.0000
   18 H4     2px        0.0318    0.6071    0.0000    0.0000    0.0000   -0.0084   -0.1629   -0.0000   -0.0336   -0.6737
   19 H4     2py        0.6189   -0.0312    0.0000    0.0000   -0.0000   -0.1629    0.0084    0.0000   -0.6528    0.0347
   20 H4     2pz       -0.0000    0.0000    0.2480    0.0269    0.1358   -0.0000    0.0000   -0.4504    0.0000    0.0000
   21 H5     1s         0.0000   -0.0000    1.1067   -0.5772   -2.4818    0.0000   -0.0000   -1.9883   -0.0000   -0.0000
   22 H5     2s         0.0000   -0.0000    1.0254   -1.1820   -2.2432    0.0000   -0.0000   -1.5174   -0.0000   -0.0000
   23 H5     2px       -0.0112   -0.3488   -0.0000   -0.0000   -0.0000    0.0342    0.6654    0.0000    0.0099    0.2542
   24 H5     2py       -0.2169    0.0179    0.0000   -0.0000    0.0000    0.6654   -0.0342   -0.0000    0.1920   -0.0131
   25 H5     2pz        0.0000   -0.0000   -0.4216   -0.0239    0.0038    0.0000    0.0000    0.6589   -0.0000   -0.0000
   26 H6     1s        -0.0000    0.0000    1.1067    0.5772   -2.4818    0.0000   -0.0000   -1.9883    0.0000    0.0000
   27 H6     2s        -0.0000    0.0000    1.0253    1.1820   -2.2432    0.0000   -0.0000   -1.5174    0.0000    0.0000
   28 H6     2px       -0.0112   -0.3488   -0.0000   -0.0000    0.0000   -0.0342   -0.6654   -0.0000    0.0099    0.2542
   29 H6     2py       -0.2169    0.0179   -0.0000   -0.0000   -0.0000   -0.6654    0.0342   -0.0000    0.1920   -0.0131
   30 H6     2pz        0.0000   -0.0000    0.4216   -0.0239   -0.0038   -0.0000    0.0000   -0.6589    0.0000   -0.0000
   31 H7     1s         0.0000   -0.0000   -2.0622    1.3374    5.9361   -0.0000    0.0000    5.2218   -0.0000   -0.0000
   32 H7     2s        -0.0000    0.0000   -1.9294    0.5889    5.3789   -0.0000    0.0000    3.9321   -0.0000   -0.0000
   33 H7     2px        0.0318    0.6071    0.0000    0.0000   -0.0000    0.0084    0.1629   -0.0000   -0.0336   -0.6737
   34 H7     2py        0.6189   -0.0312    0.0000    0.0000    0.0000    0.1629   -0.0084   -0.0000   -0.6528    0.0347
   35 H7     2pz       -0.0000    0.0000   -0.2480    0.0269   -0.1358    0.0000   -0.0000    0.4504    0.0000    0.0000
   36 H8     1s         0.0000   -0.0000    0.9176   -3.3518   -6.0106    0.0000   -0.0000   -6.3168    0.0000    0.0000
   37 H8     2s         0.0000   -0.0000    0.7737   -2.5980   -5.4498    0.0000   -0.0000   -4.7827    0.0000    0.0000
   38 H8     2px       -0.0090   -0.0992   -0.0000    0.0000   -0.0000    0.0238    0.4625    0.0000    0.0445    0.8574
   39 H8     2py       -0.1741    0.0051   -0.0000    0.0000    0.0000    0.4625   -0.0238    0.0000    0.8640   -0.0441
   40 H8     2pz        0.0000   -0.0000    0.1848    0.1925    0.2521   -0.0000    0.0000   -0.0106   -0.0000   -0.0000
   41 H9     1s        -0.0000    0.0000    0.8259    3.7111    3.3262   -0.0000    0.0000    5.1333   -0.0000   -0.0000
   42 H9     2s        -0.0000    0.0000    0.7630    2.9250    3.0466   -0.0000    0.0000    3.6823   -0.0000   -0.0000
   43 H9     2px       -0.0266   -0.5369   -0.0000   -0.0000    0.0000   -0.0381   -0.7410    0.0000   -0.0390   -0.7418
   44 H9     2py       -0.5175    0.0276   -0.0000   -0.0000   -0.0000   -0.7410    0.0381   -0.0000   -0.7571    0.0382
   45 H9     2pz        0.0000   -0.0000   -0.1469   -0.3014   -0.2793    0.0000   -0.0000   -0.2366    0.0000    0.0000
   46 H10    1s         0.0000   -0.0000   -0.6951   -1.6246   -0.8688    0.0000   -0.0000   -2.0004    0.0000    0.0000
   47 H10    2s         0.0000   -0.0000   -0.7414   -1.3354   -0.6988    0.0000   -0.0000   -1.4063    0.0000    0.0000
   48 H10    2px        0.0274    0.5112    0.0000    0.0000   -0.0000    0.0244    0.4743   -0.0000    0.0199    0.3767
   49 H10    2py        0.5326   -0.0263    0.0000    0.0000    0.0000    0.4743   -0.0244   -0.0000    0.3868   -0.0194
   50 H10    2pz        0.0000   -0.0000    0.6114    0.8158   -0.0877    0.0000   -0.0000    0.8624   -0.0000   -0.0000
 
 
      Orbital               41        42        43        44        45        46        47        48        49        50
      Energy            2.5570    2.6341    2.6966    2.6966    3.0267    3.5101    4.0356    4.6086    5.2791    6.1135
      Occ. No.          0.0000    0.0000    0.0000    0.0000    0.0000    0.0000    0.0000    0.0000    0.0000    0.0000
 
    1 H1     1s        -0.4848    1.9191   -0.0000    0.0000   -1.5123    1.4702   -1.3171    1.0855   -0.8800    0.6036
    2 H1     2s        -0.1049    1.2464   -0.0000   -0.0000   -0.6303    0.4754   -0.2958    0.1259   -0.0366    0.0311
    3 H1     2px        0.0000    0.0000   -0.2124   -0.0109    0.0000   -0.0000    0.0000   -0.0000    0.0000   -0.0000
    4 H1     2py        0.0000    0.0000    0.0109   -0.2124    0.0000   -0.0000    0.0000    0.0000   -0.0000    0.0000
    5 H1     2pz       -0.5234    0.6791   -0.0000    0.0000   -0.7927    0.7410   -0.6553    0.5393   -0.4256    0.2787
    6 H2     1s        -0.2362   -5.3088    0.0000    0.0000    2.1394   -1.2077    0.0970    0.7025   -1.0038    0.7344
    7 H2     2s        -0.8535   -3.8038    0.0000    0.0000    0.9338   -0.4865    0.0515    0.1444   -0.0938   -0.0130
    8 H2     2px       -0.0000   -0.0000    0.4737    0.0244   -0.0000    0.0000    0.0000    0.0000   -0.0000   -0.0000
    9 H2     2py       -0.0000   -0.0000   -0.0244    0.4737   -0.0000    0.0000   -0.0000   -0.0000   -0.0000    0.0000
   10 H2     2pz       -0.3785   -0.1223    0.0000   -0.0000   -0.6641    1.0986   -1.4467    1.5801   -1.4834    1.0157
   11 H3     1s         3.5073    7.8506   -0.0000   -0.0000    0.1576   -1.4270    1.8026   -0.8960   -0.2843    0.7464
   12 H3     2s         3.1957    6.2683   -0.0000   -0.0000   -0.1964   -0.1446    0.2856   -0.0394   -0.1071    0.1014
   13 H3     2px        0.0000    0.0000   -0.6982   -0.0359    0.0000   -0.0000   -0.0000   -0.0000    0.0000    0.0000
   14 H3     2py        0.0000    0.0000    0.0359   -0.6982    0.0000   -0.0000    0.0000    0.0000    0.0000   -0.0000
   15 H3     2pz        0.6478   -0.0846   -0.0000   -0.0000    0.7805   -0.4597   -0.3946    1.4408   -2.1290    1.7544
   16 H4     1s        -7.1287   -9.3574    0.0000    0.0000   -1.7702    0.7597    1.0346   -1.9419    0.8064    0.3474
   17 H4     2s        -5.7238   -7.9173    0.0000    0.0000   -0.4972    0.0203    0.2818   -0.3630    0.0913   -0.0470
   18 H4     2px       -0.0000   -0.0000    0.8606    0.0443    0.0000    0.0000    0.0000   -0.0000   -0.0000    0.0000
   19 H4     2py       -0.0000   -0.0000   -0.0443    0.8606    0.0000    0.0000    0.0000   -0.0000   -0.0000    0.0000
   20 H4     2pz       -0.6859    0.2599   -0.0000    0.0000   -0.1579   -0.8418    1.1491   -0.0423   -1.8528    2.3045
   21 H5     1s         9.5165    9.8861   -0.0000   -0.0000    1.0538    1.9074   -1.5682   -0.8147    1.4041    0.2068
   22 H5     2s         7.2803    8.7333   -0.0000   -0.0000    0.3165    0.7493   -0.3820   -0.0651    0.1035    0.0492
   23 H5     2px        0.0000    0.0000   -0.9459   -0.0487    0.0000   -0.0000   -0.0000    0.0000    0.0000   -0.0000
   24 H5     2py        0.0000    0.0000    0.0487   -0.9458    0.0000   -0.0000   -0.0000    0.0000    0.0000   -0.0000
   25 H5     2pz        0.2760   -0.1154    0.0000   -0.0000   -0.7040    0.6912    0.8308   -1.4867   -0.7253    2.5896
   26 H6     1s        -9.5165   -9.8861    0.0000    0.0000    1.0538   -1.9074   -1.5682    0.8147    1.4041   -0.2068
   27 H6     2s        -7.2803   -8.7333    0.0000    0.0000    0.3165   -0.7493   -0.3820    0.0651    0.1035   -0.0492
   28 H6     2px        0.0000    0.0000    0.9459    0.0487   -0.0000   -0.0000    0.0000    0.0000    0.0000   -0.0000
   29 H6     2py        0.0000    0.0000   -0.0487    0.9458   -0.0000   -0.0000   -0.0000    0.0000    0.0000   -0.0000
   30 H6     2pz        0.2760   -0.1154   -0.0000   -0.0000    0.7040    0.6912   -0.8308   -1.4867    0.7253    2.5896
   31 H7     1s         7.1287    9.3574   -0.0000   -0.0000   -1.7702   -0.7597    1.0346    1.9419    0.8064   -0.3474
   32 H7     2s         5.7238    7.9173   -0.0000   -0.0000   -0.4972   -0.0203    0.2818    0.3630    0.0913    0.0470
   33 H7     2px       -0.0000   -0.0000   -0.8606   -0.0443   -0.0000    0.0000   -0.0000   -0.0000   -0.0000    0.0000
   34 H7     2py       -0.0000   -0.0000    0.0443   -0.8606    0.0000    0.0000   -0.0000   -0.0000    0.0000    0.0000
   35 H7     2pz       -0.6859    0.2599    0.0000    0.0000    0.1579   -0.8418   -1.1491   -0.0423    1.8528    2.3045
   36 H8     1s        -3.5073   -7.8506    0.0000    0.0000    0.1575    1.4270    1.8026    0.8960   -0.2843   -0.7464
   37 H8     2s        -3.1957   -6.2683    0.0000    0.0000   -0.1964    0.1446    0.2856    0.0394   -0.1071   -0.1014
   38 H8     2px        0.0000    0.0000    0.6982    0.0359    0.0000    0.0000    0.0000    0.0000    0.0000    0.0000
   39 H8     2py        0.0000    0.0000   -0.0359    0.6982   -0.0000   -0.0000    0.0000    0.0000   -0.0000   -0.0000
   40 H8     2pz        0.6478   -0.0846   -0.0000   -0.0000   -0.7805   -0.4597    0.3946    1.4408    2.1290    1.7544
   41 H9     1s         0.2362    5.3088   -0.0000    0.0000    2.1394    1.2077    0.0970   -0.7025   -1.0038   -0.7344
   42 H9     2s         0.8535    3.8038   -0.0000    0.0000    0.9338    0.4865    0.0515   -0.1444   -0.0938    0.0130
   43 H9     2px       -0.0000   -0.0000   -0.4737   -0.0244    0.0000    0.0000    0.0000   -0.0000    0.0000   -0.0000
   44 H9     2py       -0.0000   -0.0000    0.0244   -0.4737    0.0000    0.0000   -0.0000   -0.0000   -0.0000    0.0000
   45 H9     2pz       -0.3785   -0.1224    0.0000    0.0000    0.6641    1.0986    1.4467    1.5801    1.4834    1.0157
   46 H10    1s         0.4848   -1.9191    0.0000   -0.0000   -1.5123   -1.4702   -1.3171   -1.0855   -0.8800   -0.6036
   47 H10    2s         0.1049   -1.2464    0.0000   -0.0000   -0.6303   -0.4754   -0.2958   -0.1259   -0.0366   -0.0311
   48 H10    2px        0.0000    0.0000    0.2124    0.0109   -0.0000    0.0000   -0.0000    0.0000    0.0000    0.0000
   49 H10    2py        0.0000    0.0000   -0.0109    0.2124   -0.0000   -0.0000   -0.0000    0.0000    0.0000   -0.0000
   50 H10    2pz       -0.5234    0.6791   -0.0000    0.0000    0.7927    0.7410    0.6553    0.5393    0.4256    0.2787
--
 
      Von Neumann Entropy (Root  1) =  0.72462
 

      Mulliken population analysis for root number:  1
      -----------------------------------------------
 
 
++    Molecular charges:
      ------------------
 
      Mulliken charges per centre and basis function type
      ---------------------------------------------------
 
                H1      H2      H3      H4      H5      H6      H7      H8      H9      H10   
      1s       1.0415  0.9336  1.0183  0.9641  0.9913  0.9913  0.9641  1.0183  0.9336  1.0415
      2s       0.0011 -0.0238 -0.0708 -0.0449 -0.0385 -0.0385 -0.0449 -0.0708 -0.0238  0.0011
      2px      0.0000 -0.0000 -0.0000 -0.0000  0.0000  0.0000 -0.0000 -0.0000 -0.0000  0.0000
      2pz      0.0191  0.0514  0.0520  0.0501  0.0534  0.0534  0.0501  0.0520  0.0514  0.0191
      2py      0.0000 -0.0000 -0.0000 -0.0001  0.0023  0.0023 -0.0001 -0.0000 -0.0000  0.0000
      Total    1.0617  0.9612  0.9994  0.9692  1.0085  1.0085  0.9692  0.9994  0.9612  1.0617
 
      N-E     -0.0617  0.0388  0.0006  0.0308 -0.0085 -0.0085  0.0308  0.0006  0.0388 -0.0617
 
      Total electronic charge=   10.000000
 
      Total            charge=   -0.000000
--
 
 

      Expectation values of various properties for root number:  1
      -----------------------------------------------------------
 
 
++    Molecular properties:
      ---------------------
 
      Charge (e):
                      =   -0.0000
      Dipole Moment (Debye):
      Origin of the operator (Ang)=    0.0000    0.0000    0.0000
                   X=  5.6350E-14               Y= -1.6438E-13               Z= -9.8614E-07           Total=  9.8614E-07
      Quadrupole Moment (Debye*Ang):
      Origin of the operator (Ang)=    0.0000    0.0000    4.3364
                  XX= -1.0695E+01              XY= -4.3531E-04              XZ=  3.3782E-13              YY= -1.0703E+01
                  YZ=  5.6933E-13              ZZ= -1.3814E+01
      In traceless form (Debye*Ang)
                  XX=  1.5640E+00              XY= -6.5297E-04              XZ=  5.0673E-13              YY=  1.5514E+00
                  YZ=  8.5399E-13              ZZ= -3.1154E+00
--
 

      LoProp population analysis for root number:  1
      -----------------------------------------------
 
 
++    LoProp analysis:
      ----------------
 
 
 
  Input file to MOLDEN was generated!
 
 
++    Static properties:
      ------------------
 
 
      LoProp Charges per center
 

                   H1       H2       H3       H4       H5       H6       H7       H8       H9       H10   
      Nuclear      1.0000   1.0000   1.0000   1.0000   1.0000   1.0000   1.0000   1.0000   1.0000   1.0000
      Electronic  -1.0345  -0.9833  -0.9938  -0.9896  -0.9988  -0.9988  -0.9896  -0.9938  -0.9833  -1.0345
 
      Total       -0.0345   0.0167   0.0062   0.0104   0.0012   0.0012   0.0104   0.0062   0.0167  -0.0345
--
 
 
      Natural Bond Order analysis for root number:  1
 
++    Natural Bond Order analysis
      ---------------------------
      Based on LoProp computed density
      -------------------------------------------------------------------------------------
      Atom A       Atom B       Bond Order | Atom A       Atom B       Bond Order
        H1           H2             0.947  |   H5           H6             0.912
        H3           H4             0.905  |   H7           H8             0.905
        H9           H10            0.947  |
      -------------------------------------------------------------------------------------
      NBO located      9.231 electrons involved in    5 bonds.
      The remaining    0.769 electrons are to be considered as diffuse
--
 
--
 
 
  Input file to MOLDEN was generated!
 
      Average orbitals are written to the RASORB file
      Natural orbitals for root   1 are written to the RASORB.1 file
      Spin density orbitals for root   1 are written to the SPDORB.1 file
 
--- Stop Module: rasscf at Tue Nov 12 17:02:52 2024 /rc=_RC_ALL_IS_WELL_ ---
*** files: H10_0.96.LprOrb H10_0.96.rasscf.molden H10_0.96.LoProp.molden H10_0.96.RasOrb H10_0.96.RasOrb.1 H10_0.96.rasscf.h5 H10_0.96.SpdOrb.1 xmldump
    saved to directory /home/grierjones/DDCASPT2/hydrogen_comps/H10_chain/H10_0.96
--- Module rasscf spent 2 seconds ---

>>> COPY /tmp/H10_0.96/H10_0.96.rasscf.h5 /home/grierjones/DDCASPT2/hydrogen_comps/H10_chain/H10_0.96/

>>> COPY /tmp/H10_0.96/GMJ_Fock_MO.csv /home/grierjones/DDCASPT2/hydrogen_comps/H10_chain/H10_0.96/H10_0.96.GMJ_Fock_MO.csv

>>> COPY /tmp/H10_0.96/GMJ_PT2_Fock_MO.csv /home/grierjones/DDCASPT2/hydrogen_comps/H10_chain/H10_0.96/H10_0.96.GMJ_PT2_Fock_MO.csv

*** symbolic link created: INPORB -> H10_0.96.RasOrb
--- Start Module: motra at Tue Nov 12 17:02:52 2024 ---
 
()()()()()()()()()()()()()()()()()()()()()()()()()()()()()()()()()()()()()()()()()()()()()()()()()()

                                               &MOTRA

                                   only a single process is used
                       available to each process: 2.0 GB of memory, 1 thread?
()()()()()()()()()()()()()()()()()()()()()()()()()()()()()()()()()()()()()()()()()()()()()()()()()()
 
 
      *** WARNING: Default frozen orbitals is overwritten by user input.
      *** Default values:   0
 
      Header of the integral files:
      
       Integrals generated by seward 4.2.0  , Tue Nov 12 17:02:48 2024
 
 
      Header of MO coefficients source file:
      * RASSCF average (pseudo-natural) orbitals                                      
 
 
      Cartesian coordinates in Angstrom:
      -----------------------------------------------------
      No.  Label        X            Y            Z        
      -----------------------------------------------------
       1   H1         0.00000000   0.00000000   0.00000000
       2   H2         0.00000000   0.00000000   0.96363600
       3   H3         0.00000000   0.00000000   1.92727300
       4   H4         0.00000000   0.00000000   2.89090900
       5   H5         0.00000000   0.00000000   3.85454500
       6   H6         0.00000000   0.00000000   4.81818200
       7   H7         0.00000000   0.00000000   5.78181800
       8   H8         0.00000000   0.00000000   6.74545500
       9   H9         0.00000000   0.00000000   7.70909100
      10   H10        0.00000000   0.00000000   8.67272700
      -----------------------------------------------------
      Nuclear repulsion energy =   10.59285520
 
      Orbital specifications:
      -----------------------
 
      Symmetry species:              1
      Number of basis functions:    50
      Frozen orbitals:               0
      Deleted orbitals:              0
      Number of orbitals used:      50

       SYMMETRY  BASIS FUNCTIONS       ORBITALS      INTEGRALS   CPU(SEC)  I/O(SEC)
 
        1 1 1 1   50  50  50  50    50  50  50  50      813450       0.00      0.00

       TOTAL CPU TIME(SEC)    0.40TOTAL I/O TIME(SEC)    1.05
 
--- Stop Module: motra at Tue Nov 12 17:02:53 2024 /rc=_RC_ALL_IS_WELL_ ---
*** files: xmldump
    saved to directory /home/grierjones/DDCASPT2/hydrogen_comps/H10_chain/H10_0.96
--- Module motra spent 1 second ---

>>> COPY /tmp/H10_0.96/GMJ_one_int_indx.csv /home/grierjones/DDCASPT2/hydrogen_comps/H10_chain/H10_0.96/H10_0.96.GMJ_one_int_indx.csv

>>> COPY /tmp/H10_0.96/GMJ_one_int.csv /home/grierjones/DDCASPT2/hydrogen_comps/H10_chain/H10_0.96/H10_0.96.GMJ_one_int.csv

>>> COPY /tmp/H10_0.96/GMJ_two_int_indx.csv /home/grierjones/DDCASPT2/hydrogen_comps/H10_chain/H10_0.96/H10_0.96.GMJ_two_int_indx.csv

>>> COPY /tmp/H10_0.96/GMJ_two_int.csv /home/grierjones/DDCASPT2/hydrogen_comps/H10_chain/H10_0.96/H10_0.96.GMJ_two_int.csv

*** symbolic link created: INPORB -> H10_0.96.RasOrb
--- Start Module: caspt2 at Tue Nov 12 17:02:53 2024 ---
 
()()()()()()()()()()()()()()()()()()()()()()()()()()()()()()()()()()()()()()()()()()()()()()()()()()

                                              &CASPT2

                                   only a single process is used
                       available to each process: 2.0 GB of memory, 1 thread?
()()()()()()()()()()()()()()()()()()()()()()()()()()()()()()()()()()()()()()()()()()()()()()()()()()
 
 Cholesky algorithm in CASPT2 =    1
 
 ###############################################################################
 ###############################################################################
 ###                                                                         ###
 ###                                                                         ###
 ###    User changed nr of frozen orbitals.                                  ###
 ###                                                                         ###
 ###                                                                         ###
 ###############################################################################
 ###############################################################################
 
++    Wave function specifications:
      -----------------------------
 
      Number of closed shell electrons           0
      Number of electrons in active shells      10
      Max number of holes in RAS1 space          0
      Max number of electrons in RAS3 space      0
      Number of inactive orbitals                0
      Number of active orbitals                 10
      Number of secondary orbitals              40
      Spin quantum number                      0.0
      State symmetry                             1
      Number of CSFs                         19404
      Number of root(s) available                1
      Root passed to geometry opt.               1
      A file JOBMIX will be created.
      This is a CASSCF or RASSCF reference function
--
 
++    Orbital specifications:
      -----------------------
 
      Symmetry species                           1
                                                 a
      Frozen orbitals                            0
      Inactive orbitals                          0
      Active orbitals                           10
      Secondary orbitals                        40
      Deleted orbitals                           0
      Number of basis functions                 50
--
 
      Type of Fock operator: STANDARD
      Type of 0-order Hamiltonian: STANDARD WITH DEFAULT IPEA
        "IP-EA" denominator shift =      0.25
      The input orbitals and the CI vector will be transformed.
 
--------------------------------------------------------------------------------
 Estimated memory requirements:
  POLY3 :                  3551880
  RHS:                      835500
  SIGMA :                   430400
  PRPCTL:                        0
 Available workspace:    230354915
 
++ CASPT2 computation for group   1
 
********************************************************************************
 Multi-State initialization phase begins for group   1
--------------------------------------------------------------------------------
********************************************************************************
 Compute H0 matrices for state    1
--------------------------------------------------------------------------------
--------------------------------------------------------------------------------
 H0 matrices have been computed.
 
********************************************************************************
  CASPT2 EQUATION SOLUTION
--------------------------------------------------------------------------------
 
  Total nr of CASPT2 parameters:
   Before reduction:      120200
   After  reduction:      119400
 
 The contributions to the second order correlation energy in atomic units.
-----------------------------------------------------------------------------------------------------------------------------
  IT.      VJTU        VJTI        ATVX        AIVX        VJAI        BVAT        BJAT        BJAI        TOTAL       RNORM  
-----------------------------------------------------------------------------------------------------------------------------
   1     0.000000    0.000000   -0.036072    0.000000    0.000000   -0.060485    0.000000    0.000000   -0.096558    0.004644
   2     0.000000    0.000000   -0.036438    0.000000    0.000000   -0.060599    0.000000    0.000000   -0.097037    0.000505
   3     0.000000    0.000000   -0.036445    0.000000    0.000000   -0.060601    0.000000    0.000000   -0.097047    0.000085
   4     0.000000    0.000000   -0.036440    0.000000    0.000000   -0.060601    0.000000    0.000000   -0.097042    0.000010
   5     0.000000    0.000000   -0.036440    0.000000    0.000000   -0.060601    0.000000    0.000000   -0.097042    0.000001
-------------------------------------------------------------------------------------------------------------------
 
  FINAL CASPT2 RESULT:
 
  Correlation energy /Case, /Symm, and sums:
 VJTU      0.00000000  0.00000000
 VJTIP     0.00000000  0.00000000
 VJTIM     0.00000000  0.00000000
 ATVX     -0.03644038 -0.03644038
 AIVX      0.00000000  0.00000000
 VJAIP     0.00000000  0.00000000
 VJAIM     0.00000000  0.00000000
 BVATP    -0.05557401 -0.05557401
 BVATM    -0.00502724 -0.00502724
 BJATP     0.00000000  0.00000000
 BJATM     0.00000000  0.00000000
 BJAIP     0.00000000  0.00000000
 BJAIM     0.00000000  0.00000000
 Summed:  -0.09704162 -0.09704162
 
      Reference energy:          -5.5005099310
      E2 (Non-variational):      -0.0970416191
      E2 (Variational):          -0.0970416196
      Total energy:              -5.5975515506
      Residual norm:              0.0000001881
      Reference weight:           0.96547
 
      Contributions to the CASPT2 correlation energy
      Active & Virtual Only:         -0.0970416191
      One Inactive Excited:           0.0000000000
      Two Inactive Excited:           0.0000000000
 
 
++ Denominators, etc.
----------------------------------------------------------------------------------------------------
 Report on small energy denominators, large coefficients, and large energy contributions.
CASE  SYMM ACTIVE-MIX  NON-ACTIVE INDICES          DENOMINATOR     RHS VALUE       COEFFICIENT     CONTRIBUTION
ATVX     1  Mu1.0019  Se1.023                       1.94095393      0.05441125     -0.02798426     -0.00152266
--
 
   (Skipping property calculation,
    use PROP keyword to activate)
--
 
  Total CASPT2 energies:
::    CASPT2 Root  1     Total energy:     -5.59755155
 
  A NEW JOBIPH FILE NAMED 'JOBMIX' IS PREPARED.
********************************************************************************
--- Stop Module: caspt2 at Tue Nov 12 17:02:55 2024 /rc=_RC_ALL_IS_WELL_ ---
*** files: xmldump
    saved to directory /home/grierjones/DDCASPT2/hydrogen_comps/H10_chain/H10_0.96
--- Module caspt2 spent 2 seconds ---

>>> EXPORT i = B

>>> EXPORT j = P

>>> IF (-FILE GMJ_e2_${i}_${j}.csv)
(Skipped)

>>> END FOREACH

>>> EXPORT j = M

>>> IF (-FILE GMJ_e2_${i}_${j}.csv)
(Skipped)

>>> END FOREACH

>>> END FOREACH

>>> EXPORT i = E

>>> EXPORT j = P

>>> IF (-FILE GMJ_e2_${i}_${j}.csv)
(Skipped)

>>> END FOREACH

>>> EXPORT j = M

>>> IF (-FILE GMJ_e2_${i}_${j}.csv)
(Skipped)

>>> END FOREACH

>>> END FOREACH

>>> EXPORT i = F

>>> EXPORT j = P

>>> IF (-FILE GMJ_e2_${i}_${j}.csv)

>>> COPY /tmp/H10_0.96/GMJ_RHS_F_P.csv /home/grierjones/DDCASPT2/hydrogen_comps/H10_chain/H10_0.96/GMJ_RHS_F_P.csv

>>> COPY /tmp/H10_0.96/GMJ_IVECW_F_P.csv /home/grierjones/DDCASPT2/hydrogen_comps/H10_chain/H10_0.96/GMJ_IVECW_F_P.csv

>>> COPY /tmp/H10_0.96/GMJ_IVECX_F_P.csv /home/grierjones/DDCASPT2/hydrogen_comps/H10_chain/H10_0.96/GMJ_IVECX_F_P.csv

>>> COPY /tmp/H10_0.96/GMJ_IVECC2_F_P.csv /home/grierjones/DDCASPT2/hydrogen_comps/H10_chain/H10_0.96/GMJ_IVECC2_F_P.csv

>>> COPY /tmp/H10_0.96/GMJ_e2_F_P.csv /home/grierjones/DDCASPT2/hydrogen_comps/H10_chain/H10_0.96/GMJ_e2_F_P.csv

>>> END FOREACH

>>> EXPORT j = M

>>> IF (-FILE GMJ_e2_${i}_${j}.csv)

>>> COPY /tmp/H10_0.96/GMJ_RHS_F_M.csv /home/grierjones/DDCASPT2/hydrogen_comps/H10_chain/H10_0.96/GMJ_RHS_F_M.csv

>>> COPY /tmp/H10_0.96/GMJ_IVECW_F_M.csv /home/grierjones/DDCASPT2/hydrogen_comps/H10_chain/H10_0.96/GMJ_IVECW_F_M.csv

>>> COPY /tmp/H10_0.96/GMJ_IVECX_F_M.csv /home/grierjones/DDCASPT2/hydrogen_comps/H10_chain/H10_0.96/GMJ_IVECX_F_M.csv

>>> COPY /tmp/H10_0.96/GMJ_IVECC2_F_M.csv /home/grierjones/DDCASPT2/hydrogen_comps/H10_chain/H10_0.96/GMJ_IVECC2_F_M.csv

>>> COPY /tmp/H10_0.96/GMJ_e2_F_M.csv /home/grierjones/DDCASPT2/hydrogen_comps/H10_chain/H10_0.96/GMJ_e2_F_M.csv

>>> END FOREACH

>>> END FOREACH

>>> EXPORT i = G

>>> EXPORT j = P

>>> IF (-FILE GMJ_e2_${i}_${j}.csv)
(Skipped)

>>> END FOREACH

>>> EXPORT j = M

>>> IF (-FILE GMJ_e2_${i}_${j}.csv)
(Skipped)

>>> END FOREACH

>>> END FOREACH

>>> EXPORT i = H

>>> EXPORT j = P

>>> IF (-FILE GMJ_e2_${i}_${j}.csv)
(Skipped)

>>> END FOREACH

>>> EXPORT j = M

>>> IF (-FILE GMJ_e2_${i}_${j}.csv)
(Skipped)

>>> END FOREACH

>>> END FOREACH

>>> EXPORT i = A

>>> IF (-FILE GMJ_e2_$i.csv)
(Skipped)

>>> END FOREACH

>>> EXPORT i = C

>>> IF (-FILE GMJ_e2_$i.csv)

>>> COPY /tmp/H10_0.96/GMJ_RHS_C.csv /home/grierjones/DDCASPT2/hydrogen_comps/H10_chain/H10_0.96/GMJ_RHS_C.csv

>>> COPY /tmp/H10_0.96/GMJ_IVECW_C.csv /home/grierjones/DDCASPT2/hydrogen_comps/H10_chain/H10_0.96/GMJ_IVECW_C.csv

>>> COPY /tmp/H10_0.96/GMJ_IVECX_C.csv /home/grierjones/DDCASPT2/hydrogen_comps/H10_chain/H10_0.96/GMJ_IVECX_C.csv

>>> COPY /tmp/H10_0.96/GMJ_IVECC2_C.csv /home/grierjones/DDCASPT2/hydrogen_comps/H10_chain/H10_0.96/GMJ_IVECC2_C.csv

>>> COPY /tmp/H10_0.96/GMJ_e2_C.csv /home/grierjones/DDCASPT2/hydrogen_comps/H10_chain/H10_0.96/GMJ_e2_C.csv

>>> END FOREACH

>>> EXPORT i = D

>>> IF (-FILE GMJ_e2_$i.csv)
(Skipped)

>>> END FOREACH

.########################.
.# Non-zero return code #.
.########################.

    Timing: Wall=7.63 User=6.41 System=1.22
****************************************
*** WorkDir at /tmp/H10_0.96 cleaned ***
****************************************
