[Molden Format]
[N_Atoms]
                     2
[Atoms] (AU)
N1          1      7           0.00000000      0.00000000      0.00000000
O2          2      8           0.00000000      0.00000000      3.02356180
[Charge] (Mulliken)
  0.154735077064541     
 -0.154735077064602     
[GTO] (AU)
   1
   s  14
  7.476171500E+04  1.182599996E-04
  1.112365400E+04  5.172899983E-04
  2.512685700E+03  2.266659992E-03
  7.037772900E+02  9.145289970E-03
  2.254787900E+02  3.239342989E-02
  7.961581000E+01  9.770792967E-02
  3.023728300E+01  2.317036792E-01
  1.226362200E+01  3.768898887E-01
  5.265086000E+00  3.177420689E-01
  2.333471000E+00  8.211308973E-02
  9.018560000E-01  3.312089989E-03
  3.583360000E-01  3.720819988E-03
  1.410930000E-01  3.165419989E-03
  4.938300000E-02  4.595799985E-04
   s  14
  7.476171500E+04 -2.707000010E-05
  1.112365400E+04 -1.183700004E-04
  2.512685700E+03 -5.203800020E-04
  7.037772900E+02 -2.102930008E-03
  2.254787900E+02 -7.568200028E-03
  7.961581000E+01 -2.346767009E-02
  3.023728300E+01 -6.042901023E-02
  1.226362200E+01 -1.170549104E-01
  5.265086000E+00 -1.555321506E-01
  2.333471000E+00 -2.468935009E-02
  9.018560000E-01  3.625054514E-01
  3.583360000E-01  5.550845021E-01
  1.410930000E-01  2.148376908E-01
  4.938300000E-02  8.983850034E-03
   p   9
  1.266665700E+02  1.233630000E-03
  2.983738900E+01  9.493409996E-03
  9.394038000E+00  4.293961998E-02
  3.405104000E+00  1.362925399E-01
  1.350000000E+00  2.921362499E-01
  5.576960000E-01  3.887887598E-01
  2.324490000E-01  2.946801399E-01
  9.426400000E-02  8.012875997E-02
  3.299200000E-02  5.405199998E-04
 
   2
   s  14
  1.053749500E+05  1.238600013E-04
  1.567924000E+04  5.120100053E-04
  3.534544700E+03  2.152910022E-03
  9.873651600E+02  8.528440089E-03
  3.159787500E+02  3.018049031E-02
  1.116542800E+02  9.099702095E-02
  4.269945100E+01  2.177936423E-01
  1.739559600E+01  3.686245738E-01
  7.438309000E+00  3.366707335E-01
  3.222862000E+00  9.657630101E-02
  1.253877000E+00  2.144520022E-03
  4.951550000E-01  1.194350012E-03
  1.916650000E-01  5.390200056E-04
  6.708300000E-02  2.103400022E-04
   s  14
  1.053749500E+05 -2.815000008E-05
  1.567924000E+04 -1.163000003E-04
  3.534544700E+03 -4.909200013E-04
  9.873651600E+02 -1.946160005E-03
  3.159787500E+02 -7.005300019E-03
  1.116542800E+02 -2.167814006E-02
  4.269945100E+01 -5.641213015E-02
  1.739559600E+01 -1.127053003E-01
  7.438309000E+00 -1.589119704E-01
  3.222862000E+00 -3.355083009E-02
  1.253877000E+00  3.531902810E-01
  4.951550000E-01  5.534199315E-01
  1.916650000E-01  2.301839106E-01
  6.708300000E-02  1.127267003E-02
   p   9
  2.000000000E+02  9.173000030E-04
  4.653336700E+01  7.377140024E-03
  1.462180900E+01  3.483515011E-02
  5.313064000E+00  1.144397004E-01
  2.102525000E+00  2.554966408E-01
  8.502230000E-01  3.722557412E-01
  3.375970000E-01  3.323314911E-01
  1.288920000E-01  1.400847905E-01
  4.511200000E-02  2.395784008E-02
 
[MO]
Sym=     1a  
Ene=   -20.7070
Spin= Alpha
Occup=    1.00000
   1        -0.00006649
   2        -0.00063412
   3         0.00000000
   4         0.00000000
   5        -0.00045283
   6         1.00001896
   7         0.00154172
   8         0.00000000
   9        -0.00000000
  10        -0.00100484
Sym=     1a  
Ene=   -20.6530
Spin= Beta
Occup=    1.00000
   1        -0.00000600
   2        -0.00018505
   3        -0.00000000
   4         0.00000000
   5        -0.00002543
   6         1.00000168
   7        -0.00146528
   8        -0.00000000
   9         0.00000000
  10        -0.00074891
Sym=     2a  
Ene=   -15.6990
Spin= Alpha
Occup=    1.00000
   1         0.99999982
   2        -0.00631855
   3         0.00000000
   4         0.00000000
   5         0.00124166
   6        -0.00012286
   7        -0.00078888
   8        -0.00000000
   9        -0.00000000
  10         0.00039629
Sym=     2a  
Ene=   -15.7100
Spin= Beta
Occup=    1.00000
   1         1.00000720
   2        -0.00525375
   3         0.00000000
   4         0.00000000
   5         0.00127685
   6        -0.00015551
   7        -0.00085378
   8        -0.00000000
   9         0.00000000
  10         0.00040568
Sym=     3a  
Ene=    -1.4216
Spin= Alpha
Occup=    1.00000
   1        -0.01170420
   2         0.17810350
   3         0.00000000
   4        -0.00000000
   5         0.07005801
   6        -0.00544464
   7         0.92041539
   8         0.00000000
   9        -0.00000000
  10        -0.09999193
Sym=     3a  
Ene=    -1.2512
Spin= Beta
Occup=    1.00000
   1        -0.00828594
   2         0.44739546
   3        -0.00000000
   4         0.00000000
   5         0.14045814
   6        -0.00829997
   7         0.75477349
   8        -0.00000000
   9         0.00000000
  10        -0.08160013
Sym=     4a  
Ene=    -0.9767
Spin= Alpha
Occup=    1.00000
   1        -0.00201223
   2        -0.88306061
   3        -0.00000000
   4         0.00000000
   5        -0.00683367
   6         0.01117453
   7         0.38798756
   8         0.00000000
   9         0.00000000
  10         0.26877298
Sym=     4a  
Ene=    -0.9671
Spin= Beta
Occup=    1.00000
   1        -0.00721212
   2        -0.85241938
   3         0.00000000
   4         0.00000000
   5         0.08329480
   6         0.00953682
   7         0.59591172
   8         0.00000000
   9         0.00000000
  10         0.13545993
Sym=     5a  
Ene=    -0.6808
Spin= Alpha
Occup=    1.00000
   1         0.00000000
   2         0.00000000
   3         0.07420465
   4         0.00380969
   5        -0.00000000
   6         0.00000000
   7        -0.00000000
   8         0.98617054
   9         0.05063034
  10         0.00000000
Sym=     5a  
Ene=    -0.5803
Spin= Beta
Occup=    1.00000
   1        -0.00000000
   2        -0.00000000
   3         0.97653499
   4         0.05013565
   5         0.00000000
   6        -0.00000000
   7        -0.00000000
   8         0.11675086
   9         0.00599403
  10        -0.00000000
Sym=     6a  
Ene=    -0.6533
Spin= Alpha
Occup=    1.00000
   1         0.00000000
   2         0.00000000
   3        -0.02709561
   4         0.52776450
   5        -0.00000000
   6         0.00000000
   7         0.00000000
   8        -0.04009630
   9         0.78099006
  10         0.00000000
Sym=     6a  
Ene=    -0.5402
Spin= Beta
Occup=    1.00000
   1        -0.01383967
   2        -0.20185365
   3        -0.00000000
   4         0.00000000
   5         0.75985560
   6        -0.01846529
   7        -0.30198505
   8        -0.00000000
   9         0.00000000
  10        -0.51225715
Sym=     7a  
Ene=    -0.5988
Spin= Alpha
Occup=    1.00000
   1        -0.02788767
   2        -0.48956077
   3         0.00000000
   4         0.00000000
   5         0.34414709
   6        -0.00355161
   7        -0.07002200
   8         0.00000000
   9         0.00000000
  10        -0.84972012
Sym=     7a  
Ene=    -0.5393
Spin= Beta
Occup=    1.00000
   1         0.00000000
   2         0.00000000
   3        -0.00755366
   4         0.14712903
   5        -0.00000000
   6         0.00000000
   7         0.00000000
   8        -0.04972540
   9         0.96854424
  10         0.00000000
Sym=     8a  
Ene=    -0.5186
Spin= Alpha
Occup=    1.00000
   1         0.00000000
   2         0.00000000
   3        -0.04406147
   4         0.85822313
   5        -0.00000000
   6        -0.00000000
   7         0.00000000
   8         0.03267832
   9        -0.63650360
  10         0.00000000
Sym=     8a  
Ene=     0.1224
Spin= Beta
Occup=    0.00000
   1         0.00000000
   2         0.00000000
   3        -0.05117155
   4         0.99671227
   5         0.00000000
   6        -0.00000000
   7        -0.00000000
   8         0.01424677
   9        -0.27749660
  10         0.00000000
Sym=     9a  
Ene=     0.1301
Spin= Alpha
Occup=    0.00000
   1        -0.00000000
   2         0.00000000
   3        -1.00477658
   4        -0.05158558
   5        -0.00000000
   6         0.00000000
   7         0.00000000
   8         0.20627643
   9         0.01059030
  10        -0.00000000
Sym=     9a  
Ene=     0.1418
Spin= Beta
Occup=    0.00000
   1         0.00000000
   2         0.00000000
   3         0.24791472
   4         0.01272803
   5         0.00000000
   6        -0.00000000
   7        -0.00000000
   8        -1.00072551
   9        -0.05137759
  10         0.00000000
Sym=    10a  
Ene=     0.2220
Spin= Alpha
Occup=    0.00000
   1         0.02226309
   2         0.28520586
   3        -0.00000000
   4         0.00000000
   5         1.01467557
   6        -0.03014641
   7        -0.35495956
   8         0.00000000
   9        -0.00000000
  10         0.59410931
Sym=    10a  
Ene=     0.2389
Spin= Beta
Occup=    0.00000
   1         0.03297631
   2         0.40622078
   3        -0.00000000
   4        -0.00000000
   5         0.74088570
   6        -0.02469191
   7        -0.33557347
   8         0.00000000
   9         0.00000000
  10         0.93263741
