[Molden Format]
[N_Atoms]
                     2
[Atoms] (AU)
F1          1      9           0.00000000      0.00000000      0.00000000
LI2         2      3           0.00000000      0.00000000      2.26767135
[Charge] (Mulliken)
 -0.727109806556173     
  0.727109806556151     
[GTO] (AU)
   1
   s  14
  1.031094600E+05  1.713099991E-04
  1.528100700E+04  7.123999962E-04
  3.441539200E+03  2.990479984E-03
  9.670948300E+02  1.164036994E-02
  3.140353400E+02  3.968642979E-02
  1.134423000E+02  1.128546094E-01
  4.464472700E+01  2.473650687E-01
  1.894287400E+01  3.672702681E-01
  8.532743000E+00  2.896286985E-01
  3.919401000E+00  7.786681959E-02
  1.568157000E+00  4.562139976E-03
  6.232900000E-01  2.468879987E-03
  2.408610000E-01  1.106309994E-03
  8.430100000E-02  1.739699991E-04
   s  14
  1.031094600E+05 -4.044999995E-05
  1.528100700E+04 -1.682299998E-04
  3.441539200E+03 -7.084299991E-04
  9.670948300E+02 -2.767999996E-03
  3.140353400E+02 -9.611379987E-03
  1.134423000E+02 -2.833957996E-02
  4.464472700E+01 -6.839343991E-02
  1.894287400E+01 -1.237379298E-01
  8.532743000E+00 -1.512859698E-01
  3.919401000E+00 -9.099909988E-03
  1.568157000E+00  3.716257695E-01
  6.232900000E-01  5.500214393E-01
  2.408610000E-01  2.092318697E-01
  8.430100000E-02  8.074639989E-03
   p   9
  2.453302900E+02  1.024860004E-03
  5.691900500E+01  8.344290032E-03
  1.760456800E+01  4.078927016E-02
  6.274995000E+00  1.351370605E-01
  2.447030000E+00  2.798830811E-01
  9.950600000E-01  3.597966414E-01
  4.039730000E-01  3.055347412E-01
  1.548100000E-01  1.354703905E-01
  5.418400000E-02  2.804449011E-02
 
   2
   s  14
  9.497934400E+03  9.668999974E-05
  1.416811200E+03  6.087099984E-04
  3.214599400E+02  3.101519992E-03
  9.112416300E+01  1.266904997E-02
  2.999989100E+01  4.248012989E-02
  1.101763100E+01  1.150183297E-01
  4.372801000E+00  2.398650094E-01
  1.831256000E+00  3.584300090E-01
  8.022610000E-01  3.048527792E-01
  3.626480000E-01  8.824261976E-02
  1.139950000E-01 -8.445899977E-04
  5.123700000E-02 -7.943959979E-03
  2.246800000E-02 -3.764419990E-03
  7.860000000E-03 -8.868999976E-05
   s  14
  9.497934400E+03 -1.244999993E-05
  1.416811200E+03 -7.838999954E-05
  3.214599400E+02 -4.007099976E-04
  9.112416300E+01 -1.645249990E-03
  2.999989100E+01 -5.634599967E-03
  1.101763100E+01 -1.590780991E-02
  4.372801000E+00 -3.612581979E-02
  1.831256000E+00 -6.459927962E-02
  8.022610000E-01 -1.008321794E-01
  3.626480000E-01 -9.757613942E-02
  1.139950000E-01  2.301215886E-01
  5.123700000E-02  6.102389764E-01
  2.246800000E-02  2.849406083E-01
  7.860000000E-03  4.026899976E-03
   p   9
  1.311950400E+01  1.524940000E-03
  3.077424200E+00  8.314830000E-03
  1.098800500E+00  1.933203000E-02
  4.357784000E-01  4.934293000E-02
  1.802432000E-01  1.623554000E-01
  7.613330000E-02  3.847505400E-01
  3.254650000E-02  4.336100400E-01
  1.401820000E-02  1.287005900E-01
  4.906400000E-03 -1.018520000E-03
 
[MO]
Sym=     1a  
Ene=   -25.9050
Spin= Alpha
Occup=    1.00000
   1         1.00003176
   2        -0.00188170
   3         0.00000000
   4         0.00000000
   5         0.00040795
   6        -0.00033939
   7        -0.00042753
   8         0.00000000
   9        -0.00000000
  10         0.00035942
Sym=     1a  
Ene=   -25.9050
Spin= Beta
Occup=    1.00000
   1         1.00003176
   2        -0.00188170
   3         0.00000000
   4         0.00000000
   5         0.00040795
   6        -0.00033939
   7        -0.00042753
   8         0.00000000
   9        -0.00000000
  10         0.00035942
Sym=     2a  
Ene=    -2.4540
Spin= Alpha
Occup=    1.00000
   1        -0.00469035
   2         0.07340794
   3        -0.00000000
   4        -0.00000000
   5         0.04183114
   6         0.97874124
   7         0.00915197
   8         0.00000000
   9         0.00000000
  10         0.00130710
Sym=     2a  
Ene=    -2.4540
Spin= Beta
Occup=    1.00000
   1        -0.00469035
   2         0.07340794
   3        -0.00000000
   4        -0.00000000
   5         0.04183114
   6         0.97874124
   7         0.00915197
   8         0.00000000
   9         0.00000000
  10         0.00130710
Sym=     3a  
Ene=    -1.3533
Spin= Alpha
Occup=    1.00000
   1         0.00041021
   2         0.98033144
   3        -0.00000000
   4         0.00000000
   5         0.08346585
   6        -0.21066459
   7         0.01672615
   8        -0.00000000
   9        -0.00000000
  10        -0.04424179
Sym=     3a  
Ene=    -1.3533
Spin= Beta
Occup=    1.00000
   1         0.00041021
   2         0.98033144
   3        -0.00000000
   4         0.00000000
   5         0.08346585
   6        -0.21066459
   7         0.01672615
   8        -0.00000000
   9        -0.00000000
  10        -0.04424179
Sym=     4a  
Ene=    -0.4609
Spin= Alpha
Occup=    1.00000
   1         0.00081067
   2        -0.05437668
   3        -0.00000000
   4         0.00000000
   5         1.02372577
   6        -0.24756608
   7        -0.06212724
   8        -0.00000000
   9         0.00000000
  10        -0.04191151
Sym=     4a  
Ene=    -0.4609
Spin= Beta
Occup=    1.00000
   1         0.00081067
   2        -0.05437668
   3        -0.00000000
   4         0.00000000
   5         1.02372577
   6        -0.24756608
   7        -0.06212724
   8        -0.00000000
   9         0.00000000
  10        -0.04191151
Sym=     5a  
Ene=    -0.4550
Spin= Alpha
Occup=    1.00000
   1        -0.00000000
   2        -0.00000000
   3         0.39719783
   4         0.86591211
   5        -0.00000000
   6         0.00000000
   7         0.00000000
   8         0.06092358
   9         0.13281659
  10        -0.00000000
Sym=     5a  
Ene=    -0.4550
Spin= Beta
Occup=    1.00000
   1        -0.00000000
   2        -0.00000000
   3         0.39719783
   4         0.86591211
   5        -0.00000000
   6         0.00000000
   7         0.00000000
   8         0.06092358
   9         0.13281659
  10        -0.00000000
Sym=     6a  
Ene=    -0.4550
Spin= Alpha
Occup=    1.00000
   1        -0.00000000
   2        -0.00000000
   3         0.86591211
   4        -0.39719783
   5         0.00000000
   6        -0.00000000
   7        -0.00000000
   8         0.13281659
   9        -0.06092358
  10        -0.00000000
Sym=     6a  
Ene=    -0.4550
Spin= Beta
Occup=    1.00000
   1        -0.00000000
   2        -0.00000000
   3         0.86591211
   4        -0.39719783
   5         0.00000000
   6        -0.00000000
   7        -0.00000000
   8         0.13281659
   9        -0.06092358
  10        -0.00000000
Sym=     7a  
Ene=     0.0174
Spin= Alpha
Occup=    0.00000
   1        -0.00272112
   2        -0.05223875
   3        -0.00000000
   4         0.00000000
   5        -0.01193903
   6        -0.00296009
   7         0.84142458
   8        -0.00000000
   9        -0.00000000
  10         0.54484371
Sym=     7a  
Ene=     0.0174
Spin= Beta
Occup=    0.00000
   1        -0.00272112
   2        -0.05223875
   3        -0.00000000
   4         0.00000000
   5        -0.01193903
   6        -0.00296009
   7         0.84142458
   8        -0.00000000
   9        -0.00000000
  10         0.54484371
Sym=     8a  
Ene=     0.1254
Spin= Alpha
Occup=    0.00000
   1        -0.00000000
   2        -0.00000000
   3         0.01644567
   4        -0.40234442
   5         0.00000000
   6        -0.00000000
   7         0.00000000
   8        -0.04181655
   9         1.02304488
  10        -0.00000000
Sym=     8a  
Ene=     0.1254
Spin= Beta
Occup=    0.00000
   1        -0.00000000
   2        -0.00000000
   3         0.01644567
   4        -0.40234442
   5         0.00000000
   6        -0.00000000
   7         0.00000000
   8        -0.04181655
   9         1.02304488
  10        -0.00000000
Sym=     9a  
Ene=     0.1254
Spin= Alpha
Occup=    0.00000
   1         0.00000000
   2         0.00000000
   3        -0.40234442
   4        -0.01644567
   5        -0.00000000
   6        -0.00000000
   7        -0.00000000
   8         1.02304488
   9         0.04181655
  10         0.00000000
Sym=     9a  
Ene=     0.1254
Spin= Beta
Occup=    0.00000
   1         0.00000000
   2         0.00000000
   3        -0.40234442
   4        -0.01644567
   5        -0.00000000
   6        -0.00000000
   7        -0.00000000
   8         1.02304488
   9         0.04181655
  10         0.00000000
Sym=    10a  
Ene=     0.2284
Spin= Alpha
Occup=    0.00000
   1         0.06872064
   2         0.59095904
   3         0.00000000
   4         0.00000000
   5        -0.01017692
   6        -0.06759399
   7        -0.64512102
   8        -0.00000000
   9         0.00000000
  10         0.94127709
Sym=    10a  
Ene=     0.2284
Spin= Beta
Occup=    0.00000
   1         0.06872064
   2         0.59095904
   3         0.00000000
   4         0.00000000
   5        -0.01017692
   6        -0.06759399
   7        -0.64512102
   8        -0.00000000
   9         0.00000000
  10         0.94127709
