[Molden Format]
[N_Atoms]
                     2
[Atoms] (AU)
B1          1      5           0.00000000      0.00000000      0.00000000
BE2         2      4           0.00000000      0.00000000      2.83458919
[Charge] (Mulliken)
 -0.224337041203757     
  0.224337041203709     
[GTO] (AU)
   1
   s  14
  3.336021700E+04  1.039699991E-04
  4.972095200E+03  5.254399956E-04
  1.125641700E+03  2.509059979E-03
  3.164913600E+02  1.031887991E-02
  1.020072600E+02  3.636632969E-02
  3.629587300E+01  1.064607991E-01
  1.397141000E+01  2.403999880E-01
  5.741156000E+00  3.748581168E-01
  2.494268000E+00  3.100066974E-01
  1.114202000E+00  7.922455933E-02
  4.215490000E-01 -4.947589958E-03
  1.696330000E-01 -7.737119935E-03
  6.853500000E-02 -1.501079987E-03
  2.398700000E-02 -1.333299989E-04
   s  14
  3.336021700E+04 -2.030000008E-05
  4.972095200E+03 -1.025700004E-04
  1.125641700E+03 -4.911300020E-04
  3.164913600E+02 -2.026570008E-03
  1.020072600E+02 -7.261010030E-03
  3.629587300E+01 -2.197722009E-02
  1.397141000E+01 -5.408428022E-02
  5.741156000E+00 -1.022402604E-01
  2.494268000E+00 -1.423595206E-01
  1.114202000E+00 -4.658690019E-02
  4.215490000E-01  3.799402916E-01
  1.696330000E-01  5.890463624E-01
  6.853500000E-02  1.749075107E-01
  2.398700000E-02 -1.142030005E-03
   p   9
  5.500000000E+01  1.229800005E-03
  1.336610100E+01  8.827380035E-03
  4.135394000E+00  3.843340015E-02
  1.481256000E+00  1.150031805E-01
  6.021360000E-01  2.733674011E-01
  2.556360000E-01  4.061972116E-01
  1.111510000E-01  3.014967912E-01
  4.764800000E-02  7.684809030E-02
  1.667700000E-02 -8.170000032E-06
 
   2
   s  14
  2.262859900E+04  8.443999941E-05
  3.372318100E+03  4.601499968E-04
  7.603504000E+02  2.285389984E-03
  2.117404800E+02  9.648129932E-03
  6.722346800E+01  3.494469975E-02
  2.337217700E+01  1.061099893E-01
  8.721373000E+00  2.458240383E-01
  3.468091000E+00  3.862428773E-01
  1.452144000E+00  3.105526078E-01
  6.086150000E-01  6.415933955E-02
  2.576860000E-01 -2.265049984E-03
  1.041760000E-01 -5.217499963E-04
  4.242700000E-02 -8.757499938E-04
  1.484900000E-02  1.242199991E-04
   s  14
  2.262859900E+04 -1.586999994E-05
  3.372318100E+03 -8.656999968E-05
  7.603504000E+02 -4.302199984E-04
  2.117404800E+02 -1.825079993E-03
  6.722346800E+01 -6.682749976E-03
  2.337217700E+01 -2.095119992E-02
  8.721373000E+00 -5.200308981E-02
  3.468091000E+00 -9.849176964E-02
  1.452144000E+00 -1.355800695E-01
  6.086150000E-01 -6.429875976E-02
  2.576860000E-01  3.125414989E-01
  1.041760000E-01  6.270468577E-01
  4.242700000E-02  2.110231492E-01
  1.484900000E-02 -4.104669985E-03
   p   9
  3.371018400E+01  1.069960000E-03
  8.057649500E+00  6.828550001E-03
  2.836471400E+00  2.119065000E-02
  1.099965700E+00  5.843696001E-02
  4.433964000E-01  2.020920800E-01
  1.822264000E-01  4.582953101E-01
  7.572410000E-02  3.691239601E-01
  3.168540000E-02  6.611471001E-02
  1.108990000E-02  1.405160000E-03
 
[MO]
Sym=     1a  
Ene=    -7.6578
Spin= Alpha
Occup=    1.00000
   1         1.00031154
   2         0.02069769
   3         0.00000000
   4        -0.00000000
   5         0.00231052
   6        -0.00070221
   7        -0.00319335
   8        -0.00000000
   9         0.00000000
  10         0.00190391
Sym=     1a  
Ene=    -7.6272
Spin= Beta
Occup=    1.00000
   1         1.00009784
   2         0.01508101
   3        -0.00000000
   4        -0.00000000
   5         0.00199069
   6        -0.00025327
   7        -0.00155827
   8        -0.00000000
   9         0.00000000
  10         0.00064630
Sym=     2a  
Ene=    -4.7236
Spin= Alpha
Occup=    1.00000
   1        -0.00167917
   2         0.00113049
   3         0.00000000
   4        -0.00000000
   5         0.00266481
   6         0.99945050
   7         0.00291276
   8        -0.00000000
   9        -0.00000000
  10        -0.00215138
Sym=     2a  
Ene=    -4.7335
Spin= Beta
Occup=    1.00000
   1        -0.00120884
   2         0.00269013
   3         0.00000000
   4         0.00000000
   5         0.00264850
   6         0.99931362
   7         0.00224704
   8        -0.00000000
   9        -0.00000000
  10         0.00017356
Sym=     3a  
Ene=    -0.6617
Spin= Alpha
Occup=    1.00000
   1        -0.05361616
   2         0.76297447
   3         0.00000000
   4         0.00000000
   5         0.12003003
   6        -0.09395661
   7         0.19110545
   8        -0.00000000
   9        -0.00000000
  10        -0.17983522
Sym=     3a  
Ene=    -0.5438
Spin= Beta
Occup=    1.00000
   1        -0.05358241
   2         0.62851464
   3        -0.00000000
   4        -0.00000000
   5         0.33105760
   6        -0.11568818
   7         0.27750286
   8         0.00000000
   9        -0.00000000
  10        -0.16663087
Sym=     4a  
Ene=    -0.4007
Spin= Alpha
Occup=    1.00000
   1        -0.03008245
   2        -0.42011472
   3        -0.00000000
   4        -0.00000000
   5         0.87815814
   6        -0.10557055
   7         0.17654281
   8        -0.00000000
   9        -0.00000000
  10        -0.16686071
Sym=     4a  
Ene=    -0.3019
Spin= Beta
Occup=    1.00000
   1         0.03023525
   2        -0.19474670
   3         0.00000000
   4        -0.00000000
   5        -0.07099578
   6         0.02764680
   7         0.75431319
   8         0.00000000
   9         0.00000000
  10         0.66138386
Sym=     5a  
Ene=    -0.3456
Spin= Alpha
Occup=    1.00000
   1        -0.00000000
   2        -0.00000000
   3        -0.24534888
   4         0.80035905
   5         0.00000000
   6        -0.00000000
   7         0.00000000
   8        -0.08403779
   9         0.27414189
  10        -0.00000000
Sym=     5a  
Ene=     0.0084
Spin= Beta
Occup=    0.00000
   1        -0.00000000
   2         0.00000000
   3         0.45413346
   4         0.13921394
   5         0.00000000
   6        -0.00000000
   7        -0.00000000
   8         0.66073748
   9         0.20254809
  10        -0.00000000
Sym=     6a  
Ene=    -0.0051
Spin= Alpha
Occup=    0.00000
   1         0.00000000
   2        -0.00000000
   3         0.63289719
   4         0.19401369
   5         0.00000000
   6        -0.00000000
   7         0.00000000
   8         0.48551607
   9         0.14883423
  10         0.00000000
Sym=     6a  
Ene=     0.0357
Spin= Beta
Occup=    0.00000
   1         0.00000000
   2         0.00000000
   3        -0.12356377
   4         0.40308064
   5        -0.00000000
   6         0.00000000
   7         0.00000000
   8        -0.21571552
   9         0.70369130
  10         0.00000000
Sym=     7a  
Ene=     0.1079
Spin= Alpha
Occup=    0.00000
   1        -0.00061538
   2        -0.22022439
   3         0.00000000
   4        -0.00000000
   5        -0.33793095
   6         0.07385103
   7         0.93359378
   8        -0.00000000
   9         0.00000000
  10         0.53210575
Sym=     7a  
Ene=     0.1560
Spin= Beta
Occup=    0.00000
   1         0.03744798
   2         0.65517567
   3         0.00000000
   4        -0.00000000
   5        -0.80612396
   6         0.07028640
   7        -0.02891694
   8         0.00000000
   9        -0.00000000
  10         0.32416014
Sym=     8a  
Ene=     0.2061
Spin= Alpha
Occup=    0.00000
   1         0.00000000
   2         0.00000000
   3         0.21855443
   4        -0.71295219
   5         0.00000000
   6        -0.00000000
   7        -0.00000000
   8        -0.31764723
   9         1.03620542
  10         0.00000000
Sym=     8a  
Ene=     0.2679
Spin= Beta
Occup=    0.00000
   1         0.00000000
   2         0.00000000
   3        -0.97089559
   4        -0.29762660
   5         0.00000000
   6         0.00000000
   7        -0.00000000
   8         0.84397951
   9         0.25872066
  10         0.00000000
Sym=     9a  
Ene=     0.2580
Spin= Alpha
Occup=    0.00000
   1        -0.00000000
   2         0.00000000
   3        -0.86505294
   4        -0.26518069
   5        -0.00000000
   6         0.00000000
   7         0.00000000
   8         0.95558861
   9         0.29293427
  10         0.00000000
Sym=     9a  
Ene=     0.3002
Spin= Beta
Occup=    0.00000
   1         0.00000000
   2         0.00000000
   3         0.30445707
   4        -0.99317745
   5         0.00000000
   6        -0.00000000
   7        -0.00000000
   8        -0.24784860
   9         0.80851345
  10         0.00000000
Sym=    10a  
Ene=     0.6133
Spin= Alpha
Occup=    0.00000
   1         0.32674895
   2         2.00059545
   3        -0.00000000
   4         0.00000000
   5         1.10400346
   6        -0.35909131
   7        -1.70758369
   8         0.00000000
   9        -0.00000000
  10         1.63949996
Sym=    10a  
Ene=     0.6192
Spin= Beta
Occup=    0.00000
   1         0.32524782
   2         1.98682919
   3        -0.00000000
   4         0.00000000
   5         1.16366489
   6        -0.36818375
   7        -1.79117471
   8         0.00000000
   9        -0.00000000
  10         1.56876175
