   This run of MOLCAS is using the pymolcas driver

                             OPE
                             OPE          NMOL  CASOP  ENMOLC A   SO
                 OPE        NMOLC        AS  OP EN  MO LC     AS  OP
                OPENM       OL CA        SO  PE NM  OL CA     SOP EN
                OP EN      MO   LC       AS  OP ENMOL  CASO   PENMOL
                OP  EN     MO   LC       AS  OP EN     MO     LC ASO
               OP   E  NMOL  C  AS       OP  EN MO     LC     AS  OP
               OP  E   NMO   LC AS        OPEN  MO     LCASOP EN   M
               O  PEN   MO  LCA  SO
            OPE   NMO   L   CAS    OP
        OPENMOL  CASOP     ENMOL   CASOPE
     OPENMOLCA   SOPENMOLCASOPEN   MOLCASOPE
    OPENMOLCAS   OP           EN   MOL    CAS
    OPENMOLCAS       OP  ENM        O     LCA
    OPENMOLCAS    OPEN  MOLCASO     P  E  NMO
    OPENMOLCAS     OP               E  N  MOL
    OPENMOLCA   SO           PENM   O  L  CAS    OPEN    MO    LCAS
    OPENMOLCA   SOP           ENM   O  L  CAS   OP  EN  MOLC  AS   O
    OPENMOLCA   SOPE           NM      O  LCA   S      OP  EN MO
    OPENMOLC                AS         O  PEN   M      OL  CA  SOPE
    OPENMO        LCASOPE  NMOL        C  ASO   P      ENMOLC     AS
    OPE     NMO      LCA  SO     P     E   NM   OL  CA SO  PE N   MO
          OPENMOLCA            SOPE   NMO        LCAS  O    P  ENMO
     OPENMOLCASOPENMOLCASOPENMOLCASOPENMOLCA
        OPENMOLCASOPENMOLCASOPENMOLCASOPE
            OPENMOLCASOPENMOLCASOPENM
               OPENMOLCASOPENMOLCA        version: f37762c57
                   OPENMOLCASO
                       OPE                tag:

 OpenMolcas is free software; you can redistribute it and/or modify it
 under the terms of the GNU Lesser General Public License version 2.1.
 OpenMolcas is distributed in the hope that it will be useful, but it
 is provided "as is" and without any express or implied warranties.
 For more details see the full text of the license in the file
 LICENSE or in <http://www.gnu.org/licenses/>.

                 Copyright (C) The OpenMolcas Authors
           For the author list and the recommended citation,
                   consult the file CONTRIBUTORS.md

           *************************************************
           * pymolcas version py2.28                       *
           *   build c4a6d18ded8cb6cad61d2372a9abd97c      *
           *   (after the EMIL interpreter by V. Veryazov) *
           *************************************************

configuration info
------------------
C Compiler ID: Intel
C flags: -std=gnu99 -gcc-sys
Fortran Compiler ID: IntelLLVM
Fortran flags: -standard-semantics -fltconsistency -fpp -i8 -heap-arrays
Definitions: _MOLCAS_;_I8_;_LINUX_
Parallel: OFF (GA=OFF)


   ------------------------------------------------------------------------------------
  |
  |              Project: 2.98
  |       Submitted from: /home/grierjones/DDCASPT2/iron_oxo_DDCASPT2/MScaspt2iron/2.98
  |         Scratch area: /tmp/2.98
  |      Save outputs to: /home/grierjones/DDCASPT2/iron_oxo_DDCASPT2/MScaspt2iron/2.98
  |               Molcas: /home/grierjones/Test/build
  |
  | Scratch area is empty
  |
  |       MOLCAS_DRIVER = /usr/local/pymolcas
  | MOLCAS_KEEP_WORKDIR = NO
  |  MOLCAS_NEW_WORKDIR = YES
  |       MOLCAS_NPROCS = 1
  |        MOLCAS_PRINT = NORMAL
  |       MOLCAS_SOURCE = /home/grierjones/Test
  |    MOLCAS_STRUCTURE = 0
  |
   ------------------------------------------------------------------------------------

++ ---------   Input file   ---------

&GATEWAY
coord=2.98.xyz
Basis = ANO-RCC-VTZP
Group = nosymm
End of Input

&SEWARD
End of Input

&SCF
UHF
charge
2
spin
5
FileOrb
/home/grierjones/DDCASPT2/iron_oxo_DDCASPT2/MScaspt2iron/2.96/2.96.UhfOrb

>>> COPY $WorkDir/2.98.scf.h5 $CurrDir/

&RASSCF
Title= RASSCF
FileOrb
/home/grierjones/DDCASPT2/iron_oxo_DDCASPT2/MScaspt2iron/2.96/2.96.RasOrb
CIROOT
3 3 1
NACTEL
10 0 0
RAS2
14
Symmetry
1
Spin
5
charge
2
orblisting
all

>>> COPY $WorkDir/2.98.rasscf.h5 $CurrDir/

>>> COPY $WorkDir/GMJ_Fock_MO.csv $CurrDir/2.98.GMJ_Fock_MO.csv

&MOTRA
Frozen=0
LUMORB

>>> COPY $WorkDir/GMJ_one_int_indx.csv $CurrDir/2.98.GMJ_one_int_indx.csv

>>> COPY $WorkDir/GMJ_one_int.csv $CurrDir/2.98.GMJ_one_int.csv

>>> COPY $WorkDir/GMJ_two_int_indx.csv $CurrDir/2.98.GMJ_two_int_indx.csv

>>> COPY $WorkDir/GMJ_two_int.csv $CurrDir/2.98.GMJ_two_int.csv

&CASPT2

Imaginary Shift
0.2
IPEA
0.25

Frozen
0

MAXITER
50

>>> FOREACH k IN (1,2,3)

  >>> FOREACH i IN (B,E,F,G,H)

    >>> FOREACH j IN (P,M)

      >>> IF (-FILE GMJ_e2_${i}_${j}_${k}_.csv)

        >>> COPY $WorkDir/GMJ_RHS_${i}_${j}_${k}_.csv $CurrDir/GMJ_RHS_${i}_${j}_${k}_.csv

        >>> COPY $WorkDir/GMJ_IVECW_${i}_${j}_${k}_.csv $CurrDir/GMJ_IVECW_${i}_${j}_${k}_.csv

        >>> COPY $WorkDir/GMJ_IVECX_${i}_${j}_${k}_.csv $CurrDir/GMJ_IVECX_${i}_${j}_${k}_.csv

        >>> COPY $WorkDir/GMJ_IVECC2_${i}_${j}_${k}_.csv $CurrDir/GMJ_IVECC2_${i}_${j}_${k}_.csv

        >>> COPY $WorkDir/GMJ_e2_${i}_${j}_${k}_.csv $CurrDir/GMJ_e2_${i}_${j}_${k}_.csv

      >>> END IF

    >>> END FOREACH

  >>> END FOREACH

>>> END FOREACH

>>> FOREACH j IN (1,2,3)

  >>> FOREACH i IN (A,C,D)

    >>> IF (-FILE GMJ_e2_${i}_${j}_.csv)

      >>> COPY $WorkDir/GMJ_RHS_${i}_${j}_.csv $CurrDir/GMJ_RHS_${i}_${j}_.csv

      >>> COPY $WorkDir/GMJ_IVECW_${i}_${j}_.csv $CurrDir/GMJ_IVECW_${i}_${j}_.csv

      >>> COPY $WorkDir/GMJ_IVECX_${i}_${j}_.csv $CurrDir/GMJ_IVECX_${i}_${j}_.csv

      >>> COPY $WorkDir/GMJ_IVECC2_${i}_${j}_.csv $CurrDir/GMJ_IVECC2_${i}_${j}_.csv

      >>> COPY $WorkDir/GMJ_e2_${i}_${j}_.csv $CurrDir/GMJ_e2_${i}_${j}_.csv

    >>> END IF

  >>> END FOREACH

>>> END FOREACH

-- ----------------------------------

--- Start Module: gateway at Thu Apr 17 23:36:25 2025 ---
 
()()()()()()()()()()()()()()()()()()()()()()()()()()()()()()()()()()()()()()()()()()()()()()()()()()

                                              &GATEWAY

                                   only a single process is used
                       available to each process: 2.0 GB of memory, 1 thread?
()()()()()()()()()()()()()()()()()()()()()()()()()()()()()()()()()()()()()()()()()()()()()()()()()()
 
 
++    Symmetry information:
      ---------------------
 
                    Character Table for C1 
 
                             E  
                    a        1  x, y, xy, Rz, z, xz, Ry, yz, Rx, I
--
 
 
++    Basis set information:
      ----------------------
 
 
      Basis set label: O.ANO-RCC...4S3P2D1F.
 
      Electronic valence basis set:
      ------------------
      Associated Effective Charge   8.000000 au
      Associated Actual Charge      8.000000 au
      Nuclear Model: Point charge
 
      Shell  nPrim  nBasis  Cartesian Spherical Contaminant
         s      14       4        X                  
         p       9       3        X                  
         d       4       2                 X         
         f       3       1                 X         
 
 
      Basis set label: FE.ANO-RCC...6S5P3D2F1G.
 
      Electronic valence basis set:
      ------------------
      Associated Effective Charge  26.000000 au
      Associated Actual Charge     26.000000 au
      Nuclear Model: Point charge
 
      Shell  nPrim  nBasis  Cartesian Spherical Contaminant
         s      21       6        X                  
         p      15       5        X                  
         d      10       3                 X         
         f       6       2                 X         
         g       4       1                 X         
--
 
 
++    Molecular structure info:
      -------------------------
 
                    ************************************************ 
                    **** Cartesian Coordinates / Bohr, Angstrom **** 
                    ************************************************ 
 
     Center  Label                x              y              z                     x              y              z
        1      O1               0.000000       0.000000       4.327473              0.000000       0.000000       2.290000
        2      FE2              0.000000       0.000000      -1.303911              0.000000       0.000000      -0.690000
--
 
 
            Nuclear Potential Energy             36.93585900 au
 
--- Stop Module: gateway at Thu Apr 17 23:36:25 2025 /rc=_RC_ALL_IS_WELL_ ---
*** files: xmldump
    saved to directory /home/grierjones/DDCASPT2/iron_oxo_DDCASPT2/MScaspt2iron/2.98

--- Start Module: seward at Thu Apr 17 23:36:25 2025 ---
 
()()()()()()()()()()()()()()()()()()()()()()()()()()()()()()()()()()()()()()()()()()()()()()()()()()

                                              &SEWARD

                                   only a single process is used
                       available to each process: 2.0 GB of memory, 1 thread?
()()()()()()()()()()()()()()()()()()()()()()()()()()()()()()()()()()()()()()()()()()()()()()()()()()
 
               SEWARD will generate:
                  Multipole Moment integrals up to order  2
                  Kinetic Energy integrals
                  Nuclear Attraction integrals (point charge)
                  One-Electron Hamiltonian integrals
                  Velocity integrals
                  Relativistic Douglas-Kroll-Hess integrals:
                    - Parametrization         : EXP
                    - DKH order of Hamiltonian: 2
                    - DKH order of Properties : 0
                         - multipole moment operators
                         - electric potential operators
                         - contact operators
                  Atomic mean-field integrals
                  Two-Electron Repulsion integrals
 
                   Integrals are discarded if absolute value <: 0.10E-13
                   Integral cutoff threshold is set to       <: 0.10E-15
 
            Nuclear Potential Energy             36.93585900 au
 
 
      Basis set specifications :
      Symmetry species         a  
      Basis functions           89
 
 
  Input file to MOLDEN was generated!
 
forrtl: warning (525): IEEE_DIVIDE_BY_ZERO is signaling
forrtl: warning (526): IEEE_INVALID is signaling
forrtl: warning (528): IEEE_UNDERFLOW is signaling
--- Stop Module: seward at Thu Apr 17 23:36:28 2025 /rc=_RC_ALL_IS_WELL_ ---
*** files: 2.98.GssOrb 2.98.guessorb.h5 2.98.guessorb.molden xmldump
    saved to directory /home/grierjones/DDCASPT2/iron_oxo_DDCASPT2/MScaspt2iron/2.98
--- Module seward spent 2 seconds ---

*** symbolic link created: INPORB -> 2.98.GssOrb
--- Start Module: scf at Thu Apr 17 23:36:28 2025 ---
 
()()()()()()()()()()()()()()()()()()()()()()()()()()()()()()()()()()()()()()()()()()()()()()()()()()

                                                &SCF

                                   only a single process is used
                       available to each process: 2.0 GB of memory, 1 thread?
()()()()()()()()()()()()()()()()()()()()()()()()()()()()()()()()()()()()()()()()()()()()()()()()()()
 
 *** Possible bug in opening file
 *** isFreeUnit resets the unit number
++    Input section:
      --------------
 
      Header of the integral files:
      
       Integrals generated by seward 4.2.0  , Thu Apr 17 23:36:25 2025
 
 
      Cartesian coordinates in Angstrom:
      -----------------------------------------------------
      No.  Label        X            Y            Z        
      -----------------------------------------------------
       1   O1         0.00000000   0.00000000   2.29000000
       2   FE2        0.00000000   0.00000000  -0.69000000
      -----------------------------------------------------
      Nuclear repulsion energy =   36.93585900
--
 
++    Orbital specifications:
      -----------------------
 
      Symmetry species               1
                                     a
      Frozen orbitals                0
      Occupied orbitals alpha       18
      Occupied orbitals beta        14
      Secondary orbitals alpha      71
      Secondary orbitals beta       75
      Deleted orbitals               0
      Total number of orbitals      89
      Number of basis functions     89
--
 
      Molecular charge                           2.000
 
++    Optimization specifications:
      ----------------------------
 
      SCF Algorithm: Conventional USCF
      D(i)-D(i-1) density differences are used
      Number of density matrices in core                5
      Maximum number of NDDO SCF iterations           400
      Maximum number of HF SCF iterations             400
      Threshold for SCF energy change            0.10E-08
      Threshold for density matrix               0.10E-03
      Threshold for Fock matrix                  0.15E-03
      Threshold for linear dependence            0.10E-08
      Threshold at which DIIS is turned on       0.15E+00
      Threshold at which QNR/C2DIIS is turned on 0.75E-01
      Threshold for Norm(delta) (QNR/C2DIIS)     0.20E-04
      DIIS extrapolation of the SCF procedure
      All orbitals punched on: UHFORB
--
 
      Input vectors read from INPORB
      Orbital file label: * UHF orbitals
 
 
++ Convergence information
                               UHF SCF        iterations: Energy and convergence statistics
 
Iter     Tot. SCF        One-elec.       Two-elec.     Energy      Max Dij or  Max Fij      DNorm      TNorm      AccCon     Time
         Energy          Energy          Energy        Change      Delta Norm                                                in Sec.
 
 The total and one-electron energies are shifted by a value of      1000. a.u.
 
   1  -345.199780811  -918.458480267   536.322840456   0.00E+00    0.45E-02*   0.47E-03*    0.80E+01   0.21E+03   None         0.
   2  -345.199785456  -918.483170004   536.347525548  -0.46E-05*   0.13E-02*   0.37E-03*    0.91E-02   0.21E+03   EDIIS        0.
   3  -345.199787078  -918.465851027   536.330204950  -0.16E-05*   0.21E-02*   0.17E-03*    0.36E-02   0.21E+03   c2DIIS       0.
   4  -345.199787855  -918.485326101   536.349679246  -0.78E-06*   0.21E-02*   0.18E-03*    0.40E-02   0.21E+03   QNRc2DIIS    0.
   5  -345.199788666  -918.484403544   536.348755879  -0.81E-06*   0.14E-01*   0.15E-03*    0.28E-02   0.21E+03   QNRc2DIIS    0.
   6  -345.199790382  -918.525571528   536.389922146  -0.17E-05*   0.17E-02*   0.21E-03*    0.18E-01   0.21E+03   QNRc2DIIS    0.
   7  -345.199790673  -918.511050813   536.375401140  -0.29E-06*   0.60E-03*   0.75E-04     0.23E-02   0.21E+03   QNRc2DIIS    0.
   8  -345.199790730  -918.510951865   536.375302135  -0.57E-07*   0.15E-02*   0.44E-04     0.80E-03   0.21E+03   QNRc2DIIS    0.
   9  -345.199790787  -918.514785786   536.379136000  -0.57E-07*   0.33E-03*   0.19E-04     0.19E-02   0.21E+03   QNRc2DIIS    0.
  10  -345.199790794  -918.515141843   536.379492050  -0.67E-08*   0.26E-03*   0.23E-04     0.44E-03   0.21E+03   QNRc2DIIS    0.
  11  -345.199790786  -918.515494998   536.379845212   0.74E-08*   0.68E-03*   0.28E-04     0.35E-03   0.21E+03   QNRc2DIIS    0.
  12  -345.199790784  -918.515006059   536.379356275   0.19E-08*   0.15E-03*   0.10E-04     0.92E-03   0.21E+03   QNRc2DIIS    0.
  13  -345.199790785  -918.514803149   536.379153364  -0.47E-09    0.36E-04*   0.36E-05     0.22E-03   0.21E+03   QNRc2DIIS    0.
  14  -345.199790785  -918.514860300   536.379210515  -0.44E-10    0.43E-04*   0.98E-06     0.48E-04   0.21E+03   QNRc2DIIS    0.
  15  -345.199790785  -918.514880155   536.379230371  -0.12E-10    0.13E-04    0.95E-06     0.60E-04   0.21E+03   QNRc2DIIS    0.
 
       Convergence after 15 Macro Iterations
--
 
 *****************************************************************************************************************************
 *                                                                                                                           *
 *                                             SCF/KS-DFT Program, Final results                                             *
 *                                                                                                                           *
 *                                                                                                                           *
 *                                                                                                                           *
 *                                                       Final Results                                                       *
 *                                                                                                                           *
 *****************************************************************************************************************************
 
::    Total SCF energy                              -1345.1997907848
      One-electron energy                           -1918.5148801554
      Two-electron energy                             536.3792303707
      Nuclear repulsion energy                         36.9358589998
      Kinetic energy (interpolated)                  1399.1547112218
      Virial theorem                                    0.9614374879
      Total spin, S(S+1)                                7.0429543257
      Total spin, S                                     2.2005470419
      Max non-diagonal density matrix element           0.0000108029
      Max non-diagonal Fock matrix element              0.0000013688
 
 
      All orbitals with orbital energies smaller than  E(LUMO)+0.5 are printed
 
++    Molecular orbitals:
      -------------------
 
      Title: UHF orbitals (alpha)

      Molecular orbitals for symmetry species 1: a  
 
          Orbital            1         2         3         4         5         6         7         8         9        10    
          Energy         -264.0166  -32.7997  -27.8813  -27.8813  -27.8550  -21.5094   -4.7126   -3.2878   -3.2878   -3.2241
          Occ. No.          1.0000    1.0000    1.0000    1.0000    1.0000    1.0000    1.0000    1.0000    1.0000    1.0000
 
        1 O1     1s         0.0000    0.0000    0.0000   -0.0000   -0.0000    1.0000   -0.0000    0.0000   -0.0000   -0.0000
        2 O1     2s         0.0000    0.0001    0.0000   -0.0000   -0.0000    0.0004   -0.0002    0.0000   -0.0000    0.0003
        3 O1     3s         0.0000    0.0001    0.0000   -0.0000   -0.0000   -0.0007   -0.0005    0.0000   -0.0000    0.0001
        4 O1     4s         0.0000    0.0000    0.0000   -0.0000   -0.0000    0.0004   -0.0003    0.0000   -0.0000    0.0000
        5 O1     2px        0.0000    0.0000   -0.0000   -0.0000    0.0000    0.0000    0.0000    0.0000    0.0000    0.0000
        6 O1     3px        0.0000    0.0000   -0.0000   -0.0000   -0.0000    0.0000    0.0000    0.0000    0.0000    0.0000
        7 O1     4px        0.0000    0.0000    0.0000    0.0000    0.0000    0.0000    0.0000    0.0000    0.0000    0.0000
        8 O1     2py       -0.0000   -0.0000    0.0000   -0.0000   -0.0000   -0.0000   -0.0000   -0.0000    0.0000   -0.0000
        9 O1     3py       -0.0000   -0.0000    0.0000   -0.0000    0.0000   -0.0000   -0.0000   -0.0000    0.0000   -0.0000
       10 O1     4py       -0.0000   -0.0000   -0.0000    0.0000   -0.0000   -0.0000   -0.0000   -0.0000    0.0000   -0.0000
       11 O1     2pz       -0.0000   -0.0000   -0.0000    0.0000    0.0000   -0.0002    0.0004    0.0000   -0.0000   -0.0002
       12 O1     3pz       -0.0000   -0.0000   -0.0000    0.0000    0.0001   -0.0002    0.0006    0.0000   -0.0000    0.0004
       13 O1     4pz        0.0000    0.0000   -0.0000    0.0000    0.0000   -0.0001   -0.0001    0.0000   -0.0000    0.0003
       14 O1     3d2-       0.0000    0.0000    0.0000    0.0000   -0.0000    0.0000   -0.0000    0.0000    0.0000    0.0000
       15 O1     4d2-       0.0000    0.0000    0.0000    0.0000   -0.0000   -0.0000   -0.0000    0.0000    0.0000    0.0000
       16 O1     3d1-       0.0000    0.0000   -0.0000    0.0000   -0.0000   -0.0000   -0.0000    0.0000   -0.0000   -0.0000
       17 O1     4d1-       0.0000    0.0000   -0.0000    0.0000   -0.0000    0.0000   -0.0000    0.0000   -0.0000   -0.0000
       18 O1     3d0       -0.0000    0.0000    0.0000   -0.0000   -0.0000   -0.0014   -0.0004   -0.0000    0.0000    0.0000
       19 O1     4d0       -0.0000    0.0000    0.0000   -0.0000   -0.0000    0.0013   -0.0004   -0.0000    0.0000   -0.0000
       20 O1     3d1+      -0.0000   -0.0000    0.0000    0.0000    0.0000    0.0000    0.0000   -0.0000   -0.0000    0.0000
       21 O1     4d1+      -0.0000   -0.0000    0.0000    0.0000    0.0000   -0.0000    0.0000   -0.0000   -0.0000    0.0000
       22 O1     3d2+      -0.0000   -0.0000    0.0000   -0.0000    0.0000   -0.0000    0.0000    0.0000   -0.0000   -0.0000
       23 O1     4d2+      -0.0000   -0.0000    0.0000   -0.0000    0.0000    0.0000    0.0000    0.0000   -0.0000   -0.0000
       24 O1     4f3-      -0.0000    0.0000   -0.0000   -0.0000   -0.0000   -0.0000    0.0000    0.0000    0.0000    0.0000
       25 O1     4f2-      -0.0000   -0.0000   -0.0000   -0.0000    0.0000   -0.0000    0.0000   -0.0000   -0.0000   -0.0000
       26 O1     4f1-      -0.0000    0.0000    0.0000   -0.0000    0.0000    0.0000    0.0000   -0.0000    0.0000    0.0000
       27 O1     4f0        0.0000    0.0000   -0.0000    0.0000    0.0000   -0.0000    0.0001    0.0000   -0.0000   -0.0000
       28 O1     4f1+       0.0000   -0.0000   -0.0000   -0.0000   -0.0000   -0.0000   -0.0000    0.0000    0.0000   -0.0000
       29 O1     4f2+       0.0000    0.0000   -0.0000    0.0000   -0.0000    0.0000   -0.0000   -0.0000    0.0000    0.0000
       30 O1     4f3+       0.0000   -0.0000   -0.0000    0.0000    0.0000    0.0000   -0.0000    0.0000   -0.0000   -0.0000
       31 FE2    1s         1.0000    0.0000   -0.0000    0.0000   -0.0000   -0.0000   -0.0000    0.0000   -0.0000    0.0000
       32 FE2    2s        -0.0000    1.0000    0.0000   -0.0000   -0.0010   -0.0000   -0.0024    0.0000   -0.0000   -0.0000
       33 FE2    3s         0.0000    0.0024   -0.0000    0.0000    0.0000   -0.0001    1.0000    0.0000   -0.0000   -0.0040
       34 FE2    4s        -0.0000   -0.0002   -0.0000    0.0000    0.0001   -0.0003    0.0055    0.0000   -0.0000    0.0017
       35 FE2    5s         0.0000    0.0001   -0.0000    0.0000    0.0000   -0.0000   -0.0032   -0.0000    0.0000   -0.0009
       36 FE2    6s        -0.0000   -0.0001    0.0000   -0.0000   -0.0000    0.0000    0.0017    0.0000   -0.0000    0.0001
       37 FE2    2px        0.0000   -0.0000    0.7693    0.6389    0.0000   -0.0000    0.0000   -0.0016   -0.0014   -0.0000
       38 FE2    3px        0.0000   -0.0000    0.0016    0.0014    0.0000   -0.0000   -0.0000    0.7693    0.6389    0.0000
       39 FE2    4px       -0.0000   -0.0000   -0.0002   -0.0002   -0.0000   -0.0000    0.0000    0.0000    0.0000    0.0000
       40 FE2    5px       -0.0000   -0.0000    0.0005    0.0004    0.0000   -0.0000   -0.0000   -0.0015   -0.0012   -0.0000
       41 FE2    6px        0.0000    0.0000   -0.0003   -0.0002   -0.0000   -0.0000   -0.0000    0.0008    0.0006   -0.0000
       42 FE2    2py       -0.0000    0.0000   -0.6389    0.7693   -0.0000    0.0000   -0.0000    0.0014   -0.0016    0.0000
       43 FE2    3py       -0.0000    0.0000   -0.0014    0.0016   -0.0000    0.0000    0.0000   -0.6389    0.7693   -0.0000
       44 FE2    4py        0.0000    0.0000    0.0002   -0.0002    0.0000    0.0000   -0.0000   -0.0000    0.0000   -0.0000
       45 FE2    5py        0.0000    0.0000   -0.0004    0.0005   -0.0000    0.0000    0.0000    0.0012   -0.0015    0.0000
       46 FE2    6py       -0.0000   -0.0000    0.0002   -0.0003    0.0000    0.0000    0.0000   -0.0006    0.0008    0.0000
       47 FE2    2pz        0.0000    0.0010   -0.0000    0.0000    1.0000   -0.0000   -0.0000    0.0000   -0.0000   -0.0017
       48 FE2    3pz       -0.0000    0.0000   -0.0000    0.0000    0.0017   -0.0000    0.0041   -0.0000    0.0000    1.0000
       49 FE2    4pz       -0.0000   -0.0001    0.0000   -0.0000   -0.0001   -0.0003    0.0008    0.0000   -0.0000    0.0036
       50 FE2    5pz       -0.0000   -0.0000   -0.0000    0.0000    0.0004   -0.0001    0.0000   -0.0000    0.0000   -0.0043
       51 FE2    6pz        0.0000   -0.0001    0.0000   -0.0000   -0.0002    0.0000   -0.0001   -0.0000    0.0000   -0.0003
       52 FE2    3d2-      -0.0000   -0.0000    0.0000    0.0000   -0.0000    0.0000   -0.0000   -0.0000   -0.0000   -0.0000
       53 FE2    4d2-       0.0000    0.0000   -0.0000   -0.0000    0.0000    0.0000    0.0000   -0.0000   -0.0000    0.0000
       54 FE2    5d2-      -0.0000   -0.0000    0.0000    0.0000   -0.0000    0.0000    0.0000    0.0000    0.0000   -0.0000
       55 FE2    3d1-       0.0000    0.0000   -0.0001    0.0001    0.0000    0.0000    0.0000   -0.0014    0.0017    0.0000
       56 FE2    4d1-      -0.0000   -0.0000    0.0000   -0.0000   -0.0000    0.0000   -0.0000    0.0001   -0.0002   -0.0000
       57 FE2    5d1-       0.0000    0.0000   -0.0000    0.0000    0.0000    0.0000    0.0000    0.0001   -0.0001    0.0000
       58 FE2    3d0       -0.0000   -0.0004   -0.0000    0.0000    0.0001   -0.0001   -0.0112   -0.0000    0.0000    0.0018
       59 FE2    4d0        0.0000    0.0003   -0.0000    0.0000   -0.0000   -0.0002    0.0044    0.0000   -0.0000    0.0008
       60 FE2    5d0       -0.0000   -0.0003   -0.0000    0.0000    0.0001   -0.0001   -0.0002   -0.0000    0.0000   -0.0004
       61 FE2    3d1+      -0.0000   -0.0000    0.0001    0.0001   -0.0000   -0.0000   -0.0000    0.0017    0.0014   -0.0000
       62 FE2    4d1+       0.0000    0.0000   -0.0000   -0.0000    0.0000   -0.0000    0.0000   -0.0002   -0.0001    0.0000
       63 FE2    5d1+      -0.0000   -0.0000    0.0000    0.0000   -0.0000   -0.0000   -0.0000   -0.0001   -0.0001   -0.0000
       64 FE2    3d2+       0.0000    0.0000    0.0000   -0.0000    0.0000   -0.0000    0.0000   -0.0000    0.0000    0.0000
       65 FE2    4d2+      -0.0000   -0.0000   -0.0000    0.0000   -0.0000   -0.0000   -0.0000   -0.0000    0.0000   -0.0000
       66 FE2    5d2+       0.0000    0.0000    0.0000   -0.0000    0.0000   -0.0000   -0.0000    0.0000   -0.0000    0.0000
       67 FE2    4f3-      -0.0000    0.0000   -0.0000   -0.0000   -0.0000   -0.0000    0.0000   -0.0000   -0.0000   -0.0000
       68 FE2    5f3-       0.0000   -0.0000    0.0000    0.0000    0.0000   -0.0000   -0.0000    0.0000    0.0000    0.0000
       69 FE2    4f2-       0.0000   -0.0000    0.0000    0.0000   -0.0000    0.0000   -0.0000    0.0000    0.0000   -0.0000
       70 FE2    5f2-      -0.0000    0.0000   -0.0000   -0.0000    0.0000    0.0000    0.0000   -0.0000   -0.0000    0.0000
       71 FE2    4f1-      -0.0000    0.0000    0.0001   -0.0002    0.0000    0.0000    0.0000    0.0042   -0.0051   -0.0000
       72 FE2    5f1-       0.0000   -0.0000   -0.0002    0.0002   -0.0000    0.0000   -0.0000   -0.0008    0.0010   -0.0000
       73 FE2    4f0        0.0000   -0.0000    0.0000   -0.0000   -0.0001   -0.0000    0.0000    0.0000   -0.0000   -0.0011
       74 FE2    5f0       -0.0000   -0.0000   -0.0000    0.0000    0.0001   -0.0001    0.0003   -0.0000    0.0000    0.0004
       75 FE2    4f1+       0.0000   -0.0000   -0.0002   -0.0001   -0.0000   -0.0000   -0.0000   -0.0051   -0.0042    0.0000
       76 FE2    5f1+      -0.0000    0.0000    0.0002    0.0002    0.0000   -0.0000    0.0000    0.0010    0.0008    0.0000
       77 FE2    4f2+      -0.0000    0.0000    0.0000   -0.0000    0.0000   -0.0000    0.0000    0.0000   -0.0000    0.0000
       78 FE2    5f2+       0.0000   -0.0000   -0.0000    0.0000   -0.0000   -0.0000   -0.0000   -0.0000    0.0000   -0.0000
       79 FE2    4f3+       0.0000   -0.0000   -0.0000    0.0000    0.0000    0.0000   -0.0000   -0.0000    0.0000    0.0000
       80 FE2    5f3+      -0.0000    0.0000    0.0000   -0.0000   -0.0000    0.0000    0.0000    0.0000   -0.0000   -0.0000
       81 FE2    5g4-       0.0000   -0.0000    0.0000    0.0000    0.0000    0.0000   -0.0000    0.0000    0.0000    0.0000
       82 FE2    5g3-       0.0000   -0.0000   -0.0000   -0.0000    0.0000    0.0000   -0.0000   -0.0000   -0.0000    0.0000
       83 FE2    5g2-       0.0000   -0.0000    0.0000    0.0000   -0.0000    0.0000   -0.0000    0.0000    0.0000    0.0000
       84 FE2    5g1-       0.0000   -0.0000    0.0000   -0.0000    0.0000    0.0000   -0.0000    0.0000   -0.0000    0.0000
       85 FE2    5g0       -0.0000    0.0001    0.0000   -0.0000   -0.0000   -0.0000    0.0025    0.0000   -0.0000   -0.0000
       86 FE2    5g1+      -0.0000    0.0000   -0.0000   -0.0000   -0.0000   -0.0000    0.0000   -0.0000   -0.0000   -0.0000
       87 FE2    5g2+      -0.0000    0.0000    0.0000   -0.0000    0.0000   -0.0000    0.0000    0.0000   -0.0000    0.0000
       88 FE2    5g3+      -0.0000    0.0000   -0.0000    0.0000   -0.0000   -0.0000    0.0000   -0.0000    0.0000   -0.0000
       89 FE2    5g4+       0.0000   -0.0000    0.0000   -0.0000    0.0000    0.0000   -0.0000    0.0000   -0.0000    0.0000
 
          Orbital           11        12        13        14        15        16        17        18        19        20    
          Energy           -2.0198   -1.4026   -1.4026   -1.0169   -1.0169   -0.9816   -0.9513   -0.9513   -0.5849   -0.4060
          Occ. No.          1.0000    1.0000    1.0000    1.0000    1.0000    1.0000    1.0000    1.0000    0.0000    0.0000
 
        1 O1     1s        -0.0004   -0.0000   -0.0000   -0.0000    0.0000   -0.0014    0.0000   -0.0000    0.0024   -0.0123
        2 O1     2s         0.9954   -0.0000   -0.0000   -0.0000    0.0000   -0.0231    0.0000   -0.0000    0.0418   -0.1194
        3 O1     3s        -0.0708    0.0000    0.0000    0.0000   -0.0000    0.0018   -0.0000    0.0000   -0.0122    0.0004
        4 O1     4s        -0.0107    0.0000    0.0000    0.0000   -0.0000    0.0006   -0.0000    0.0000   -0.0046    0.0033
        5 O1     2px        0.0000    0.6318   -0.7616   -0.0000    0.0000    0.0000   -0.0085   -0.0070   -0.0000   -0.0000
        6 O1     3px       -0.0000   -0.0884    0.1066    0.0000    0.0000   -0.0000    0.0014    0.0011   -0.0000   -0.0000
        7 O1     4px       -0.0000   -0.0028    0.0034    0.0000    0.0000   -0.0000   -0.0002   -0.0001    0.0000   -0.0000
        8 O1     2py       -0.0000    0.7616    0.6318   -0.0000    0.0000   -0.0000    0.0070   -0.0085    0.0001    0.0000
        9 O1     3py        0.0000   -0.1066   -0.0884    0.0000   -0.0000    0.0000   -0.0011    0.0014    0.0000    0.0000
       10 O1     4py        0.0000   -0.0034   -0.0028    0.0000   -0.0000    0.0000    0.0001   -0.0002   -0.0000    0.0000
       11 O1     2pz       -0.0207   -0.0001   -0.0001   -0.0000    0.0000   -0.0458    0.0000   -0.0000    0.9546    0.2794
       12 O1     3pz        0.0005    0.0000    0.0000   -0.0000    0.0000   -0.0013    0.0000   -0.0000    0.1022    0.0381
       13 O1     4pz        0.0022    0.0000    0.0000    0.0000   -0.0000    0.0018   -0.0000    0.0000   -0.0107   -0.0005
       14 O1     3d2-       0.0000   -0.0000    0.0000    0.0003    0.0000   -0.0000    0.0000    0.0000   -0.0000    0.0000
       15 O1     4d2-      -0.0000   -0.0000    0.0000    0.0002    0.0000   -0.0000   -0.0000   -0.0000   -0.0000    0.0000
       16 O1     3d1-      -0.0000   -0.0059   -0.0049   -0.0000    0.0000    0.0000    0.0008   -0.0010   -0.0000   -0.0000
       17 O1     4d1-       0.0000   -0.0024   -0.0020   -0.0000    0.0000    0.0000    0.0004   -0.0005   -0.0000   -0.0000
       18 O1     3d0       -0.0477    0.0000    0.0000    0.0000   -0.0000    0.0045   -0.0000    0.0000   -0.0159    0.0062
       19 O1     4d0        0.0036    0.0000    0.0000    0.0000   -0.0000    0.0018   -0.0000    0.0000   -0.0079    0.0013
       20 O1     3d1+       0.0000   -0.0049    0.0059   -0.0000   -0.0000   -0.0000   -0.0010   -0.0008    0.0000    0.0000
       21 O1     4d1+      -0.0000   -0.0020    0.0024   -0.0000   -0.0000   -0.0000   -0.0005   -0.0004    0.0000    0.0000
       22 O1     3d2+      -0.0000    0.0000    0.0000   -0.0000    0.0003    0.0000    0.0000   -0.0000    0.0000   -0.0000
       23 O1     4d2+       0.0000    0.0000    0.0000   -0.0000    0.0002    0.0000   -0.0000    0.0000    0.0000   -0.0000
       24 O1     4f3-      -0.0000    0.0000   -0.0000   -0.0000    0.0000   -0.0000   -0.0000   -0.0000    0.0000   -0.0000
       25 O1     4f2-      -0.0000   -0.0000    0.0000   -0.0001   -0.0000   -0.0000    0.0000    0.0000    0.0000    0.0000
       26 O1     4f1-       0.0000   -0.0079   -0.0065    0.0000   -0.0000    0.0000   -0.0002    0.0003   -0.0000   -0.0000
       27 O1     4f0        0.0004    0.0000    0.0000    0.0000   -0.0000    0.0000    0.0000   -0.0000   -0.0114   -0.0033
       28 O1     4f1+      -0.0000   -0.0065    0.0079    0.0000   -0.0000   -0.0000    0.0003    0.0002    0.0000    0.0000
       29 O1     4f2+       0.0000    0.0000    0.0000    0.0000   -0.0001    0.0000    0.0000   -0.0000   -0.0000   -0.0000
       30 O1     4f3+       0.0000   -0.0000   -0.0000   -0.0000   -0.0000    0.0000   -0.0000    0.0000   -0.0000   -0.0000
       31 FE2    1s         0.0000    0.0000    0.0000   -0.0000    0.0000   -0.0000    0.0000   -0.0000    0.0004    0.0001
       32 FE2    2s         0.0001    0.0000    0.0000    0.0000   -0.0000    0.0003    0.0000   -0.0000    0.0032    0.0012
       33 FE2    3s        -0.0001   -0.0000   -0.0000    0.0000   -0.0000    0.0108   -0.0000    0.0000    0.0192    0.0008
       34 FE2    4s         0.0024    0.0000    0.0000    0.0000   -0.0000    0.0181    0.0000   -0.0000   -0.1024    1.0083
       35 FE2    5s        -0.0000   -0.0000   -0.0000   -0.0000    0.0000   -0.0046   -0.0000    0.0000    0.0154   -0.0179
       36 FE2    6s         0.0002   -0.0000   -0.0000   -0.0000    0.0000   -0.0001    0.0000   -0.0000   -0.0018   -0.0262
       37 FE2    2px        0.0000    0.0000   -0.0000   -0.0000   -0.0000   -0.0000   -0.0001   -0.0000    0.0000    0.0000
       38 FE2    3px        0.0000   -0.0001    0.0002   -0.0000    0.0000   -0.0000   -0.0017   -0.0014    0.0000   -0.0000
       39 FE2    4px        0.0000    0.0031   -0.0038   -0.0000   -0.0000    0.0000    0.0109    0.0090   -0.0000    0.0000
       40 FE2    5px        0.0000    0.0017   -0.0021    0.0000    0.0000   -0.0000   -0.0004   -0.0003    0.0000    0.0000
       41 FE2    6px        0.0000    0.0016   -0.0019    0.0000    0.0000   -0.0000   -0.0012   -0.0010    0.0000    0.0000
       42 FE2    2py       -0.0000    0.0000    0.0000   -0.0000    0.0000    0.0000    0.0000   -0.0001   -0.0000   -0.0000
       43 FE2    3py       -0.0000   -0.0002   -0.0001   -0.0000    0.0000    0.0000    0.0014   -0.0017   -0.0000    0.0000
       44 FE2    4py       -0.0000    0.0038    0.0031    0.0000    0.0000   -0.0000   -0.0090    0.0109    0.0000   -0.0000
       45 FE2    5py       -0.0000    0.0021    0.0017    0.0000   -0.0000    0.0000    0.0003   -0.0004   -0.0000   -0.0000
       46 FE2    6py       -0.0000    0.0019    0.0016   -0.0000   -0.0000    0.0000    0.0010   -0.0012   -0.0000   -0.0000
       47 FE2    2pz       -0.0000   -0.0000   -0.0000   -0.0000    0.0000   -0.0001    0.0000   -0.0000    0.0006    0.0002
       48 FE2    3pz       -0.0016   -0.0000   -0.0000   -0.0000    0.0000   -0.0025    0.0000   -0.0000    0.0153    0.0030
       49 FE2    4pz        0.0020    0.0000    0.0000    0.0000   -0.0000    0.0279    0.0000   -0.0000   -0.0695    0.1453
       50 FE2    5pz        0.0002   -0.0000   -0.0000   -0.0000    0.0000   -0.0027   -0.0000    0.0000   -0.0073    0.0423
       51 FE2    6pz       -0.0000   -0.0000   -0.0000   -0.0000    0.0000   -0.0039   -0.0000    0.0000   -0.0014    0.0290
       52 FE2    3d2-       0.0000   -0.0000    0.0000    0.9986    0.0305   -0.0000   -0.0000   -0.0000   -0.0000   -0.0000
       53 FE2    4d2-      -0.0000   -0.0000    0.0000   -0.0320   -0.0010    0.0000   -0.0000   -0.0000   -0.0000   -0.0000
       54 FE2    5d2-      -0.0000   -0.0000    0.0000   -0.0269   -0.0008    0.0000    0.0000    0.0000   -0.0000   -0.0000
       55 FE2    3d1-      -0.0000    0.0030    0.0025    0.0000   -0.0000   -0.0001   -0.6387    0.7690   -0.0000    0.0000
       56 FE2    4d1-      -0.0000    0.0020    0.0017   -0.0000    0.0000    0.0000    0.0038   -0.0046    0.0000   -0.0000
       57 FE2    5d1-      -0.0000    0.0018    0.0015   -0.0000    0.0000    0.0000    0.0127   -0.0153    0.0000   -0.0000
       58 FE2    3d0        0.0030    0.0000    0.0000    0.0000   -0.0000    0.9962   -0.0001    0.0001    0.0904   -0.0006
       59 FE2    4d0        0.0003    0.0000    0.0000   -0.0000    0.0000   -0.0125    0.0000   -0.0000   -0.0204    0.0004
       60 FE2    5d0        0.0000   -0.0000   -0.0000   -0.0000    0.0000   -0.0216    0.0000   -0.0000   -0.0143    0.0070
       61 FE2    3d1+       0.0000    0.0025   -0.0030    0.0000   -0.0000    0.0000    0.7690    0.6387    0.0000   -0.0000
       62 FE2    4d1+       0.0000    0.0017   -0.0020   -0.0000   -0.0000   -0.0000   -0.0046   -0.0038   -0.0000    0.0000
       63 FE2    5d1+       0.0000    0.0015   -0.0018   -0.0000    0.0000   -0.0000   -0.0153   -0.0127   -0.0000    0.0000
       64 FE2    3d2+      -0.0000   -0.0000   -0.0000   -0.0305    0.9986    0.0000   -0.0000    0.0000    0.0000    0.0000
       65 FE2    4d2+       0.0000    0.0000    0.0000    0.0010   -0.0320   -0.0000   -0.0000    0.0000    0.0000    0.0000
       66 FE2    5d2+       0.0000    0.0000    0.0000    0.0008   -0.0269   -0.0000    0.0000   -0.0000    0.0000    0.0000
       67 FE2    4f3-       0.0000    0.0000   -0.0000    0.0000   -0.0000    0.0000    0.0000    0.0000    0.0000   -0.0000
       68 FE2    5f3-      -0.0000    0.0000   -0.0000    0.0000   -0.0000    0.0000    0.0000    0.0000    0.0000   -0.0000
       69 FE2    4f2-      -0.0000   -0.0000    0.0000    0.0022    0.0001   -0.0000   -0.0000   -0.0000   -0.0000    0.0000
       70 FE2    5f2-      -0.0000   -0.0000    0.0000    0.0011    0.0000   -0.0000   -0.0000   -0.0000    0.0000    0.0000
       71 FE2    4f1-      -0.0000    0.0003    0.0002    0.0000   -0.0000   -0.0000   -0.0023    0.0028    0.0000   -0.0000
       72 FE2    5f1-      -0.0000    0.0003    0.0002    0.0000   -0.0000   -0.0000   -0.0015    0.0019    0.0000   -0.0000
       73 FE2    4f0        0.0003    0.0000    0.0000    0.0000   -0.0000    0.0045   -0.0000    0.0000   -0.0035    0.0000
       74 FE2    5f0        0.0002    0.0000    0.0000    0.0000   -0.0000    0.0032   -0.0000    0.0000   -0.0030   -0.0000
       75 FE2    4f1+       0.0000    0.0002   -0.0003    0.0000   -0.0000    0.0000    0.0028    0.0023   -0.0000    0.0000
       76 FE2    5f1+       0.0000    0.0002   -0.0003    0.0000   -0.0000    0.0000    0.0019    0.0015   -0.0000    0.0000
       77 FE2    4f2+       0.0000    0.0000    0.0000   -0.0001    0.0022    0.0000   -0.0000    0.0000    0.0000   -0.0000
       78 FE2    5f2+       0.0000    0.0000    0.0000   -0.0000    0.0011    0.0000   -0.0000    0.0000   -0.0000   -0.0000
       79 FE2    4f3+      -0.0000   -0.0000   -0.0000    0.0000    0.0000   -0.0000    0.0000   -0.0000   -0.0000    0.0000
       80 FE2    5f3+       0.0000   -0.0000   -0.0000    0.0000    0.0000   -0.0000    0.0000   -0.0000   -0.0000    0.0000
       81 FE2    5g4-       0.0000   -0.0000    0.0000    0.0000   -0.0000   -0.0000   -0.0000   -0.0000    0.0000    0.0000
       82 FE2    5g3-       0.0000   -0.0000    0.0000   -0.0000    0.0000    0.0000   -0.0000   -0.0000    0.0000   -0.0000
       83 FE2    5g2-      -0.0000   -0.0000    0.0000   -0.0048   -0.0001    0.0000   -0.0000   -0.0000   -0.0000   -0.0000
       84 FE2    5g1-      -0.0000    0.0000    0.0000   -0.0000    0.0000    0.0000    0.0019   -0.0022    0.0000   -0.0000
       85 FE2    5g0        0.0000    0.0000    0.0000   -0.0000    0.0000   -0.0017    0.0000   -0.0000   -0.0005    0.0002
       86 FE2    5g1+       0.0000    0.0000   -0.0000   -0.0000   -0.0000   -0.0000   -0.0022   -0.0019   -0.0000    0.0000
       87 FE2    5g2+       0.0000    0.0000    0.0000    0.0001   -0.0048   -0.0000    0.0000   -0.0000    0.0000    0.0000
       88 FE2    5g3+      -0.0000    0.0000    0.0000   -0.0000   -0.0000   -0.0000   -0.0000    0.0000   -0.0000    0.0000
       89 FE2    5g4+       0.0000    0.0000    0.0000    0.0000    0.0000   -0.0000   -0.0000    0.0000    0.0000    0.0000
 
          Orbital           21        22        23        24        25        26    
          Energy           -0.2848   -0.2848   -0.2714   -0.1934   -0.1334   -0.1334
          Occ. No.          0.0000    0.0000    0.0000    0.0000    0.0000    0.0000
 
        1 O1     1s        -0.0000    0.0000   -0.0257   -0.0127    0.0000   -0.0000
        2 O1     2s        -0.0000    0.0000   -0.2319   -0.1100    0.0000   -0.0000
        3 O1     3s         0.0000   -0.0000    0.0230    0.0038   -0.0000    0.0000
        4 O1     4s         0.0000   -0.0000    0.0163    0.0065   -0.0000    0.0000
        5 O1     2px       -0.0281   -0.0237   -0.0000    0.0000    0.0610    0.0733
        6 O1     3px        0.0889    0.0750   -0.0000    0.0000    0.5030    0.6042
        7 O1     4px        0.0326    0.0275   -0.0000    0.0000    0.1883    0.2262
        8 O1     2py        0.0237   -0.0281    0.0000   -0.0000    0.0733   -0.0610
        9 O1     3py       -0.0750    0.0889    0.0000   -0.0000    0.6042   -0.5030
       10 O1     4py       -0.0275    0.0326    0.0000   -0.0000    0.2262   -0.1883
       11 O1     2pz        0.0000   -0.0000    0.2218   -0.0688   -0.0000    0.0000
       12 O1     3pz        0.0000   -0.0000    0.1008    0.1697   -0.0000    0.0000
       13 O1     4pz        0.0000   -0.0000    0.0274    0.0724   -0.0000    0.0000
       14 O1     3d2-       0.0000    0.0000    0.0000    0.0000   -0.0000   -0.0000
       15 O1     4d2-      -0.0000   -0.0000    0.0000    0.0000   -0.0000   -0.0000
       16 O1     3d1-       0.0097   -0.0115   -0.0000    0.0000   -0.0072    0.0060
       17 O1     4d1-       0.0058   -0.0069   -0.0000    0.0000   -0.0052    0.0043
       18 O1     3d0       -0.0000    0.0000    0.0022   -0.0196   -0.0000    0.0000
       19 O1     4d0       -0.0000    0.0000   -0.0051   -0.0151    0.0000   -0.0000
       20 O1     3d1+      -0.0115   -0.0097    0.0000   -0.0000   -0.0060   -0.0072
       21 O1     4d1+      -0.0069   -0.0058    0.0000   -0.0000   -0.0043   -0.0052
       22 O1     3d2+       0.0000   -0.0000   -0.0000   -0.0000    0.0000   -0.0000
       23 O1     4d2+      -0.0000    0.0000   -0.0000   -0.0000    0.0000   -0.0000
       24 O1     4f3-      -0.0000   -0.0000   -0.0000   -0.0000   -0.0000   -0.0000
       25 O1     4f2-       0.0000    0.0000    0.0000   -0.0000    0.0000    0.0000
       26 O1     4f1-      -0.0010    0.0011   -0.0000    0.0000    0.0014   -0.0012
       27 O1     4f0       -0.0000    0.0000   -0.0008    0.0031   -0.0000    0.0000
       28 O1     4f1+       0.0011    0.0010    0.0000   -0.0000    0.0012    0.0014
       29 O1     4f2+       0.0000   -0.0000   -0.0000    0.0000   -0.0000    0.0000
       30 O1     4f3+      -0.0000    0.0000    0.0000    0.0000    0.0000   -0.0000
       31 FE2    1s         0.0000   -0.0000    0.0003    0.0005   -0.0000    0.0000
       32 FE2    2s         0.0000   -0.0000    0.0024    0.0038   -0.0000    0.0000
       33 FE2    3s         0.0000   -0.0000    0.0127    0.0209   -0.0000    0.0000
       34 FE2    4s        -0.0000    0.0000   -0.0649    0.1410   -0.0000    0.0000
       35 FE2    5s         0.0000   -0.0000    0.1422    0.8331    0.0000   -0.0000
       36 FE2    6s         0.0000   -0.0000    0.0425    0.4545    0.0000   -0.0000
       37 FE2    2px        0.0000    0.0000    0.0000   -0.0000   -0.0005   -0.0006
       38 FE2    3px       -0.0015   -0.0012   -0.0000   -0.0000   -0.0097   -0.0117
       39 FE2    4px        0.6922    0.5838   -0.0000   -0.0000   -0.2804   -0.3369
       40 FE2    5px        0.1735    0.1464   -0.0000   -0.0000   -0.0507   -0.0609
       41 FE2    6px        0.1152    0.0971   -0.0000   -0.0000   -0.0270   -0.0324
       42 FE2    2py       -0.0000    0.0000   -0.0000    0.0000   -0.0006    0.0005
       43 FE2    3py        0.0012   -0.0015    0.0000    0.0000   -0.0117    0.0097
       44 FE2    4py       -0.5838    0.6922    0.0000    0.0000   -0.3369    0.2804
       45 FE2    5py       -0.1464    0.1735    0.0000    0.0000   -0.0609    0.0507
       46 FE2    6py       -0.0971    0.1152    0.0000    0.0000   -0.0324    0.0270
       47 FE2    2pz        0.0000   -0.0000    0.0004    0.0005   -0.0000    0.0000
       48 FE2    3pz        0.0000   -0.0000    0.0059    0.0109   -0.0000    0.0000
       49 FE2    4pz        0.0000   -0.0000    0.9789   -0.1090   -0.0000    0.0000
       50 FE2    5pz        0.0000   -0.0000    0.2772    0.0325   -0.0000    0.0000
       51 FE2    6pz        0.0000   -0.0000    0.1916    0.0399   -0.0000    0.0000
       52 FE2    3d2-       0.0000    0.0000    0.0000    0.0000    0.0000    0.0000
       53 FE2    4d2-      -0.0000   -0.0000    0.0000    0.0000   -0.0000   -0.0000
       54 FE2    5d2-      -0.0000   -0.0000    0.0000    0.0000   -0.0000   -0.0000
       55 FE2    3d1-       0.0112   -0.0133   -0.0000   -0.0000   -0.0240    0.0200
       56 FE2    4d1-      -0.0443    0.0525    0.0000   -0.0000    0.1983   -0.1651
       57 FE2    5d1-      -0.0325    0.0385    0.0000   -0.0000    0.1461   -0.1216
       58 FE2    3d0        0.0000   -0.0000   -0.0007    0.0168   -0.0000    0.0000
       59 FE2    4d0        0.0000   -0.0000    0.0642    0.0447   -0.0000    0.0000
       60 FE2    5d0        0.0000   -0.0000    0.0457    0.0318   -0.0000    0.0000
       61 FE2    3d1+      -0.0133   -0.0112    0.0000    0.0000   -0.0200   -0.0240
       62 FE2    4d1+       0.0525    0.0443   -0.0000    0.0000    0.1651    0.1983
       63 FE2    5d1+       0.0385    0.0325   -0.0000    0.0000    0.1216    0.1461
       64 FE2    3d2+       0.0000   -0.0000   -0.0000   -0.0000   -0.0000    0.0000
       65 FE2    4d2+      -0.0000    0.0000   -0.0000   -0.0000    0.0000   -0.0000
       66 FE2    5d2+      -0.0000    0.0000   -0.0000   -0.0000    0.0000   -0.0000
       67 FE2    4f3-      -0.0000   -0.0000   -0.0000    0.0000    0.0000    0.0000
       68 FE2    5f3-      -0.0000   -0.0000   -0.0000    0.0000    0.0000    0.0000
       69 FE2    4f2-      -0.0000   -0.0000   -0.0000    0.0000    0.0000    0.0000
       70 FE2    5f2-      -0.0000   -0.0000   -0.0000    0.0000    0.0000    0.0000
       71 FE2    4f1-      -0.0003    0.0004   -0.0000    0.0000    0.0044   -0.0037
       72 FE2    5f1-       0.0003   -0.0003   -0.0000    0.0000    0.0042   -0.0035
       73 FE2    4f0       -0.0000    0.0000   -0.0004    0.0006   -0.0000    0.0000
       74 FE2    5f0       -0.0000    0.0000   -0.0003    0.0010   -0.0000    0.0000
       75 FE2    4f1+       0.0004    0.0003    0.0000   -0.0000    0.0037    0.0044
       76 FE2    5f1+      -0.0003   -0.0003    0.0000   -0.0000    0.0035    0.0042
       77 FE2    4f2+      -0.0000    0.0000    0.0000   -0.0000   -0.0000    0.0000
       78 FE2    5f2+      -0.0000    0.0000    0.0000   -0.0000   -0.0000    0.0000
       79 FE2    4f3+      -0.0000    0.0000    0.0000   -0.0000   -0.0000    0.0000
       80 FE2    5f3+      -0.0000    0.0000    0.0000   -0.0000   -0.0000    0.0000
       81 FE2    5g4-       0.0000    0.0000   -0.0000    0.0000    0.0000    0.0000
       82 FE2    5g3-       0.0000    0.0000    0.0000    0.0000    0.0000    0.0000
       83 FE2    5g2-      -0.0000   -0.0000    0.0000    0.0000   -0.0000   -0.0000
       84 FE2    5g1-      -0.0002    0.0002    0.0000    0.0000    0.0003   -0.0003
       85 FE2    5g0       -0.0000    0.0000    0.0000   -0.0001    0.0000   -0.0000
       86 FE2    5g1+       0.0002    0.0002   -0.0000   -0.0000    0.0003    0.0003
       87 FE2    5g2+      -0.0000    0.0000   -0.0000   -0.0000    0.0000   -0.0000
       88 FE2    5g3+       0.0000   -0.0000   -0.0000   -0.0000   -0.0000    0.0000
       89 FE2    5g4+       0.0000   -0.0000   -0.0000    0.0000   -0.0000    0.0000
--
 
 
  Input file to MOLDEN was generated!
 
 
++    Static properties:
      ------------------
 
 
      LoProp Charges per center
 

                   O1       FE2   
      Nuclear      8.0000  26.0000
      Electronic  -7.1345 -24.8655
 
      Total        0.8655   1.1345
--
 
 
      All orbitals with orbital energies smaller than  E(LUMO)+0.5 are printed
 
++    Molecular orbitals:
      -------------------
 
      Title: UHF orbitals (beta)

      Molecular orbitals for symmetry species 1: a  
 
          Orbital            1         2         3         4         5         6         7         8         9        10    
          Energy         -264.0156  -32.7078  -27.7824  -27.7814  -27.7814  -21.4669   -4.4371   -2.9667   -2.9164   -2.9164
          Occ. No.          1.0000    1.0000    1.0000    1.0000    1.0000    1.0000    1.0000    1.0000    1.0000    1.0000
 
        1 O1     1s         0.0000    0.0000   -0.0000   -0.0000    0.0000    1.0000    0.0001    0.0001   -0.0000    0.0000
        2 O1     2s         0.0000    0.0001   -0.0001   -0.0000    0.0000   -0.0020    0.0004    0.0019    0.0000   -0.0000
        3 O1     3s         0.0000    0.0001   -0.0002   -0.0000    0.0000   -0.0002    0.0002    0.0010   -0.0000    0.0000
        4 O1     4s        -0.0000    0.0000   -0.0001   -0.0000    0.0000   -0.0009    0.0000    0.0004   -0.0000    0.0000
        5 O1     2px       -0.0000    0.0000   -0.0000    0.0000    0.0000   -0.0000   -0.0000   -0.0000    0.0009    0.0011
        6 O1     3px       -0.0000    0.0000    0.0000   -0.0000   -0.0000   -0.0000   -0.0000    0.0000    0.0003    0.0004
        7 O1     4px       -0.0000    0.0000    0.0000   -0.0000   -0.0000   -0.0000   -0.0000    0.0000    0.0002    0.0003
        8 O1     2py        0.0000   -0.0000    0.0000   -0.0000    0.0000    0.0000    0.0000    0.0000    0.0011   -0.0009
        9 O1     3py        0.0000   -0.0000   -0.0000    0.0000   -0.0000    0.0000    0.0000   -0.0000    0.0004   -0.0003
       10 O1     4py        0.0000   -0.0000   -0.0000    0.0000   -0.0000    0.0000    0.0000   -0.0000    0.0003   -0.0002
       11 O1     2pz       -0.0000   -0.0000    0.0000    0.0000   -0.0000    0.0002    0.0003   -0.0004   -0.0000    0.0000
       12 O1     3pz       -0.0000   -0.0000    0.0000    0.0000   -0.0000    0.0004    0.0004    0.0008    0.0000   -0.0000
       13 O1     4pz        0.0000   -0.0000   -0.0000   -0.0000    0.0000    0.0002   -0.0001    0.0005    0.0000   -0.0000
       14 O1     3d2-      -0.0000    0.0000   -0.0000   -0.0000   -0.0000   -0.0000   -0.0000   -0.0000    0.0000    0.0000
       15 O1     4d2-       0.0000    0.0000    0.0000   -0.0000   -0.0000    0.0000   -0.0000   -0.0000    0.0000    0.0000
       16 O1     3d1-      -0.0000    0.0000   -0.0000    0.0000   -0.0000    0.0000   -0.0000   -0.0000   -0.0001    0.0001
       17 O1     4d1-      -0.0000    0.0000   -0.0000    0.0000   -0.0000   -0.0000    0.0000   -0.0000   -0.0000    0.0000
       18 O1     3d0       -0.0000   -0.0000   -0.0000   -0.0000    0.0000    0.0013   -0.0004   -0.0002   -0.0000    0.0000
       19 O1     4d0       -0.0000   -0.0000   -0.0000   -0.0000    0.0000   -0.0013   -0.0005   -0.0003   -0.0000    0.0000
       20 O1     3d1+       0.0000   -0.0000    0.0000   -0.0000   -0.0000   -0.0000    0.0000    0.0000   -0.0001   -0.0001
       21 O1     4d1+       0.0000   -0.0000    0.0000   -0.0000   -0.0000    0.0000   -0.0000    0.0000   -0.0000   -0.0000
       22 O1     3d2+       0.0000   -0.0000    0.0000   -0.0000    0.0000    0.0000    0.0000    0.0000    0.0000   -0.0000
       23 O1     4d2+      -0.0000   -0.0000   -0.0000   -0.0000    0.0000   -0.0000    0.0000    0.0000    0.0000   -0.0000
       24 O1     4f3-       0.0000   -0.0000    0.0000   -0.0000   -0.0000    0.0000    0.0000    0.0000   -0.0000   -0.0000
       25 O1     4f2-       0.0000    0.0000   -0.0000    0.0000    0.0000    0.0000    0.0000    0.0000    0.0000    0.0000
       26 O1     4f1-       0.0000   -0.0000    0.0000   -0.0000    0.0000    0.0000   -0.0000    0.0000    0.0000   -0.0000
       27 O1     4f0        0.0000    0.0000    0.0000    0.0000   -0.0000    0.0000    0.0001    0.0001   -0.0000    0.0000
       28 O1     4f1+      -0.0000    0.0000   -0.0000    0.0000    0.0000   -0.0000    0.0000   -0.0000    0.0000    0.0000
       29 O1     4f2+      -0.0000   -0.0000   -0.0000    0.0000   -0.0000   -0.0000   -0.0000   -0.0000   -0.0000    0.0000
       30 O1     4f3+      -0.0000    0.0000   -0.0000   -0.0000    0.0000   -0.0000   -0.0000   -0.0000    0.0000   -0.0000
       31 FE2    1s         1.0000    0.0000   -0.0000   -0.0000    0.0000    0.0000   -0.0000    0.0000    0.0000   -0.0000
       32 FE2    2s        -0.0000    1.0000   -0.0010   -0.0000    0.0000    0.0000    0.0003   -0.0000    0.0000   -0.0000
       33 FE2    3s         0.0000   -0.0003   -0.0000    0.0000   -0.0000    0.0001    1.0000   -0.0035    0.0000   -0.0000
       34 FE2    4s        -0.0000    0.0001    0.0001    0.0000   -0.0000    0.0005    0.0071    0.0027    0.0000   -0.0000
       35 FE2    5s         0.0000   -0.0002    0.0001    0.0000   -0.0000    0.0001   -0.0052   -0.0017   -0.0000    0.0000
       36 FE2    6s        -0.0000    0.0001   -0.0000   -0.0000    0.0000   -0.0001    0.0025    0.0002   -0.0000    0.0000
       37 FE2    2px       -0.0000   -0.0000   -0.0000    0.7793    0.6267    0.0000   -0.0000    0.0000    0.0013    0.0016
       38 FE2    3px       -0.0000    0.0000    0.0000   -0.0016   -0.0013    0.0000    0.0000    0.0000    0.6388    0.7692
       39 FE2    4px        0.0000   -0.0000   -0.0000    0.0003    0.0002    0.0000   -0.0000   -0.0000    0.0042    0.0051
       40 FE2    5px       -0.0000    0.0000    0.0000   -0.0006   -0.0005    0.0000    0.0000    0.0000   -0.0053   -0.0064
       41 FE2    6px        0.0000   -0.0000   -0.0000    0.0004    0.0003    0.0000    0.0000    0.0000   -0.0010   -0.0012
       42 FE2    2py        0.0000    0.0000    0.0003   -0.6267    0.7793   -0.0000    0.0000   -0.0000    0.0016   -0.0013
       43 FE2    3py        0.0000   -0.0000   -0.0000    0.0013   -0.0016   -0.0000   -0.0000   -0.0001    0.7692   -0.6388
       44 FE2    4py       -0.0000    0.0000    0.0000   -0.0002    0.0003   -0.0000    0.0000    0.0000    0.0051   -0.0042
       45 FE2    5py        0.0000   -0.0000   -0.0000    0.0005   -0.0006   -0.0000   -0.0000   -0.0000   -0.0064    0.0053
       46 FE2    6py       -0.0000    0.0000    0.0000   -0.0003    0.0004   -0.0000   -0.0000   -0.0000   -0.0012    0.0010
       47 FE2    2pz        0.0000    0.0010    1.0000    0.0002   -0.0003    0.0000    0.0000    0.0012    0.0000   -0.0000
       48 FE2    3pz       -0.0000    0.0000   -0.0012   -0.0000    0.0000    0.0001    0.0036    0.9997    0.0000   -0.0000
       49 FE2    4pz        0.0000   -0.0001    0.0004    0.0000   -0.0000    0.0005    0.0007    0.0096    0.0000   -0.0000
       50 FE2    5pz       -0.0000   -0.0000   -0.0006   -0.0000    0.0000    0.0001   -0.0004   -0.0097   -0.0000    0.0000
       51 FE2    6pz        0.0000   -0.0001    0.0005    0.0000   -0.0000    0.0000   -0.0004   -0.0027   -0.0000    0.0000
       52 FE2    3d2-       0.0000    0.0000    0.0000   -0.0000   -0.0000   -0.0000    0.0000    0.0000   -0.0000   -0.0000
       53 FE2    4d2-       0.0000    0.0000   -0.0000   -0.0000   -0.0000   -0.0000    0.0000   -0.0000   -0.0000   -0.0000
       54 FE2    5d2-      -0.0000   -0.0000    0.0000    0.0000    0.0000   -0.0000   -0.0000   -0.0000    0.0000    0.0000
       55 FE2    3d1-       0.0000    0.0000    0.0000   -0.0000    0.0001   -0.0000   -0.0000   -0.0000    0.0004   -0.0003
       56 FE2    4d1-      -0.0000   -0.0000   -0.0000    0.0000   -0.0000   -0.0000    0.0000    0.0000    0.0009   -0.0007
       57 FE2    5d1-       0.0000    0.0000    0.0000   -0.0000    0.0000   -0.0000   -0.0000   -0.0000   -0.0004    0.0003
       58 FE2    3d0        0.0000    0.0001    0.0001    0.0000   -0.0000    0.0001    0.0022    0.0038    0.0000   -0.0000
       59 FE2    4d0       -0.0000   -0.0000    0.0000    0.0000   -0.0000    0.0002    0.0002   -0.0007    0.0000   -0.0000
       60 FE2    5d0       -0.0000   -0.0001    0.0002    0.0000   -0.0000    0.0002   -0.0002   -0.0004   -0.0000    0.0000
       61 FE2    3d1+      -0.0000   -0.0000   -0.0000    0.0001    0.0000    0.0000    0.0000    0.0000    0.0003    0.0004
       62 FE2    4d1+       0.0000    0.0000    0.0000   -0.0000   -0.0000    0.0000   -0.0000   -0.0000    0.0007    0.0009
       63 FE2    5d1+      -0.0000   -0.0000   -0.0000    0.0000    0.0000    0.0000    0.0000    0.0000   -0.0003   -0.0004
       64 FE2    3d2+      -0.0000   -0.0000   -0.0000   -0.0000    0.0000    0.0000   -0.0000   -0.0000   -0.0000    0.0000
       65 FE2    4d2+      -0.0000   -0.0000    0.0000   -0.0000    0.0000    0.0000    0.0000    0.0000    0.0000   -0.0000
       66 FE2    5d2+       0.0000    0.0000   -0.0000    0.0000   -0.0000    0.0000    0.0000    0.0000   -0.0000    0.0000
       67 FE2    4f3-       0.0000   -0.0000    0.0000   -0.0000   -0.0000    0.0000   -0.0000    0.0000   -0.0000   -0.0000
       68 FE2    5f3-      -0.0000    0.0000   -0.0000    0.0000    0.0000    0.0000    0.0000    0.0000    0.0000    0.0000
       69 FE2    4f2-      -0.0000    0.0000    0.0000   -0.0000   -0.0000   -0.0000    0.0000    0.0000   -0.0000   -0.0000
       70 FE2    5f2-       0.0000   -0.0000   -0.0000    0.0000    0.0000   -0.0000   -0.0000   -0.0000    0.0000    0.0000
       71 FE2    4f1-       0.0000   -0.0000    0.0000   -0.0004    0.0005   -0.0000   -0.0000    0.0000    0.0098   -0.0082
       72 FE2    5f1-      -0.0000    0.0000   -0.0000    0.0002   -0.0003   -0.0000    0.0000    0.0000    0.0009   -0.0007
       73 FE2    4f0       -0.0000    0.0000   -0.0009   -0.0000    0.0000    0.0000    0.0002   -0.0189    0.0000   -0.0000
       74 FE2    5f0        0.0000   -0.0000    0.0006    0.0000   -0.0000    0.0001   -0.0001   -0.0004    0.0000   -0.0000
       75 FE2    4f1+      -0.0000    0.0000   -0.0000    0.0005    0.0004    0.0000    0.0000   -0.0000    0.0082    0.0098
       76 FE2    5f1+       0.0000   -0.0000    0.0000   -0.0003   -0.0002    0.0000   -0.0000   -0.0000    0.0007    0.0009
       77 FE2    4f2+       0.0000   -0.0000   -0.0000   -0.0000    0.0000    0.0000   -0.0000   -0.0000    0.0000   -0.0000
       78 FE2    5f2+      -0.0000    0.0000    0.0000    0.0000   -0.0000    0.0000    0.0000    0.0000   -0.0000    0.0000
       79 FE2    4f3+      -0.0000    0.0000   -0.0000   -0.0000    0.0000   -0.0000    0.0000   -0.0000    0.0000   -0.0000
       80 FE2    5f3+       0.0000   -0.0000    0.0000    0.0000   -0.0000   -0.0000   -0.0000   -0.0000   -0.0000    0.0000
       81 FE2    5g4-       0.0000    0.0000    0.0000   -0.0000   -0.0000    0.0000    0.0000    0.0000   -0.0000   -0.0000
       82 FE2    5g3-       0.0000    0.0000   -0.0000    0.0000    0.0000    0.0000    0.0000    0.0000    0.0000    0.0000
       83 FE2    5g2-       0.0000    0.0000    0.0000   -0.0000   -0.0000   -0.0000    0.0000   -0.0000   -0.0000   -0.0000
       84 FE2    5g1-       0.0000    0.0000    0.0000   -0.0000    0.0000   -0.0000    0.0000   -0.0000    0.0001   -0.0001
       85 FE2    5g0       -0.0000   -0.0003    0.0000    0.0000   -0.0000    0.0000   -0.0045   -0.0000    0.0000   -0.0000
       86 FE2    5g1+      -0.0000   -0.0000   -0.0000    0.0000    0.0000    0.0000   -0.0000    0.0000    0.0001    0.0001
       87 FE2    5g2+      -0.0000   -0.0000    0.0000   -0.0000    0.0000    0.0000   -0.0000    0.0000    0.0000   -0.0000
       88 FE2    5g3+      -0.0000   -0.0000    0.0000    0.0000   -0.0000   -0.0000   -0.0000   -0.0000   -0.0000    0.0000
       89 FE2    5g4+       0.0000    0.0000    0.0000   -0.0000    0.0000   -0.0000    0.0000    0.0000    0.0000   -0.0000
 
          Orbital           11        12        13        14        15        16        17        18        19        20    
          Energy           -1.8584   -1.3705   -0.7784   -0.7784   -0.5692   -0.5692   -0.3994   -0.2711   -0.2711   -0.2701
          Occ. No.          1.0000    1.0000    1.0000    1.0000    0.0000    0.0000    0.0000    0.0000    0.0000    0.0000
 
        1 O1     1s         0.0018    0.0002   -0.0000    0.0000   -0.0000    0.0000   -0.0156    0.0000   -0.0000   -0.0243
        2 O1     2s         0.9983    0.0176   -0.0000    0.0000   -0.0000    0.0000   -0.1647    0.0001   -0.0001   -0.2333
        3 O1     3s        -0.0429   -0.0127   -0.0000    0.0000    0.0000   -0.0000   -0.0064   -0.0000    0.0000    0.0090
        4 O1     4s        -0.0082   -0.0023   -0.0000    0.0000    0.0000   -0.0000    0.0027   -0.0000    0.0000    0.0125
        5 O1     2px        0.0000   -0.0000    0.1534    0.1848   -0.7384   -0.6125    0.0000   -0.1130   -0.0942   -0.0000
        6 O1     3px        0.0000    0.0000    0.0124    0.0150   -0.0952   -0.0790    0.0000    0.0357    0.0298    0.0000
        7 O1     4px       -0.0000    0.0000   -0.0047   -0.0057    0.0042    0.0035    0.0000    0.0245    0.0205    0.0000
        8 O1     2py       -0.0000    0.0001    0.1848   -0.1534    0.6125   -0.7384   -0.0000    0.0942   -0.1130    0.0000
        9 O1     3py       -0.0000   -0.0000    0.0150   -0.0124    0.0790   -0.0952   -0.0000   -0.0298    0.0357   -0.0000
       10 O1     4py        0.0000   -0.0000   -0.0057    0.0047   -0.0035    0.0042   -0.0000   -0.0205    0.0245   -0.0000
       11 O1     2pz       -0.0170    0.9904   -0.0000    0.0000   -0.0001    0.0001    0.1072   -0.0000    0.0000    0.1220
       12 O1     3pz       -0.0076   -0.1202   -0.0000    0.0000   -0.0000    0.0000   -0.0271   -0.0000    0.0000    0.0214
       13 O1     4pz        0.0017   -0.0096    0.0000   -0.0000    0.0000   -0.0000   -0.0064   -0.0000    0.0000    0.0108
       14 O1     3d2-      -0.0000    0.0000   -0.0000   -0.0000    0.0000    0.0000   -0.0000   -0.0000   -0.0000   -0.0000
       15 O1     4d2-      -0.0000    0.0000   -0.0000   -0.0000    0.0000    0.0000   -0.0000   -0.0000   -0.0000   -0.0000
       16 O1     3d1-       0.0000   -0.0000   -0.0074    0.0061   -0.0064    0.0077    0.0000    0.0096   -0.0114    0.0000
       17 O1     4d1-      -0.0000   -0.0000   -0.0042    0.0035   -0.0045    0.0054    0.0000    0.0055   -0.0066    0.0000
       18 O1     3d0        0.0563   -0.0081    0.0000   -0.0000    0.0000   -0.0000    0.0062    0.0000   -0.0000   -0.0018
       19 O1     4d0        0.0002   -0.0056    0.0000   -0.0000    0.0000   -0.0000    0.0054    0.0000   -0.0000   -0.0003
       20 O1     3d1+      -0.0000    0.0000   -0.0061   -0.0074    0.0077    0.0064   -0.0000   -0.0114   -0.0096   -0.0000
       21 O1     4d1+       0.0000    0.0000   -0.0035   -0.0042    0.0054    0.0045   -0.0000   -0.0066   -0.0055   -0.0000
       22 O1     3d2+       0.0000   -0.0000    0.0000   -0.0000    0.0000   -0.0000    0.0000   -0.0000    0.0000    0.0000
       23 O1     4d2+       0.0000   -0.0000    0.0000   -0.0000    0.0000   -0.0000    0.0000   -0.0000    0.0000    0.0000
       24 O1     4f3-       0.0000   -0.0000   -0.0000   -0.0000    0.0000    0.0000    0.0000   -0.0000   -0.0000    0.0000
       25 O1     4f2-       0.0000   -0.0000    0.0000    0.0000   -0.0000   -0.0000    0.0000   -0.0000   -0.0000    0.0000
       26 O1     4f1-      -0.0000    0.0000    0.0031   -0.0026    0.0075   -0.0091   -0.0000    0.0005   -0.0006    0.0000
       27 O1     4f0       -0.0009    0.0153   -0.0000    0.0000   -0.0000    0.0000    0.0008   -0.0000    0.0000    0.0017
       28 O1     4f1+       0.0000   -0.0000    0.0026    0.0031   -0.0091   -0.0075    0.0000   -0.0006   -0.0005   -0.0000
       29 O1     4f2+      -0.0000   -0.0000   -0.0000    0.0000   -0.0000    0.0000   -0.0000   -0.0000    0.0000   -0.0000
       30 O1     4f3+      -0.0000    0.0000    0.0000   -0.0000    0.0000   -0.0000   -0.0000   -0.0000    0.0000   -0.0000
       31 FE2    1s        -0.0000    0.0000   -0.0000    0.0000   -0.0000    0.0000   -0.0000   -0.0000    0.0000    0.0001
       32 FE2    2s        -0.0002    0.0001   -0.0000    0.0000   -0.0000    0.0000   -0.0004   -0.0000    0.0000    0.0008
       33 FE2    3s        -0.0019    0.0021    0.0000   -0.0000   -0.0000    0.0000   -0.0080   -0.0000    0.0000    0.0051
       34 FE2    4s        -0.0010   -0.0111    0.0001   -0.0000   -0.0000    0.0000    0.9817    0.0000   -0.0000   -0.1819
       35 FE2    5s        -0.0010    0.0015   -0.0000    0.0000    0.0000   -0.0000    0.0379   -0.0000    0.0000    0.0769
       36 FE2    6s         0.0007    0.0018    0.0000   -0.0000   -0.0000    0.0000   -0.0391   -0.0000    0.0000    0.0355
       37 FE2    2px        0.0000   -0.0000   -0.0001   -0.0001    0.0001    0.0001   -0.0000   -0.0002   -0.0002   -0.0000
       38 FE2    3px        0.0000   -0.0000   -0.0014   -0.0016    0.0038    0.0032    0.0000   -0.0037   -0.0031   -0.0000
       39 FE2    4px       -0.0000   -0.0000    0.0351    0.0422   -0.0053   -0.0044    0.0000    0.7052    0.5884    0.0000
       40 FE2    5px       -0.0000   -0.0000    0.0010    0.0012    0.0006    0.0005    0.0000    0.2046    0.1707    0.0000
       41 FE2    6px       -0.0000   -0.0000   -0.0012   -0.0014    0.0016    0.0013    0.0000    0.1386    0.1157    0.0000
       42 FE2    2py       -0.0000    0.0000   -0.0001    0.0001   -0.0001    0.0001    0.0000    0.0002   -0.0002    0.0000
       43 FE2    3py       -0.0000    0.0000   -0.0016    0.0014   -0.0032    0.0038   -0.0000    0.0031   -0.0037    0.0000
       44 FE2    4py        0.0000    0.0000    0.0422   -0.0351    0.0044   -0.0053   -0.0000   -0.5884    0.7052   -0.0004
       45 FE2    5py        0.0000    0.0000    0.0012   -0.0010   -0.0005    0.0006   -0.0000   -0.1707    0.2046   -0.0001
       46 FE2    6py        0.0000    0.0000   -0.0014    0.0012   -0.0013    0.0016   -0.0000   -0.1157    0.1386   -0.0001
       47 FE2    2pz       -0.0001    0.0002   -0.0000    0.0000   -0.0000    0.0000   -0.0001    0.0000   -0.0000   -0.0001
       48 FE2    3pz       -0.0040    0.0060   -0.0000    0.0000   -0.0000    0.0000   -0.0041    0.0000   -0.0000   -0.0031
       49 FE2    4pz       -0.0008   -0.0067    0.0000   -0.0000    0.0000   -0.0000    0.2227   -0.0002    0.0003    0.9517
       50 FE2    5pz       -0.0011    0.0006    0.0000   -0.0000    0.0000   -0.0000    0.0618   -0.0001    0.0001    0.2804
       51 FE2    6pz       -0.0009    0.0014   -0.0000    0.0000    0.0000   -0.0000    0.0408   -0.0000    0.0001    0.1921
       52 FE2    3d2-      -0.0000    0.0000   -0.0000   -0.0000   -0.0000   -0.0000   -0.0000    0.0000    0.0000   -0.0000
       53 FE2    4d2-      -0.0000    0.0000   -0.0000   -0.0000   -0.0000   -0.0000   -0.0000    0.0000    0.0000   -0.0000
       54 FE2    5d2-      -0.0000    0.0000    0.0000    0.0000    0.0000    0.0000   -0.0000   -0.0000   -0.0000   -0.0000
       55 FE2    3d1-       0.0000   -0.0000    0.7358   -0.6109   -0.1773    0.2137   -0.0001    0.0326   -0.0391    0.0000
       56 FE2    4d1-       0.0000    0.0000    0.0691   -0.0573   -0.0114    0.0137   -0.0000   -0.0347    0.0415   -0.0000
       57 FE2    5d1-       0.0000    0.0000    0.0081   -0.0067    0.0011   -0.0013   -0.0000   -0.0280    0.0335   -0.0000
       58 FE2    3d0        0.0006   -0.0039    0.0001   -0.0001   -0.0000    0.0000    0.0217   -0.0000    0.0000    0.0718
       59 FE2    4d0       -0.0006   -0.0017    0.0000   -0.0000    0.0000   -0.0000    0.0255   -0.0000    0.0000    0.0841
       60 FE2    5d0       -0.0009    0.0004    0.0000   -0.0000    0.0000   -0.0000    0.0182   -0.0000    0.0000    0.0540
       61 FE2    3d1+      -0.0000    0.0000    0.6109    0.7358    0.2137    0.1773    0.0000   -0.0391   -0.0326   -0.0000
       62 FE2    4d1+      -0.0000   -0.0000    0.0573    0.0691    0.0137    0.0114    0.0000    0.0415    0.0347    0.0000
       63 FE2    5d1+      -0.0000   -0.0000    0.0067    0.0081   -0.0013   -0.0011    0.0000    0.0335    0.0280    0.0000
       64 FE2    3d2+       0.0000   -0.0000    0.0000   -0.0000   -0.0000    0.0000    0.0000    0.0000   -0.0000    0.0000
       65 FE2    4d2+       0.0000   -0.0000    0.0000   -0.0000   -0.0000    0.0000    0.0000    0.0000   -0.0000    0.0000
       66 FE2    5d2+       0.0000   -0.0000   -0.0000    0.0000   -0.0000    0.0000    0.0000    0.0000   -0.0000    0.0000
       67 FE2    4f3-       0.0000   -0.0000   -0.0000   -0.0000    0.0000    0.0000    0.0000   -0.0000   -0.0000    0.0000
       68 FE2    5f3-       0.0000   -0.0000   -0.0000   -0.0000    0.0000    0.0000    0.0000   -0.0000   -0.0000    0.0000
       69 FE2    4f2-      -0.0000    0.0000   -0.0000   -0.0000   -0.0000   -0.0000   -0.0000    0.0000    0.0000   -0.0000
       70 FE2    5f2-      -0.0000    0.0000    0.0000    0.0000   -0.0000   -0.0000   -0.0000    0.0000    0.0000   -0.0000
       71 FE2    4f1-       0.0000   -0.0000    0.0048   -0.0040    0.0014   -0.0017    0.0000   -0.0022    0.0026    0.0000
       72 FE2    5f1-       0.0000   -0.0000    0.0038   -0.0031    0.0013   -0.0015    0.0000   -0.0019    0.0023   -0.0000
       73 FE2    4f0       -0.0000   -0.0007    0.0000   -0.0000    0.0000   -0.0000   -0.0016    0.0000   -0.0000   -0.0035
       74 FE2    5f0       -0.0001   -0.0006    0.0000   -0.0000    0.0000   -0.0000   -0.0012    0.0000   -0.0000   -0.0034
       75 FE2    4f1+      -0.0000    0.0000    0.0040    0.0048   -0.0017   -0.0014   -0.0000    0.0026    0.0022   -0.0000
       76 FE2    5f1+      -0.0000    0.0000    0.0031    0.0038   -0.0015   -0.0013   -0.0000    0.0023    0.0019    0.0000
       77 FE2    4f2+       0.0000   -0.0000    0.0000   -0.0000   -0.0000    0.0000    0.0000    0.0000   -0.0000    0.0000
       78 FE2    5f2+       0.0000   -0.0000    0.0000   -0.0000   -0.0000    0.0000    0.0000    0.0000   -0.0000    0.0000
       79 FE2    4f3+      -0.0000    0.0000    0.0000   -0.0000    0.0000   -0.0000   -0.0000   -0.0000    0.0000   -0.0000
       80 FE2    5f3+      -0.0000    0.0000    0.0000   -0.0000    0.0000   -0.0000   -0.0000   -0.0000    0.0000   -0.0000
       81 FE2    5g4-      -0.0000    0.0000    0.0000    0.0000    0.0000    0.0000    0.0000   -0.0000   -0.0000   -0.0000
       82 FE2    5g3-       0.0000   -0.0000    0.0000    0.0000    0.0000    0.0000    0.0000   -0.0000   -0.0000   -0.0000
       83 FE2    5g2-      -0.0000    0.0000    0.0000    0.0000    0.0000    0.0000    0.0000    0.0000    0.0000   -0.0000
       84 FE2    5g1-       0.0000   -0.0000   -0.0012    0.0010    0.0005   -0.0006    0.0000   -0.0001    0.0001   -0.0000
       85 FE2    5g0       -0.0000   -0.0000   -0.0000    0.0000    0.0000   -0.0000   -0.0008    0.0000   -0.0000   -0.0001
       86 FE2    5g1+      -0.0000    0.0000   -0.0010   -0.0012   -0.0006   -0.0005   -0.0000    0.0001    0.0001    0.0000
       87 FE2    5g2+       0.0000   -0.0000   -0.0000    0.0000    0.0000   -0.0000   -0.0000    0.0000   -0.0000    0.0000
       88 FE2    5g3+      -0.0000    0.0000   -0.0000    0.0000    0.0000   -0.0000   -0.0000   -0.0000    0.0000    0.0000
       89 FE2    5g4+      -0.0000    0.0000   -0.0000    0.0000    0.0000   -0.0000    0.0000   -0.0000    0.0000   -0.0000
 
          Orbital           21        22        23        24        25        26        27    
          Energy           -0.1937   -0.1779   -0.1779   -0.1515   -0.0911   -0.0891   -0.0891
          Occ. No.          0.0000    0.0000    0.0000    0.0000    0.0000    0.0000    0.0000
 
        1 O1     1s        -0.0138    0.0000   -0.0000   -0.0162   -0.0147   -0.0000    0.0000
        2 O1     2s        -0.1186    0.0000   -0.0000   -0.1458   -0.1259   -0.0002    0.0002
        3 O1     3s         0.0019   -0.0000    0.0000    0.0660    0.1468    0.0002   -0.0002
        4 O1     4s         0.0076   -0.0000    0.0000    0.0313    0.0627    0.0001   -0.0001
        5 O1     2px       -0.0000    0.0000   -0.0000   -0.0000    0.0000   -0.1031   -0.0752
        6 O1     3px       -0.0000   -0.0000    0.0000    0.0000   -0.0000    0.5777    0.4215
        7 O1     4px       -0.0000   -0.0000    0.0000    0.0000   -0.0000    0.2597    0.1895
        8 O1     2py        0.0000    0.0000    0.0000    0.0000   -0.0002    0.0752   -0.1031
        9 O1     3py        0.0000   -0.0000   -0.0000   -0.0000    0.0015   -0.4215    0.5777
       10 O1     4py        0.0000   -0.0000   -0.0000   -0.0000    0.0007   -0.1895    0.2597
       11 O1     2pz        0.0297   -0.0000    0.0000    0.0925    0.2143    0.0003   -0.0003
       12 O1     3pz        0.2983   -0.0000    0.0000    0.0317    0.9780    0.0013   -0.0016
       13 O1     4pz        0.1055   -0.0000    0.0000    0.0238    0.3653    0.0005   -0.0006
       14 O1     3d2-      -0.0000    0.0001    0.0091   -0.0000    0.0000   -0.0000   -0.0000
       15 O1     4d2-      -0.0000    0.0001    0.0062   -0.0000    0.0000   -0.0000   -0.0000
       16 O1     3d1-      -0.0000    0.0000    0.0000    0.0000   -0.0000    0.0067   -0.0092
       17 O1     4d1-      -0.0000    0.0000    0.0000    0.0000   -0.0000    0.0043   -0.0059
       18 O1     3d0       -0.0264   -0.0000    0.0000    0.0168   -0.0046   -0.0000    0.0000
       19 O1     4d0       -0.0160   -0.0000    0.0000    0.0118   -0.0023   -0.0000    0.0000
       20 O1     3d1+       0.0000    0.0000   -0.0000   -0.0000    0.0000   -0.0092   -0.0067
       21 O1     4d1+       0.0000    0.0000   -0.0000   -0.0000    0.0000   -0.0059   -0.0043
       22 O1     3d2+       0.0000    0.0091   -0.0001    0.0000    0.0000   -0.0000    0.0000
       23 O1     4d2+       0.0000    0.0062   -0.0001    0.0000    0.0000   -0.0000    0.0000
       24 O1     4f3-      -0.0000   -0.0000    0.0000   -0.0000   -0.0000   -0.0000    0.0000
       25 O1     4f2-      -0.0000   -0.0000   -0.0011    0.0000   -0.0000   -0.0000   -0.0000
       26 O1     4f1-      -0.0000    0.0000   -0.0000    0.0000   -0.0000    0.0025   -0.0034
       27 O1     4f0        0.0007    0.0000   -0.0000   -0.0012   -0.0013   -0.0000    0.0000
       28 O1     4f1+       0.0000    0.0000    0.0000   -0.0000    0.0000   -0.0034   -0.0025
       29 O1     4f2+       0.0000   -0.0011    0.0000   -0.0000    0.0000   -0.0000    0.0000
       30 O1     4f3+       0.0000    0.0000    0.0000    0.0000    0.0000    0.0000    0.0000
       31 FE2    1s         0.0009   -0.0000    0.0000    0.0001    0.0030    0.0000   -0.0000
       32 FE2    2s         0.0068   -0.0000    0.0000    0.0008    0.0217    0.0000   -0.0000
       33 FE2    3s         0.0355    0.0000   -0.0000    0.0021    0.1054    0.0001   -0.0002
       34 FE2    4s         0.1766   -0.0000    0.0000    0.0191    0.4726    0.0006   -0.0008
       35 FE2    5s         0.7848   -0.0000    0.0000    0.0145   -0.3411   -0.0004    0.0006
       36 FE2    6s         0.4701   -0.0000    0.0000    0.0621   -0.2971   -0.0004    0.0005
       37 FE2    2px        0.0000    0.0000   -0.0000   -0.0000    0.0000   -0.0005   -0.0004
       38 FE2    3px        0.0000    0.0000   -0.0000   -0.0000    0.0000   -0.0110   -0.0080
       39 FE2    4px        0.0000    0.0000   -0.0000   -0.0000    0.0000   -0.2989   -0.2181
       40 FE2    5px        0.0000    0.0000   -0.0000   -0.0000    0.0000   -0.0550   -0.0402
       41 FE2    6px        0.0000    0.0000   -0.0000   -0.0000    0.0000   -0.0272   -0.0198
       42 FE2    2py       -0.0000    0.0000    0.0000    0.0000   -0.0000    0.0004   -0.0005
       43 FE2    3py       -0.0000    0.0000    0.0000    0.0000   -0.0000    0.0080   -0.0110
       44 FE2    4py       -0.0000    0.0000    0.0000    0.0000   -0.0008    0.2181   -0.2989
       45 FE2    5py       -0.0000    0.0000    0.0000    0.0000   -0.0001    0.0402   -0.0550
       46 FE2    6py       -0.0000    0.0000    0.0000    0.0000   -0.0001    0.0198   -0.0272
       47 FE2    2pz        0.0009    0.0000   -0.0000    0.0000    0.0028    0.0000   -0.0000
       48 FE2    3pz        0.0200    0.0000   -0.0000   -0.0007    0.0562    0.0001   -0.0001
       49 FE2    4pz        0.0117    0.0000   -0.0000   -0.0808    0.2291    0.0003   -0.0004
       50 FE2    5pz        0.0709    0.0000   -0.0000   -0.0416    0.1841    0.0002   -0.0003
       51 FE2    6pz        0.0688    0.0000   -0.0000   -0.0346    0.1579    0.0002   -0.0003
       52 FE2    3d2-      -0.0000    0.0123    0.8107   -0.0000    0.0000   -0.0000   -0.0000
       53 FE2    4d2-       0.0000    0.0078    0.5145   -0.0000    0.0000   -0.0000   -0.0000
       54 FE2    5d2-       0.0000    0.0042    0.2771   -0.0000    0.0000   -0.0000   -0.0000
       55 FE2    3d1-       0.0000   -0.0000   -0.0000   -0.0001   -0.0001    0.0427   -0.0585
       56 FE2    4d1-       0.0000   -0.0000   -0.0000   -0.0001    0.0007   -0.1899    0.2603
       57 FE2    5d1-       0.0000   -0.0000   -0.0000   -0.0000    0.0005   -0.1461    0.2003
       58 FE2    3d0       -0.0478   -0.0000    0.0000    0.7717   -0.0512   -0.0001    0.0001
       59 FE2    4d0        0.0038   -0.0000    0.0000    0.5435    0.1024    0.0001   -0.0001
       60 FE2    5d0        0.0136   -0.0000    0.0000    0.2984    0.0954    0.0001   -0.0001
       61 FE2    3d1+      -0.0000   -0.0000    0.0000    0.0000    0.0000   -0.0585   -0.0427
       62 FE2    4d1+      -0.0000   -0.0000    0.0000    0.0000   -0.0000    0.2603    0.1899
       63 FE2    5d1+      -0.0000   -0.0000    0.0000    0.0000   -0.0000    0.2003    0.1461
       64 FE2    3d2+       0.0000    0.8107   -0.0123    0.0000    0.0000   -0.0000    0.0000
       65 FE2    4d2+      -0.0000    0.5145   -0.0078    0.0000    0.0000   -0.0000    0.0000
       66 FE2    5d2+      -0.0000    0.2771   -0.0042    0.0000    0.0000   -0.0000    0.0000
       67 FE2    4f3-      -0.0000   -0.0000    0.0000   -0.0000   -0.0000    0.0000    0.0000
       68 FE2    5f3-      -0.0000   -0.0000    0.0000   -0.0000   -0.0000    0.0000    0.0000
       69 FE2    4f2-       0.0000    0.0001    0.0051   -0.0000    0.0000   -0.0000   -0.0000
       70 FE2    5f2-       0.0000    0.0001    0.0045   -0.0000    0.0000   -0.0000   -0.0000
       71 FE2    4f1-      -0.0000   -0.0000   -0.0000   -0.0000    0.0000   -0.0017    0.0023
       72 FE2    5f1-      -0.0000   -0.0000   -0.0000   -0.0000    0.0000   -0.0017    0.0023
       73 FE2    4f0        0.0015   -0.0000    0.0000    0.0057    0.0055    0.0000   -0.0000
       74 FE2    5f0        0.0019   -0.0000    0.0000    0.0049    0.0068    0.0000   -0.0000
       75 FE2    4f1+       0.0000   -0.0000    0.0000    0.0000   -0.0000    0.0023    0.0017
       76 FE2    5f1+       0.0000   -0.0000    0.0000    0.0000   -0.0000    0.0023    0.0017
       77 FE2    4f2+      -0.0000    0.0051   -0.0001    0.0000    0.0000   -0.0000    0.0000
       78 FE2    5f2+      -0.0000    0.0045   -0.0001    0.0000    0.0000   -0.0000    0.0000
       79 FE2    4f3+       0.0000    0.0000    0.0000    0.0000    0.0000    0.0000   -0.0000
       80 FE2    5f3+       0.0000    0.0000    0.0000    0.0000    0.0000    0.0000   -0.0000
       81 FE2    5g4-      -0.0000   -0.0000    0.0000   -0.0000    0.0000   -0.0000   -0.0000
[...]
       87 FE2    5g2+      -0.0035    0.0000    0.0000    0.9984    0.0010   -0.0001   -0.0010   -0.0000    0.0010   -0.0001
       88 FE2    5g3+      -0.0000    0.0000    0.0004   -0.0000   -0.0001   -0.0040    0.0000    0.0000    0.0000   -0.0000
       89 FE2    5g4+      -0.0000   -0.0000   -0.0000    0.0000    0.0000    0.0000    0.0000    0.0000   -0.0000    0.0000
 
          Orbital           81        82        83        84        85        86        87        88    
          Energy            7.0025    3.3317    7.0025    7.6041    3.3317    7.6041    7.0013    7.6213
          Occ. No.          0.0000    0.0000    0.0000    0.0000    0.0000    0.0000    0.0000    0.0000
 
        1 O1     1s         0.0000   -0.0000    0.0000   -0.0000   -0.0000   -0.0000    0.0000   -0.0000
        2 O1     2s         0.0000   -0.0000    0.0000   -0.0000   -0.0000   -0.0000    0.0000   -0.0000
        3 O1     3s         0.0000    0.0000    0.0000   -0.0000    0.0000   -0.0000    0.0000   -0.0000
        4 O1     4s         0.0000    0.0000    0.0000   -0.0000    0.0000   -0.0000    0.0000   -0.0000
        5 O1     2px        0.0000   -0.0000   -0.0000    0.0000   -0.0000    0.0000    0.0000    0.0000
        6 O1     3px        0.0000   -0.0000   -0.0000    0.0000   -0.0000    0.0000    0.0000    0.0000
        7 O1     4px        0.0000   -0.0000   -0.0000   -0.0000   -0.0000   -0.0000    0.0000   -0.0000
        8 O1     2py       -0.0000   -0.0000   -0.0000   -0.0000    0.0000   -0.0000    0.0000    0.0000
        9 O1     3py       -0.0000   -0.0000   -0.0000   -0.0000    0.0000   -0.0000    0.0000    0.0000
       10 O1     4py       -0.0000   -0.0000   -0.0000    0.0000    0.0000   -0.0000    0.0000   -0.0000
       11 O1     2pz       -0.0000   -0.0000   -0.0000    0.0000   -0.0000    0.0000   -0.0000    0.0000
       12 O1     3pz        0.0000   -0.0000    0.0000   -0.0000   -0.0000   -0.0000   -0.0000   -0.0000
       13 O1     4pz       -0.0000   -0.0000   -0.0000   -0.0000   -0.0000   -0.0000   -0.0000   -0.0000
       14 O1     3d2-      -0.0000   -0.0024   -0.0000    0.0000   -0.0008    0.0000    0.0000   -0.0000
       15 O1     4d2-       0.0000    0.0086   -0.0000    0.0000    0.0030    0.0000    0.0005   -0.0000
       16 O1     3d1-       0.0000    0.0000    0.0000    0.0000   -0.0000   -0.0000   -0.0000   -0.0000
       17 O1     4d1-       0.0000   -0.0000    0.0000    0.0000    0.0000   -0.0000   -0.0000   -0.0000
       18 O1     3d0        0.0000   -0.0000    0.0000   -0.0000   -0.0000   -0.0000   -0.0000   -0.0000
       19 O1     4d0       -0.0000   -0.0000   -0.0000   -0.0000   -0.0000   -0.0000   -0.0000   -0.0000
       20 O1     3d1+      -0.0000    0.0000    0.0000   -0.0000    0.0000   -0.0000   -0.0000   -0.0000
       21 O1     4d1+      -0.0000   -0.0000    0.0000   -0.0000   -0.0000   -0.0000   -0.0000   -0.0000
       22 O1     3d2+       0.0000    0.0008    0.0000    0.0000   -0.0024    0.0000    0.0029   -0.0000
       23 O1     4d2+       0.0000   -0.0030    0.0000   -0.0000    0.0086   -0.0000    0.0341   -0.0000
       24 O1     4f3-       0.0030   -0.0000    0.0001   -0.0000    0.0001   -0.0000   -0.0000   -0.0000
       25 O1     4f2-      -0.0000    0.9437    0.0000   -0.0000    0.3307   -0.0000   -0.0003    0.0000
       26 O1     4f1-      -0.0000   -0.0000   -0.0000   -0.0000    0.0001    0.0000    0.0000    0.0000
       27 O1     4f0        0.0000   -0.0000    0.0000    0.0000   -0.0000    0.0000    0.0000   -0.0000
       28 O1     4f1+       0.0000   -0.0001   -0.0000    0.0000   -0.0000    0.0000    0.0000    0.0000
       29 O1     4f2+      -0.0000   -0.3307   -0.0000    0.0000    0.9437   -0.0000   -0.0189    0.0000
       30 O1     4f3+      -0.0001   -0.0001    0.0030   -0.0000   -0.0000    0.0000    0.0000   -0.0009
       31 FE2    1s         0.0000   -0.0000   -0.0000   -0.0000   -0.0000   -0.0000   -0.0000    0.0000
       32 FE2    2s         0.0000   -0.0000   -0.0000   -0.0000   -0.0000   -0.0000   -0.0000    0.0000
       33 FE2    3s         0.0000   -0.0000   -0.0000   -0.0000   -0.0000   -0.0000   -0.0000    0.0000
       34 FE2    4s         0.0000   -0.0000   -0.0000   -0.0000   -0.0000   -0.0000   -0.0000    0.0000
       35 FE2    5s        -0.0000   -0.0000   -0.0000   -0.0000   -0.0000   -0.0000   -0.0000    0.0000
       36 FE2    6s         0.0000   -0.0001    0.0000   -0.0000   -0.0000   -0.0000   -0.0000    0.0000
       37 FE2    2px        0.0000    0.0000   -0.0000    0.0000    0.0000   -0.0000   -0.0000   -0.0000
       38 FE2    3px        0.0000    0.0000   -0.0000    0.0000    0.0000   -0.0000    0.0000   -0.0000
       39 FE2    4px       -0.0000   -0.0000    0.0000   -0.0000   -0.0000    0.0000   -0.0000    0.0000
       40 FE2    5px        0.0000    0.0000   -0.0000   -0.0000    0.0000    0.0000    0.0000    0.0000
       41 FE2    6px       -0.0000    0.0000    0.0000   -0.0000    0.0000   -0.0000   -0.0000    0.0000
       42 FE2    2py       -0.0000    0.0000   -0.0000    0.0000   -0.0000    0.0000   -0.0000   -0.0000
       43 FE2    3py       -0.0000    0.0000   -0.0000    0.0000   -0.0000    0.0000    0.0000   -0.0000
       44 FE2    4py        0.0000   -0.0000    0.0000   -0.0000    0.0000    0.0000   -0.0000    0.0000
       45 FE2    5py       -0.0000    0.0000   -0.0000   -0.0000   -0.0000    0.0000    0.0000    0.0000
       46 FE2    6py        0.0000    0.0000    0.0000    0.0000   -0.0000    0.0000   -0.0000    0.0000
       47 FE2    2pz       -0.0000   -0.0000   -0.0000   -0.0000   -0.0000   -0.0000   -0.0000    0.0000
       48 FE2    3pz        0.0000   -0.0000    0.0000   -0.0000   -0.0000   -0.0000   -0.0000    0.0000
       49 FE2    4pz       -0.0000    0.0000   -0.0000    0.0000    0.0000    0.0000    0.0000    0.0000
       50 FE2    5pz        0.0000    0.0000    0.0000    0.0000    0.0000    0.0000   -0.0000    0.0000
       51 FE2    6pz       -0.0000    0.0000   -0.0000   -0.0000    0.0000   -0.0000    0.0000    0.0000
       52 FE2    3d2-      -0.0000    0.0027    0.0000    0.0000    0.0010    0.0000   -0.0000    0.0000
       53 FE2    4d2-      -0.0000    0.0097    0.0000    0.0000    0.0034    0.0000   -0.0000   -0.0000
       54 FE2    5d2-       0.0000    0.0201    0.0000   -0.0000    0.0070   -0.0000   -0.0000    0.0000
       55 FE2    3d1-      -0.0000    0.0000   -0.0000    0.0000   -0.0000    0.0000    0.0000   -0.0000
       56 FE2    4d1-      -0.0000    0.0000   -0.0000   -0.0000   -0.0000    0.0000    0.0000    0.0000
       57 FE2    5d1-      -0.0000    0.0000   -0.0000   -0.0000   -0.0000   -0.0000    0.0000    0.0000
       58 FE2    3d0       -0.0000   -0.0000   -0.0000   -0.0000   -0.0000   -0.0000   -0.0000    0.0000
       59 FE2    4d0       -0.0000   -0.0000   -0.0000    0.0000   -0.0000    0.0000   -0.0000    0.0000
       60 FE2    5d0       -0.0000    0.0000   -0.0000   -0.0000    0.0000    0.0000   -0.0000    0.0000
       61 FE2    3d1+       0.0000    0.0000   -0.0000    0.0000    0.0000   -0.0000    0.0000   -0.0000
       62 FE2    4d1+       0.0000    0.0000   -0.0000    0.0000    0.0000    0.0000    0.0000    0.0000
       63 FE2    5d1+       0.0000    0.0000   -0.0000    0.0000    0.0000    0.0000    0.0000    0.0000
       64 FE2    3d2+      -0.0000   -0.0010   -0.0000    0.0000    0.0027   -0.0000   -0.0007    0.0000
       65 FE2    4d2+      -0.0000   -0.0034   -0.0000   -0.0000    0.0097   -0.0000   -0.0003   -0.0000
       66 FE2    5d2+      -0.0000   -0.0070   -0.0000    0.0000    0.0201    0.0000   -0.0028    0.0000
       67 FE2    4f3-       0.6161    0.0000    0.0170   -0.0000   -0.0000   -0.0000   -0.0000   -0.0000
       68 FE2    5f3-      -0.7872    0.0000   -0.0217    0.0000   -0.0000    0.0000    0.0000    0.0000
       69 FE2    4f2-       0.0000    0.0246   -0.0000    0.0000    0.0086    0.0000    0.0098   -0.0000
       70 FE2    5f2-      -0.0000    0.0080    0.0000   -0.0000    0.0028   -0.0000   -0.0125    0.0000
       71 FE2    4f1-       0.0000    0.0000    0.0000    0.0000   -0.0000   -0.0000   -0.0000   -0.0000
       72 FE2    5f1-       0.0000    0.0000    0.0000    0.0000   -0.0000   -0.0000   -0.0000   -0.0000
       73 FE2    4f0        0.0000    0.0000    0.0000    0.0000    0.0000    0.0000   -0.0000   -0.0000
       74 FE2    5f0        0.0000    0.0000    0.0000    0.0000    0.0000    0.0000   -0.0000    0.0000
       75 FE2    4f1+      -0.0000    0.0000    0.0000    0.0000    0.0000   -0.0000   -0.0000   -0.0000
       76 FE2    5f1+      -0.0000    0.0000    0.0000   -0.0000    0.0000   -0.0000   -0.0000   -0.0000
       77 FE2    4f2+       0.0000   -0.0086    0.0000    0.0000    0.0246   -0.0000    0.6172   -0.0000
       78 FE2    5f2+      -0.0000   -0.0028   -0.0000    0.0000    0.0080    0.0000   -0.7867    0.0000
       79 FE2    4f3+      -0.0170    0.0000    0.6161   -0.0000    0.0000    0.0000    0.0000   -0.0028
       80 FE2    5f3+       0.0217    0.0000   -0.7872    0.0000    0.0000   -0.0000   -0.0000    0.0025
       81 FE2    5g4-       0.0000   -0.0000   -0.0000   -0.0053    0.0000   -1.0000   -0.0000   -0.0000
       82 FE2    5g3-       0.0037   -0.0000    0.0001    0.0000    0.0000    0.0000    0.0000    0.0040
       83 FE2    5g2-       0.0000   -0.0029   -0.0000    0.0000   -0.0010    0.0000    0.0001    0.0001
       84 FE2    5g1-      -0.0000   -0.0000   -0.0000    0.0000    0.0000   -0.0000    0.0000   -0.0000
       85 FE2    5g0        0.0000    0.0000    0.0000   -0.0000    0.0000   -0.0000    0.0000   -0.0000
       86 FE2    5g1+       0.0000   -0.0000   -0.0000   -0.0000   -0.0000   -0.0000    0.0000   -0.0000
       87 FE2    5g2+       0.0000    0.0010    0.0000    0.0000   -0.0029   -0.0000    0.0061    0.0000
       88 FE2    5g3+      -0.0001   -0.0000    0.0037    0.0000   -0.0000   -0.0000   -0.0000    1.0000
       89 FE2    5g4+       0.0000   -0.0000    0.0000   -1.0000   -0.0000    0.0053    0.0000    0.0000
--
 
 
++    Molecular properties:
      ---------------------
 
      Charge (e):
                      =    2.0000
      Dipole Moment (Debye):
      Origin of the operator (Ang)=    0.0000    0.0000    0.0000
                   X=  1.7297E-06               Y= -6.9102E-05               Z=  5.3369E+00           Total=  5.3369E+00
      Center of Charge (Ang)
                     X=    0.00000018               Y=   -0.00000719               Z=    0.55555796
      Quadrupole Moment (Debye*Ang):
      Origin of the operator (Ang)=    0.0000    0.0000   -0.0273
                  XX= -1.2284E+01              XY=  1.4179E-06              XZ=  2.5811E-06              YY= -1.2284E+01
                  YZ= -1.0313E-04              ZZ=  1.3418E+01
      In traceless form (Debye*Ang)
                  XX= -1.2851E+01              XY=  2.1269E-06              XZ=  3.8716E-06              YY= -1.2851E+01
                  YZ= -1.5470E-04              ZZ=  2.5702E+01
--
 
 
  Input file to MOLDEN was generated!
 
 ###############################################################################
 ###############################################################################
 ###                                                                         ###
 ###                                                                         ###
 ###    RunFile label nBas                                                   ###
 ###    was used       86 times                                              ###
 ###                                                                         ###
 ###                                                                         ###
 ###############################################################################
 ###############################################################################
forrtl: warning (528): IEEE_UNDERFLOW is signaling
--- Stop Module: scf at Thu Apr 17 23:36:29 2025 /rc=_RC_ALL_IS_WELL_ ---
*** files: 2.98.LprOrb 2.98.LoProp.molden 2.98.scf.molden 2.98.scf.h5 2.98.UhfOrb 2.98.UnaOrb xmldump
    saved to directory /home/grierjones/DDCASPT2/iron_oxo_DDCASPT2/MScaspt2iron/2.98
--- Module scf spent 1 second ---

>>> COPY /tmp/2.98/2.98.scf.h5 /home/grierjones/DDCASPT2/iron_oxo_DDCASPT2/MScaspt2iron/2.98/

*** symbolic link created: INPORB -> 2.98.UnaOrb
--- Start Module: rasscf at Thu Apr 17 23:36:29 2025 ---
 
()()()()()()()()()()()()()()()()()()()()()()()()()()()()()()()()()()()()()()()()()()()()()()()()()()

                                              &RASSCF

                                   only a single process is used
                       available to each process: 2.0 GB of memory, 1 thread?
()()()()()()()()()()()()()()()()()()()()()()()()()()()()()()()()()()()()()()()()()()()()()()()()()()
 
 ###############################################################################
 ###############################################################################
 ###                                                                         ###
 ###                                                                         ###
 ###    LUMORB input error.                                                  ###
 ###                                                                         ###
 ###                                                                         ###
 ###############################################################################
 ###############################################################################
  Keyword LUMORB used with file name StartOrbFile=
 /home/grierjones/DDCASPT2/iron_oxo_DDCASPT2/MScaspt2iron/2.96/2.96.RasOrb      
                                                  
  but that file cannot be used. Perhaps it does
  not exist?
 
      Header of the ONEINT file:
      --------------------------
      
      Integrals generated by seward 4.2.0  , Thu Apr 17 23:36:25 2025
 
 
      OrdInt status: non-squared
 
 
      Cartesian coordinates in Angstrom:
      -----------------------------------------------------
      No.  Label        X            Y            Z        
      -----------------------------------------------------
       1   O1         0.00000000   0.00000000   2.29000000
       2   FE2        0.00000000   0.00000000  -0.69000000
      -----------------------------------------------------
      Nuclear repulsion energy =   36.93585900
 
++    Wave function specifications:
      -----------------------------
 
      Number of closed shell electrons          22
      Number of electrons in active shells      10
      Max number of holes in RAS1 space          0
      Max nr of electrons in RAS3 space          0
      Number of inactive orbitals               11
      Number of active orbitals                 14
      Number of secondary orbitals              64
      Spin quantum number                      2.0
      State symmetry                             1
--
 
++    Orbital specifications:
      -----------------------
 
      Symmetry species                           1
                                                 a
      Frozen orbitals                            0
      Inactive orbitals                         11
      Active orbitals                           14
      RAS1 orbitals                              0
      RAS2 orbitals                             14
      RAS3 orbitals                              0
      Secondary orbitals                        64
      Deleted orbitals                           0
      Number of basis functions                 89
--
 
++    CI expansion specifications:
      ----------------------------
 
      Number of CSFs                        975975
      Number of determinants               1249248
      Number of root(s) required                 3
      Root chosen for geometry opt.              3
      CI roots used                              1     2     3
      weights                                0.333 0.333 0.333
      highest root included in the CI            3
      max. size of the explicit Hamiltonian    200
--
 
++    Optimization specifications:
      ----------------------------
 
      RASSCF algorithm: Conventional
      Maximum number of macro iterations       200
      Maximum number of SX iterations          100
      Threshold for RASSCF energy            0.100E-07
      Threshold for max MO rotation          0.100E+00
      Threshold for max BLB element          0.100E-03
      Level shift parameter                  0.500E+00
      Make Quasi-Newton update
--
 
 ###############################################################################
 ###############################################################################
 ###                                                                         ###
 ###                                                                         ###
 ###    Location: rdVec_                                                     ###
 ###    File: /home/grierjones/DDCASPT2/iron_oxo_DDCASPT2/MScaspt2iron/2.96/2.96.RasOrb\n\n\n
 ###    ile: /home/grierjones/DDCASPT2/iron_oxo_DDCASPT2/MScaspt2iron/2.96/2.96.RasOrb\n\n\n
 ###    le: /home/grierjones/DDCASPT2/iron_oxo_DDCASPT2/MScaspt2iron/2.96/2.96.RasOrb\n\n\n
 ###    e: /home/grierjones/DDCASPT2/iron_oxo_DDCASPT2/MScaspt2iron/2.96/2.96.RasOrb\n\n\n
 ###    : /home/grierjones/DDCASPT2/iron_oxo_DDCASPT2/MScaspt2iron/2.96/2.96.RasOrb\n\n\n
 ###     /home/grierjones/DDCASPT2/iron_oxo_DDCASPT2/MScaspt2iron/2.96/2.96.RasOrb\n\n\n
 ###    /home/grierjones/DDCASPT2/iron_oxo_DDCASPT2/MScaspt2iron/2.96/2.96.RasOrb\n\n\n
 ###    home/grierjones/DDCASPT2/iron_oxo_DDCASPT2/MScaspt2iron/2.96/2.96.RasOrb\n\n\n
 ###    ome/grierjones/DDCASPT2/iron_oxo_DDCASPT2/MScaspt2iron/2.96/2.96.RasOrb\n\n\n
 ###    me/grierjones/DDCASPT2/iron_oxo_DDCASPT2/MScaspt2iron/2.96/2.96.RasOrb\n\n\n
 ###    e/grierjones/DDCASPT2/iron_oxo_DDCASPT2/MScaspt2iron/2.96/2.96.RasOrb\n\n\n
 ###    /grierjones/DDCASPT2/iron_oxo_DDCASPT2/MScaspt2iron/2.96/2.96.RasOrb\n\n\n
 ###    grierjones/DDCASPT2/iron_oxo_DDCASPT2/MScaspt2iron/2.96/2.96.RasOrb\n\n\n
 ###    rierjones/DDCASPT2/iron_oxo_DDCASPT2/MScaspt2iron/2.96/2.96.RasOrb\n\n\n
 ###    ierjones/DDCASPT2/iron_oxo_DDCASPT2/MScaspt2iron/2.96/2.96.RasOrb\n\n\n
 ###    erjones/DDCASPT2/iron_oxo_DDCASPT2/MScaspt2iron/2.96/2.96.RasOrb\n\n\n
 ###    rjones/DDCASPT2/iron_oxo_DDCASPT2/MScaspt2iron/2.96/2.96.RasOrb\n\n\n
 ###    jones/DDCASPT2/iron_oxo_DDCASPT2/MScaspt2iron/2.96/2.96.RasOrb\n\n\n
 ###    ones/DDCASPT2/iron_oxo_DDCASPT2/MScaspt2iron/2.96/2.96.RasOrb\n\n\n  ###
 ###    nes/DDCASPT2/iron_oxo_DDCASPT2/MScaspt2iron/2.96/2.96.RasOrb\n\n\n   ###
 ###    es/DDCASPT2/iron_oxo_DDCASPT2/MScaspt2iron/2.96/2.96.RasOrb          ###
 ###                                                                         ###
 ###                                                                         ###
 ###    Error during reading INPORB                                          ###
 ###     not defined yet                                                     ###
 ###                                                                         ###
 ###                                                                         ###
 ###############################################################################
 ###############################################################################
[ process      0]: xquit (rc =    128): _INTERNAL_ERROR_
abort: 
--- Stop Module: rasscf at Thu Apr 17 23:36:30 2025 /rc=_RC_FLOATING_EXCEPTION_ ---
*** files: xmldump
    saved to directory /home/grierjones/DDCASPT2/iron_oxo_DDCASPT2/MScaspt2iron/2.98

.########################.
.# Non-zero return code #.
.########################.

    Timing: Wall=4.92 User=4.30 System=0.61
************************************
*** WorkDir at /tmp/2.98 cleaned ***
************************************
