   This run of MOLCAS is using the pymolcas driver

                             OPE
                             OPE          NMOL  CASOP  ENMOLC A   SO
                 OPE        NMOLC        AS  OP EN  MO LC     AS  OP
                OPENM       OL CA        SO  PE NM  OL CA     SOP EN
                OP EN      MO   LC       AS  OP ENMOL  CASO   PENMOL
                OP  EN     MO   LC       AS  OP EN     MO     LC ASO
               OP   E  NMOL  C  AS       OP  EN MO     LC     AS  OP
               OP  E   NMO   LC AS        OPEN  MO     LCASOP EN   M
               O  PEN   MO  LCA  SO
            OPE   NMO   L   CAS    OP
        OPENMOL  CASOP     ENMOL   CASOPE
     OPENMOLCA   SOPENMOLCASOPEN   MOLCASOPE
    OPENMOLCAS   OP           EN   MOL    CAS
    OPENMOLCAS       OP  ENM        O     LCA
    OPENMOLCAS    OPEN  MOLCASO     P  E  NMO
    OPENMOLCAS     OP               E  N  MOL
    OPENMOLCA   SO           PENM   O  L  CAS    OPEN    MO    LCAS
    OPENMOLCA   SOP           ENM   O  L  CAS   OP  EN  MOLC  AS   O
    OPENMOLCA   SOPE           NM      O  LCA   S      OP  EN MO
    OPENMOLC                AS         O  PEN   M      OL  CA  SOPE
    OPENMO        LCASOPE  NMOL        C  ASO   P      ENMOLC     AS
    OPE     NMO      LCA  SO     P     E   NM   OL  CA SO  PE N   MO
          OPENMOLCA            SOPE   NMO        LCAS  O    P  ENMO
     OPENMOLCASOPENMOLCASOPENMOLCASOPENMOLCA
        OPENMOLCASOPENMOLCASOPENMOLCASOPE
            OPENMOLCASOPENMOLCASOPENM
               OPENMOLCASOPENMOLCA        version: ea724fe96-dirty
                   OPENMOLCASO
                       OPE                tag:

 OpenMolcas is free software; you can redistribute it and/or modify it
 under the terms of the GNU Lesser General Public License version 2.1.
 OpenMolcas is distributed in the hope that it will be useful, but it
 is provided "as is" and without any express or implied warranties.
 For more details see the full text of the license in the file
 LICENSE or in <http://www.gnu.org/licenses/>.

                 Copyright (C) The OpenMolcas Authors
           For the author list and the recommended citation,
                   consult the file CONTRIBUTORS.md

           *************************************************
           * pymolcas version py2.28                       *
           *   build c4a6d18ded8cb6cad61d2372a9abd97c      *
           *   (after the EMIL interpreter by V. Veryazov) *
           *************************************************

configuration info
------------------
C Compiler ID: Intel
C flags: -std=gnu99
Fortran Compiler ID: Intel
Fortran flags: -fpp -i8 -r8 -heap-arrays
Definitions: _MOLCAS_;_I8_;_LINUX_
Parallel: OFF (GA=OFF)


   --------------------------------------------------------------------------------
  |
  |              Project: H8_0.70
  |       Submitted from: /home/grierjones/DDCASPT2/hydrogen_comps/H8_chain/H8_0.70
  |         Scratch area: /tmp/H8_0.70
  |      Save outputs to: /home/grierjones/DDCASPT2/hydrogen_comps/H8_chain/H8_0.70
  |               Molcas: /home/grierjones/Test/build
  |
  | Scratch area is empty
  |
  |       MOLCAS_DRIVER = /usr/local/pymolcas
  | MOLCAS_KEEP_WORKDIR = NO
  |  MOLCAS_NEW_WORKDIR = YES
  |       MOLCAS_NPROCS = 1
  |        MOLCAS_PRINT = NORMAL
  |       MOLCAS_SOURCE = /home/grierjones/Test/build
  |    MOLCAS_STRUCTURE = 0
  |
   --------------------------------------------------------------------------------

++ ---------   Input file   ---------

&GATEWAY
coord=H8_0.70.xyz
Basis = ANO-RCC-VDZP
Group = nosymm
Expert
End of Input

&SEWARD
End of Input

&SCF

>>> COPY $WorkDir/H8_0.70.scf.h5 $CurrDir/

&RASSCF
Title= RASSCF
FileOrb
/home/grierjones/DDCASPT2/hydrogen_comps/H8_chain/H8_0.67/H8_0.67.RasOrb
NACTEL
8 0 0
Inactive
0
RAS2
8
Symmetry
1
Spin
1
orblisting
all
ITERation
200 100
CIMX
200
SDAV
500

>>> COPY $WorkDir/H8_0.70.rasscf.h5 $CurrDir/

>>> COPY $WorkDir/GMJ_Fock_MO.csv $CurrDir/H8_0.70.GMJ_Fock_MO.csv

>>> COPY $WorkDir/GMJ_PT2_Fock_MO.csv $CurrDir/H8_0.70.GMJ_PT2_Fock_MO.csv

&MOTRA
Frozen=0
LUMORB

>>> COPY $WorkDir/GMJ_one_int_indx.csv $CurrDir/H8_0.70.GMJ_one_int_indx.csv

>>> COPY $WorkDir/GMJ_one_int.csv $CurrDir/H8_0.70.GMJ_one_int.csv

>>> COPY $WorkDir/GMJ_two_int_indx.csv $CurrDir/H8_0.70.GMJ_two_int_indx.csv

>>> COPY $WorkDir/GMJ_two_int.csv $CurrDir/H8_0.70.GMJ_two_int.csv

&CASPT2
Frozen
0

>>> FOREACH i IN (B,E,F,G,H)

  >>> FOREACH j IN (P,M)

    >>> IF (-FILE GMJ_e2_${i}_${j}.csv)

      >>> COPY $WorkDir/GMJ_RHS_${i}_${j}.csv $CurrDir/GMJ_RHS_${i}_${j}.csv

      >>> COPY $WorkDir/GMJ_IVECW_${i}_${j}.csv $CurrDir/GMJ_IVECW_${i}_${j}.csv

      >>> COPY $WorkDir/GMJ_IVECX_${i}_${j}.csv $CurrDir/GMJ_IVECX_${i}_${j}.csv

      >>> COPY $WorkDir/GMJ_IVECC2_${i}_${j}.csv $CurrDir/GMJ_IVECC2_${i}_${j}.csv

      >>> COPY $WorkDir/GMJ_e2_${i}_${j}.csv $CurrDir/GMJ_e2_${i}_${j}.csv

    >>> END IF

  >>> END FOREACH

>>> END FOREACH

>>> FOREACH i IN (A,C,D)

  >>> IF (-FILE GMJ_e2_$i.csv)

    >>> COPY $WorkDir/GMJ_RHS_$i.csv $CurrDir/GMJ_RHS_$i.csv

    >>> COPY $WorkDir/GMJ_IVECW_$i.csv $CurrDir/GMJ_IVECW_$i.csv

    >>> COPY $WorkDir/GMJ_IVECX_$i.csv $CurrDir/GMJ_IVECX_$i.csv

    >>> COPY $WorkDir/GMJ_IVECC2_$i.csv $CurrDir/GMJ_IVECC2_$i.csv

    >>> COPY $WorkDir/GMJ_e2_$i.csv $CurrDir/GMJ_e2_$i.csv

  >>> END IF

>>> END FOREACH

-- ----------------------------------

--- Start Module: gateway at Tue Nov 12 16:14:07 2024 ---
 
()()()()()()()()()()()()()()()()()()()()()()()()()()()()()()()()()()()()()()()()()()()()()()()()()()

                                              &GATEWAY

                                   only a single process is used
                       available to each process: 2.0 GB of memory, 1 thread?
()()()()()()()()()()()()()()()()()()()()()()()()()()()()()()()()()()()()()()()()()()()()()()()()()()
 
 ###############################################################################
 ###############################################################################
 ###                                                                         ###
 ###                                                                         ###
 ###                                                                         ###
 ###    WARNING: EXPERT option is ON!                                        ###
 ###                                                                         ###
 ###                                                                         ###
 ###############################################################################
 ###############################################################################
 
++    Symmetry information:
      ---------------------
 
                    Character Table for C1 
 
                             E  
                    a        1  x, y, xy, Rz, z, xz, Ry, yz, Rx, I
--
 
 
++    Basis set information:
      ----------------------
 
 
      Basis set label: H.ANO-RCC...2S1P.
 
      Electronic valence basis set:
      ------------------
      Associated Effective Charge   1.000000 au
      Associated Actual Charge      1.000000 au
      Nuclear Model: Point charge
 
      Shell  nPrim  nBasis  Cartesian Spherical Contaminant
         s       8       2        X                  
         p       4       1        X                  
--
 
 
++    Molecular structure info:
      -------------------------
 
                    ************************************************ 
                    **** Cartesian Coordinates / Bohr, Angstrom **** 
                    ************************************************ 
 
     Center  Label                x              y              z                     x              y              z
        1      H1               0.000000       0.000000       0.000000              0.000000       0.000000       0.000000
        2      H2               0.000000       0.000000       1.317082              0.000000       0.000000       0.696970
        3      H3               0.000000       0.000000       2.634163              0.000000       0.000000       1.393939
        4      H4               0.000000       0.000000       3.951245              0.000000       0.000000       2.090909
        5      H5               0.000000       0.000000       5.268328              0.000000       0.000000       2.787879
        6      H6               0.000000       0.000000       6.585408              0.000000       0.000000       3.484848
        7      H7               0.000000       0.000000       7.902491              0.000000       0.000000       4.181818
        8      H8               0.000000       0.000000       9.219573              0.000000       0.000000       4.878788
 
                    *************************************** 
                    *    InterNuclear Distances / Bohr    * 
                    *************************************** 
 
               1 H1            2 H2            3 H3            4 H4            5 H5            6 H6    
    1 H1       0.000000
    2 H2       1.317082        0.000000
    3 H3       2.634163        1.317081        0.000000
    4 H4       3.951245        2.634163        1.317082        0.000000
    5 H5       5.268328        3.951245        2.634165        1.317082        0.000000
    6 H6       6.585408        5.268326        3.951245        2.634163        1.317081        0.000000
    7 H7       7.902491        6.585408        5.268328        3.951245        2.634163        1.317082
    8 H8       9.219573        7.902491        6.585410        5.268328        3.951245        2.634165
 
               7 H7            8 H8    
    7 H7       0.000000
    8 H8       1.317082        0.000000
 
                    ******************************************* 
                    *    InterNuclear Distances / Angstrom    * 
                    ******************************************* 
 
               1 H1            2 H2            3 H3            4 H4            5 H5            6 H6    
    1 H1       0.000000
    2 H2       0.696970        0.000000
    3 H3       1.393939        0.696969        0.000000
    4 H4       2.090909        1.393939        0.696970        0.000000
    5 H5       2.787879        2.090909        1.393940        0.696970        0.000000
    6 H6       3.484848        2.787878        2.090909        1.393939        0.696969        0.000000
    7 H7       4.181818        3.484848        2.787879        2.090909        1.393939        0.696970
    8 H8       4.878788        4.181818        3.484849        2.787879        2.090909        1.393940
 
               7 H7            8 H8    
    7 H7       0.000000
    8 H8       0.696970        0.000000
 
                    ************************************** 
                    *    Valence Bond Angles / Degree    * 
                    ************************************** 
                          Atom centers                 Phi
                      2 H2       1 H1       3 H3         0.00
                      1 H1       2 H2       3 H3       180.00
                      1 H1       2 H2       4 H4       180.00
                      3 H3       2 H2       4 H4         0.00
                      1 H1       3 H3       2 H2         0.00
                      1 H1       3 H3       4 H4       180.00
                      1 H1       3 H3       5 H5       180.00
                      2 H2       3 H3       4 H4       180.00
                      2 H2       3 H3       5 H5       180.00
                      4 H4       3 H3       5 H5         0.00
                      2 H2       4 H4       3 H3         0.00
                      2 H2       4 H4       5 H5       180.00
                      2 H2       4 H4       6 H6       180.00
                      3 H3       4 H4       5 H5       180.00
                      3 H3       4 H4       6 H6       180.00
                      5 H5       4 H4       6 H6         0.00
                      3 H3       5 H5       4 H4         0.00
                      3 H3       5 H5       6 H6       180.00
                      3 H3       5 H5       7 H7       180.00
                      4 H4       5 H5       6 H6       180.00
                      4 H4       5 H5       7 H7       180.00
                      6 H6       5 H5       7 H7         0.00
                      4 H4       6 H6       5 H5         0.00
                      4 H4       6 H6       7 H7       180.00
                      4 H4       6 H6       8 H8       180.00
                      5 H5       6 H6       7 H7       180.00
                      5 H5       6 H6       8 H8       180.00
                      7 H7       6 H6       8 H8         0.00
                      5 H5       7 H7       6 H6         0.00
                      5 H5       7 H7       8 H8       180.00
                      6 H6       7 H7       8 H8       180.00
                      6 H6       8 H8       7 H7         0.00
--
 
 
            Nuclear Potential Energy             10.43432287 au
 
 ###############################################################################
 ###############################################################################
 ###                                                                         ###
 ###                                                                         ###
 ###    There were warnings during the execution                             ###
 ###    Please, check the output with care!                                  ###
 ###                                                                         ###
 ###                                                                         ###
 ###############################################################################
 ###############################################################################
--- Stop Module: gateway at Tue Nov 12 16:14:07 2024 /rc=_RC_ALL_IS_WELL_ ---
*** files: xmldump
    saved to directory /home/grierjones/DDCASPT2/hydrogen_comps/H8_chain/H8_0.70

--- Start Module: seward at Tue Nov 12 16:14:07 2024 ---
 
()()()()()()()()()()()()()()()()()()()()()()()()()()()()()()()()()()()()()()()()()()()()()()()()()()

                                              &SEWARD

                                   only a single process is used
                       available to each process: 2.0 GB of memory, 1 thread?
()()()()()()()()()()()()()()()()()()()()()()()()()()()()()()()()()()()()()()()()()()()()()()()()()()
 
 ###############################################################################
 ###############################################################################
 ###                                                                         ###
 ###                                                                         ###
 ###                                                                         ###
 ###    WARNING: EXPERT option is ON!                                        ###
 ###                                                                         ###
 ###                                                                         ###
 ###############################################################################
 ###############################################################################
               SEWARD will generate:
                  Multipole Moment integrals up to order  2
                  Kinetic Energy integrals
                  Nuclear Attraction integrals (point charge)
                  One-Electron Hamiltonian integrals
                  Velocity integrals
                  Relativistic Douglas-Kroll-Hess integrals:
                    - Parametrization         : EXP
                    - DKH order of Hamiltonian: 2
                    - DKH order of Properties : 0
                         - multipole moment operators
                         - electric potential operators
                         - contact operators
                  Atomic mean-field integrals
                  Two-Electron Repulsion integrals
 
                   Integrals are discarded if absolute value <: 0.10E-13
                   Integral cutoff threshold is set to       <: 0.10E-15
 
            Nuclear Potential Energy             10.43432287 au
 
 
      Basis set specifications :
      Symmetry species         a  
      Basis functions           40
 
 
  Input file to MOLDEN was generated!
 
 ###############################################################################
 ###############################################################################
 ###                                                                         ###
 ###                                                                         ###
 ###    There were warnings during the execution                             ###
 ###    Please, check the output with care!                                  ###
 ###                                                                         ###
 ###                                                                         ###
 ###############################################################################
 ###############################################################################
--- Stop Module: seward at Tue Nov 12 16:14:08 2024 /rc=_RC_ALL_IS_WELL_ ---
*** files: H8_0.70.GssOrb H8_0.70.guessorb.h5 H8_0.70.guessorb.molden xmldump
    saved to directory /home/grierjones/DDCASPT2/hydrogen_comps/H8_chain/H8_0.70

*** symbolic link created: INPORB -> H8_0.70.GssOrb
--- Start Module: scf at Tue Nov 12 16:14:08 2024 ---
 
()()()()()()()()()()()()()()()()()()()()()()()()()()()()()()()()()()()()()()()()()()()()()()()()()()

                                                &SCF

                                   only a single process is used
                       available to each process: 2.0 GB of memory, 1 thread?
()()()()()()()()()()()()()()()()()()()()()()()()()()()()()()()()()()()()()()()()()()()()()()()()()()
 
++    Input section:
      --------------
 
      Header of the integral files:
      
       Integrals generated by seward 4.2.0  , Tue Nov 12 16:14:08 2024
 
 
      Cartesian coordinates in Angstrom:
      -----------------------------------------------------
      No.  Label        X            Y            Z        
      -----------------------------------------------------
       1   H1         0.00000000   0.00000000   0.00000000
       2   H2         0.00000000   0.00000000   0.69697000
       3   H3         0.00000000   0.00000000   1.39393900
       4   H4         0.00000000   0.00000000   2.09090900
       5   H5         0.00000000   0.00000000   2.78787900
       6   H6         0.00000000   0.00000000   3.48484800
       7   H7         0.00000000   0.00000000   4.18181800
       8   H8         0.00000000   0.00000000   4.87878800
      -----------------------------------------------------
      Nuclear repulsion energy =   10.43432287
--
 
++    Orbital specifications:
      -----------------------
 
      Symmetry species               1
                                     a
      Frozen orbitals                0
      Occupied orbitals              4
      Secondary orbitals            36
      Deleted orbitals               0
      Total number of orbitals      40
      Number of basis functions     40
--
 
      Molecular charge                           0.000
 
++    Optimization specifications:
      ----------------------------
 
      SCF Algorithm: Conventional
      Minimized density differences are used
      Number of density matrices in core                5
      Maximum number of NDDO SCF iterations           400
      Maximum number of HF SCF iterations             400
      Threshold for SCF energy change            0.10E-08
      Threshold for density matrix               0.10E-03
      Threshold for Fock matrix                  0.15E-03
      Threshold for linear dependence            0.10E-08
      Threshold at which DIIS is turned on       0.15E+00
      Threshold at which QNR/C2DIIS is turned on 0.75E-01
      Threshold for Norm(delta) (QNR/C2DIIS)     0.20E-04
      DIIS extrapolation of the SCF procedure
      All orbitals punched on: SCFORB
--
 
      Input vectors read from INPORB
      Orbital file label: *Guess orbitals
 
 
++ Convergence information
                                   SCF        iterations: Energy and convergence statistics
 
Iter     Tot. SCF        One-elec.       Two-elec.     Energy      Max Dij or  Max Fij      DNorm      TNorm      AccCon     Time
         Energy          Energy          Energy        Change      Delta Norm                                                in Sec.
   1    -3.856042444   -22.938660067     8.648294750   0.00E+00    0.25E+00*   0.19E+00*    0.46E+01   0.19E+02   None         0.
   2    -4.074863442   -23.701478552     9.192292236  -0.22E+00*   0.51E-01*   0.27E-01*    0.28E+01   0.20E+02   EDIIS        0.
   3    -4.082232723   -23.667550177     9.150994580  -0.74E-02*   0.11E-01*   0.66E-02*    0.86E+00   0.20E+02   EDIIS        0.
   4    -4.082558855   -23.671333705     9.154451975  -0.33E-03*   0.17E-02*   0.16E-02*    0.16E+00   0.20E+02   c2DIIS       0.
   5    -4.082577430   -23.670112338     9.153212034  -0.19E-04*   0.25E-03*   0.10E-03     0.16E-01   0.20E+02   QNRc2DIIS    0.
   6    -4.082577549   -23.670203496     9.153303072  -0.12E-06*   0.12E-03*   0.40E-04     0.19E-02   0.20E+02   QNRc2DIIS    0.
   7    -4.082577563   -23.670120078     9.153219640  -0.14E-07*   0.13E-04    0.54E-05     0.19E-03   0.20E+02   QNRc2DIIS    0.
   8    -4.082577564   -23.670107204     9.153206766  -0.25E-09    0.29E-05    0.91E-06     0.30E-04   0.20E+02   QNRc2DIIS    0.
 
       Convergence after  8 Macro Iterations
--
 
 *****************************************************************************************************************************
 *                                                                                                                           *
 *                                             SCF/KS-DFT Program, Final results                                             *
 *                                                                                                                           *
 *                                                                                                                           *
 *                                                                                                                           *
 *                                                       Final Results                                                       *
 *                                                                                                                           *
 *****************************************************************************************************************************
 
::    Total SCF energy                                 -4.0825775635
      One-electron energy                             -23.6701072040
      Two-electron energy                               9.1532067664
      Nuclear repulsion energy                         10.4343228741
      Kinetic energy (interpolated)                     5.4291764389
      Virial theorem                                    0.7519699552
      Total spin, S(S+1)                                0.0000000000
      Total spin, S                                     0.0000000000
      Max non-diagonal density matrix element           0.0000033447
      Max non-diagonal Fock matrix element              0.0000004502
 
 
      All orbitals with orbital energies smaller than  E(LUMO)+0.5 are printed
 
++    Molecular orbitals:
      -------------------
 
      Title: SCF orbitals

      Molecular orbitals for symmetry species 1: a  
 
          Orbital            1         2         3         4         5         6         7         8         9        10    
          Energy           -0.9527   -0.8167   -0.5970   -0.3155    0.1215    0.2057    0.2145    0.4490    0.4836    0.4836
          Occ. No.          2.0000    2.0000    2.0000    2.0000    0.0000    0.0000    0.0000    0.0000    0.0000    0.0000
 
        1 H1     1s         0.1582   -0.3839    0.4138   -0.5067    1.0416   -1.4565   -1.6370   -1.4859   -0.0000    0.0000
        2 H1     2s         0.0608   -0.0988    0.0246   -0.0865    0.8227   -1.2983   -1.0155   -1.5177   -0.0000    0.0000
        3 H1     2px        0.0000    0.0000    0.0000   -0.0000    0.0000   -0.0000    0.0000    0.0000    0.1173    0.0255
        4 H1     2py        0.0000    0.0000   -0.0000    0.0000   -0.0000   -0.0000   -0.0000    0.0000   -0.0255    0.1173
        5 H1     2pz        0.0167   -0.0459    0.0300   -0.0088    0.0560   -0.1455   -0.0896   -0.2703   -0.0000    0.0000
        6 H2     1s         0.0647   -0.0786    0.2301   -0.2375   -1.2609    2.3596    1.5840    2.6809    0.0000   -0.0000
        7 H2     2s        -0.0930    0.2383   -0.1148   -0.0661   -0.6697    1.4549    1.1889    1.9357    0.0000   -0.0000
        8 H2     2px        0.0000   -0.0000    0.0000   -0.0000    0.0000   -0.0000    0.0000    0.0000    0.1695    0.0368
        9 H2     2py       -0.0000    0.0000   -0.0000    0.0000   -0.0000   -0.0000   -0.0000    0.0000   -0.0368    0.1695
       10 H2     2pz        0.0035   -0.0361   -0.0186    0.0528    0.0366   -0.1905   -0.0978   -0.3529    0.0000    0.0000
       11 H3     1s         0.2910   -0.3553   -0.0385    0.5155    0.2058   -2.1176   -0.2941   -3.2684   -0.0000    0.0000
       12 H3     2s        -0.0217    0.0157   -0.0097    0.0830    0.3871   -1.5697   -0.1651   -2.0910   -0.0000    0.0000
       13 H3     2px       -0.0000    0.0000   -0.0000    0.0000    0.0000   -0.0000    0.0000    0.0000    0.2312    0.0502
       14 H3     2py        0.0000   -0.0000   -0.0000    0.0000   -0.0000   -0.0000   -0.0000    0.0000   -0.0502    0.2312
       15 H3     2pz       -0.0001   -0.0234   -0.0414    0.0313    0.0370   -0.1932   -0.0956   -0.1675    0.0000    0.0000
       16 H4     1s         0.2700   -0.0687   -0.2525    0.5066    0.0564    1.3451   -0.0531    2.0555    0.0000    0.0000
       17 H4     2s        -0.0812    0.0725    0.0785    0.1474    0.0588    1.0436    0.3051    1.4402    0.0000    0.0000
       18 H4     2px       -0.0000   -0.0000   -0.0000   -0.0000    0.0000   -0.0000   -0.0000    0.0000    0.2602    0.0565
       19 H4     2py        0.0000   -0.0000   -0.0000    0.0000   -0.0000   -0.0000   -0.0000    0.0000   -0.0565    0.2602
       20 H4     2pz       -0.0031   -0.0105   -0.0176   -0.0422    0.0350   -0.1705   -0.0668   -0.0628    0.0000    0.0000
       21 H5     1s         0.2700    0.0687   -0.2525   -0.5066    0.0564   -1.3451   -0.0531    2.0555   -0.0000   -0.0000
       22 H5     2s        -0.0812   -0.0725    0.0785   -0.1474    0.0588   -1.0436    0.3051    1.4402   -0.0000   -0.0000
       23 H5     2px        0.0000   -0.0000   -0.0000    0.0000    0.0000   -0.0000    0.0000    0.0000    0.2602    0.0565
       24 H5     2py       -0.0000   -0.0000    0.0000    0.0000   -0.0000   -0.0000   -0.0000    0.0000   -0.0565    0.2602
       25 H5     2pz        0.0031   -0.0105    0.0176   -0.0422   -0.0350   -0.1705    0.0668    0.0628    0.0000    0.0000
       26 H6     1s         0.2910    0.3553   -0.0385   -0.5155    0.2058    2.1176   -0.2941   -3.2684    0.0000    0.0000
       27 H6     2s        -0.0217   -0.0157   -0.0097   -0.0830    0.3871    1.5697   -0.1651   -2.0910    0.0000    0.0000
       28 H6     2px        0.0000    0.0000   -0.0000   -0.0000   -0.0000   -0.0000    0.0000    0.0000    0.2312    0.0502
       29 H6     2py        0.0000   -0.0000   -0.0000   -0.0000   -0.0000   -0.0000   -0.0000    0.0000   -0.0502    0.2312
       30 H6     2pz        0.0001   -0.0234    0.0414    0.0313   -0.0370   -0.1932    0.0956    0.1675    0.0000   -0.0000
       31 H7     1s         0.0647    0.0786    0.2301    0.2375   -1.2609   -2.3596    1.5840    2.6809   -0.0000   -0.0000
       32 H7     2s        -0.0930   -0.2383   -0.1148    0.0661   -0.6697   -1.4549    1.1889    1.9357   -0.0000   -0.0000
       33 H7     2px       -0.0000   -0.0000    0.0000   -0.0000    0.0000   -0.0000    0.0000    0.0000    0.1695    0.0368
       34 H7     2py       -0.0000   -0.0000    0.0000    0.0000    0.0000    0.0000   -0.0000    0.0000   -0.0368    0.1695
       35 H7     2pz       -0.0035   -0.0361    0.0186    0.0528   -0.0366   -0.1905    0.0978    0.3529   -0.0000   -0.0000
       36 H8     1s         0.1582    0.3839    0.4138    0.5067    1.0416    1.4565   -1.6370   -1.4859    0.0000    0.0000
       37 H8     2s         0.0608    0.0988    0.0246    0.0865    0.8227    1.2983   -1.0155   -1.5177    0.0000    0.0000
       38 H8     2px        0.0000    0.0000    0.0000   -0.0000    0.0000   -0.0000   -0.0000    0.0000    0.1173    0.0255
       39 H8     2py       -0.0000    0.0000   -0.0000   -0.0000   -0.0000   -0.0000    0.0000    0.0000   -0.0255    0.1173
       40 H8     2pz       -0.0167   -0.0459   -0.0300   -0.0088   -0.0560   -0.1455    0.0896    0.2703   -0.0000   -0.0000
 
          Orbital           11    
          Energy            0.4892
          Occ. No.          0.0000
 
        1 H1     1s        -3.1291
        2 H1     2s        -2.1011
        3 H1     2px       -0.0000
        4 H1     2py        0.0000
        5 H1     2pz       -0.1056
        6 H2     1s         5.4196
        7 H2     2s         4.0790
        8 H2     2px       -0.0000
        9 H2     2py        0.0000
       10 H2     2pz       -0.0048
       11 H3     1s        -3.6409
       12 H3     2s        -2.3571
       13 H3     2px       -0.0000
       14 H3     2py        0.0000
       15 H3     2pz        0.1619
       16 H4     1s         2.9129
       17 H4     2s         2.3583
       18 H4     2px       -0.0000
       19 H4     2py        0.0000
       20 H4     2pz        0.3156
       21 H5     1s        -2.9129
       22 H5     2s        -2.3583
       23 H5     2px       -0.0000
       24 H5     2py        0.0000
       25 H5     2pz        0.3156
       26 H6     1s         3.6409
       27 H6     2s         2.3571
       28 H6     2px       -0.0000
       29 H6     2py        0.0000
       30 H6     2pz        0.1619
       31 H7     1s        -5.4196
       32 H7     2s        -4.0790
       33 H7     2px       -0.0000
       34 H7     2py        0.0000
       35 H7     2pz       -0.0048
       36 H8     1s         3.1291
       37 H8     2s         2.1011
       38 H8     2px       -0.0000
       39 H8     2py        0.0000
       40 H8     2pz       -0.1056
--
 
 
++    Molecular charges:
      ------------------
 
      Mulliken charges per centre and basis function type
      ---------------------------------------------------
 
                H1      H2      H3      H4      H5      H6      H7      H8    
      1s       1.3927  0.4456  1.0912  0.8631  0.8631  1.0912  0.4456  1.3927
      2s       0.0053  0.0576 -0.0580 -0.0153 -0.0153 -0.0580  0.0576  0.0053
      2px      0.0000  0.0000 -0.0000  0.0000  0.0000  0.0000  0.0000  0.0000
      2pz      0.0412  0.0854  0.0576  0.0335  0.0335  0.0576  0.0854  0.0412
      2py      0.0000  0.0000  0.0000  0.0000  0.0000  0.0000 -0.0000  0.0000
      Total    1.4393  0.5886  1.0908  0.8813  0.8813  1.0908  0.5886  1.4393
 
      N-E     -0.4393  0.4114 -0.0908  0.1187  0.1187 -0.0908  0.4114 -0.4393
 
      Total electronic charge=    8.000000
 
      Total            charge=   -0.000000
--
 
 
  Input file to MOLDEN was generated!
 
 
++    Static properties:
      ------------------
 
 
      LoProp Charges per center
 

                   H1       H2       H3       H4       H5       H6       H7       H8    
      Nuclear      1.0000   1.0000   1.0000   1.0000   1.0000   1.0000   1.0000   1.0000
      Electronic  -1.1104  -0.9545  -0.9736  -0.9614  -0.9614  -0.9736  -0.9545  -1.1104
 
      Total       -0.1104   0.0455   0.0264   0.0386   0.0386   0.0264   0.0455  -0.1104
--
 
 
++    Natural Bond Order analysis
      ---------------------------
      Based on LoProp computed density
      -------------------------------------------------------------------------------------
      Atom A       Atom B       Bond Order | Atom A       Atom B       Bond Order
        H1           H2             0.949  |   H5           H6             0.927
        H3           H4             0.927  |   H7           H8             0.949
      -------------------------------------------------------------------------------------
      NBO located      7.504 electrons involved in    4 bonds.
      The remaining    0.496 electrons are to be considered as diffuse
--
 
 
++    Molecular properties:
      ---------------------
 
      Charge (e):
                      =   -0.0000
      Dipole Moment (Debye):
      Origin of the operator (Ang)=    0.0000    0.0000    0.0000
                   X= -3.2618E-14               Y=  8.1474E-14               Z=  2.6353E-06           Total=  2.6353E-06
      Quadrupole Moment (Debye*Ang):
      Origin of the operator (Ang)=    0.0000    0.0000    2.4394
                  XX= -7.5418E+00              XY=  1.6968E-28              XZ=  6.2160E-14              YY= -7.5418E+00
                  YZ= -2.1006E-13              ZZ= -1.4960E+01
      In traceless form (Debye*Ang)
                  XX=  3.7090E+00              XY=  2.5453E-28              XZ=  9.3239E-14              YY=  3.7090E+00
                  YZ= -3.1509E-13              ZZ= -7.4181E+00
--
 
 
  Input file to MOLDEN was generated!
 
 ###############################################################################
 ###############################################################################
 ###                                                                         ###
 ###                                                                         ###
 ###    RunFile label nBas                                                   ###
 ###    was used       78 times                                              ###
 ###                                                                         ###
 ###                                                                         ###
 ###############################################################################
 ###############################################################################
--- Stop Module: scf at Tue Nov 12 16:14:08 2024 /rc=_RC_ALL_IS_WELL_ ---
*** files: H8_0.70.LprOrb H8_0.70.LoProp.molden H8_0.70.scf.molden H8_0.70.ScfOrb H8_0.70.scf.h5 xmldump
    saved to directory /home/grierjones/DDCASPT2/hydrogen_comps/H8_chain/H8_0.70

>>> COPY /tmp/H8_0.70/H8_0.70.scf.h5 /home/grierjones/DDCASPT2/hydrogen_comps/H8_chain/H8_0.70/

*** symbolic link created: INPORB -> H8_0.70.ScfOrb
--- Start Module: rasscf at Tue Nov 12 16:14:08 2024 ---
 
()()()()()()()()()()()()()()()()()()()()()()()()()()()()()()()()()()()()()()()()()()()()()()()()()()

                                              &RASSCF

                                   only a single process is used
                       available to each process: 2.0 GB of memory, 1 thread?
()()()()()()()()()()()()()()()()()()()()()()()()()()()()()()()()()()()()()()()()()()()()()()()()()()
 
 
      Header of the ONEINT file:
      --------------------------
      
      Integrals generated by seward 4.2.0  , Tue Nov 12 16:14:08 2024
 
 
      OrdInt status: non-squared
 
 
      Cartesian coordinates in Angstrom:
      -----------------------------------------------------
      No.  Label        X            Y            Z        
      -----------------------------------------------------
       1   H1         0.00000000   0.00000000   0.00000000
       2   H2         0.00000000   0.00000000   0.69697000
       3   H3         0.00000000   0.00000000   1.39393900
       4   H4         0.00000000   0.00000000   2.09090900
       5   H5         0.00000000   0.00000000   2.78787900
       6   H6         0.00000000   0.00000000   3.48484800
       7   H7         0.00000000   0.00000000   4.18181800
       8   H8         0.00000000   0.00000000   4.87878800
      -----------------------------------------------------
      Nuclear repulsion energy =   10.43432287
 
++    Wave function specifications:
      -----------------------------
 
      Number of closed shell electrons           0
      Number of electrons in active shells       8
      Max number of holes in RAS1 space          0
      Max nr of electrons in RAS3 space          0
      Number of inactive orbitals                0
      Number of active orbitals                  8
      Number of secondary orbitals              32
      Spin quantum number                      0.0
      State symmetry                             1
--
 
++    Orbital specifications:
      -----------------------
 
      Symmetry species                           1
                                                 a
      Frozen orbitals                            0
      Inactive orbitals                          0
      Active orbitals                            8
      RAS1 orbitals                              0
      RAS2 orbitals                              8
      RAS3 orbitals                              0
      Secondary orbitals                        32
      Deleted orbitals                           0
      Number of basis functions                 40
--
 
++    CI expansion specifications:
      ----------------------------
 
      Number of CSFs                          1764
      Number of determinants                  2485
      Number of root(s) required                 1
      Root chosen for geometry opt.              1
      CI root used                               1
         
      highest root included in the CI            1
      max. size of the explicit Hamiltonian    500
--
 
++    Optimization specifications:
      ----------------------------
 
      RASSCF algorithm: Conventional
      Maximum number of macro iterations       200
      Maximum number of SX iterations          100
      Threshold for RASSCF energy            0.100E-07
      Threshold for max MO rotation          0.100E+00
      Threshold for max BLB element          0.100E-03
      Level shift parameter                  0.500E+00
      Make Quasi-Newton update
--
 
      The MO-coefficients are taken from the file:
      /home/grierjones/DDCASPT2/hydrogen_comps/H8_chain/H8_0.67/H8_0.67.RasOrb                                                        
      Title: RASSCF average (pseudo-natural) orbitals                                      
 
      Total molecular charge    0.00
 
      ************************************************************************************************************************
      *                                                                                                                      *
      *                                            Wave function control section                                             *
      *                                                                                                                      *
      ************************************************************************************************************************
 
 
                                         RASSCF iterations: Energy and convergence statistics
                                         ----------------------------------------------------
 
      Iter CI   SX   CI       RASSCF       Energy    max ROT     max BLB   max BLB  Level Ln srch  Step   QN   Walltime
          iter iter root      energy       change     param      element    value   shift minimum  type update hh:mm:ss
 Nr of preliminary CI iterations:   3
        1   1    5    1    -4.14569405    0.00E+00   0.88E-02    2  40 1 -0.47E-01*  0.06   0.00    SX    NO    0:00:00
        2   1    5    1    -4.14663848   -0.94E-03*  0.36E-02    1   9 1 -0.54E-02*  0.06   0.00    SX    NO    0:00:00
        3   1    5    1    -4.14668180   -0.43E-04*  0.23E-02    1   9 1 -0.14E-02*  0.06   0.00    SX    NO    0:00:00
        4   4    5    1    -4.14670189   -0.20E-04*  0.28E-02    4  10 1 -0.99E-03*  0.06   0.00    SX    NO    0:00:00
        5   3    5    1    -4.14670687   -0.50E-05*  0.25E-02    4  10 1 -0.47E-03*  0.06   1.90    LS   YES    0:00:00
        6   3    4    1    -4.14670831   -0.14E-05*  0.10E-02    4  29 1 -0.29E-03*  0.06   1.01    QN   YES    0:00:00
        7   3    4    1    -4.14670869   -0.38E-06*  0.65E-03    1  11 1  0.83E-04   0.06   1.63    LS   YES    0:00:00
        8   3    4    1    -4.14670876   -0.66E-07*  0.23E-03    4  36 1  0.81E-04   0.06   1.01    QN   YES    0:00:00
        9   3    4    1    -4.14670877   -0.14E-07* -0.64E-03    4  32 1  0.14E-04   0.06   1.78    QN   YES    0:00:00
       10   3    4    1    -4.14670879   -0.15E-07* -0.13E-01    4  36 1 -0.36E-04   0.06   2.50    QN   YES    0:00:00
       11   4    5    1    -4.14670934   -0.56E-06*  0.18E-01    4  36 1 -0.83E-03*  0.06   2.50    LS   YES    0:00:00
       12   4    5    1    -4.14671091   -0.16E-05*  0.13E-01    4  36 1 -0.20E-02*  0.06   2.50    SX   YES    0:00:00
       13   4    5    1    -4.14672937   -0.18E-04* -0.30E+00*   4  10 1 -0.27E-03*  0.06   2.50    QN   YES    0:00:00
       14   5    6    1    -4.14696044   -0.23E-03*  0.98E-01    4  36 1  0.22E-01*  0.06   0.76    QN   YES    0:00:00
       15   4    6    1    -4.14711259   -0.15E-03* -0.81E-01    4  36 1  0.12E-01*  0.06   0.92    QN   YES    0:00:00
       16   4    6    1    -4.14747238   -0.36E-03*  0.18E+00*   4  36 1  0.90E-02*  0.06   2.50    QN   YES    0:00:00
       17   4    5    1    -4.14782718   -0.35E-03* -0.43E-01    4  36 1  0.34E-02*  0.06   0.86    QN   YES    0:00:00
       18   3    5    1    -4.14792378   -0.97E-04*  0.13E-01    4  36 1 -0.11E-02*  0.06   1.12    QN   YES    0:00:00
       19   3    5    1    -4.14793528   -0.11E-04*  0.10E-01    4  36 1 -0.14E-02*  0.06   1.82    LS   YES    0:00:00
       20   4    5    1    -4.14793824   -0.30E-05* -0.31E-02    4  36 1 -0.16E-02*  0.06   1.05    QN   YES    0:00:00
       21   3    5    1    -4.14794101   -0.28E-05* -0.19E-02    4  36 1 -0.44E-03*  0.06   1.36    QN   YES    0:00:00
       22   3    4    1    -4.14794145   -0.44E-06* -0.10E-02    4  32 1  0.27E-04   0.06   1.20    QN   YES    0:00:00
       23   3    4    1    -4.14794156   -0.10E-06* -0.14E-02    4  36 1  0.77E-04   0.06   2.37    LS   YES    0:00:00
       24   3    4    1    -4.14794161   -0.52E-07* -0.88E-03    4  36 1  0.18E-03*  0.06   1.01    QN   YES    0:00:00
       25   3    4    1    -4.14794168   -0.73E-07* -0.13E-02    4  36 1  0.97E-04   0.06   2.50    LS   YES    0:00:00
       26   3    4    1    -4.14794173   -0.46E-07* -0.76E-03    4  32 1 -0.33E-04   0.06   1.12    QN   YES    0:00:00
       27   3    4    1    -4.14794176   -0.28E-07* -0.11E-02    4  32 1 -0.24E-04   0.06   2.40    LS   YES    0:00:00
       28   3    4    1    -4.14794177   -0.15E-07*  0.17E-03    1  33 1 -0.17E-04   0.06   1.02    QN   YES    0:00:00
       29   3    3    1    -4.14794178   -0.43E-08  -0.99E-04    4  10 1  0.29E-05   0.06   1.40    QN   YES    0:00:00
      Convergence after 29 iterations
 
  Dmat in MO in SXCTL bf call to SXHAM                                                                                    
  mat. size =     8x    8
 
        1.9938221359215633
       -0.0009141724144788      1.9889765177880319
       -0.0008979019572050      0.0006351294000520      1.9781420231858702
        0.0012882994089630      0.0003520409578343     -0.0006235156260952      1.9542197867733802
       -0.0001106473072883      0.0004194933176235     -0.0012262331137689     -0.0009808173285986      0.0078768484659157
        0.0013205678110567     -0.0011170690058461     -0.0009039111455464     -0.0120782437802491     -0.0000489513254225
        0.0202659738647456
        0.0022718233460360      0.0003605335698803     -0.0059494840034230     -0.0005626371176429      0.0007400437667901
        0.0001920336647233      0.0519357587645933
        0.0000000000050218     -0.0000000000050399     -0.0000000000101275      0.0000000000335471      0.0000000000103215
       -0.0000000000122382      0.0000000000296769      0.0047609552359041
       30   1    3    1    -4.14794178   -0.41E-09  -0.99E-04    4  32 1  0.13E-05   0.06   1.40    QN   YES    0:00:00
 
      ************************************************************************************************************************
                                                      Wave function printout:
                       occupation of active orbitals, and spin coupling of open shells (u,d: Spin up or down)
      ************************************************************************************************************************
 
      Note: transformation to natural orbitals
      has been made, which may change the order of the CSFs.
 
      printout of CI-coefficients larger than  0.05 for root  1
      energy=      -4.147942
      conf/sym  11111111     Coeff  Weight
             1  22220000  -0.97880 0.95806
            23  22200020   0.11924 0.01422
            32  22ud0ud0   0.05935 0.00352
            63  22020020   0.05107 0.00261
           120  22uu0dd0   0.06664 0.00444
 
      Natural orbitals and occupation numbers for root  1
      sym 1:   1.994094   1.988839   1.978092   1.954235   0.007863   0.020188   0.051928   0.004761
 
      ************************************************************************************************************************
      *                                                                                                                      *
      *                                                    Final results                                                     *
      *                                                                                                                      *
      ************************************************************************************************************************
 
 
++    Wave function specifications:
      -----------------------------
 
      Number of closed shell electrons           0
      Number of electrons in active shells       8
      Max number of holes in RAS1 space          0
      Max nr of electrons in RAS3 space          0
      Number of inactive orbitals                0
      Number of active orbitals                  8
      Number of secondary orbitals              32
      Spin quantum number                      0.0
      State symmetry                             1
--
 
++    Orbital specifications:
      -----------------------
 
      Symmetry species                           1
                                                 a
      Frozen orbitals                            0
      Inactive orbitals                          0
      Active orbitals                            8
      RAS1 orbitals                              0
      RAS2 orbitals                              8
      RAS3 orbitals                              0
      Secondary orbitals                        32
      Deleted orbitals                           0
      Number of basis functions                 40
--
 
++    CI expansion specifications:
      ----------------------------
 
      Number of CSFs                          1764
      Number of determinants                  2485
      Number of root(s) required                 1
      CI root used                               1
      highest root included in the CI            1
      Root passed to geometry opt.               1
--
 
++    Final optimization conditions:
      ------------------------------
 
      Average CI energy                              -4.14794178
      RASSCF energy for state  1                     -4.14794178
      Super-CI energy                                -0.00000000
      RASSCF energy change                            0.00000000
      Max change in MO coefficients               0.452E-03
      Max non-diagonal density matrix element    -0.992E-04
      Maximum BLB matrix element                  0.128E-05
      (orbital pair   4,  32 in symmetry   1)
      Norm of electronic gradient            0.412E-05
--
 
 
      Final state energy(ies):
      ------------------------
 
::    RASSCF root number  1 Total energy:     -4.14794178
 
++    Molecular orbitals:
      -------------------
 
      Pseudonatural active orbitals and approximate occupation numbers
 
 
 
 
      Molecular orbitals for symmetry species 1: a  
 
 
      Orbital                1         2         3         4         5         6         7         8         9        10
      Energy            0.0000    0.0000    0.0000    0.0000    0.0000    0.0000    0.0000    0.0000    0.1661    0.2756
      Occ. No.          1.9941    1.9888    1.9781    1.9542    0.0079    0.0202    0.0519    0.0048    0.0000    0.0000
 
    1 H1     1s         0.2418   -0.3725    0.4411   -0.4796    0.6657   -0.5008   -0.4211   -0.0000   -0.2672    0.5278
    2 H1     2s         0.0785   -0.0956    0.0336   -0.0776   -0.0238    0.1152    0.1473   -0.0000    0.0139    0.7526
    3 H1     2px       -0.0000    0.0000    0.0000   -0.0000    0.0000    0.0000    0.0000    0.0005   -0.0000    0.0000
    4 H1     2py       -0.0000   -0.0000    0.0000    0.0000    0.0000    0.0000    0.0000    0.0035   -0.0000    0.0000
    5 H1     2pz        0.0258   -0.0397    0.0293    0.0008   -0.1446    0.1064    0.0560    0.0000    0.0157    0.1724
    6 H2     1s         0.0894   -0.0633    0.2001   -0.1902   -1.2078    0.1649   -0.0600    0.0000    0.1580   -0.9228
    7 H2     2s        -0.1455    0.2134   -0.1485   -0.0623    0.0039   -0.5032   -0.2768    0.0000    0.2935   -0.4903
    8 H2     2px        0.0000    0.0000   -0.0000    0.0000   -0.0000    0.0000   -0.0000   -0.0013   -0.0000    0.0000
    9 H2     2py        0.0000    0.0000   -0.0000    0.0000   -0.0000    0.0000   -0.0000   -0.0085   -0.0000    0.0000
   10 H2     2pz        0.0109   -0.0325   -0.0158    0.0578    0.0529    0.0386    0.0997   -0.0000   -0.0084    0.2291
   11 H3     1s         0.3615   -0.2683   -0.0134    0.5138    1.3639    0.9182    0.7836   -0.0000   -0.1647    1.7208
   12 H3     2s        -0.0200    0.0066    0.0133    0.0621    0.1954    0.7631    0.1465   -0.0000    0.1071    1.3686
   13 H3     2px       -0.0000    0.0000    0.0000    0.0000    0.0000    0.0000    0.0000   -0.0010   -0.0000    0.0000
   14 H3     2py       -0.0000   -0.0000    0.0000    0.0000    0.0000    0.0000    0.0000   -0.0065   -0.0000    0.0000
   15 H3     2pz        0.0017   -0.0228   -0.0423    0.0329    0.1082   -0.1446   -0.0491   -0.0000   -0.0266    0.2224
   16 H4     1s         0.2569    0.0380   -0.2946    0.4587   -0.7674   -1.7164   -0.5529    0.0000    0.0520   -1.8882
   17 H4     2s        -0.0948    0.0928    0.0748    0.1196   -0.2463   -0.7520   -0.0431    0.0000    0.2681   -1.2771
   18 H4     2px        0.0000    0.0000   -0.0000    0.0000   -0.0000   -0.0000   -0.0000   -0.0200   -0.0000    0.0000
   19 H4     2py        0.0000    0.0000   -0.0000    0.0000   -0.0000   -0.0000   -0.0000   -0.1300   -0.0000    0.0000
   20 H4     2pz       -0.0014   -0.0175   -0.0179   -0.0400   -0.2146    0.1190   -0.0817    0.0000   -0.0053    0.2757
   21 H5     1s         0.2420    0.0209   -0.2781   -0.4843   -0.3861    1.7219   -0.4151   -0.0000   -0.0121    1.9489
   22 H5     2s        -0.0543   -0.1126    0.0865   -0.1094   -0.0404    0.7542    0.0388   -0.0000    0.2244    1.3261
   23 H5     2px       -0.0000   -0.0000    0.0000    0.0000    0.0000   -0.0000    0.0000    0.0910   -0.0000    0.0000
   24 H5     2py       -0.0000   -0.0000    0.0000    0.0000    0.0000   -0.0000    0.0000    0.5898   -0.0000    0.0000
   25 H5     2pz        0.0048   -0.0140    0.0213   -0.0399    0.2113    0.1160    0.0828   -0.0000    0.0038    0.2779
   26 H6     1s         0.2037    0.3751   -0.0242   -0.5451    1.1640   -0.9140    0.6962    0.0000   -0.1182   -1.8399
   27 H6     2s        -0.0231   -0.0092    0.0165   -0.0690    0.1217   -0.7477    0.0971    0.0000    0.1407   -1.4450
   28 H6     2px        0.0000    0.0000   -0.0000   -0.0000    0.0000   -0.0000    0.0000    0.0971   -0.0000    0.0000
   29 H6     2py        0.0000    0.0000   -0.0000   -0.0000    0.0000   -0.0000    0.0000    0.6294   -0.0000    0.0000
   30 H6     2pz        0.0081   -0.0171    0.0430    0.0348   -0.1068   -0.1438    0.0507    0.0000    0.0251    0.2288
   31 H7     1s         0.0682    0.1088    0.1850    0.2036   -1.1323   -0.1881   -0.0208   -0.0000    0.1235    1.0662
   32 H7     2s        -0.0538   -0.2676   -0.1236    0.0698    0.0269    0.4805   -0.2468   -0.0000    0.2701    0.5913
   33 H7     2px       -0.0000   -0.0000   -0.0000   -0.0000   -0.0000    0.0000   -0.0000   -0.0195   -0.0000    0.0000
   34 H7     2py       -0.0000   -0.0000   -0.0000   -0.0000   -0.0000    0.0000   -0.0000   -0.1263   -0.0000    0.0000
   35 H7     2pz        0.0052   -0.0319    0.0164    0.0585   -0.0428    0.0405   -0.0982   -0.0000    0.0057    0.2403
   36 H8     1s         0.1184    0.4839    0.3717    0.4835    0.6323    0.5141   -0.4332    0.0000   -0.2475   -0.6245
   37 H8     2s         0.0443    0.1216    0.0175    0.0729   -0.0490   -0.1115    0.1356    0.0000    0.0310   -0.8290
   38 H8     2px       -0.0000   -0.0000    0.0000    0.0000   -0.0000   -0.0000    0.0000   -0.0027   -0.0000    0.0000
   39 H8     2py       -0.0000   -0.0000    0.0000   -0.0000   -0.0000   -0.0000    0.0000   -0.0173   -0.0000    0.0000
   40 H8     2pz       -0.0093   -0.0492   -0.0246    0.0007    0.1374    0.1031   -0.0538    0.0000   -0.0176    0.1806
 
 
      Orbital               11        12        13        14        15        16        17        18        19        20
      Energy            0.4336    0.4866    0.6016    0.6310    0.6462    0.8391    0.8940    1.0166    1.1170    1.2393
      Occ. No.          0.0000    0.0000    0.0000    0.0000    0.0000    0.0000    0.0000    0.0000    0.0000    0.0000
 
    1 H1     1s        -1.8012    0.0000   -0.0000    4.0221   -0.0000   -0.0000   -0.0000    4.2922    0.0000    0.0000
    2 H1     2s        -1.7306    0.0000   -0.0000    3.1303   -0.0000   -0.0000   -0.0000    3.1459    0.0000    0.0000
    3 H1     2px       -0.0000    0.1196   -0.0457   -0.0000   -0.2644    0.0372    0.4247    0.0000   -0.0983   -0.5693
    4 H1     2py       -0.0000   -0.0185   -0.2964   -0.0000    0.0408    0.2414   -0.0655    0.0000   -0.6374    0.0878
    5 H1     2pz       -0.3840    0.0000   -0.0000    0.3980   -0.0000   -0.0000   -0.0000    0.3448   -0.0000   -0.0000
    6 H2     1s         1.6309   -0.0000    0.0000   -7.1864    0.0000    0.0000    0.0000   -8.2947   -0.0000   -0.0000
    7 H2     2s         1.2416   -0.0000    0.0000   -5.5790    0.0000    0.0000    0.0000   -6.6966   -0.0000   -0.0000
    8 H2     2px       -0.0000    0.1720   -0.0545   -0.0000   -0.2906    0.0268    0.2612    0.0000   -0.0209   -0.0038
    9 H2     2py       -0.0000   -0.0265   -0.3534   -0.0000    0.0448    0.1740   -0.0403    0.0000   -0.1355    0.0006
   10 H2     2pz       -0.4154    0.0000   -0.0000    0.2792   -0.0000   -0.0000    0.0000   -0.0029   -0.0000   -0.0000
   11 H3     1s        -0.7473    0.0000   -0.0000    6.8654   -0.0000   -0.0000   -0.0000    4.0153    0.0000    0.0000
   12 H3     2s        -0.5725    0.0000   -0.0000    4.6719   -0.0000   -0.0000   -0.0000    2.9691    0.0000    0.0000
   13 H3     2px       -0.0000    0.2341   -0.0556   -0.0000   -0.2550    0.0034   -0.0436   -0.0000    0.0645    0.4675
   14 H3     2py       -0.0000   -0.0361   -0.3605   -0.0000    0.0393    0.0219    0.0067   -0.0000    0.4180   -0.0721
   15 H3     2pz       -0.2286   -0.0000    0.0000   -0.0876    0.0000    0.0000    0.0000   -0.5031   -0.0000   -0.0000
   16 H4     1s         0.6693   -0.0000    0.0000   -8.4173    0.0000   -0.0000    0.0000    0.2752   -0.0000   -0.0000
   17 H4     2s         0.6809   -0.0000    0.0000   -6.1675    0.0000    0.0000    0.0000    0.5860   -0.0000   -0.0000
   18 H4     2px       -0.0000    0.2627   -0.0345   -0.0000   -0.0967   -0.0264   -0.3376   -0.0000    0.0742    0.3064
   19 H4     2py       -0.0000   -0.0405   -0.2239   -0.0000    0.0149   -0.1713    0.0521   -0.0000    0.4810   -0.0473
   20 H4     2pz       -0.1665   -0.0000    0.0000   -0.2161    0.0000    0.0000    0.0000   -0.1221    0.0000    0.0000
   21 H5     1s         0.9913   -0.0000   -0.0000    8.4612   -0.0000    0.0000    0.0000    0.1581    0.0000    0.0000
   22 H5     2s         0.9142   -0.0000   -0.0000    6.1847   -0.0000   -0.0000   -0.0000    0.5131    0.0000    0.0000
   23 H5     2px       -0.0000    0.2624   -0.0012    0.0000    0.0974   -0.0381   -0.3373   -0.0000   -0.0127   -0.3068
   24 H5     2py       -0.0000   -0.0405   -0.0080    0.0000   -0.0150   -0.2468    0.0520   -0.0000   -0.0824    0.0473
   25 H5     2pz        0.1471   -0.0000    0.0000   -0.2270    0.0000    0.0000   -0.0000    0.1222    0.0000    0.0000
   26 H6     1s        -1.0018    0.0000    0.0000   -7.0444    0.0000   -0.0000   -0.0000    4.0761   -0.0000   -0.0000
   27 H6     2s        -0.7335    0.0000    0.0000   -4.7858    0.0000   -0.0000   -0.0000    3.0075   -0.0000   -0.0000
   28 H6     2px       -0.0000    0.2335    0.0185    0.0000    0.2554    0.0040   -0.0433    0.0000   -0.0462   -0.4673
   29 H6     2py       -0.0000   -0.0360    0.1199    0.0000   -0.0394    0.0260    0.0067    0.0000   -0.2997    0.0721
   30 H6     2pz        0.2165   -0.0000    0.0000   -0.1011    0.0000   -0.0000   -0.0000    0.5054   -0.0000   -0.0000
   31 H7     1s         1.8863    0.0000   -0.0000    7.3263   -0.0000   -0.0000    0.0000   -8.2445    0.0000    0.0000
   32 H7     2s         1.4384    0.0000   -0.0000    5.6731   -0.0000   -0.0000    0.0000   -6.6496    0.0000    0.0000
   33 H7     2px       -0.0000    0.1715    0.0163    0.0000    0.2907    0.0621    0.2612   -0.0000    0.0108    0.0039
   34 H7     2py       -0.0000   -0.0265    0.1055    0.0000   -0.0449    0.4027   -0.0403   -0.0000    0.0701   -0.0006
   35 H7     2pz        0.4150   -0.0000   -0.0000    0.2588   -0.0000   -0.0000   -0.0000    0.0107   -0.0000   -0.0000
   36 H8     1s        -1.9299   -0.0000    0.0000   -4.0303    0.0000    0.0000   -0.0000    4.2324    0.0000   -0.0000
   37 H8     2s        -1.8150   -0.0000    0.0000   -3.1129    0.0000    0.0000   -0.0000    3.0954    0.0000   -0.0000
   38 H8     2px       -0.0000    0.1192    0.0128    0.0000    0.2645    0.0889    0.4246   -0.0000    0.0636    0.5693
   39 H8     2py       -0.0000   -0.0184    0.0831    0.0000   -0.0408    0.5760   -0.0655   -0.0000    0.4119   -0.0878
   40 H8     2pz        0.3860   -0.0000   -0.0000    0.3777   -0.0000   -0.0000   -0.0000   -0.3302   -0.0000   -0.0000
 
 
      Orbital               21        22        23        24        25        26        27        28        29        30
      Energy            1.3311    1.7034    1.7041    1.8279    1.9778    2.2516    2.3094    2.5233    3.0191    3.0923
      Occ. No.          0.0000    0.0000    0.0000    0.0000    0.0000    0.0000    0.0000    0.0000    0.0000    0.0000
 
    1 H1     1s        -3.5210   -0.0000    0.0000    2.5273   -3.0374   -0.0000    0.0000   -4.4507    6.4367   -0.0000
    2 H1     2s        -2.3186   -0.0000    0.0000    1.8600   -2.1222   -0.0000    0.0000   -2.6653    3.8293    0.0000
    3 H1     2px       -0.0000    0.1060    0.6742   -0.0000   -0.0000   -0.1086   -0.7117    0.0000    0.0000    0.1034
    4 H1     2py       -0.0000    0.6870   -0.1040   -0.0000   -0.0000   -0.7038    0.1098    0.0000    0.0000    0.6700
    5 H1     2pz        0.1928   -0.0000   -0.0000    0.8092    0.2724   -0.0000    0.0000   -1.3237    1.1256   -0.0000
    6 H2     1s        12.4304    0.0000   -0.0000   -2.5408   12.7046   -0.0000   -0.0000    9.8485  -20.9924   -0.0000
    7 H2     2s         9.2793    0.0000   -0.0000   -2.4760    9.6047   -0.0000   -0.0000    6.8584  -14.6161   -0.0000
    8 H2     2px        0.0000   -0.0734   -0.4673    0.0000    0.0000    0.1459    0.9985   -0.0000   -0.0000   -0.2093
    9 H2     2py        0.0000   -0.4755    0.0721    0.0000    0.0000    0.9459   -0.1540   -0.0000   -0.0000   -1.3565
   10 H2     2pz        0.5057   -0.0000   -0.0000    0.0820    0.5275   -0.0000   -0.0000    0.0814   -0.3042   -0.0000
   11 H3     1s       -16.5879    0.0000    0.0000   -5.9222  -19.8062    0.0000    0.0000   -9.9796   39.0769    0.0000
   12 H3     2s       -12.3766    0.0000    0.0000   -3.5876  -15.2032    0.0000    0.0000   -7.6115   28.5423    0.0000
   13 H3     2px        0.0000   -0.0814   -0.5176    0.0000    0.0000   -0.0150   -0.1861    0.0000    0.0000    0.2050
   14 H3     2py        0.0000   -0.5279    0.0798    0.0000    0.0000   -0.0971    0.0287    0.0000    0.0000    1.3286
   15 H3     2pz        0.4287    0.0000    0.0000   -0.0520    0.1146   -0.0000   -0.0000   -0.5996    0.9221   -0.0000
   16 H4     1s        12.2282   -0.0000    0.0000   16.6381   10.6371   -0.0000   -0.0000    4.5708  -52.0721   -0.0000
   17 H4     2s         8.3232   -0.0000    0.0000   11.9491    8.2942   -0.0000   -0.0000    3.2356  -38.2376   -0.0000
   18 H4     2px        0.0000    0.0752    0.4813   -0.0000   -0.0000   -0.1277   -0.8224    0.0000   -0.0000   -0.0785
   19 H4     2py        0.0000    0.4878   -0.0742   -0.0000   -0.0000   -0.8280    0.1269    0.0000   -0.0000   -0.5091
   20 H4     2pz       -0.2553   -0.0000    0.0000    0.4268   -0.6707   -0.0000    0.0000    0.0369   -0.0032   -0.0000
   21 H5     1s       -12.2911    0.0000   -0.0000  -17.6277    8.4072    0.0000    0.0000    4.8750   52.0764    0.0000
   22 H5     2s        -8.3715    0.0000   -0.0000  -12.7216    6.6724    0.0000    0.0000    3.4629   38.2414    0.0000
   23 H5     2px       -0.0000    0.0756    0.4808   -0.0000    0.0000    0.1080    0.8227   -0.0000   -0.0000   -0.0944
   24 H5     2py       -0.0000    0.4899   -0.0742   -0.0000    0.0000    0.7001   -0.1269   -0.0000   -0.0000   -0.6118
   25 H5     2pz       -0.2559   -0.0000   -0.0000    0.3689    0.7149   -0.0000   -0.0000   -0.0399   -0.0008   -0.0000
   26 H6     1s        16.6878   -0.0000    0.0000    7.8768  -18.7207   -0.0000   -0.0000  -10.1769  -39.0834   -0.0000
   27 H6     2s        12.4446   -0.0000    0.0000    5.0618  -14.4744   -0.0000   -0.0000   -7.7575  -28.5484   -0.0000
   28 H6     2px       -0.0000   -0.0777   -0.5177   -0.0000   -0.0000    0.0158    0.1857   -0.0000    0.0000    0.1912
   29 H6     2py       -0.0000   -0.5034    0.0799   -0.0000   -0.0000    0.1024   -0.0287   -0.0000    0.0000    1.2392
   30 H6     2pz        0.4263    0.0000   -0.0000   -0.0468   -0.1163   -0.0000    0.0000    0.5998    0.9208   -0.0000
   31 H7     1s       -12.4461   -0.0000   -0.0000    1.3539   12.6957    0.0000    0.0000    9.9183   20.9952    0.0000
   32 H7     2s        -9.2809   -0.0000   -0.0000    1.6040    9.6520    0.0000    0.0000    6.9107   14.6198    0.0000
   33 H7     2px       -0.0000   -0.0701   -0.4671   -0.0000   -0.0000   -0.1614   -0.9984    0.0000   -0.0000   -0.1961
   34 H7     2py       -0.0000   -0.4541    0.0721   -0.0000   -0.0000   -1.0462    0.1540    0.0000   -0.0000   -1.2709
   35 H7     2pz        0.5120    0.0000    0.0000    0.1428   -0.5103   -0.0000    0.0000   -0.0843   -0.3029   -0.0000
   36 H8     1s         3.5003    0.0000    0.0000   -2.2841   -3.2295    0.0000   -0.0000   -4.4564   -6.4370    0.0000
   37 H8     2s         2.2981    0.0000    0.0000   -1.7026   -2.2594    0.0000   -0.0000   -2.6717   -3.8308   -0.0000
   38 H8     2px        0.0000    0.1009    0.6741    0.0000    0.0000    0.1223    0.7117   -0.0000    0.0000    0.0977
   39 H8     2py        0.0000    0.6537   -0.1040    0.0000    0.0000    0.7925   -0.1098   -0.0000    0.0000    0.6335
   40 H8     2pz        0.2039   -0.0000    0.0000    0.8600   -0.1803   -0.0000    0.0000    1.3179    1.1257   -0.0000
 
 
      Orbital               31        32        33        34        35        36        37        38        39        40
      Energy            3.1105    3.1215    3.9981    4.0524    4.0532    4.9751    5.9469    6.9550    7.6404    8.4166
      Occ. No.          0.0000    0.0000    0.0000    0.0000    0.0000    0.0000    0.0000    0.0000    0.0000    0.0000
 
    1 H1     1s         0.0000    0.3729   -3.7518    0.0000   -0.0000    3.5446   -2.8054    2.2275   -0.6467    0.3186
    2 H1     2s         0.0000   -0.4092   -1.3328    0.0000   -0.0000    0.7593   -0.0882   -0.2534    0.7846   -0.7588
    3 H1     2px        0.6468    0.0000   -0.0000   -0.0646   -0.4195   -0.0000   -0.0000   -0.0000    0.0000    0.0000
    4 H1     2py       -0.0998    0.0000   -0.0000   -0.4187    0.0647   -0.0000   -0.0000   -0.0000    0.0000    0.0000
    5 H1     2pz        0.0000    0.8535   -1.2239    0.0000   -0.0000    1.1661   -0.9748    0.7338   -0.2671    0.0791
    6 H2     1s        -0.0000    4.9732    6.0486   -0.0000    0.0000   -2.4202   -1.9723    4.4362   -5.9847    4.3732
    7 H2     2s        -0.0000    4.6234    2.7897   -0.0000    0.0000   -0.4468   -1.6408    1.9336   -2.1778    0.8159
    8 H2     2px       -1.3163   -0.0000    0.0000    0.1594    1.0356    0.0000    0.0000    0.0000   -0.0000   -0.0000
    9 H2     2py        0.2031   -0.0000    0.0000    1.0335   -0.1598    0.0000    0.0000    0.0000   -0.0000   -0.0000
   10 H2     2pz       -0.0000    0.5671   -0.9552    0.0000   -0.0000    1.9948   -2.9641    3.4139   -2.7328    1.9861
   11 H3     1s         0.0000  -15.6376   -4.4637    0.0000   -0.0000   -3.5878    8.4486   -5.6727    0.6138    4.2957
   12 H3     2s         0.0000  -12.6317   -2.5778    0.0000   -0.0000   -1.8935    3.4367   -1.7024    0.2832    0.8119
   13 H3     2px        1.3061    0.0000   -0.0000   -0.2389   -1.5516   -0.0000   -0.0000   -0.0000    0.0000    0.0000
   14 H3     2py       -0.2015    0.0000   -0.0000   -1.5484    0.2394   -0.0000   -0.0000   -0.0000    0.0000    0.0000
   15 H3     2pz        0.0000    0.0877    0.3467   -0.0000    0.0000   -0.6290   -0.2981    2.6878   -4.5104    4.9062
   16 H4     1s        -0.0000   23.5658    2.2697   -0.0000    0.0000    7.5952   -3.6218   -5.0417    6.0481    0.9686
   17 H4     2s        -0.0000   18.8533    1.0687   -0.0000    0.0000    3.8404   -1.7770   -1.6200    1.0600   -0.2520
   18 H4     2px       -0.5413   -0.0000    0.0000    0.2822    1.8356    0.0000    0.0000    0.0000   -0.0000   -0.0000
   19 H4     2py        0.0835   -0.0000    0.0000    1.8293   -0.2832    0.0000    0.0000    0.0000   -0.0000   -0.0000
   20 H4     2pz        0.0000    0.3875   -1.1081    0.0000   -0.0000    1.0637    1.2115   -1.0395   -2.2642    6.9104
   21 H5     1s         0.0000  -23.6370    2.1281    0.0000   -0.0000   -7.5959   -3.6264    5.0412    6.0491   -0.9680
   22 H5     2s         0.0000  -18.9141    0.9492    0.0000   -0.0000   -3.8387   -1.7805    1.6198    1.0601    0.2519
   23 H5     2px       -0.5407   -0.0000   -0.0000   -0.2818   -1.8358   -0.0000   -0.0000   -0.0000    0.0000    0.0000
   24 H5     2py        0.0834   -0.0000   -0.0000   -1.8267    0.2832   -0.0000   -0.0000   -0.0000    0.0000    0.0000
   25 H5     2pz       -0.0000    0.3641    1.1104   -0.0000    0.0000    1.0640   -1.2112   -1.0397    2.2638    6.9104
   26 H6     1s        -0.0000   15.7872   -4.3565   -0.0000    0.0000    3.5901    8.4516    5.6736    0.6141   -4.2962
   27 H6     2s        -0.0000   12.7647   -2.4848   -0.0000    0.0000    1.8911    3.4394    1.7028    0.2833   -0.8116
   28 H6     2px        1.3058    0.0000    0.0000    0.2418    1.5520   -0.0000   -0.0000   -0.0000    0.0000    0.0000
   29 H6     2py       -0.2014    0.0000    0.0000    1.5671   -0.2394   -0.0000   -0.0000   -0.0000    0.0000    0.0000
   30 H6     2pz        0.0000    0.0978   -0.3480    0.0000   -0.0000   -0.6289    0.2978    2.6877    4.5102    4.9065
   31 H7     1s         0.0000   -5.0986    6.0078   -0.0000    0.0000    2.4137   -1.9739   -4.4365   -5.9848   -4.3731
   32 H7     2s         0.0000   -4.7296    2.7478   -0.0000    0.0000    0.4471   -1.6423   -1.9338   -2.1778   -0.8163
   33 H7     2px       -1.3162   -0.0000   -0.0000   -0.1612   -1.0358    0.0000    0.0000    0.0000   -0.0000   -0.0000
   34 H7     2py        0.2031   -0.0000   -0.0000   -1.0452    0.1598    0.0000    0.0000    0.0000   -0.0000   -0.0000
   35 H7     2pz       -0.0000    0.5629    0.9624   -0.0000    0.0000    1.9933    2.9641    3.4140    2.7328    1.9863
   36 H8     1s        -0.0000   -0.3270   -3.7531    0.0000   -0.0000   -3.5397   -2.8049   -2.2275   -0.6465   -0.3187
   37 H8     2s        -0.0000    0.4437   -1.3273    0.0000   -0.0000   -0.7589   -0.0878    0.2534    0.7845    0.7589
   38 H8     2px        0.6468    0.0000    0.0000    0.0652    0.4196   -0.0000   -0.0000   -0.0000    0.0000    0.0000
   39 H8     2py       -0.0998    0.0000    0.0000    0.4225   -0.0647   -0.0000   -0.0000   -0.0000    0.0000    0.0000
   40 H8     2pz       -0.0000    0.8445    1.2280   -0.0000    0.0000    1.1648    0.9747    0.7339    0.2671    0.0791
--
 
      Von Neumann Entropy (Root  1) =  0.31648
 

      Mulliken population analysis for root number:  1
      -----------------------------------------------
 
 
++    Molecular charges:
      ------------------
 
      Mulliken charges per centre and basis function type
      ---------------------------------------------------
 
                H1      H2      H3      H4      H5      H6      H7      H8    
      1s       1.4051  0.3965  1.0998  0.8365  0.8580  1.1050  0.3923  1.4043
      2s       0.0044  0.0719 -0.0438 -0.0070 -0.0054 -0.0501  0.0716  0.0049
      2px      0.0000 -0.0000 -0.0000 -0.0000  0.0001  0.0001 -0.0000 -0.0000
      2pz      0.0440  0.0875  0.0604  0.0338  0.0345  0.0604  0.0869  0.0439
      2py      0.0000 -0.0000 -0.0000 -0.0003  0.0025  0.0027 -0.0003 -0.0000
      Total    1.4535  0.5558  1.1164  0.8630  0.8897  1.1181  0.5505  1.4531
 
      N-E     -0.4535  0.4442 -0.1164  0.1370  0.1103 -0.1181  0.4495 -0.4531
 
      Total electronic charge=    8.000000
 
      Total            charge=   -0.000000
--
 
 

      Expectation values of various properties for root number:  1
      -----------------------------------------------------------
 
 
++    Molecular properties:
      ---------------------
 
      Charge (e):
                      =   -0.0000
      Dipole Moment (Debye):
      Origin of the operator (Ang)=    0.0000    0.0000    0.0000
                   X=  6.5970E-13               Y=  2.4056E-12               Z= -2.8910E-03           Total=  2.8910E-03
      Quadrupole Moment (Debye*Ang):
      Origin of the operator (Ang)=    0.0000    0.0000    2.4394
                  XX= -7.4229E+00              XY= -1.2908E-03              XZ=  5.8311E-12              YY= -7.4311E+00
                  YZ=  3.5401E-11              ZZ= -1.4816E+01
      In traceless form (Debye*Ang)
                  XX=  3.7008E+00              XY= -1.9363E-03              XZ=  8.7467E-12              YY=  3.6885E+00
                  YZ=  5.3101E-11              ZZ= -7.3893E+00
--
 

      LoProp population analysis for root number:  1
      -----------------------------------------------
 
 
++    LoProp analysis:
      ----------------
 
 
 
  Input file to MOLDEN was generated!
 
 
++    Static properties:
      ------------------
 
 
      LoProp Charges per center
 

                   H1       H2       H3       H4       H5       H6       H7       H8    
      Nuclear      1.0000   1.0000   1.0000   1.0000   1.0000   1.0000   1.0000   1.0000
      Electronic  -1.1062  -0.9578  -0.9710  -0.9633  -0.9651  -0.9736  -0.9574  -1.1056
 
      Total       -0.1062   0.0422   0.0290   0.0367   0.0349   0.0264   0.0426  -0.1056
--
 
 
      Natural Bond Order analysis for root number:  1
 
++    Natural Bond Order analysis
      ---------------------------
      Based on LoProp computed density
      -------------------------------------------------------------------------------------
      Atom A       Atom B       Bond Order | Atom A       Atom B       Bond Order
        H1           H2             0.920  |   H7           H8             0.921
        H5           H6             0.901  |   H3           H4             0.894
      -------------------------------------------------------------------------------------
      NBO located      7.271 electrons involved in    4 bonds.
      The remaining    0.729 electrons are to be considered as diffuse
--
 
--
 
 
  Input file to MOLDEN was generated!
 
      Average orbitals are written to the RASORB file
      Natural orbitals for root   1 are written to the RASORB.1 file
      Spin density orbitals for root   1 are written to the SPDORB.1 file
 
--- Stop Module: rasscf at Tue Nov 12 16:14:11 2024 /rc=_RC_ALL_IS_WELL_ ---
*** files: H8_0.70.LprOrb H8_0.70.rasscf.molden H8_0.70.LoProp.molden H8_0.70.RasOrb H8_0.70.RasOrb.1 H8_0.70.rasscf.h5 H8_0.70.SpdOrb.1 xmldump
    saved to directory /home/grierjones/DDCASPT2/hydrogen_comps/H8_chain/H8_0.70
--- Module rasscf spent 2 seconds ---

>>> COPY /tmp/H8_0.70/H8_0.70.rasscf.h5 /home/grierjones/DDCASPT2/hydrogen_comps/H8_chain/H8_0.70/

>>> COPY /tmp/H8_0.70/GMJ_Fock_MO.csv /home/grierjones/DDCASPT2/hydrogen_comps/H8_chain/H8_0.70/H8_0.70.GMJ_Fock_MO.csv

>>> COPY /tmp/H8_0.70/GMJ_PT2_Fock_MO.csv /home/grierjones/DDCASPT2/hydrogen_comps/H8_chain/H8_0.70/H8_0.70.GMJ_PT2_Fock_MO.csv

*** symbolic link created: INPORB -> H8_0.70.RasOrb
--- Start Module: motra at Tue Nov 12 16:14:11 2024 ---
 
()()()()()()()()()()()()()()()()()()()()()()()()()()()()()()()()()()()()()()()()()()()()()()()()()()

                                               &MOTRA

                                   only a single process is used
                       available to each process: 2.0 GB of memory, 1 thread?
()()()()()()()()()()()()()()()()()()()()()()()()()()()()()()()()()()()()()()()()()()()()()()()()()()
 
 
      *** WARNING: Default frozen orbitals is overwritten by user input.
      *** Default values:   0
 
      Header of the integral files:
      
       Integrals generated by seward 4.2.0  , Tue Nov 12 16:14:08 2024
 
 
      Header of MO coefficients source file:
      * RASSCF average (pseudo-natural) orbitals                                      
 
 
      Cartesian coordinates in Angstrom:
      -----------------------------------------------------
      No.  Label        X            Y            Z        
      -----------------------------------------------------
       1   H1         0.00000000   0.00000000   0.00000000
       2   H2         0.00000000   0.00000000   0.69697000
       3   H3         0.00000000   0.00000000   1.39393900
       4   H4         0.00000000   0.00000000   2.09090900
       5   H5         0.00000000   0.00000000   2.78787900
       6   H6         0.00000000   0.00000000   3.48484800
       7   H7         0.00000000   0.00000000   4.18181800
       8   H8         0.00000000   0.00000000   4.87878800
      -----------------------------------------------------
      Nuclear repulsion energy =   10.43432287
 
      Orbital specifications:
      -----------------------
 
      Symmetry species:              1
      Number of basis functions:    40
      Frozen orbitals:               0
      Deleted orbitals:              0
      Number of orbitals used:      40

       SYMMETRY  BASIS FUNCTIONS       ORBITALS      INTEGRALS   CPU(SEC)  I/O(SEC)
 
        1 1 1 1   40  40  40  40    40  40  40  40      336610       0.00      0.00

       TOTAL CPU TIME(SEC)    0.17TOTAL I/O TIME(SEC)    0.46
 
--- Stop Module: motra at Tue Nov 12 16:14:12 2024 /rc=_RC_ALL_IS_WELL_ ---
*** files: xmldump
    saved to directory /home/grierjones/DDCASPT2/hydrogen_comps/H8_chain/H8_0.70

>>> COPY /tmp/H8_0.70/GMJ_one_int_indx.csv /home/grierjones/DDCASPT2/hydrogen_comps/H8_chain/H8_0.70/H8_0.70.GMJ_one_int_indx.csv

>>> COPY /tmp/H8_0.70/GMJ_one_int.csv /home/grierjones/DDCASPT2/hydrogen_comps/H8_chain/H8_0.70/H8_0.70.GMJ_one_int.csv

>>> COPY /tmp/H8_0.70/GMJ_two_int_indx.csv /home/grierjones/DDCASPT2/hydrogen_comps/H8_chain/H8_0.70/H8_0.70.GMJ_two_int_indx.csv

>>> COPY /tmp/H8_0.70/GMJ_two_int.csv /home/grierjones/DDCASPT2/hydrogen_comps/H8_chain/H8_0.70/H8_0.70.GMJ_two_int.csv

*** symbolic link created: INPORB -> H8_0.70.RasOrb
--- Start Module: caspt2 at Tue Nov 12 16:14:12 2024 ---
 
()()()()()()()()()()()()()()()()()()()()()()()()()()()()()()()()()()()()()()()()()()()()()()()()()()

                                              &CASPT2

                                   only a single process is used
                       available to each process: 2.0 GB of memory, 1 thread?
()()()()()()()()()()()()()()()()()()()()()()()()()()()()()()()()()()()()()()()()()()()()()()()()()()
 
 Cholesky algorithm in CASPT2 =    1
 
 ###############################################################################
 ###############################################################################
 ###                                                                         ###
 ###                                                                         ###
 ###    User changed nr of frozen orbitals.                                  ###
 ###                                                                         ###
 ###                                                                         ###
 ###############################################################################
 ###############################################################################
 
++    Wave function specifications:
      -----------------------------
 
      Number of closed shell electrons           0
      Number of electrons in active shells       8
      Max number of holes in RAS1 space          0
      Max number of electrons in RAS3 space      0
      Number of inactive orbitals                0
      Number of active orbitals                  8
      Number of secondary orbitals              32
      Spin quantum number                      0.0
      State symmetry                             1
      Number of CSFs                          1764
      Number of root(s) available                1
      Root passed to geometry opt.               1
      A file JOBMIX will be created.
      This is a CASSCF or RASSCF reference function
--
 
++    Orbital specifications:
      -----------------------
 
      Symmetry species                           1
                                                 a
      Frozen orbitals                            0
      Inactive orbitals                          0
      Active orbitals                            8
      Secondary orbitals                        32
      Deleted orbitals                           0
      Number of basis functions                 40
--
 
      Type of Fock operator: STANDARD
      Type of 0-order Hamiltonian: STANDARD WITH DEFAULT IPEA
        "IP-EA" denominator shift =      0.25
      The input orbitals and the CI vector will be transformed.
 
--------------------------------------------------------------------------------
 Estimated memory requirements:
  POLY3 :                   450746
  RHS:                      417296
  SIGMA :                   326032
  PRPCTL:                        0
 Available workspace:    230388092
 
++ CASPT2 computation for group   1
 
********************************************************************************
 Multi-State initialization phase begins for group   1
--------------------------------------------------------------------------------
********************************************************************************
 Compute H0 matrices for state    1
--------------------------------------------------------------------------------
--------------------------------------------------------------------------------
 H0 matrices have been computed.
 
********************************************************************************
  CASPT2 EQUATION SOLUTION
--------------------------------------------------------------------------------
 
  Total nr of CASPT2 parameters:
   Before reduction:       49280
   After  reduction:       48768
 
 The contributions to the second order correlation energy in atomic units.
-----------------------------------------------------------------------------------------------------------------------------
  IT.      VJTU        VJTI        ATVX        AIVX        VJAI        BVAT        BJAT        BJAI        TOTAL       RNORM  
-----------------------------------------------------------------------------------------------------------------------------
   1     0.000000    0.000000   -0.027025    0.000000    0.000000   -0.053891    0.000000    0.000000   -0.080917    0.006984
   2     0.000000    0.000000   -0.027349    0.000000    0.000000   -0.054097    0.000000    0.000000   -0.081446    0.001138
   3     0.000000    0.000000   -0.027363    0.000000    0.000000   -0.054109    0.000000    0.000000   -0.081472    0.000247
   4     0.000000    0.000000   -0.027352    0.000000    0.000000   -0.054107    0.000000    0.000000   -0.081459    0.000040
   5     0.000000    0.000000   -0.027352    0.000000    0.000000   -0.054106    0.000000    0.000000   -0.081458    0.000008
   6     0.000000    0.000000   -0.027352    0.000000    0.000000   -0.054106    0.000000    0.000000   -0.081459    0.000002
-------------------------------------------------------------------------------------------------------------------
 
  FINAL CASPT2 RESULT:
 
  Correlation energy /Case, /Symm, and sums:
 VJTU      0.00000000  0.00000000
 VJTIP     0.00000000  0.00000000
 VJTIM     0.00000000  0.00000000
 ATVX     -0.02735236 -0.02735236
 AIVX      0.00000000  0.00000000
 VJAIP     0.00000000  0.00000000
 VJAIM     0.00000000  0.00000000
 BVATP    -0.04877668 -0.04877668
 BVATM    -0.00532971 -0.00532971
 BJATP     0.00000000  0.00000000
 BJATM     0.00000000  0.00000000
 BJAIP     0.00000000  0.00000000
 BJAIM     0.00000000  0.00000000
 Summed:  -0.08145875 -0.08145875
 
      Reference energy:          -4.1479417770
      E2 (Non-variational):      -0.0814587531
      E2 (Variational):          -0.0814587455
      Total energy:              -4.2294005225
      Residual norm:              0.0000002776
      Reference weight:           0.97635
 
      Contributions to the CASPT2 correlation energy
      Active & Virtual Only:         -0.0814587531
      One Inactive Excited:           0.0000000000
      Two Inactive Excited:           0.0000000000
 
 
++ Denominators, etc.
----------------------------------------------------------------------------------------------------
 Report on small energy denominators, large coefficients, and large energy contributions.
CASE  SYMM ACTIVE-MIX  NON-ACTIVE INDICES          DENOMINATOR     RHS VALUE       COEFFICIENT     CONTRIBUTION
--
 
   (Skipping property calculation,
    use PROP keyword to activate)
--
 
  Total CASPT2 energies:
::    CASPT2 Root  1     Total energy:     -4.22940052
 
  A NEW JOBIPH FILE NAMED 'JOBMIX' IS PREPARED.
********************************************************************************
--- Stop Module: caspt2 at Tue Nov 12 16:14:12 2024 /rc=_RC_ALL_IS_WELL_ ---
*** files: xmldump
    saved to directory /home/grierjones/DDCASPT2/hydrogen_comps/H8_chain/H8_0.70

>>> EXPORT i = B

>>> EXPORT j = P

>>> IF (-FILE GMJ_e2_${i}_${j}.csv)
(Skipped)

>>> END FOREACH

>>> EXPORT j = M

>>> IF (-FILE GMJ_e2_${i}_${j}.csv)
(Skipped)

>>> END FOREACH

>>> END FOREACH

>>> EXPORT i = E

>>> EXPORT j = P

>>> IF (-FILE GMJ_e2_${i}_${j}.csv)
(Skipped)

>>> END FOREACH

>>> EXPORT j = M

>>> IF (-FILE GMJ_e2_${i}_${j}.csv)
(Skipped)

>>> END FOREACH

>>> END FOREACH

>>> EXPORT i = F

>>> EXPORT j = P

>>> IF (-FILE GMJ_e2_${i}_${j}.csv)

>>> COPY /tmp/H8_0.70/GMJ_RHS_F_P.csv /home/grierjones/DDCASPT2/hydrogen_comps/H8_chain/H8_0.70/GMJ_RHS_F_P.csv

>>> COPY /tmp/H8_0.70/GMJ_IVECW_F_P.csv /home/grierjones/DDCASPT2/hydrogen_comps/H8_chain/H8_0.70/GMJ_IVECW_F_P.csv

>>> COPY /tmp/H8_0.70/GMJ_IVECX_F_P.csv /home/grierjones/DDCASPT2/hydrogen_comps/H8_chain/H8_0.70/GMJ_IVECX_F_P.csv

>>> COPY /tmp/H8_0.70/GMJ_IVECC2_F_P.csv /home/grierjones/DDCASPT2/hydrogen_comps/H8_chain/H8_0.70/GMJ_IVECC2_F_P.csv

>>> COPY /tmp/H8_0.70/GMJ_e2_F_P.csv /home/grierjones/DDCASPT2/hydrogen_comps/H8_chain/H8_0.70/GMJ_e2_F_P.csv

>>> END FOREACH

>>> EXPORT j = M

>>> IF (-FILE GMJ_e2_${i}_${j}.csv)

>>> COPY /tmp/H8_0.70/GMJ_RHS_F_M.csv /home/grierjones/DDCASPT2/hydrogen_comps/H8_chain/H8_0.70/GMJ_RHS_F_M.csv

>>> COPY /tmp/H8_0.70/GMJ_IVECW_F_M.csv /home/grierjones/DDCASPT2/hydrogen_comps/H8_chain/H8_0.70/GMJ_IVECW_F_M.csv

>>> COPY /tmp/H8_0.70/GMJ_IVECX_F_M.csv /home/grierjones/DDCASPT2/hydrogen_comps/H8_chain/H8_0.70/GMJ_IVECX_F_M.csv

>>> COPY /tmp/H8_0.70/GMJ_IVECC2_F_M.csv /home/grierjones/DDCASPT2/hydrogen_comps/H8_chain/H8_0.70/GMJ_IVECC2_F_M.csv

>>> COPY /tmp/H8_0.70/GMJ_e2_F_M.csv /home/grierjones/DDCASPT2/hydrogen_comps/H8_chain/H8_0.70/GMJ_e2_F_M.csv

>>> END FOREACH

>>> END FOREACH

>>> EXPORT i = G

>>> EXPORT j = P

>>> IF (-FILE GMJ_e2_${i}_${j}.csv)
(Skipped)

>>> END FOREACH

>>> EXPORT j = M

>>> IF (-FILE GMJ_e2_${i}_${j}.csv)
(Skipped)

>>> END FOREACH

>>> END FOREACH

>>> EXPORT i = H

>>> EXPORT j = P

>>> IF (-FILE GMJ_e2_${i}_${j}.csv)
(Skipped)

>>> END FOREACH

>>> EXPORT j = M

>>> IF (-FILE GMJ_e2_${i}_${j}.csv)
(Skipped)

>>> END FOREACH

>>> END FOREACH

>>> EXPORT i = A

>>> IF (-FILE GMJ_e2_$i.csv)
(Skipped)

>>> END FOREACH

>>> EXPORT i = C

>>> IF (-FILE GMJ_e2_$i.csv)

>>> COPY /tmp/H8_0.70/GMJ_RHS_C.csv /home/grierjones/DDCASPT2/hydrogen_comps/H8_chain/H8_0.70/GMJ_RHS_C.csv

>>> COPY /tmp/H8_0.70/GMJ_IVECW_C.csv /home/grierjones/DDCASPT2/hydrogen_comps/H8_chain/H8_0.70/GMJ_IVECW_C.csv

>>> COPY /tmp/H8_0.70/GMJ_IVECX_C.csv /home/grierjones/DDCASPT2/hydrogen_comps/H8_chain/H8_0.70/GMJ_IVECX_C.csv

>>> COPY /tmp/H8_0.70/GMJ_IVECC2_C.csv /home/grierjones/DDCASPT2/hydrogen_comps/H8_chain/H8_0.70/GMJ_IVECC2_C.csv

>>> COPY /tmp/H8_0.70/GMJ_e2_C.csv /home/grierjones/DDCASPT2/hydrogen_comps/H8_chain/H8_0.70/GMJ_e2_C.csv

>>> END FOREACH

>>> EXPORT i = D

>>> IF (-FILE GMJ_e2_$i.csv)
(Skipped)

>>> END FOREACH

.########################.
.# Non-zero return code #.
.########################.

    Timing: Wall=5.08 User=4.06 System=1.01
***************************************
*** WorkDir at /tmp/H8_0.70 cleaned ***
***************************************
