[Molden Format]
[N_Atoms]
                     2
[Atoms] (AU)
C1          1      6           0.00000000      0.00000000      0.00000000
F2          2      9           0.00000000      0.00000000      2.83458919
[Charge] (Mulliken)
  0.366292653520020     
 -0.366292653520043     
[GTO] (AU)
   1
   s  14
  5.055750100E+04  1.128874000E-04
  7.524785600E+03  5.295373000E-04
  1.694327600E+03  2.450038300E-03
  4.728227900E+02  1.005398470E-02
  1.517107500E+02  3.545398060E-02
  5.391874600E+01  1.044071086E-01
  2.065931100E+01  2.412894918E-01
  8.383976000E+00  3.834225483E-01
  3.577015000E+00  3.078514393E-01
  1.547118000E+00  6.872442990E-02
  6.130130000E-01  2.224445000E-04
  2.460680000E-01  1.976748900E-03
  9.908700000E-02  2.057859400E-03
  3.468000000E-02  4.182020000E-04
   s  14
  5.055750100E+04 -2.507420000E-05
  7.524785600E+03 -1.175945000E-04
  1.694327600E+03 -5.456275000E-04
  4.728227900E+02 -2.245077100E-03
  1.517107500E+02 -8.043471800E-03
  5.391874600E+01 -2.442588710E-02
  2.065931100E+01 -6.136791180E-02
  8.383976000E+00 -1.177767835E-01
  3.577015000E+00 -1.550487783E-01
  1.547118000E+00 -1.933316860E-02
  6.130130000E-01  3.996930678E-01
  2.460680000E-01  5.589420949E-01
  9.908700000E-02  1.711195023E-01
  3.468000000E-02  7.456244600E-03
   p   9
  8.333315500E+01  1.344656000E-03
  1.955761100E+01  1.023555500E-02
  6.080365000E+00  4.520067100E-02
  2.179317000E+00  1.410756198E-01
  8.651500000E-01  3.047388085E-01
  3.619440000E-01  3.995281011E-01
  1.547400000E-01  2.719163432E-01
  6.542900000E-02  5.857669330E-02
  2.290000000E-02 -1.263813000E-04
 
   2
   s  14
  1.031094600E+05  1.713099991E-04
  1.528100700E+04  7.123999962E-04
  3.441539200E+03  2.990479984E-03
  9.670948300E+02  1.164036994E-02
  3.140353400E+02  3.968642979E-02
  1.134423000E+02  1.128546094E-01
  4.464472700E+01  2.473650687E-01
  1.894287400E+01  3.672702681E-01
  8.532743000E+00  2.896286985E-01
  3.919401000E+00  7.786681959E-02
  1.568157000E+00  4.562139976E-03
  6.232900000E-01  2.468879987E-03
  2.408610000E-01  1.106309994E-03
  8.430100000E-02  1.739699991E-04
   s  14
  1.031094600E+05 -4.044999995E-05
  1.528100700E+04 -1.682299998E-04
  3.441539200E+03 -7.084299991E-04
  9.670948300E+02 -2.767999996E-03
  3.140353400E+02 -9.611379987E-03
  1.134423000E+02 -2.833957996E-02
  4.464472700E+01 -6.839343991E-02
  1.894287400E+01 -1.237379298E-01
  8.532743000E+00 -1.512859698E-01
  3.919401000E+00 -9.099909988E-03
  1.568157000E+00  3.716257695E-01
  6.232900000E-01  5.500214393E-01
  2.408610000E-01  2.092318697E-01
  8.430100000E-02  8.074639989E-03
   p   9
  2.453302900E+02  1.024860004E-03
  5.691900500E+01  8.344290032E-03
  1.760456800E+01  4.078927016E-02
  6.274995000E+00  1.351370605E-01
  2.447030000E+00  2.798830811E-01
  9.950600000E-01  3.597966414E-01
  4.039730000E-01  3.055347412E-01
  1.548100000E-01  1.354703905E-01
  5.418400000E-02  2.804449011E-02
 
[MO]
Sym=     1a  
Ene=   -26.2630
Spin= Alpha
Occup=    1.00000
   1        -0.00006330
   2        -0.00044795
   3        -0.00000000
   4        -0.00000000
   5        -0.00033480
   6         1.00001666
   7        -0.00265669
   8         0.00000000
   9        -0.00000000
  10        -0.00092356
Sym=     1a  
Ene=   -26.2620
Spin= Beta
Occup=    1.00000
   1        -0.00005993
   2        -0.00042212
   3        -0.00000000
   4        -0.00000000
   5        -0.00032170
   6         1.00001562
   7        -0.00268493
   8         0.00000000
   9        -0.00000000
  10        -0.00092678
Sym=     2a  
Ene=   -11.4560
Spin= Alpha
Occup=    1.00000
   1         1.00001484
   2        -0.00157203
   3        -0.00000000
   4         0.00000000
   5         0.00205817
   6        -0.00018149
   7        -0.00100341
   8         0.00000000
   9        -0.00000000
  10         0.00012636
Sym=     2a  
Ene=   -11.4300
Spin= Beta
Occup=    1.00000
   1         0.99998755
   2        -0.00424352
   3        -0.00000000
   4         0.00000000
   5         0.00174989
   6        -0.00012248
   7        -0.00047239
   8         0.00000000
   9        -0.00000000
  10        -0.00020912
Sym=     3a  
Ene=    -1.5918
Spin= Alpha
Occup=    1.00000
   1        -0.01494950
   2         0.12002455
   3         0.00000000
   4         0.00000000
   5         0.08635352
   6        -0.00275622
   7         0.92888180
   8        -0.00000000
   9        -0.00000000
  10        -0.08289550
Sym=     3a  
Ene=    -1.5859
Spin= Beta
Occup=    1.00000
   1        -0.01482379
   2         0.09478874
   3         0.00000000
   4         0.00000000
   5         0.08077844
   6        -0.00204443
   7         0.93929058
   8        -0.00000000
   9        -0.00000000
  10        -0.08611842
Sym=     4a  
Ene=    -0.8771
Spin= Alpha
Occup=    1.00000
   1         0.01135303
   2        -0.77799990
   3         0.00000000
   4        -0.00000000
   5        -0.06159141
   6         0.01802537
   7         0.35955865
   8         0.00000000
   9        -0.00000000
  10         0.44554791
Sym=     4a  
Ene=    -0.8024
Spin= Beta
Occup=    1.00000
   1         0.01672936
   2        -0.62403544
   3         0.00000000
   4        -0.00000000
   5        -0.09745465
   6         0.01651135
   7         0.32449307
   8         0.00000000
   9        -0.00000000
  10         0.60989807
Sym=     5a  
Ene=    -0.6916
Spin= Alpha
Occup=    1.00000
   1         0.00000000
   2         0.00000000
   3         0.23750202
   4        -0.19228967
   5         0.00000000
   6        -0.00000000
   7        -0.00000000
   8         0.70197701
   9        -0.56834434
  10        -0.00000000
Sym=     5a  
Ene=    -0.6523
Spin= Beta
Occup=    1.00000
   1         0.00000000
   2         0.00000000
   3         0.08829502
   4         0.10905550
   5         0.00000000
   6        -0.00000000
   7        -0.00000000
   8         0.60866541
   9         0.75177864
  10        -0.00000000
Sym=     6a  
Ene=    -0.6489
Spin= Alpha
Occup=    1.00000
   1         0.00000000
   2         0.00000000
   3         0.10262037
   4         0.12674912
   5        -0.00000000
   6        -0.00000000
   7        -0.00000000
   8         0.60416973
   9         0.74622590
  10         0.00000000
Sym=     6a  
Ene=    -0.6454
Spin= Beta
Occup=    1.00000
   1        -0.00000000
   2         0.00000000
   3         0.09058311
   4        -0.07333915
   5        -0.00000000
   6        -0.00000000
   7        -0.00000000
   8         0.75714531
   9        -0.61301045
  10        -0.00000000
Sym=     7a  
Ene=    -0.5714
Spin= Alpha
Occup=    1.00000
   1         0.02773205
   2         0.60896625
   3        -0.00000000
   4        -0.00000000
   5        -0.47338036
   6         0.00655709
   7         0.07500761
   8        -0.00000000
   9        -0.00000000
  10         0.69157671
Sym=     7a  
Ene=    -0.5367
Spin= Beta
Occup=    1.00000
   1         0.02616370
   2         0.74530125
   3        -0.00000000
   4        -0.00000000
   5        -0.45864627
   6         0.00325407
   7         0.01985797
   8        -0.00000000
   9         0.00000000
  10         0.58725138
Sym=     8a  
Ene=    -0.4570
Spin= Alpha
Occup=    1.00000
   1        -0.00000000
   2        -0.00000000
   3        -0.75129667
   4         0.60827520
   5        -0.00000000
   6         0.00000000
   7         0.00000000
   8         0.35788570
   9        -0.28975637
  10        -0.00000000
Sym=     8a  
Ene=     0.0775
Spin= Beta
Occup=    0.00000
   1         0.00000000
   2         0.00000000
   3         0.63180537
   4         0.78035940
   5         0.00000000
   6        -0.00000000
   7        -0.00000000
   8        -0.19105091
   9        -0.23597200
  10         0.00000000
Sym=     9a  
Ene=     0.0427
Spin= Alpha
Occup=    0.00000
   1         0.00000000
   2         0.00000000
   3         0.62963727
   4         0.77768153
   5         0.00000000
   6        -0.00000000
   7        -0.00000000
   8        -0.20482426
   9        -0.25298382
  10         0.00000000
Sym=     9a  
Ene=     0.1375
Spin= Beta
Occup=    0.00000
   1        -0.00000000
   2        -0.00000000
   3        -0.78271872
   4         0.63371556
   5        -0.00000000
   6         0.00000000
   7         0.00000000
   8         0.21813960
   9        -0.17661320
  10        -0.00000000
Sym=    10a  
Ene=     0.2675
Spin= Alpha
Occup=    0.00000
   1         0.03204868
   2         0.41860497
   3        -0.00000000
   4        -0.00000000
   5         0.99067979
   6        -0.04447275
   7        -0.45685520
   8         0.00000000
   9         0.00000000
  10         0.70158796
Sym=    10a  
Ene=     0.3019
Spin= Beta
Occup=    0.00000
   1         0.03192147
   2         0.46028812
   3        -0.00000000
   4        -0.00000000
   5         0.99519247
   6        -0.04547564
   7        -0.46742953
   8         0.00000000
   9         0.00000000
  10         0.67203598
