[Molden Format]
[N_Atoms]
                     2
[Atoms] (AU)
C1          1      6           0.00000000      0.00000000      0.00000000
N2          2      7           0.00000000      0.00000000      5.29123315
[Charge] (Mulliken)
  4.168489886090843E-002
 -4.168489886091997E-002
[GTO] (AU)
   1
   s  14
  5.055750100E+04  1.128874000E-04
  7.524785600E+03  5.295373000E-04
  1.694327600E+03  2.450038300E-03
  4.728227900E+02  1.005398470E-02
  1.517107500E+02  3.545398060E-02
  5.391874600E+01  1.044071086E-01
  2.065931100E+01  2.412894918E-01
  8.383976000E+00  3.834225483E-01
  3.577015000E+00  3.078514393E-01
  1.547118000E+00  6.872442990E-02
  6.130130000E-01  2.224445000E-04
  2.460680000E-01  1.976748900E-03
  9.908700000E-02  2.057859400E-03
  3.468000000E-02  4.182020000E-04
   s  14
  5.055750100E+04 -2.507420000E-05
  7.524785600E+03 -1.175945000E-04
  1.694327600E+03 -5.456275000E-04
  4.728227900E+02 -2.245077100E-03
  1.517107500E+02 -8.043471800E-03
  5.391874600E+01 -2.442588710E-02
  2.065931100E+01 -6.136791180E-02
  8.383976000E+00 -1.177767835E-01
  3.577015000E+00 -1.550487783E-01
  1.547118000E+00 -1.933316860E-02
  6.130130000E-01  3.996930678E-01
  2.460680000E-01  5.589420949E-01
  9.908700000E-02  1.711195023E-01
  3.468000000E-02  7.456244600E-03
   p   9
  8.333315500E+01  1.344656000E-03
  1.955761100E+01  1.023555500E-02
  6.080365000E+00  4.520067100E-02
  2.179317000E+00  1.410756198E-01
  8.651500000E-01  3.047388085E-01
  3.619440000E-01  3.995281011E-01
  1.547400000E-01  2.719163432E-01
  6.542900000E-02  5.857669330E-02
  2.290000000E-02 -1.263813000E-04
 
   2
   s  14
  7.476171500E+04  1.182599996E-04
  1.112365400E+04  5.172899983E-04
  2.512685700E+03  2.266659992E-03
  7.037772900E+02  9.145289970E-03
  2.254787900E+02  3.239342989E-02
  7.961581000E+01  9.770792967E-02
  3.023728300E+01  2.317036792E-01
  1.226362200E+01  3.768898887E-01
  5.265086000E+00  3.177420689E-01
  2.333471000E+00  8.211308973E-02
  9.018560000E-01  3.312089989E-03
  3.583360000E-01  3.720819988E-03
  1.410930000E-01  3.165419989E-03
  4.938300000E-02  4.595799985E-04
   s  14
  7.476171500E+04 -2.707000010E-05
  1.112365400E+04 -1.183700004E-04
  2.512685700E+03 -5.203800020E-04
  7.037772900E+02 -2.102930008E-03
  2.254787900E+02 -7.568200028E-03
  7.961581000E+01 -2.346767009E-02
  3.023728300E+01 -6.042901023E-02
  1.226362200E+01 -1.170549104E-01
  5.265086000E+00 -1.555321506E-01
  2.333471000E+00 -2.468935009E-02
  9.018560000E-01  3.625054514E-01
  3.583360000E-01  5.550845021E-01
  1.410930000E-01  2.148376908E-01
  4.938300000E-02  8.983850034E-03
   p   9
  1.266665700E+02  1.233630000E-03
  2.983738900E+01  9.493409996E-03
  9.394038000E+00  4.293961998E-02
  3.405104000E+00  1.362925399E-01
  1.350000000E+00  2.921362499E-01
  5.576960000E-01  3.887887598E-01
  2.324490000E-01  2.946801399E-01
  9.426400000E-02  8.012875997E-02
  3.299200000E-02  5.405199998E-04
 
[MO]
Sym=     1a  
Ene=   -15.5080
Spin= Alpha
Occup=    1.00000
   1        -0.00033512
   2        -0.00012291
   3        -0.00000647
   4        -0.00001520
   5         0.00554930
   6         0.99994365
   7        -0.00524155
   8        -0.00007542
   9        -0.00017800
  10        -0.00073497
Sym=     1a  
Ene=   -15.5080
Spin= Beta
Occup=    1.00000
   1        -0.00033512
   2        -0.00012291
   3        -0.00000647
   4        -0.00001520
   5         0.00554930
   6         0.99994365
   7        -0.00524155
   8        -0.00007542
   9        -0.00017800
  10        -0.00073497
Sym=     2a  
Ene=   -11.2680
Spin= Alpha
Occup=    1.00000
   1         0.99988248
   2        -0.00222880
   3        -0.00001600
   4        -0.00003762
   5         0.01451666
   6         0.00014547
   7         0.00073398
   8        -0.00018630
   9        -0.00043968
  10        -0.00135697
Sym=     2a  
Ene=   -11.2680
Spin= Beta
Occup=    1.00000
   1         0.99988248
   2        -0.00222880
   3        -0.00001600
   4        -0.00003762
   5         0.01451666
   6         0.00014547
   7         0.00073398
   8        -0.00018630
   9        -0.00043968
  10        -0.00135697
Sym=     3a  
Ene=    -0.8747
Spin= Alpha
Occup=    1.00000
   1        -0.00096914
   2         0.04933462
   3         0.00015810
   4         0.00037175
   5        -0.12628575
   6         0.00609527
   7         0.99761760
   8         0.00216753
   9         0.00511556
  10         0.02203378
Sym=     3a  
Ene=    -0.8747
Spin= Beta
Occup=    1.00000
   1        -0.00096914
   2         0.04933462
   3         0.00015810
   4         0.00037175
   5        -0.12628575
   6         0.00609527
   7         0.99761760
   8         0.00216753
   9         0.00511556
  10         0.02203378
Sym=     4a  
Ene=    -0.6955
Spin= Alpha
Occup=    1.00000
   1        -0.00254336
   2        -0.99761685
   3        -0.00002451
   4        -0.00005761
   5         0.02037909
   6         0.00192105
   7         0.08674765
   8        -0.00040182
   9        -0.00094841
  10         0.02164257
Sym=     4a  
Ene=    -0.6955
Spin= Beta
Occup=    1.00000
   1        -0.00254336
   2        -0.99761685
   3        -0.00002451
   4        -0.00005761
   5         0.02037909
   6         0.00192105
   7         0.08674765
   8        -0.00040182
   9        -0.00094841
  10         0.02164257
Sym=     5a  
Ene=    -0.3855
Spin= Alpha
Occup=    1.00000
   1        -0.00001377
   2        -0.00079083
   3         0.00822339
   4         0.01940885
   5         0.03226717
   6        -0.00016436
   7        -0.00359220
   8         0.38963090
   9         0.91959093
  10        -0.00449849
Sym=     5a  
Ene=    -0.3855
Spin= Beta
Occup=    1.00000
   1        -0.00001377
   2        -0.00079083
   3         0.00822339
   4         0.01940885
   5         0.03226717
   6        -0.00016436
   7        -0.00359220
   8         0.38963090
   9         0.91959093
  10        -0.00449849
Sym=     6a  
Ene=    -0.3524
Spin= Alpha
Occup=    1.00000
   1         0.01516996
   2        -0.01876913
   3         0.00108219
   4         0.00254405
   5        -0.97868383
   6         0.01010353
   7        -0.05710070
   8         0.01260164
   9         0.02974158
  10         0.10238677
Sym=     6a  
Ene=    -0.3524
Spin= Beta
Occup=    1.00000
   1         0.01516996
   2        -0.01876913
   3         0.00108219
   4         0.00254405
   5        -0.97868383
   6         0.01010353
   7        -0.05710070
   8         0.01260164
   9         0.02974158
  10         0.10238677
Sym=     7a  
Ene=    -0.0000
Spin= Alpha
Occup=    1.00000
   1         0.00000001
   2         0.00000014
   3        -0.01145611
   4         0.00485396
   5         0.00000009
   6        -0.00000000
   7         0.00000002
   8        -0.92041474
   9         0.38997995
  10         0.00000184
Sym=     7a  
Ene=    -0.0000
Spin= Beta
Occup=    0.00000
   1         0.00000001
   2         0.00000014
   3        -0.01145611
   4         0.00485396
   5         0.00000009
   6        -0.00000000
   7         0.00000002
   8        -0.92041474
   9         0.38997995
  10         0.00000184
Sym=     8a  
Ene=     0.1167
Spin= Alpha
Occup=    0.00000
   1         0.00000001
   2         0.00000029
   3        -0.92095656
   4         0.39020712
   5        -0.00000336
   6         0.00000002
   7         0.00000023
   8         0.03357599
   9        -0.01422604
  10         0.00000330
Sym=     8a  
Ene=     0.1167
Spin= Beta
Occup=    0.00000
   1         0.00000001
   2         0.00000029
   3        -0.92095656
   4         0.39020712
   5        -0.00000336
   6         0.00000002
   7         0.00000023
   8         0.03357599
   9        -0.01422604
  10         0.00000330
Sym=     9a  
Ene=     0.1168
Spin= Alpha
Occup=    0.00000
   1         0.00000603
   2         0.00014479
   3        -0.39014867
   4        -0.92081864
   5        -0.00178066
   6         0.00000863
   7         0.00012274
   8         0.01762526
   9         0.04159863
  10         0.00171433
Sym=     9a  
Ene=     0.1168
Spin= Beta
Occup=    0.00000
   1         0.00000603
   2         0.00014479
   3        -0.39014867
   4        -0.92081864
   5        -0.00178066
   6         0.00000863
   7         0.00012274
   8         0.01762526
   9         0.04159863
  10         0.00171433
Sym=    10a  
Ene=     0.1676
Spin= Alpha
Occup=    0.00000
   1        -0.00361515
   2        -0.08623188
   3        -0.00059478
   4        -0.00139632
   5        -0.19619694
   6         0.00108748
   7         0.02721509
   8        -0.00039428
   9        -0.00092620
  10        -1.00057249
Sym=    10a  
Ene=     0.1676
Spin= Beta
Occup=    0.00000
   1        -0.00361515
   2        -0.08623188
   3        -0.00059478
   4        -0.00139632
   5        -0.19619694
   6         0.00108748
   7         0.02721509
   8        -0.00039428
   9        -0.00092620
  10        -1.00057249
