[Molden Format]
[N_Atoms]
                     2
[Atoms] (AU)
C1          1      6           0.00000000      0.00000000      0.00000000
N2          2      7           0.00000000      0.00000000      5.29123315
[Charge] (Mulliken)
  4.522089162422915E-003
 -4.522089162479759E-003
[GTO] (AU)
   1
   s  14
  5.055750100E+04  1.128874000E-04
  7.524785600E+03  5.295373000E-04
  1.694327600E+03  2.450038300E-03
  4.728227900E+02  1.005398470E-02
  1.517107500E+02  3.545398060E-02
  5.391874600E+01  1.044071086E-01
  2.065931100E+01  2.412894918E-01
  8.383976000E+00  3.834225483E-01
  3.577015000E+00  3.078514393E-01
  1.547118000E+00  6.872442990E-02
  6.130130000E-01  2.224445000E-04
  2.460680000E-01  1.976748900E-03
  9.908700000E-02  2.057859400E-03
  3.468000000E-02  4.182020000E-04
   s  14
  5.055750100E+04 -2.507420000E-05
  7.524785600E+03 -1.175945000E-04
  1.694327600E+03 -5.456275000E-04
  4.728227900E+02 -2.245077100E-03
  1.517107500E+02 -8.043471800E-03
  5.391874600E+01 -2.442588710E-02
  2.065931100E+01 -6.136791180E-02
  8.383976000E+00 -1.177767835E-01
  3.577015000E+00 -1.550487783E-01
  1.547118000E+00 -1.933316860E-02
  6.130130000E-01  3.996930678E-01
  2.460680000E-01  5.589420949E-01
  9.908700000E-02  1.711195023E-01
  3.468000000E-02  7.456244600E-03
   p   9
  8.333315500E+01  1.344656000E-03
  1.955761100E+01  1.023555500E-02
  6.080365000E+00  4.520067100E-02
  2.179317000E+00  1.410756198E-01
  8.651500000E-01  3.047388085E-01
  3.619440000E-01  3.995281011E-01
  1.547400000E-01  2.719163432E-01
  6.542900000E-02  5.857669330E-02
  2.290000000E-02 -1.263813000E-04
 
   2
   s  14
  7.476171500E+04  1.182599996E-04
  1.112365400E+04  5.172899983E-04
  2.512685700E+03  2.266659992E-03
  7.037772900E+02  9.145289970E-03
  2.254787900E+02  3.239342989E-02
  7.961581000E+01  9.770792967E-02
  3.023728300E+01  2.317036792E-01
  1.226362200E+01  3.768898887E-01
  5.265086000E+00  3.177420689E-01
  2.333471000E+00  8.211308973E-02
  9.018560000E-01  3.312089989E-03
  3.583360000E-01  3.720819988E-03
  1.410930000E-01  3.165419989E-03
  4.938300000E-02  4.595799985E-04
   s  14
  7.476171500E+04 -2.707000010E-05
  1.112365400E+04 -1.183700004E-04
  2.512685700E+03 -5.203800020E-04
  7.037772900E+02 -2.102930008E-03
  2.254787900E+02 -7.568200028E-03
  7.961581000E+01 -2.346767009E-02
  3.023728300E+01 -6.042901023E-02
  1.226362200E+01 -1.170549104E-01
  5.265086000E+00 -1.555321506E-01
  2.333471000E+00 -2.468935009E-02
  9.018560000E-01  3.625054514E-01
  3.583360000E-01  5.550845021E-01
  1.410930000E-01  2.148376908E-01
  4.938300000E-02  8.983850034E-03
   p   9
  1.266665700E+02  1.233630000E-03
  2.983738900E+01  9.493409996E-03
  9.394038000E+00  4.293961998E-02
  3.405104000E+00  1.362925399E-01
  1.350000000E+00  2.921362499E-01
  5.576960000E-01  3.887887598E-01
  2.324490000E-01  2.946801399E-01
  9.426400000E-02  8.012875997E-02
  3.299200000E-02  5.405199998E-04
 
[MO]
Sym=     1a  
Ene=   -15.5900
Spin= Alpha
Occup=    1.00000
   1        -0.00002347
   2        -0.00032905
   3        -0.00000000
   4         0.00000000
   5        -0.00041405
   6         0.99999997
   7        -0.00227953
   8        -0.00000000
   9        -0.00000000
  10        -0.00010916
Sym=     1a  
Ene=   -15.4970
Spin= Beta
Occup=    1.00000
   1        -0.00001423
   2        -0.00015088
   3        -0.00000000
   4         0.00000000
   5        -0.00014559
   6         0.99996062
   7        -0.00897369
   8        -0.00000000
   9        -0.00000000
  10        -0.00005660
Sym=     2a  
Ene=   -11.2120
Spin= Alpha
Occup=    1.00000
   1         0.99998855
   2        -0.00490501
   3        -0.00000000
   4         0.00000000
   5         0.00006099
   6        -0.00001505
   7        -0.00017062
   8        -0.00000000
   9        -0.00000000
  10         0.00011768
Sym=     2a  
Ene=   -11.2590
Spin= Beta
Occup=    1.00000
   1         1.00000130
   2         0.00009012
   3        -0.00000000
   4        -0.00000000
   5         0.00009232
   6        -0.00002512
   7        -0.00030194
   8         0.00000000
   9        -0.00000000
  10         0.00026309
Sym=     3a  
Ene=    -1.1196
Spin= Alpha
Occup=    1.00000
   1        -0.00101292
   2         0.00532176
   3        -0.00000000
   4         0.00000000
   5        -0.00010001
   6         0.00231339
   7         0.99977410
   8         0.00000000
   9         0.00000000
  10        -0.00538417
Sym=     3a  
Ene=    -0.7953
Spin= Beta
Occup=    1.00000
   1        -0.00024408
   2         0.98478480
   3        -0.00000000
   4        -0.00000000
   5         0.01152005
   6        -0.00029119
   7         0.13543894
   8         0.00000000
   9         0.00000000
  10        -0.01046317
Sym=     4a  
Ene=    -0.5712
Spin= Alpha
Occup=    1.00000
   1        -0.00219048
   2        -0.80146665
   3        -0.00000000
   4         0.00000000
   5        -0.01084129
   6         0.00141668
   7         0.03872201
   8         0.00000000
   9         0.00000000
  10         0.54961427
Sym=     4a  
Ene=    -0.7018
Spin= Beta
Occup=    1.00000
   1        -0.00102859
   2        -0.17325764
   3        -0.00000000
   4        -0.00000000
   5         0.06422445
   6         0.00882525
   7         0.98455480
   8        -0.00000000
   9         0.00000000
  10         0.00828848
Sym=     5a  
Ene=    -0.5396
Spin= Alpha
Occup=    1.00000
   1        -0.00000000
   2        -0.00000000
   3         0.00645577
   4        -0.00253324
   5        -0.00000000
   6         0.00000000
   7         0.00000000
   8         0.93071883
   9        -0.36521397
  10        -0.00000000
Sym=     5a  
Ene=    -0.4080
Spin= Beta
Occup=    1.00000
   1         0.00000000
   2         0.00000000
   3         0.36517170
   4         0.93061111
   5        -0.00000000
   6         0.00000000
   7         0.00000000
   8         0.00382512
   9         0.00974801
  10         0.00000000
Sym=     6a  
Ene=    -0.5392
Spin= Alpha
Occup=    1.00000
   1         0.00000000
   2         0.00000000
   3         0.00206006
   4         0.00524990
   5         0.00000000
   6         0.00000000
   7        -0.00000000
   8         0.36522831
   9         0.93075538
  10         0.00000000
Sym=     6a  
Ene=    -0.4046
Spin= Beta
Occup=    1.00000
   1        -0.00007188
   2        -0.00228566
   3         0.00000000
   4         0.00000000
   5         0.99464864
   6        -0.00560419
   7        -0.13608760
   8         0.00000000
   9         0.00000000
  10        -0.05055628
Sym=     7a  
Ene=    -0.5215
Spin= Alpha
Occup=    1.00000
   1         0.00570236
   2         0.60234476
   3        -0.00000000
   4         0.00000000
   5        -0.02627736
   6        -0.00082024
   7        -0.01947941
   8         0.00000000
   9        -0.00000000
  10         0.83422982
Sym=     7a  
Ene=     0.1066
Spin= Beta
Occup=    0.00000
   1         0.00000000
   2         0.00000000
   3         0.92707676
   4        -0.36378482
   5        -0.00000000
   6         0.00000000
   7         0.00000000
   8         0.06486493
   9        -0.02545299
  10         0.00000000
Sym=     8a  
Ene=     0.1692
Spin= Alpha
Occup=    0.00000
   1         0.00000000
   2        -0.00000000
   3         0.93114261
   4        -0.36538026
   5        -0.00000000
   6         0.00000000
   7         0.00000000
   8        -0.02882177
   9         0.01130966
  10        -0.00000000
Sym=     8a  
Ene=     0.2621
Spin= Beta
Occup=    0.00000
   1         0.00000000
   2         0.00000000
   3        -0.01260089
   4        -0.03211237
   5         0.00000000
   6         0.00000000
   7        -0.00000000
   8         0.36536902
   9         0.93111396
  10         0.00000000
Sym=     9a  
Ene=     0.2314
Spin= Alpha
Occup=    0.00000
   1        -0.00000000
   2         0.00000000
   3         0.36538323
   4         0.93115019
   5        -0.00000000
   6         0.00000000
   7         0.00000000
   8        -0.01083668
   9        -0.02761643
  10        -0.00000000
Sym=     9a  
Ene=     0.2626
Spin= Beta
Occup=    0.00000
   1        -0.00000000
   2        -0.00000000
   3        -0.08716027
   4         0.03420168
   5        -0.00000000
   6         0.00000000
   7         0.00000000
   8         0.92890300
   9        -0.36450143
  10        -0.00000000
Sym=    10a  
Ene=     0.2386
Spin= Alpha
Occup=    0.00000
   1         0.00050754
   2         0.01570469
   3         0.00000000
   4         0.00000000
   5         1.00655666
   6        -0.00484648
   7        -0.07331988
   8        -0.00000000
   9        -0.00000000
  10         0.12067954
Sym=    10a  
Ene=     0.2696
Spin= Beta
Occup=    0.00000
   1         0.00345975
   2         0.07511699
   3        -0.00000000
   4         0.00000000
   5         0.14276235
   6        -0.00091056
   7        -0.02271107
   8         0.00000000
   9        -0.00000000
  10         1.00492468
