   This run of MOLCAS is using the pymolcas driver

                             OPE
                             OPE          NMOL  CASOP  ENMOLC A   SO
                 OPE        NMOLC        AS  OP EN  MO LC     AS  OP
                OPENM       OL CA        SO  PE NM  OL CA     SOP EN
                OP EN      MO   LC       AS  OP ENMOL  CASO   PENMOL
                OP  EN     MO   LC       AS  OP EN     MO     LC ASO
               OP   E  NMOL  C  AS       OP  EN MO     LC     AS  OP
               OP  E   NMO   LC AS        OPEN  MO     LCASOP EN   M
               O  PEN   MO  LCA  SO
            OPE   NMO   L   CAS    OP
        OPENMOL  CASOP     ENMOL   CASOPE
     OPENMOLCA   SOPENMOLCASOPEN   MOLCASOPE
    OPENMOLCAS   OP           EN   MOL    CAS
    OPENMOLCAS       OP  ENM        O     LCA
    OPENMOLCAS    OPEN  MOLCASO     P  E  NMO
    OPENMOLCAS     OP               E  N  MOL
    OPENMOLCA   SO           PENM   O  L  CAS    OPEN    MO    LCAS
    OPENMOLCA   SOP           ENM   O  L  CAS   OP  EN  MOLC  AS   O
    OPENMOLCA   SOPE           NM      O  LCA   S      OP  EN MO
    OPENMOLC                AS         O  PEN   M      OL  CA  SOPE
    OPENMO        LCASOPE  NMOL        C  ASO   P      ENMOLC     AS
    OPE     NMO      LCA  SO     P     E   NM   OL  CA SO  PE N   MO
          OPENMOLCA            SOPE   NMO        LCAS  O    P  ENMO
     OPENMOLCASOPENMOLCASOPENMOLCASOPENMOLCA
        OPENMOLCASOPENMOLCASOPENMOLCASOPE
            OPENMOLCASOPENMOLCASOPENM
               OPENMOLCASOPENMOLCA        version: ea724fe96-dirty
                   OPENMOLCASO
                       OPE                tag:

 OpenMolcas is free software; you can redistribute it and/or modify it
 under the terms of the GNU Lesser General Public License version 2.1.
 OpenMolcas is distributed in the hope that it will be useful, but it
 is provided "as is" and without any express or implied warranties.
 For more details see the full text of the license in the file
 LICENSE or in <http://www.gnu.org/licenses/>.

                 Copyright (C) The OpenMolcas Authors
           For the author list and the recommended citation,
                   consult the file CONTRIBUTORS.md

           *************************************************
           * pymolcas version py2.28                       *
           *   build c4a6d18ded8cb6cad61d2372a9abd97c      *
           *   (after the EMIL interpreter by V. Veryazov) *
           *************************************************

configuration info
------------------
C Compiler ID: Intel
C flags: -std=gnu99
Fortran Compiler ID: Intel
Fortran flags: -fpp -i8 -r8 -heap-arrays
Definitions: _MOLCAS_;_I8_;_LINUX_
Parallel: OFF (GA=OFF)


   -------------------------------------------------------------------------------
  |
  |              Project: 5.51
  |       Submitted from: /home/grierjones/DDCASPT2/iron_oxo_DDCASPT2/cluster/5.51
  |         Scratch area: /tmp/5.51
  |      Save outputs to: /home/grierjones/DDCASPT2/iron_oxo_DDCASPT2/cluster/5.51
  |               Molcas: /home/grierjones/Test/build
  |
  | Scratch area is empty
  |
  |       MOLCAS_DRIVER = /usr/local/pymolcas
  | MOLCAS_KEEP_WORKDIR = NO
  |  MOLCAS_NEW_WORKDIR = YES
  |       MOLCAS_NPROCS = 1
  |        MOLCAS_PRINT = NORMAL
  |       MOLCAS_SOURCE = /home/grierjones/Test/build
  |    MOLCAS_STRUCTURE = 0
  |
   -------------------------------------------------------------------------------

++ ---------   Input file   ---------

&GATEWAY
coord=5.51.xyz
Basis = ANO-RCC-VDZP
Group = nosymm
Expert
End of Input

&SEWARD
End of Input

&SCF
UHF
charge
2
spin
5
FileOrb
/home/grierjones/DDCASPT2/iron_oxo_DDCASPT2/cluster/5.50/5.50.UhfOrb

>>> COPY $WorkDir/5.51.scf.h5 $CurrDir/

&RASSCF
Title= RASSCF
FileOrb
/home/grierjones/DDCASPT2/iron_oxo_DDCASPT2/cluster/5.50/5.50.RasOrb
NACTEL
10 0 0
RAS2
14
Symmetry
1
Spin
5
charge
2
orblisting
all
ITERation
300 200

>>> COPY $WorkDir/5.51.rasscf.h5 $CurrDir/

>>> COPY $WorkDir/GMJ_Fock_MO.csv $CurrDir/5.51.GMJ_Fock_MO.csv

>>> COPY $WorkDir/GMJ_PT2_Fock_MO.csv $CurrDir/5.51.GMJ_PT2_Fock_MO.csv

&MOTRA
Frozen=0
LUMORB

>>> COPY $WorkDir/GMJ_one_int_indx.csv $CurrDir/5.51.GMJ_one_int_indx.csv

>>> COPY $WorkDir/GMJ_one_int.csv $CurrDir/5.51.GMJ_one_int.csv

>>> COPY $WorkDir/GMJ_two_int_indx.csv $CurrDir/5.51.GMJ_two_int_indx.csv

>>> COPY $WorkDir/GMJ_two_int.csv $CurrDir/5.51.GMJ_two_int.csv

&CASPT2
Frozen
0
MAXITER
50

>>> FOREACH i IN (B,E,F,G,H)

  >>> FOREACH j IN (P,M)

    >>> IF (-FILE GMJ_e2_${i}_${j}.csv)

      >>> COPY $WorkDir/GMJ_RHS_${i}_${j}.csv $CurrDir/GMJ_RHS_${i}_${j}.csv

      >>> COPY $WorkDir/GMJ_IVECW_${i}_${j}.csv $CurrDir/GMJ_IVECW_${i}_${j}.csv

      >>> COPY $WorkDir/GMJ_IVECX_${i}_${j}.csv $CurrDir/GMJ_IVECX_${i}_${j}.csv

      >>> COPY $WorkDir/GMJ_IVECC2_${i}_${j}.csv $CurrDir/GMJ_IVECC2_${i}_${j}.csv

      >>> COPY $WorkDir/GMJ_e2_${i}_${j}.csv $CurrDir/GMJ_e2_${i}_${j}.csv

    >>> END IF

  >>> END FOREACH

>>> END FOREACH

>>> FOREACH i IN (A,C,D)

  >>> IF (-FILE GMJ_e2_$i.csv)

    >>> COPY $WorkDir/GMJ_RHS_$i.csv $CurrDir/GMJ_RHS_$i.csv

    >>> COPY $WorkDir/GMJ_IVECW_$i.csv $CurrDir/GMJ_IVECW_$i.csv

    >>> COPY $WorkDir/GMJ_IVECX_$i.csv $CurrDir/GMJ_IVECX_$i.csv

    >>> COPY $WorkDir/GMJ_IVECC2_$i.csv $CurrDir/GMJ_IVECC2_$i.csv

    >>> COPY $WorkDir/GMJ_e2_$i.csv $CurrDir/GMJ_e2_$i.csv

  >>> END IF

>>> END FOREACH

-- ----------------------------------

--- Start Module: gateway at Wed Dec 25 08:31:17 2024 ---
 
()()()()()()()()()()()()()()()()()()()()()()()()()()()()()()()()()()()()()()()()()()()()()()()()()()

                                              &GATEWAY

                                   only a single process is used
                       available to each process: 2.0 GB of memory, 1 thread?
()()()()()()()()()()()()()()()()()()()()()()()()()()()()()()()()()()()()()()()()()()()()()()()()()()
 
 ###############################################################################
 ###############################################################################
 ###                                                                         ###
 ###                                                                         ###
 ###                                                                         ###
 ###    WARNING: EXPERT option is ON!                                        ###
 ###                                                                         ###
 ###                                                                         ###
 ###############################################################################
 ###############################################################################
 
++    Symmetry information:
      ---------------------
 
                    Character Table for C1 
 
                             E  
                    a        1  x, y, xy, Rz, z, xz, Ry, yz, Rx, I
--
 
 
++    Basis set information:
      ----------------------
 
 
      Basis set label: O.ANO-RCC...3S2P1D.
 
      Electronic valence basis set:
      ------------------
      Associated Effective Charge   8.000000 au
      Associated Actual Charge      8.000000 au
      Nuclear Model: Point charge
 
      Shell  nPrim  nBasis  Cartesian Spherical Contaminant
         s      14       3        X                  
         p       9       2        X                  
         d       4       1                 X         
 
 
      Basis set label: FE.ANO-RCC...5S4P2D1F.
 
      Electronic valence basis set:
      ------------------
      Associated Effective Charge  26.000000 au
      Associated Actual Charge     26.000000 au
      Nuclear Model: Point charge
 
      Shell  nPrim  nBasis  Cartesian Spherical Contaminant
         s      21       5        X                  
         p      15       4        X                  
         d      10       2                 X         
         f       6       1                 X         
--
 
 
++    Molecular structure info:
      -------------------------
 
                    ************************************************ 
                    **** Cartesian Coordinates / Bohr, Angstrom **** 
                    ************************************************ 
 
     Center  Label                x              y              z                     x              y              z
        1      O1               0.000000       0.000000       6.721208              0.000000       0.000000       3.556710
        2      FE2              0.000000       0.000000      -3.697646              0.000000       0.000000      -1.956710
--
 
 
            Nuclear Potential Energy             19.96380827 au
 
 ###############################################################################
 ###############################################################################
 ###                                                                         ###
 ###                                                                         ###
 ###    There were warnings during the execution                             ###
 ###    Please, check the output with care!                                  ###
 ###                                                                         ###
 ###                                                                         ###
 ###############################################################################
 ###############################################################################
--- Stop Module: gateway at Wed Dec 25 08:31:17 2024 /rc=_RC_ALL_IS_WELL_ ---
*** files: xmldump
    saved to directory /home/grierjones/DDCASPT2/iron_oxo_DDCASPT2/cluster/5.51

--- Start Module: seward at Wed Dec 25 08:31:17 2024 ---
 
()()()()()()()()()()()()()()()()()()()()()()()()()()()()()()()()()()()()()()()()()()()()()()()()()()

                                              &SEWARD

                                   only a single process is used
                       available to each process: 2.0 GB of memory, 1 thread?
()()()()()()()()()()()()()()()()()()()()()()()()()()()()()()()()()()()()()()()()()()()()()()()()()()
 
 ###############################################################################
 ###############################################################################
 ###                                                                         ###
 ###                                                                         ###
 ###                                                                         ###
 ###    WARNING: EXPERT option is ON!                                        ###
 ###                                                                         ###
 ###                                                                         ###
 ###############################################################################
 ###############################################################################
               SEWARD will generate:
                  Multipole Moment integrals up to order  2
                  Kinetic Energy integrals
                  Nuclear Attraction integrals (point charge)
                  One-Electron Hamiltonian integrals
                  Velocity integrals
                  Relativistic Douglas-Kroll-Hess integrals:
                    - Parametrization         : EXP
                    - DKH order of Hamiltonian: 2
                    - DKH order of Properties : 0
                         - multipole moment operators
                         - electric potential operators
                         - contact operators
                  Atomic mean-field integrals
                  Two-Electron Repulsion integrals
 
                   Integrals are discarded if absolute value <: 0.10E-13
                   Integral cutoff threshold is set to       <: 0.10E-15
 
            Nuclear Potential Energy             19.96380827 au
 
 
      Basis set specifications :
      Symmetry species         a  
      Basis functions           48
 
 
  Input file to MOLDEN was generated!
 
 ###############################################################################
 ###############################################################################
 ###                                                                         ###
 ###                                                                         ###
 ###    There were warnings during the execution                             ###
 ###    Please, check the output with care!                                  ###
 ###                                                                         ###
 ###                                                                         ###
 ###############################################################################
 ###############################################################################
--- Stop Module: seward at Wed Dec 25 08:31:18 2024 /rc=_RC_ALL_IS_WELL_ ---
*** files: 5.51.GssOrb 5.51.guessorb.h5 5.51.guessorb.molden xmldump
    saved to directory /home/grierjones/DDCASPT2/iron_oxo_DDCASPT2/cluster/5.51

*** symbolic link created: INPORB -> 5.51.GssOrb
--- Start Module: scf at Wed Dec 25 08:31:18 2024 ---
 
()()()()()()()()()()()()()()()()()()()()()()()()()()()()()()()()()()()()()()()()()()()()()()()()()()

                                                &SCF

                                   only a single process is used
                       available to each process: 2.0 GB of memory, 1 thread?
()()()()()()()()()()()()()()()()()()()()()()()()()()()()()()()()()()()()()()()()()()()()()()()()()()
 
 *** Possible bug in opening file
 *** isFreeUnit resets the unit number
++    Input section:
      --------------
 
      Header of the integral files:
      
       Integrals generated by seward 4.2.0  , Wed Dec 25 08:31:17 2024
 
 
      Cartesian coordinates in Angstrom:
      -----------------------------------------------------
      No.  Label        X            Y            Z        
      -----------------------------------------------------
       1   O1         0.00000000   0.00000000   3.55671000
       2   FE2        0.00000000   0.00000000  -1.95671000
      -----------------------------------------------------
      Nuclear repulsion energy =   19.96380827
--
 
++    Orbital specifications:
      -----------------------
 
      Symmetry species               1
                                     a
      Frozen orbitals                0
      Occupied orbitals alpha       18
      Occupied orbitals beta        14
      Secondary orbitals alpha      30
      Secondary orbitals beta       34
      Deleted orbitals               0
      Total number of orbitals      48
      Number of basis functions     48
--
 
      Molecular charge                           2.000
 
++    Optimization specifications:
      ----------------------------
 
      SCF Algorithm: Conventional USCF
      D(i)-D(i-1) density differences are used
      Number of density matrices in core                5
      Maximum number of NDDO SCF iterations           400
      Maximum number of HF SCF iterations             400
      Threshold for SCF energy change            0.10E-08
      Threshold for density matrix               0.10E-03
      Threshold for Fock matrix                  0.15E-03
      Threshold for linear dependence            0.10E-08
      Threshold at which DIIS is turned on       0.15E+00
      Threshold at which QNR/C2DIIS is turned on 0.75E-01
      Threshold for Norm(delta) (QNR/C2DIIS)     0.20E-04
      DIIS extrapolation of the SCF procedure
      All orbitals punched on: UHFORB
--
 
      Input vectors read from INPORB
      Orbital file label: * UHF orbitals
 
 
++ Convergence information
                               UHF SCF        iterations: Energy and convergence statistics
 
Iter     Tot. SCF        One-elec.       Two-elec.     Energy      Max Dij or  Max Fij      DNorm      TNorm      AccCon     Time
         Energy          Energy          Energy        Change      Delta Norm                                                in Sec.
 
 The total and one-electron energies are shifted by a value of      1000. a.u.
 
   1  -345.262936063  -888.287301148   523.060556811   0.00E+00    0.70E-04    0.27E-04     0.80E+01   0.18E+03   None         0.
   2  -345.262936072  -888.287436735   523.060692389  -0.89E-08*   0.34E-04    0.92E-05     0.25E-03   0.18E+03   EDIIS        0.
   3  -345.262936073  -888.287288545   523.060544197  -0.14E-08*   0.11E-04    0.13E-04     0.11E-03   0.18E+03   c2DIIS       0.
   4  -345.262936073  -888.287620036   523.060875687  -0.46E-09    0.23E-04*   0.55E-05     0.46E-04   0.18E+03   QNRc2DIIS    0.
   5  -345.262936073  -888.287102398   523.060358050  -0.51E-10    0.11E-04    0.50E-05     0.33E-04   0.18E+03   QNRc2DIIS    0.
 
       Convergence after  5 Macro Iterations
--
 
 *****************************************************************************************************************************
 *                                                                                                                           *
 *                                             SCF/KS-DFT Program, Final results                                             *
 *                                                                                                                           *
 *                                                                                                                           *
 *                                                                                                                           *
 *                                                       Final Results                                                       *
 *                                                                                                                           *
 *****************************************************************************************************************************
 
::    Total SCF energy                              -1345.2629360734
      One-electron energy                           -1888.2871023980
      Two-electron energy                             523.0603580496
      Nuclear repulsion energy                         19.9638082750
      Kinetic energy (interpolated)                  1399.3962228459
      Virial theorem                                    0.9613166837
      Total spin, S(S+1)                                7.0175519274
      Total spin, S                                     2.1958397444
      Max non-diagonal density matrix element           0.0000039724
      Max non-diagonal Fock matrix element              0.0000021609
 
 
      All orbitals with orbital energies smaller than  E(LUMO)+0.5 are printed
 
++    Molecular orbitals:
      -------------------
 
      Title: UHF orbitals (alpha)

      Molecular orbitals for symmetry species 1: a  
 
          Orbital            1         2         3         4         5         6         7         8         9        10    
          Energy         -263.8719  -32.6484  -27.7319  -27.7319  -27.7011  -21.4944   -4.5624   -3.1397   -3.1397   -3.0681
          Occ. No.          1.0000    1.0000    1.0000    1.0000    1.0000    1.0000    1.0000    1.0000    1.0000    1.0000
 
        1 O1     1s        -0.0000   -0.0000    0.0000    0.0000   -0.0000    1.0000    0.0000   -0.0000   -0.0000    0.0000
        2 O1     2s        -0.0000   -0.0000    0.0000    0.0000   -0.0000    0.0003    0.0001   -0.0000   -0.0000    0.0001
        3 O1     3s        -0.0000   -0.0000    0.0000    0.0000   -0.0000   -0.0010    0.0001   -0.0000   -0.0000    0.0001
        4 O1     2px        0.0000    0.0000    0.0000   -0.0000    0.0000   -0.0000    0.0000   -0.0000    0.0000   -0.0000
        5 O1     3px        0.0000    0.0000    0.0000   -0.0000    0.0000    0.0000    0.0000   -0.0000    0.0001   -0.0000
        6 O1     2py       -0.0000   -0.0000   -0.0000   -0.0000   -0.0000    0.0000   -0.0000    0.0000    0.0000    0.0000
        7 O1     3py       -0.0000   -0.0000   -0.0000   -0.0000   -0.0000   -0.0000   -0.0000    0.0001    0.0000    0.0000
        8 O1     2pz        0.0000    0.0000   -0.0000   -0.0000    0.0000   -0.0000   -0.0000    0.0000    0.0000   -0.0000
        9 O1     3pz        0.0000    0.0000   -0.0000   -0.0000    0.0000    0.0000   -0.0001    0.0000    0.0000   -0.0001
       10 O1     3d2-       0.0000   -0.0000   -0.0000    0.0000    0.0000    0.0000    0.0000    0.0000   -0.0000   -0.0000
       11 O1     3d1-       0.0000    0.0000    0.0000    0.0000    0.0000    0.0000    0.0000   -0.0000   -0.0000   -0.0000
       12 O1     3d0       -0.0000   -0.0000    0.0000    0.0000   -0.0000   -0.0015    0.0000   -0.0000   -0.0000   -0.0000
       13 O1     3d1+      -0.0000   -0.0000   -0.0000    0.0000   -0.0000   -0.0000   -0.0000    0.0000   -0.0000    0.0000
       14 O1     3d2+       0.0000    0.0000   -0.0000   -0.0000    0.0000    0.0000    0.0000    0.0000    0.0000    0.0000
       15 FE2    1s         1.0000    0.0000    0.0000    0.0000   -0.0000    0.0000   -0.0000   -0.0000   -0.0000    0.0000
       16 FE2    2s        -0.0000    1.0000    0.0000    0.0000   -0.0003   -0.0000   -0.0023    0.0000    0.0000   -0.0000
       17 FE2    3s         0.0000    0.0023    0.0000    0.0000   -0.0000    0.0000    0.9999    0.0000    0.0000   -0.0015
       18 FE2    4s        -0.0000   -0.0001   -0.0000   -0.0000    0.0000    0.0000    0.0063   -0.0000   -0.0000    0.0007
       19 FE2    5s         0.0000    0.0001   -0.0000   -0.0000    0.0000    0.0000   -0.0044    0.0000    0.0000   -0.0004
       20 FE2    2px       -0.0000   -0.0000   -0.4623    0.8867   -0.0000   -0.0000    0.0000    0.0010   -0.0017    0.0000
       21 FE2    3px        0.0000   -0.0000   -0.0009    0.0018   -0.0000    0.0000   -0.0000   -0.5144    0.8575   -0.0000
       22 FE2    4px       -0.0000    0.0000    0.0001   -0.0002    0.0000   -0.0000    0.0000   -0.0017    0.0028   -0.0000
       23 FE2    5px        0.0000   -0.0000   -0.0003    0.0006   -0.0000   -0.0000   -0.0000    0.0022   -0.0037    0.0000
       24 FE2    2py        0.0000    0.0000    0.8867    0.4623    0.0001    0.0000   -0.0000   -0.0017   -0.0010   -0.0000
       25 FE2    3py       -0.0000    0.0000    0.0018    0.0009    0.0000   -0.0000    0.0000    0.8575    0.5144    0.0001
       26 FE2    4py        0.0000   -0.0000   -0.0002   -0.0001   -0.0000    0.0000   -0.0000    0.0028    0.0017    0.0000
       27 FE2    5py       -0.0000    0.0000    0.0006    0.0003    0.0000    0.0000    0.0000   -0.0037   -0.0022   -0.0000
       28 FE2    2pz        0.0000    0.0003   -0.0001   -0.0000    1.0000   -0.0000   -0.0000    0.0000    0.0000   -0.0016
       29 FE2    3pz       -0.0000    0.0000   -0.0000   -0.0000    0.0016    0.0000    0.0015   -0.0001   -0.0000    1.0000
       30 FE2    4pz        0.0000    0.0000    0.0000    0.0000   -0.0001    0.0000    0.0001   -0.0000   -0.0000    0.0057
       31 FE2    5pz       -0.0000    0.0000   -0.0000   -0.0000    0.0003    0.0000   -0.0001    0.0000    0.0000   -0.0057
       32 FE2    3d2-       0.0000    0.0000   -0.0000    0.0000    0.0000   -0.0000    0.0000   -0.0000    0.0000    0.0000
       33 FE2    4d2-      -0.0000   -0.0000    0.0000   -0.0000   -0.0000   -0.0000   -0.0000    0.0000   -0.0000   -0.0000
       34 FE2    3d1-      -0.0000   -0.0000    0.0000    0.0000    0.0000    0.0000   -0.0000    0.0007    0.0004    0.0000
       35 FE2    4d1-       0.0000    0.0000   -0.0000   -0.0000   -0.0000    0.0000    0.0000    0.0001    0.0000    0.0000
       36 FE2    3d0       -0.0000   -0.0005   -0.0000   -0.0000    0.0000    0.0000   -0.0124   -0.0000   -0.0000    0.0008
       37 FE2    4d0        0.0000    0.0004    0.0000    0.0000   -0.0000    0.0000    0.0041   -0.0000   -0.0000    0.0002
       38 FE2    3d1+       0.0000    0.0000   -0.0000    0.0000   -0.0000   -0.0000    0.0000   -0.0004    0.0007   -0.0000
       39 FE2    4d1+      -0.0000   -0.0000    0.0000   -0.0000    0.0000   -0.0000   -0.0000   -0.0000    0.0001   -0.0000
       40 FE2    3d2+       0.0000    0.0000   -0.0000   -0.0000    0.0000   -0.0000    0.0000   -0.0000   -0.0000    0.0000
       41 FE2    4d2+      -0.0000   -0.0000    0.0000    0.0000   -0.0000   -0.0000   -0.0000    0.0000    0.0000   -0.0000
       42 FE2    4f3-      -0.0000   -0.0000    0.0000    0.0000    0.0000   -0.0000   -0.0000    0.0000    0.0000    0.0000
       43 FE2    4f2-       0.0000    0.0000    0.0000   -0.0000    0.0000   -0.0000    0.0000    0.0000   -0.0000    0.0000
       44 FE2    4f1-      -0.0000   -0.0000   -0.0002   -0.0001   -0.0000    0.0000   -0.0000   -0.0069   -0.0041   -0.0000
       45 FE2    4f0        0.0000   -0.0000    0.0000    0.0000   -0.0001    0.0000   -0.0000    0.0000    0.0000   -0.0018
       46 FE2    4f1+       0.0000    0.0000    0.0001   -0.0002    0.0000   -0.0000    0.0000    0.0041   -0.0069    0.0000
       47 FE2    4f2+       0.0000    0.0000    0.0000    0.0000    0.0000   -0.0000    0.0000    0.0000    0.0000    0.0000
       48 FE2    4f3+      -0.0000   -0.0000   -0.0000    0.0000    0.0000   -0.0000   -0.0000   -0.0000    0.0000    0.0000
 
          Orbital           11        12        13        14        15        16        17        18        19        20    
          Energy           -2.0060   -1.3914   -1.3914   -0.8737   -0.8737   -0.8347   -0.7998   -0.7998   -0.5509   -0.3263
          Occ. No.          1.0000    1.0000    1.0000    1.0000    1.0000    1.0000    1.0000    1.0000    0.0000    0.0000
 
        1 O1     1s        -0.0004    0.0000   -0.0000    0.0000    0.0000   -0.0000    0.0000    0.0000   -0.0000   -0.0008
        2 O1     2s         0.9962    0.0000   -0.0000    0.0000    0.0000   -0.0006    0.0000    0.0000    0.0057   -0.0080
        3 O1     3s        -0.0712   -0.0000    0.0000    0.0000    0.0000   -0.0004    0.0000    0.0000   -0.0054    0.0044
        4 O1     2px       -0.0000   -0.2271    0.9633    0.0000   -0.0000   -0.0000    0.0001   -0.0002    0.0000    0.0000
        5 O1     3px        0.0000    0.0328   -0.1392    0.0000   -0.0000    0.0000    0.0001   -0.0004    0.0000    0.0000
        6 O1     2py        0.0000    0.9633    0.2271   -0.0000   -0.0000    0.0000   -0.0002   -0.0001   -0.0001   -0.0000
        7 O1     3py       -0.0000   -0.1392   -0.0328   -0.0000   -0.0000   -0.0000   -0.0004   -0.0001   -0.0000   -0.0000
        8 O1     2pz       -0.0063    0.0001   -0.0000   -0.0000   -0.0000    0.0004    0.0000    0.0000    0.9945    0.0250
        9 O1     3pz       -0.0003   -0.0000    0.0000   -0.0000   -0.0000    0.0015   -0.0000   -0.0000    0.1059   -0.0067
       10 O1     3d2-       0.0000   -0.0000    0.0000   -0.0000    0.0000   -0.0000    0.0000   -0.0000    0.0000   -0.0000
       11 O1     3d1-       0.0000   -0.0018   -0.0004    0.0000    0.0000   -0.0000   -0.0000   -0.0000    0.0000   -0.0000
       12 O1     3d0       -0.0509   -0.0000    0.0000    0.0000    0.0000   -0.0000   -0.0000   -0.0000   -0.0030    0.0009
       13 O1     3d1+      -0.0000    0.0004   -0.0018   -0.0000    0.0000    0.0000    0.0000   -0.0000   -0.0000    0.0000
       14 O1     3d2+       0.0000   -0.0000   -0.0000   -0.0000   -0.0000   -0.0000    0.0000    0.0000    0.0000   -0.0000
       15 FE2    1s        -0.0000   -0.0000    0.0000   -0.0000   -0.0000    0.0000   -0.0000   -0.0000    0.0000   -0.0000
       16 FE2    2s        -0.0000   -0.0000    0.0000    0.0000    0.0000    0.0004   -0.0000   -0.0000    0.0001    0.0001
       17 FE2    3s        -0.0000   -0.0000    0.0000    0.0000    0.0000    0.0125   -0.0000   -0.0000    0.0006   -0.0058
       18 FE2    4s        -0.0001   -0.0000    0.0000   -0.0000   -0.0000   -0.0115    0.0000    0.0000    0.0009    0.9913
       19 FE2    5s        -0.0005   -0.0000    0.0000    0.0000    0.0000    0.0072   -0.0000   -0.0000    0.0025    0.0705
       20 FE2    2px        0.0000   -0.0000    0.0000    0.0000   -0.0000    0.0000    0.0000   -0.0000   -0.0000    0.0000
       21 FE2    3px       -0.0000   -0.0000    0.0000    0.0000   -0.0000    0.0000    0.0003   -0.0007   -0.0000    0.0000
       22 FE2    4px       -0.0000   -0.0001    0.0005   -0.0000    0.0000   -0.0000   -0.0036    0.0094   -0.0000    0.0000
       23 FE2    5px       -0.0000   -0.0001    0.0002   -0.0000    0.0000   -0.0000   -0.0001    0.0004   -0.0000    0.0000
       24 FE2    2py       -0.0000    0.0000    0.0000   -0.0000   -0.0000   -0.0000   -0.0000   -0.0000    0.0000   -0.0000
       25 FE2    3py        0.0000    0.0000    0.0000   -0.0000   -0.0000   -0.0000   -0.0007   -0.0003    0.0000   -0.0000
       26 FE2    4py        0.0000    0.0005    0.0001    0.0000    0.0000    0.0000    0.0094    0.0036    0.0000   -0.0000
       27 FE2    5py        0.0000    0.0002    0.0001    0.0000    0.0000    0.0000    0.0004    0.0001    0.0000   -0.0000
       28 FE2    2pz       -0.0000   -0.0000    0.0000    0.0000    0.0000   -0.0000    0.0000    0.0000    0.0000    0.0000
       29 FE2    3pz       -0.0000   -0.0000    0.0000    0.0000    0.0000   -0.0008    0.0000    0.0000    0.0005   -0.0013
       30 FE2    4pz       -0.0002   -0.0000    0.0000   -0.0000   -0.0000    0.0118   -0.0000   -0.0000    0.0010    0.1037
       31 FE2    5pz       -0.0001   -0.0000    0.0000   -0.0000   -0.0000    0.0005   -0.0000   -0.0000    0.0004    0.0149
       32 FE2    3d2-       0.0000    0.0000   -0.0000    0.9643   -0.2647   -0.0000   -0.0000    0.0001    0.0000   -0.0000
       33 FE2    4d2-       0.0000    0.0000   -0.0000    0.0028   -0.0008   -0.0000   -0.0000    0.0000    0.0000    0.0000
       34 FE2    3d1-       0.0000    0.0001    0.0000    0.0000    0.0001    0.0002    0.9332    0.3581   -0.0000    0.0000
       35 FE2    4d1-       0.0000    0.0003    0.0001    0.0000    0.0000    0.0000    0.0253    0.0097    0.0000   -0.0000
       36 FE2    3d0       -0.0000   -0.0000    0.0000   -0.0000   -0.0000    0.9997   -0.0002   -0.0000    0.0024    0.0099
       37 FE2    4d0       -0.0001   -0.0000    0.0000   -0.0000   -0.0000    0.0156   -0.0000   -0.0000    0.0002   -0.0062
       38 FE2    3d1+      -0.0000   -0.0000    0.0001   -0.0001    0.0000   -0.0000   -0.3581    0.9332    0.0000   -0.0000
       39 FE2    4d1+      -0.0000   -0.0001    0.0003   -0.0000    0.0000   -0.0000   -0.0097    0.0253   -0.0000    0.0000
       40 FE2    3d2+       0.0000    0.0000    0.0000    0.2647    0.9643   -0.0000   -0.0001   -0.0001    0.0000   -0.0000
       41 FE2    4d2+       0.0000    0.0000    0.0000    0.0008    0.0028   -0.0000   -0.0000   -0.0000    0.0000    0.0000
       42 FE2    4f3-       0.0000   -0.0000   -0.0000   -0.0000    0.0000    0.0000   -0.0000   -0.0000    0.0000    0.0000
       43 FE2    4f2-      -0.0000   -0.0000    0.0000    0.0006   -0.0002   -0.0000   -0.0000    0.0000   -0.0000   -0.0000
       44 FE2    4f1-       0.0000    0.0000    0.0000    0.0000    0.0000    0.0000    0.0008    0.0003   -0.0000    0.0000
       45 FE2    4f0        0.0000   -0.0000    0.0000   -0.0000   -0.0000    0.0009   -0.0000   -0.0000   -0.0000    0.0001
       46 FE2    4f1+      -0.0000   -0.0000    0.0000   -0.0000    0.0000   -0.0000   -0.0003    0.0008    0.0000   -0.0000
       47 FE2    4f2+      -0.0000   -0.0000   -0.0000    0.0002    0.0006   -0.0000   -0.0000   -0.0000   -0.0000   -0.0000
       48 FE2    4f3+       0.0000    0.0000   -0.0000   -0.0000   -0.0000    0.0000    0.0000   -0.0000    0.0000    0.0000
 
          Orbital           21        22        23        24    
          Energy           -0.1781   -0.1781   -0.1721   -0.0902
          Occ. No.          0.0000    0.0000    0.0000    0.0000
 
        1 O1     1s         0.0000   -0.0000   -0.0010   -0.0021
        2 O1     2s         0.0000   -0.0000   -0.0097   -0.0199
        3 O1     3s        -0.0000    0.0000    0.0169    0.0365
        4 O1     2px       -0.0003    0.0011    0.0000    0.0000
        5 O1     3px       -0.0043    0.0160    0.0000    0.0000
        6 O1     2py        0.0011    0.0003   -0.0000   -0.0000
        7 O1     3py        0.0160    0.0043   -0.0000   -0.0000
        8 O1     2pz       -0.0000    0.0000    0.0338    0.0457
        9 O1     3pz        0.0000   -0.0000   -0.0467   -0.0652
       10 O1     3d2-       0.0000   -0.0000   -0.0000   -0.0000
       11 O1     3d1-      -0.0004   -0.0001   -0.0000   -0.0000
       12 O1     3d0       -0.0000    0.0000    0.0021    0.0031
       13 O1     3d1+       0.0001   -0.0004    0.0000    0.0000
       14 O1     3d2+       0.0000    0.0000   -0.0000   -0.0000
       15 FE2    1s         0.0000   -0.0000   -0.0000   -0.0000
       16 FE2    2s         0.0000   -0.0000   -0.0001   -0.0002
       17 FE2    3s        -0.0000    0.0000    0.0006    0.0043
       18 FE2    4s         0.0000   -0.0000   -0.1149   -0.0656
       19 FE2    5s        -0.0000    0.0000    0.0836    0.9805
       20 FE2    2px       -0.0000    0.0001   -0.0000   -0.0000
       21 FE2    3px        0.0007   -0.0027    0.0000   -0.0000
       22 FE2    4px       -0.2566    0.9591   -0.0000    0.0000
       23 FE2    5px       -0.0295    0.1103   -0.0000    0.0000
       24 FE2    2py        0.0001    0.0000    0.0000    0.0000
       25 FE2    3py       -0.0027   -0.0007   -0.0000    0.0000
       26 FE2    4py        0.9591    0.2566    0.0002   -0.0000
       27 FE2    5py        0.1103    0.0295    0.0000   -0.0000
       28 FE2    2pz       -0.0000    0.0000    0.0001   -0.0000
       29 FE2    3pz        0.0000   -0.0000   -0.0049    0.0009
       30 FE2    4pz       -0.0002    0.0000    0.9763   -0.1078
       31 FE2    5pz       -0.0000    0.0000    0.1194   -0.0070
       32 FE2    3d2-       0.0000   -0.0000    0.0000    0.0000
       33 FE2    4d2-       0.0000   -0.0000   -0.0000   -0.0000
       34 FE2    3d1-      -0.0100   -0.0027   -0.0000   -0.0000
       35 FE2    4d1-       0.0091    0.0024    0.0000    0.0000
       36 FE2    3d0        0.0000   -0.0000   -0.0140   -0.0072
       37 FE2    4d0       -0.0000    0.0000    0.0165    0.0155
       38 FE2    3d1+       0.0027   -0.0100    0.0000    0.0000
       39 FE2    4d1+      -0.0024    0.0091   -0.0000   -0.0000
       40 FE2    3d2+       0.0000    0.0000    0.0000    0.0000
       41 FE2    4d2+       0.0000    0.0000   -0.0000   -0.0000
       42 FE2    4f3-      -0.0000   -0.0000   -0.0000   -0.0000
       43 FE2    4f2-      -0.0000    0.0000    0.0000    0.0000
       44 FE2    4f1-       0.0000    0.0000   -0.0000   -0.0000
       45 FE2    4f0        0.0000   -0.0000   -0.0003    0.0000
       46 FE2    4f1+      -0.0000    0.0000    0.0000    0.0000
       47 FE2    4f2+      -0.0000   -0.0000    0.0000    0.0000
       48 FE2    4f3+       0.0000   -0.0000   -0.0000   -0.0000
--
 
 
  Input file to MOLDEN was generated!
 
 
++    Static properties:
      ------------------
 
 
      LoProp Charges per center
 

                   O1       FE2   
      Nuclear      8.0000  26.0000
      Electronic  -6.9999 -25.0001
 
      Total        1.0001   0.9999
--
 
 
      All orbitals with orbital energies smaller than  E(LUMO)+0.5 are printed
 
++    Molecular orbitals:
      -------------------
 
      Title: UHF orbitals (beta)

      Molecular orbitals for symmetry species 1: a  
 
          Orbital            1         2         3         4         5         6         7         8         9        10    
          Energy         -263.8705  -32.5636  -27.6374  -27.6374  -27.6369  -21.4474   -4.3108   -2.8443   -2.7948   -2.7948
          Occ. No.          1.0000    1.0000    1.0000    1.0000    1.0000    1.0000    1.0000    1.0000    1.0000    1.0000
 
        1 O1     1s        -0.0000    0.0000   -0.0000   -0.0000    0.0000    1.0000    0.0000    0.0000   -0.0000    0.0000
        2 O1     2s        -0.0000    0.0000   -0.0000   -0.0000    0.0000   -0.0019    0.0001    0.0001   -0.0000    0.0000
        3 O1     3s        -0.0000    0.0000   -0.0000   -0.0000    0.0000    0.0002    0.0002    0.0001   -0.0000    0.0000
        4 O1     2px        0.0000    0.0000   -0.0000    0.0000   -0.0000    0.0000    0.0000   -0.0000    0.0000    0.0000
        5 O1     3px        0.0000    0.0000   -0.0000    0.0000   -0.0000   -0.0000    0.0000   -0.0000    0.0000    0.0001
        6 O1     2py       -0.0000   -0.0000    0.0000    0.0000    0.0000   -0.0000   -0.0000    0.0000    0.0000   -0.0000
        7 O1     3py       -0.0000   -0.0000    0.0000    0.0000    0.0000    0.0000   -0.0000    0.0000    0.0001   -0.0000
        8 O1     2pz        0.0000   -0.0000    0.0000    0.0000   -0.0000   -0.0000   -0.0001   -0.0001    0.0000   -0.0000
        9 O1     3pz        0.0000   -0.0000    0.0000    0.0000   -0.0000   -0.0000   -0.0003   -0.0001    0.0000   -0.0000
       10 O1     3d2-       0.0000   -0.0000    0.0000   -0.0000    0.0000   -0.0000   -0.0000   -0.0000    0.0000    0.0000
       11 O1     3d1-       0.0000    0.0000   -0.0000   -0.0000   -0.0000   -0.0000    0.0000   -0.0000   -0.0000    0.0000
       12 O1     3d0       -0.0000    0.0000   -0.0000   -0.0000    0.0000    0.0015    0.0000    0.0000    0.0000   -0.0000
       13 O1     3d1+      -0.0000   -0.0000    0.0000   -0.0000    0.0000    0.0000   -0.0000    0.0000   -0.0000   -0.0000
       14 O1     3d2+       0.0000   -0.0000    0.0000    0.0000   -0.0000   -0.0000    0.0000   -0.0000   -0.0000    0.0000
       15 FE2    1s         1.0000    0.0000    0.0000    0.0000   -0.0000   -0.0000   -0.0000    0.0000   -0.0000    0.0000
       16 FE2    2s        -0.0000    1.0000    0.0000    0.0000   -0.0003   -0.0000    0.0002   -0.0000    0.0000   -0.0000
       17 FE2    3s         0.0000   -0.0002   -0.0000   -0.0000    0.0000   -0.0000    1.0000   -0.0017    0.0000   -0.0000
       18 FE2    4s        -0.0000    0.0001   -0.0000   -0.0000    0.0000   -0.0000    0.0076    0.0008   -0.0000    0.0000
       19 FE2    5s         0.0000   -0.0002    0.0000    0.0000   -0.0000   -0.0000   -0.0057   -0.0005    0.0000   -0.0000
       20 FE2    2px       -0.0000   -0.0000   -0.3073    0.9516   -0.0001    0.0000   -0.0000   -0.0000    0.0011    0.0016
       21 FE2    3px        0.0000    0.0000    0.0006   -0.0018    0.0000   -0.0000   -0.0000   -0.0000    0.5654    0.8246
       22 FE2    4px       -0.0000    0.0000   -0.0001    0.0003   -0.0000    0.0000   -0.0000   -0.0000    0.0045    0.0066
       23 FE2    5px        0.0000   -0.0000    0.0002   -0.0007    0.0000    0.0000   -0.0000    0.0000   -0.0050   -0.0073
       24 FE2    2py        0.0000    0.0000    0.9516    0.3073    0.0002   -0.0000    0.0000    0.0000    0.0016   -0.0011
       25 FE2    3py       -0.0000   -0.0000   -0.0018   -0.0006   -0.0000    0.0000    0.0000    0.0001    0.8246   -0.5654
       26 FE2    4py        0.0000   -0.0000    0.0003    0.0001    0.0000   -0.0000    0.0000    0.0000    0.0066   -0.0045
       27 FE2    5py       -0.0000    0.0000   -0.0007   -0.0002   -0.0000   -0.0000    0.0000   -0.0000   -0.0073    0.0050
       28 FE2    2pz        0.0000    0.0003   -0.0002   -0.0000    1.0000   -0.0000   -0.0000    0.0010   -0.0000    0.0000
       29 FE2    3pz       -0.0000    0.0000    0.0000    0.0000   -0.0010   -0.0000    0.0017    0.9997   -0.0001    0.0001
       30 FE2    4pz        0.0000   -0.0000   -0.0000   -0.0000    0.0003   -0.0000    0.0001    0.0107   -0.0000    0.0000
       31 FE2    5pz       -0.0000    0.0000    0.0000    0.0000   -0.0007   -0.0000   -0.0001   -0.0099    0.0000   -0.0000
       32 FE2    3d2-      -0.0000   -0.0000   -0.0000    0.0000   -0.0000    0.0000   -0.0000   -0.0000   -0.0000   -0.0000
       33 FE2    4d2-      -0.0000   -0.0000    0.0000   -0.0000    0.0000    0.0000    0.0000    0.0000    0.0000    0.0000
       34 FE2    3d1-       0.0000    0.0000    0.0000    0.0000    0.0000   -0.0000    0.0000    0.0000    0.0004   -0.0003
       35 FE2    4d1-       0.0000    0.0000   -0.0000   -0.0000   -0.0000   -0.0000   -0.0000   -0.0000    0.0003   -0.0002
       36 FE2    3d0        0.0000    0.0000   -0.0000   -0.0000    0.0000   -0.0000    0.0011    0.0014   -0.0000    0.0000
       37 FE2    4d0        0.0000    0.0000    0.0000    0.0000   -0.0000   -0.0000    0.0004   -0.0002   -0.0000    0.0000
       38 FE2    3d1+      -0.0000   -0.0000   -0.0000    0.0000   -0.0000    0.0000   -0.0000   -0.0000    0.0003    0.0004
       39 FE2    4d1+      -0.0000   -0.0000    0.0000   -0.0000    0.0000    0.0000    0.0000    0.0000    0.0002    0.0003
       40 FE2    3d2+      -0.0000   -0.0000   -0.0000   -0.0000   -0.0000    0.0000   -0.0000   -0.0000    0.0000   -0.0000
       41 FE2    4d2+      -0.0000   -0.0000    0.0000    0.0000    0.0000    0.0000    0.0000    0.0000   -0.0000    0.0000
       42 FE2    4f3-      -0.0000    0.0000   -0.0000   -0.0000   -0.0000   -0.0000    0.0000   -0.0000   -0.0000    0.0000
       43 FE2    4f2-       0.0000   -0.0000   -0.0000    0.0000    0.0000   -0.0000   -0.0000    0.0000    0.0000    0.0000
       44 FE2    4f1-      -0.0000    0.0000    0.0007    0.0002   -0.0000   -0.0000    0.0000   -0.0000    0.0106   -0.0073
       45 FE2    4f0       -0.0000    0.0000   -0.0000   -0.0000   -0.0011   -0.0000    0.0000   -0.0211   -0.0000    0.0000
       46 FE2    4f1+       0.0000   -0.0000   -0.0002    0.0007    0.0000    0.0000   -0.0000    0.0000    0.0073    0.0106
       47 FE2    4f2+       0.0000   -0.0000   -0.0000   -0.0000    0.0000   -0.0000   -0.0000    0.0000   -0.0000    0.0000
       48 FE2    4f3+      -0.0000    0.0000    0.0000   -0.0000   -0.0000   -0.0000    0.0000   -0.0000   -0.0000   -0.0000
 
          Orbital           11        12        13        14        15        16        17        18        19        20    
          Energy           -1.8261   -1.3467   -0.6978   -0.6978   -0.5167   -0.5167   -0.3094   -0.1613   -0.1571   -0.1571
          Occ. No.          1.0000    1.0000    1.0000    1.0000    0.0000    0.0000    0.0000    0.0000    0.0000    0.0000
 
        1 O1     1s         0.0018    0.0000    0.0000    0.0000    0.0000   -0.0000   -0.0010   -0.0010    0.0000   -0.0000
        2 O1     2s         0.9974    0.0044    0.0000    0.0000    0.0000   -0.0000   -0.0113   -0.0112    0.0000   -0.0000
        3 O1     3s        -0.0468   -0.0033    0.0000    0.0000   -0.0000    0.0000    0.0050    0.0159   -0.0000    0.0000
        4 O1     2px        0.0000    0.0000    0.0004   -0.0001   -0.2451    0.9605   -0.0000   -0.0000   -0.0070    0.0019
        5 O1     3px       -0.0000   -0.0000   -0.0002    0.0001   -0.0326    0.1279   -0.0000   -0.0000    0.0102   -0.0027
        6 O1     2py       -0.0000   -0.0001    0.0001    0.0004    0.9605    0.2451    0.0000    0.0000   -0.0019   -0.0070
        7 O1     3py        0.0000    0.0000   -0.0001   -0.0002    0.1279    0.0326    0.0000    0.0000    0.0027    0.0102
        8 O1     2pz       -0.0047    0.9917   -0.0000   -0.0000    0.0001   -0.0000    0.0065   -0.0023    0.0000   -0.0000
        9 O1     3pz       -0.0018   -0.1281   -0.0000   -0.0000    0.0000   -0.0000   -0.0187   -0.0868    0.0000   -0.0000
       10 O1     3d2-      -0.0000   -0.0000    0.0000   -0.0000    0.0000   -0.0000    0.0000    0.0000    0.0000   -0.0000
       11 O1     3d1-      -0.0000    0.0000   -0.0000   -0.0000   -0.0016   -0.0004    0.0000    0.0000   -0.0001   -0.0005
       12 O1     3d0        0.0554   -0.0013   -0.0000   -0.0000   -0.0000    0.0000    0.0005    0.0012   -0.0000    0.0000
       13 O1     3d1+       0.0000   -0.0000   -0.0000    0.0000    0.0004   -0.0016   -0.0000   -0.0000   -0.0005    0.0001
       14 O1     3d2+      -0.0000   -0.0000   -0.0000   -0.0000    0.0000    0.0000    0.0000    0.0000   -0.0000   -0.0000
       15 FE2    1s        -0.0000   -0.0000   -0.0000   -0.0000    0.0000   -0.0000   -0.0000   -0.0000    0.0000   -0.0000
       16 FE2    2s        -0.0000   -0.0000    0.0000    0.0000    0.0000   -0.0000   -0.0001   -0.0000    0.0000   -0.0000
       17 FE2    3s        -0.0000   -0.0001   -0.0000   -0.0000    0.0000   -0.0000   -0.0067    0.0009   -0.0000    0.0000
       18 FE2    4s        -0.0004   -0.0015   -0.0000   -0.0000   -0.0000    0.0000    0.9808   -0.1347    0.0000   -0.0000
       19 FE2    5s        -0.0010   -0.0013    0.0000    0.0000    0.0000   -0.0000    0.1455    0.0595   -0.0000    0.0000
       20 FE2    2px        0.0000    0.0000   -0.0000    0.0000    0.0000   -0.0000   -0.0000   -0.0000   -0.0002    0.0001
       21 FE2    3px       -0.0000    0.0000   -0.0007    0.0002    0.0000   -0.0001    0.0000   -0.0000   -0.0066    0.0018
       22 FE2    4px        0.0000    0.0000    0.0157   -0.0047    0.0001   -0.0003    0.0000    0.0000    0.9570   -0.2576
       23 FE2    5px        0.0000    0.0000    0.0009   -0.0003    0.0000   -0.0001    0.0000    0.0000    0.1250   -0.0337
       24 FE2    2py       -0.0000   -0.0000   -0.0000   -0.0000   -0.0000   -0.0000    0.0000    0.0000   -0.0001   -0.0002
       25 FE2    3py        0.0000   -0.0000   -0.0002   -0.0007   -0.0001   -0.0000   -0.0000    0.0000   -0.0018   -0.0066
       26 FE2    4py       -0.0000   -0.0000    0.0047    0.0157   -0.0003   -0.0001   -0.0000   -0.0001    0.2576    0.9570
       27 FE2    5py       -0.0000   -0.0000    0.0003    0.0009   -0.0001   -0.0000   -0.0000   -0.0000    0.0337    0.1250
       28 FE2    2pz       -0.0000   -0.0000    0.0000    0.0000    0.0000   -0.0000   -0.0000   -0.0002    0.0000   -0.0000
       29 FE2    3pz       -0.0000   -0.0001    0.0000    0.0000    0.0000   -0.0000   -0.0018   -0.0092    0.0000   -0.0000
       30 FE2    4pz       -0.0006   -0.0015   -0.0000   -0.0000   -0.0000    0.0000    0.1127    0.9674   -0.0000    0.0001
       31 FE2    5pz       -0.0003   -0.0005   -0.0000   -0.0000    0.0000   -0.0000    0.0174    0.1279   -0.0000    0.0000
       32 FE2    3d2-       0.0000   -0.0000    0.0001   -0.0000    0.0000   -0.0000   -0.0000   -0.0000   -0.0000    0.0000
       33 FE2    4d2-      -0.0000   -0.0000    0.0000   -0.0000    0.0000   -0.0000   -0.0000   -0.0000   -0.0000    0.0000
       34 FE2    3d1-      -0.0000    0.0000    0.2879    0.9548   -0.0014   -0.0004    0.0000    0.0000   -0.0044   -0.0164
       35 FE2    4d1-      -0.0000   -0.0000    0.0210    0.0697   -0.0002   -0.0000    0.0000    0.0000    0.0021    0.0079
       36 FE2    3d0       -0.0001   -0.0002   -0.0000   -0.0002    0.0000   -0.0000    0.0053    0.0338   -0.0000    0.0000
       37 FE2    4d0       -0.0002   -0.0004   -0.0000   -0.0000   -0.0000    0.0000    0.0017    0.0229   -0.0000    0.0000
       38 FE2    3d1+       0.0000   -0.0000    0.9548   -0.2879    0.0004   -0.0014   -0.0000   -0.0000   -0.0164    0.0044
       39 FE2    4d1+       0.0000    0.0000    0.0697   -0.0210    0.0000   -0.0002   -0.0000   -0.0000    0.0079   -0.0021
       40 FE2    3d2+       0.0000   -0.0000   -0.0001   -0.0001    0.0000    0.0000   -0.0000   -0.0000    0.0000    0.0000
       41 FE2    4d2+      -0.0000   -0.0000   -0.0000   -0.0000    0.0000    0.0000   -0.0000   -0.0000    0.0000    0.0000
       42 FE2    4f3-       0.0000    0.0000   -0.0000   -0.0000    0.0000    0.0000   -0.0000   -0.0000   -0.0000   -0.0000
       43 FE2    4f2-      -0.0000   -0.0000    0.0000   -0.0000    0.0000   -0.0000    0.0000    0.0000    0.0000   -0.0000
       44 FE2    4f1-      -0.0000   -0.0000    0.0003    0.0009    0.0000    0.0000   -0.0000   -0.0000    0.0004    0.0013
       45 FE2    4f0       -0.0000   -0.0000   -0.0000   -0.0000   -0.0000    0.0000   -0.0003   -0.0014    0.0000   -0.0000
       46 FE2    4f1+       0.0000    0.0000    0.0009   -0.0003   -0.0000    0.0000    0.0000    0.0000    0.0013   -0.0004
       47 FE2    4f2+      -0.0000   -0.0000   -0.0000   -0.0000    0.0000    0.0000    0.0000    0.0000   -0.0000   -0.0000
       48 FE2    4f3+       0.0000    0.0000   -0.0000    0.0000   -0.0000    0.0000   -0.0000   -0.0000   -0.0000   -0.0000
 
          Orbital           21        22        23    
          Energy           -0.0723   -0.0174   -0.0174
          Occ. No.          0.0000    0.0000    0.0000
 
        1 O1     1s        -0.0021   -0.0000   -0.0000
        2 O1     2s        -0.0221   -0.0000   -0.0000
        3 O1     3s         0.0343   -0.0000   -0.0000
        4 O1     2px       -0.0000   -0.0000    0.0000
        5 O1     3px       -0.0000    0.0000   -0.0000
        6 O1     2py        0.0000   -0.0000   -0.0000
        7 O1     3py        0.0000    0.0000    0.0000
        8 O1     2pz       -0.0042    0.0000   -0.0000
        9 O1     3pz       -0.1561    0.0000    0.0000
       10 O1     3d2-       0.0000   -0.0000    0.0000
       11 O1     3d1-       0.0000   -0.0000   -0.0000
       12 O1     3d0        0.0011   -0.0000   -0.0000
       13 O1     3d1+      -0.0000   -0.0000    0.0000
       14 O1     3d2+       0.0000    0.0000    0.0000
       15 FE2    1s        -0.0000    0.0000    0.0000
       16 FE2    2s         0.0001    0.0000    0.0000
       17 FE2    3s         0.0060    0.0000    0.0000
       18 FE2    4s        -0.1482    0.0000    0.0000
       19 FE2    5s         0.9511    0.0000    0.0000
       20 FE2    2px        0.0000   -0.0000    0.0000
       21 FE2    3px       -0.0000   -0.0000    0.0000
       22 FE2    4px        0.0000   -0.0000    0.0000
       23 FE2    5px        0.0000   -0.0000    0.0000
       24 FE2    2py       -0.0000   -0.0000   -0.0000
       25 FE2    3py        0.0000   -0.0000   -0.0000
       26 FE2    4py       -0.0000   -0.0000   -0.0000
       27 FE2    5py       -0.0000   -0.0000   -0.0000
       28 FE2    2pz        0.0000    0.0000    0.0000
       29 FE2    3pz        0.0013    0.0000    0.0000
       30 FE2    4pz       -0.1184    0.0000    0.0000
       31 FE2    5pz       -0.0090    0.0000    0.0000
       32 FE2    3d2-      -0.0000   -0.2563    0.9186
       33 FE2    4d2-      -0.0000   -0.0808    0.2897
       34 FE2    3d1-       0.0000    0.0001    0.0000
       35 FE2    4d1-       0.0000    0.0000    0.0000
       36 FE2    3d0        0.0192   -0.0000   -0.0000
       37 FE2    4d0        0.0140   -0.0000   -0.0000
       38 FE2    3d1+      -0.0000    0.0000   -0.0001
       39 FE2    4d1+      -0.0000    0.0000   -0.0000
       40 FE2    3d2+       0.0000    0.9186    0.2563
       41 FE2    4d2+      -0.0000    0.2897    0.0808
       42 FE2    4f3-       0.0000    0.0000   -0.0000
       43 FE2    4f2-      -0.0000   -0.0002    0.0007
       44 FE2    4f1-       0.0000    0.0000    0.0000
       45 FE2    4f0        0.0004   -0.0000   -0.0000
       46 FE2    4f1+      -0.0000    0.0000   -0.0000
       47 FE2    4f2+      -0.0000    0.0007    0.0002
       48 FE2    4f3+       0.0000   -0.0000   -0.0000
--
 
 
++    Molecular charges:
      ------------------
 
      Mulliken charges per centre and basis function type
      ---------------------------------------------------
 
                            O1                      FE2   
                     alpha        beta       alpha        beta
      1s           1.0000      1.0000      1.0000      1.0000
      2s           0.9923      0.9948      1.0000      1.0000
      2px          0.9796      0.0000      1.0000      1.0000
      2pz          0.0000      0.9836      1.0000      1.0000
      2py          0.9796      0.0000      1.0000      1.0000
      3s           0.0051      0.0022      0.9999      0.9999
      3px          0.0204     -0.0000      0.9999      0.9997
      3pz         -0.0000      0.0164      0.9999      0.9993
      3py          0.0204     -0.0000      0.9999      0.9997
      4s           0.0000      0.0000      0.0002      0.0001
      3d2+        -0.0000      0.0000      1.0000      0.0000
      3d1+         0.0000      0.0000      0.9992      0.9944
      3d0          0.0026      0.0031      0.9995      0.0000
      3d1-         0.0000      0.0000      0.9992      0.9944
      3d2-        -0.0000      0.0000      1.0000      0.0000
      4px          0.0000      0.0000      0.0001      0.0003
      4pz          0.0000      0.0000      0.0002      0.0001
      4py          0.0000      0.0000      0.0001      0.0003
      5s           0.0000      0.0000      0.0001      0.0000
      4d2+         0.0000      0.0000      0.0000      0.0000
      4d1+         0.0000      0.0000      0.0007      0.0053
      4d0          0.0000      0.0000      0.0003      0.0000
      4d1-         0.0000      0.0000      0.0007      0.0053
      4d2-         0.0000      0.0000      0.0000      0.0000
      5px          0.0000      0.0000      0.0000      0.0001
      5pz          0.0000      0.0000      0.0000      0.0001
      5py          0.0000      0.0000      0.0000      0.0001
      4f3+         0.0000      0.0000      0.0000      0.0000
      4f2+         0.0000      0.0000      0.0000      0.0000
      4f1+         0.0000      0.0000      0.0001      0.0002
      4f0          0.0000      0.0000      0.0000      0.0004
      4f1-         0.0000      0.0000      0.0001      0.0002
      4f2-         0.0000      0.0000      0.0000      0.0000
      4f3-         0.0000      0.0000      0.0000      0.0000
      Total        4.0000      3.0000     14.0000     11.0000
      Total              7.0000                 25.0000
 
      Charge            1.0000                  1.0000
 
      Total electronic charge=   32.000000
 
      Total            charge=    2.000000
--
 
 
  Input file to MOLDEN was generated!
 
 
++    Static properties:
      ------------------
 
 
      LoProp Charges per center
 

                   O1       FE2   
      Nuclear      8.0000  26.0000
      Electronic  -6.9999 -25.0001
 
      Total        1.0001   0.9999
--
 
 
++    Natural Bond Order analysis
      ---------------------------
      Based on LoProp computed density
      -------------------------------------------------------------------------------------
      Atom A       Atom B       Bond Order
      -------------------------------------------------------------------------------------
      NBO located     19.999 core electrons.
      NBO located      5.992 lone pair electrons.
      NBO located      1.000 non-bonded electrons on atom O1        
      NBO located      1.000 non-bonded electrons on atom O1        
      NBO located      1.000 non-bonded electrons on atom O1        
      NBO located      1.000 non-bonded electrons on atom FE2       
      NBO located      1.000 non-bonded electrons on atom FE2       
      NBO located      1.000 non-bonded electrons on atom FE2       
      The remaining    0.009 electrons are to be considered as diffuse
--
 
 
++    Molecular orbitals:
      -------------------
 
      Title: Natural orbitals

      Molecular orbitals for symmetry species 1: a  
 
          Orbital            1         2         3         4         5         6         7         8         9        10    
          Energy         -263.8712  -32.2802  -21.4741  -27.5466  -27.5819  -27.5818   -4.7629   -3.0569   -3.0676   -3.0677
          Occ. No.          2.0000    2.0000    2.0000    2.0000    2.0000    2.0000    2.0000    1.9998    1.9998    1.9998
 
        1 O1     1s         0.0000   -0.0051   -0.9978    0.0581   -0.0000   -0.0000    0.0060    0.0001   -0.0000   -0.0000
        2 O1     2s        -0.0000    0.0001    0.0301   -0.0018    0.0000    0.0000    0.0001    0.0003   -0.0000   -0.0000
        3 O1     3s        -0.0000   -0.0000   -0.0013    0.0001   -0.0000   -0.0000    0.0002    0.0001   -0.0000   -0.0000
        4 O1     2px        0.0000   -0.0000    0.0000   -0.0000    0.0000   -0.0000   -0.0000   -0.0000   -0.0000    0.0000
        5 O1     3px       -0.0000    0.0000   -0.0000    0.0000    0.0000   -0.0000    0.0000   -0.0000   -0.0000    0.0001
        6 O1     2py       -0.0000    0.0000   -0.0000    0.0000   -0.0000   -0.0000    0.0000    0.0000    0.0000    0.0000
        7 O1     3py        0.0000   -0.0000    0.0000   -0.0000   -0.0000   -0.0000   -0.0000    0.0000    0.0001    0.0000
        8 O1     2pz        0.0000    0.0000   -0.0002    0.0000   -0.0000   -0.0000   -0.0001   -0.0000    0.0000    0.0000
        9 O1     3pz        0.0000    0.0000   -0.0000   -0.0000   -0.0000   -0.0000   -0.0002   -0.0001    0.0000    0.0000
       10 O1     3d2-       0.0000   -0.0000   -0.0000    0.0000    0.0000   -0.0000    0.0000    0.0000    0.0000   -0.0000
       11 O1     3d1-       0.0000    0.0000   -0.0000    0.0000    0.0000    0.0000    0.0000   -0.0000   -0.0000   -0.0000
       12 O1     3d0       -0.0000   -0.0000    0.0000    0.0000    0.0000    0.0000    0.0000    0.0000   -0.0000   -0.0000
       13 O1     3d1+      -0.0000   -0.0000    0.0000   -0.0000   -0.0000    0.0000   -0.0000    0.0000    0.0000   -0.0000
       14 O1     3d2+       0.0000   -0.0000   -0.0000    0.0000    0.0000    0.0000   -0.0000   -0.0000    0.0000    0.0000
       15 FE2    1s         1.0000   -0.0001    0.0000   -0.0000    0.0000    0.0000    0.0002    0.0000   -0.0000   -0.0000
       16 FE2    2s         0.0001    0.9943   -0.0043    0.0028    0.0000    0.0000    0.1065    0.0000    0.0000    0.0000
       17 FE2    3s        -0.0002   -0.1064    0.0067    0.0041    0.0000    0.0000    0.9942   -0.0024    0.0000    0.0000
       18 FE2    4s        -0.0000   -0.0007    0.0000   -0.0000    0.0000    0.0000    0.0068    0.0008    0.0000    0.0000
       19 FE2    5s         0.0000    0.0005   -0.0000    0.0000   -0.0000   -0.0000   -0.0050   -0.0005    0.0000    0.0000
       20 FE2    2px       -0.0000    0.0000   -0.0000   -0.0000   -0.4614    0.8849    0.0000   -0.0000   -0.0327    0.0555
       21 FE2    3px       -0.0000    0.0000    0.0000    0.0000    0.0298   -0.0571    0.0000   -0.0000   -0.5069    0.8592
       22 FE2    4px        0.0000   -0.0000   -0.0000    0.0000    0.0001   -0.0003   -0.0000   -0.0000   -0.0027    0.0046
       23 FE2    5px        0.0000   -0.0000   -0.0000   -0.0000   -0.0002    0.0003   -0.0000    0.0000    0.0034   -0.0057
       24 FE2    2py        0.0000   -0.0000    0.0000    0.0001    0.8849    0.4614   -0.0000    0.0000    0.0554    0.0327
       25 FE2    3py        0.0000   -0.0000   -0.0000   -0.0000   -0.0571   -0.0298   -0.0000    0.0001    0.8592    0.5069
       26 FE2    4py       -0.0000    0.0000    0.0000   -0.0000   -0.0003   -0.0001    0.0000    0.0000    0.0046    0.0027
       27 FE2    5py       -0.0000    0.0000    0.0000    0.0000    0.0003    0.0002    0.0000   -0.0000   -0.0057   -0.0034
       28 FE2    2pz        0.0000   -0.0021    0.0580    0.9963   -0.0001   -0.0000   -0.0045    0.0637   -0.0000   -0.0000
       29 FE2    3pz       -0.0000   -0.0002   -0.0036   -0.0636    0.0000    0.0000    0.0027    0.9978   -0.0001   -0.0000
       30 FE2    4pz        0.0000   -0.0000   -0.0000   -0.0004    0.0000    0.0000    0.0002    0.0082   -0.0000   -0.0000
       31 FE2    5pz       -0.0000    0.0000    0.0000    0.0003   -0.0000   -0.0000   -0.0001   -0.0078    0.0000    0.0000
       32 FE2    3d2-       0.0000   -0.0000   -0.0000    0.0000    0.0000   -0.0000   -0.0000   -0.0000    0.0000   -0.0000
       33 FE2    4d2-       0.0000   -0.0000   -0.0000   -0.0000    0.0000   -0.0000   -0.0000   -0.0000    0.0000   -0.0000
       34 FE2    3d1-      -0.0000    0.0000    0.0000   -0.0000   -0.0001   -0.0001    0.0000    0.0000   -0.0217   -0.0128
       35 FE2    4d1-      -0.0000    0.0000    0.0000    0.0000   -0.0000   -0.0000    0.0000    0.0000   -0.0009   -0.0005
       36 FE2    3d0       -0.0000   -0.0001    0.0000   -0.0001    0.0000    0.0000    0.0010    0.0014    0.0000    0.0000
       37 FE2    4d0        0.0000   -0.0000    0.0000   -0.0000    0.0000    0.0000    0.0024    0.0000    0.0000    0.0000
       38 FE2    3d1+       0.0000   -0.0000   -0.0000    0.0000    0.0001   -0.0001   -0.0000   -0.0000    0.0128   -0.0217
       39 FE2    4d1+       0.0000   -0.0000   -0.0000   -0.0000    0.0000   -0.0000   -0.0000   -0.0000    0.0005   -0.0009
       40 FE2    3d2+       0.0000   -0.0000   -0.0000    0.0000    0.0000    0.0000   -0.0000   -0.0000    0.0000    0.0000
       41 FE2    4d2+       0.0000   -0.0000   -0.0000   -0.0000    0.0000    0.0000   -0.0000   -0.0000    0.0000    0.0000
       42 FE2    4f3-      -0.0000    0.0000   -0.0000    0.0000   -0.0000   -0.0000    0.0000   -0.0000   -0.0000   -0.0000
       43 FE2    4f2-       0.0000   -0.0000   -0.0000   -0.0000   -0.0000    0.0000   -0.0000    0.0000   -0.0000    0.0000
       44 FE2    4f1-      -0.0000    0.0000    0.0000    0.0000    0.0001    0.0001    0.0000   -0.0000    0.0021    0.0012
       45 FE2    4f0        0.0000    0.0000    0.0000    0.0002   -0.0000   -0.0000    0.0000   -0.0114   -0.0000   -0.0000
       46 FE2    4f1+       0.0000   -0.0000   -0.0000   -0.0000   -0.0001    0.0001   -0.0000    0.0000   -0.0012    0.0021
       47 FE2    4f2+       0.0000   -0.0000   -0.0000   -0.0000   -0.0000   -0.0000   -0.0000    0.0000   -0.0000   -0.0000
       48 FE2    4f3+      -0.0000    0.0000   -0.0000    0.0000    0.0000   -0.0000    0.0000   -0.0000    0.0000   -0.0000
 
          Orbital           11        12        13        14        15        16        17        18        19        20    
          Energy           -0.7496   -0.7496   -1.9230   -0.6453   -0.9281   -0.9281   -0.4053   -0.4053   -0.6448    1.4305
          Occ. No.          1.9989    1.9989    1.9940    1.0006    1.0000    1.0000    1.0000    1.0000    0.9994    0.0060
 
        1 O1     1s        -0.0000   -0.0000    0.0301   -0.0000   -0.0000    0.0000    0.0000    0.0000   -0.0000    0.0001
        2 O1     2s        -0.0000   -0.0000    0.9978   -0.0048   -0.0000    0.0000    0.0000    0.0000    0.0038    0.0113
        3 O1     3s         0.0000    0.0000   -0.0590    0.0022   -0.0000    0.0000    0.0000   -0.0000   -0.0027    0.2239
        4 O1     2px        0.0004    0.0001    0.0000    0.0002   -0.2271    0.9633    0.0000    0.0000    0.0003   -0.0000
        5 O1     3px       -0.0003   -0.0001   -0.0000   -0.0000    0.0328   -0.1392    0.0000   -0.0000   -0.0000   -0.0000
        6 O1     2py        0.0001   -0.0004   -0.0000   -0.0008    0.9633    0.2271   -0.0000    0.0000   -0.0009    0.0000
        7 O1     3py       -0.0001    0.0003    0.0000    0.0001   -0.1392   -0.0328   -0.0000    0.0000    0.0001    0.0000
        8 O1     2pz       -0.0000   -0.0000   -0.0064   -0.7007    0.0001   -0.0000   -0.0000    0.0000    0.7017    0.0002
        9 O1     3pz        0.0000    0.0000   -0.0009    0.0916   -0.0000    0.0000   -0.0000    0.0000   -0.0896   -0.0124
       10 O1     3d2-       0.0000    0.0000   -0.0000    0.0000   -0.0000    0.0000   -0.0000   -0.0000    0.0000   -0.0000
       11 O1     3d1-      -0.0000    0.0000   -0.0000    0.0000   -0.0018   -0.0004    0.0000   -0.0000    0.0000   -0.0002
       12 O1     3d0        0.0000    0.0000    0.0023    0.0008   -0.0000    0.0000    0.0000   -0.0000   -0.0008    0.9747
       13 O1     3d1+      -0.0000   -0.0000    0.0000   -0.0000    0.0004   -0.0018   -0.0000   -0.0000   -0.0000    0.0000
       14 O1     3d2+      -0.0000    0.0000   -0.0000    0.0000   -0.0000   -0.0000   -0.0000    0.0000    0.0000   -0.0000
       15 FE2    1s        -0.0000   -0.0000   -0.0000    0.0000   -0.0000    0.0000   -0.0000    0.0000   -0.0000   -0.0000
       16 FE2    2s         0.0000    0.0000    0.0000   -0.0000   -0.0000    0.0000   -0.0000    0.0000   -0.0000   -0.0000
       17 FE2    3s         0.0000    0.0000   -0.0002   -0.0006   -0.0000    0.0000   -0.0000    0.0000   -0.0008   -0.0001
       18 FE2    4s         0.0000    0.0000   -0.0003   -0.0071   -0.0000    0.0000   -0.0000    0.0000   -0.0092   -0.0028
       19 FE2    5s        -0.0000   -0.0000   -0.0008    0.0060    0.0000   -0.0000    0.0000   -0.0000    0.0042   -0.0050
       20 FE2    2px        0.0017    0.0004    0.0000    0.0000   -0.0000    0.0000    0.0000    0.0000    0.0000    0.0000
       21 FE2    3px        0.0244    0.0056    0.0000    0.0000   -0.0000    0.0000    0.0000    0.0000    0.0000   -0.0000
       22 FE2    4px        0.0131    0.0030    0.0000   -0.0000   -0.0001    0.0005   -0.0000   -0.0000   -0.0000    0.0000
       23 FE2    5px        0.0005    0.0001    0.0000    0.0000   -0.0001    0.0002   -0.0000   -0.0000    0.0000    0.0000
       24 FE2    2py        0.0004   -0.0017   -0.0000   -0.0000    0.0000    0.0000   -0.0000    0.0000   -0.0000   -0.0000
       25 FE2    3py        0.0056   -0.0244   -0.0000   -0.0000    0.0000    0.0000   -0.0000    0.0000   -0.0000    0.0000
       26 FE2    4py        0.0030   -0.0131   -0.0000    0.0000    0.0005    0.0001    0.0000   -0.0000    0.0000   -0.0000
       27 FE2    5py        0.0001   -0.0005   -0.0000   -0.0000    0.0002    0.0001    0.0000   -0.0000   -0.0000   -0.0000
       28 FE2    2pz        0.0000    0.0000   -0.0000   -0.0000   -0.0000    0.0000    0.0000   -0.0000   -0.0000   -0.0000
       29 FE2    3pz        0.0000    0.0000   -0.0002   -0.0010   -0.0000    0.0000    0.0000   -0.0000   -0.0011   -0.0000
       30 FE2    4pz        0.0000    0.0000   -0.0004    0.0095    0.0000   -0.0000   -0.0000    0.0000    0.0073   -0.0036
       31 FE2    5pz        0.0000    0.0000   -0.0002    0.0007    0.0000   -0.0000   -0.0000    0.0000   -0.0000   -0.0018
       32 FE2    3d2-       0.0001    0.0000    0.0000   -0.0000    0.0000   -0.0000    0.9643    0.2647   -0.0000   -0.0000
       33 FE2    4d2-       0.0000    0.0000    0.0000   -0.0000    0.0000   -0.0000    0.0028    0.0008   -0.0000    0.0000
       34 FE2    3d1-       0.2238   -0.9729   -0.0000    0.0001   -0.0005   -0.0001    0.0000   -0.0001    0.0001    0.0000
       35 FE2    4d1-       0.0112   -0.0487   -0.0000    0.0000    0.0003    0.0001    0.0000   -0.0000    0.0000   -0.0000
       36 FE2    3d0        0.0000    0.0002   -0.0000    0.7069    0.0013   -0.0001   -0.0000    0.0000    0.7070   -0.0012
       37 FE2    4d0        0.0000    0.0000   -0.0001    0.0113    0.0000   -0.0000    0.0000   -0.0000    0.0107   -0.0016
       38 FE2    3d1+       0.9729    0.2238    0.0000   -0.0000    0.0001   -0.0005   -0.0001   -0.0000   -0.0000   -0.0000
       39 FE2    4d1+       0.0487    0.0112    0.0000   -0.0000   -0.0001    0.0003   -0.0000   -0.0000   -0.0000    0.0000
       40 FE2    3d2+      -0.0000    0.0001    0.0000   -0.0000    0.0000    0.0000    0.2647   -0.9643   -0.0000   -0.0000
       41 FE2    4d2+      -0.0000    0.0000    0.0000   -0.0000    0.0000    0.0000    0.0008   -0.0028   -0.0000    0.0000
       42 FE2    4f3-      -0.0000    0.0000    0.0000    0.0000    0.0000   -0.0000   -0.0000   -0.0000    0.0000    0.0000
       43 FE2    4f2-       0.0000    0.0000    0.0000   -0.0000    0.0000   -0.0000    0.0006    0.0002   -0.0000   -0.0000
       44 FE2    4f1-       0.0002   -0.0009   -0.0000    0.0000    0.0000    0.0000    0.0000   -0.0000    0.0000    0.0000
       45 FE2    4f0        0.0000    0.0000    0.0000    0.0007    0.0000   -0.0000   -0.0000    0.0000    0.0006   -0.0000
       46 FE2    4f1+       0.0009    0.0002    0.0000   -0.0000   -0.0000    0.0000   -0.0000   -0.0000   -0.0000   -0.0000
       47 FE2    4f2+      -0.0000    0.0000    0.0000   -0.0000    0.0000    0.0000    0.0002   -0.0006   -0.0000   -0.0000
       48 FE2    4f3+      -0.0000   -0.0000    0.0000    0.0000    0.0000   -0.0000   -0.0000    0.0000    0.0000    0.0000
 
          Orbital           21        22        23        24        25        26        27        28        29        30    
          Energy            0.6874    0.6874    3.5162    3.5162    3.4775    0.5503    1.9959    1.9959    2.0383    0.4309
          Occ. No.          0.0011    0.0011    0.0002    0.0002    0.0002    0.0000    0.0000    0.0000    0.0000    0.0000
 
        1 O1     1s         0.0000    0.0000   -0.0000   -0.0000   -0.0001    0.0009    0.0000    0.0000   -0.0014   -0.0008
        2 O1     2s         0.0000    0.0000   -0.0000   -0.0000   -0.0015    0.0120    0.0000    0.0000   -0.0186   -0.0622
        3 O1     3s        -0.0000   -0.0000   -0.0000   -0.0000   -0.0020    0.0209    0.0000    0.0000   -0.0586   -0.9667
        4 O1     2px       -0.0000    0.0001   -0.0001    0.0001    0.0000   -0.0000    0.0016   -0.0033    0.0000   -0.0000
        5 O1     3px       -0.0019    0.0067   -0.0000    0.0001    0.0000   -0.0000    0.0074   -0.0150    0.0000   -0.0000
        6 O1     2py        0.0001    0.0000    0.0001    0.0001   -0.0000    0.0000   -0.0033   -0.0016   -0.0000    0.0000
        7 O1     3py        0.0067    0.0019    0.0001    0.0000   -0.0000    0.0000   -0.0150   -0.0074   -0.0000    0.0000
        8 O1     2pz       -0.0000   -0.0000    0.0000    0.0000    0.0007   -0.0150   -0.0000   -0.0000    0.0188   -0.0058
        9 O1     3pz        0.0000    0.0000   -0.0000   -0.0000    0.0012   -0.0434   -0.0000   -0.0000    0.0734   -0.0469
       10 O1     3d2-      -0.0000    0.0000    0.0000   -0.0000    0.0000   -0.0000   -0.0000    0.0000   -0.0000   -0.0000
       11 O1     3d1-      -0.0004   -0.0001   -0.0000   -0.0000    0.0000   -0.0000    0.0015    0.0007   -0.0000   -0.0000
       12 O1     3d0        0.0000    0.0000   -0.0000   -0.0000   -0.0009    0.0067    0.0000    0.0000    0.0010    0.2183
       13 O1     3d1+       0.0001   -0.0004    0.0000   -0.0000   -0.0000    0.0000   -0.0007    0.0015    0.0000    0.0000
       14 O1     3d2+      -0.0000   -0.0000    0.0000    0.0000    0.0000   -0.0000   -0.0000   -0.0000   -0.0000   -0.0000
       15 FE2    1s         0.0000    0.0000   -0.0000   -0.0000    0.0000   -0.0000   -0.0000   -0.0000    0.0000   -0.0000
       16 FE2    2s         0.0000    0.0000   -0.0000   -0.0000   -0.0000    0.0002   -0.0000   -0.0000    0.0000   -0.0000
       17 FE2    3s         0.0000    0.0000   -0.0000   -0.0000    0.0000   -0.0019   -0.0000   -0.0000    0.0005    0.0004
       18 FE2    4s        -0.0002   -0.0000    0.0000    0.0000   -0.0031    0.3247   -0.0000   -0.0000    0.0019    0.0466
       19 FE2    5s         0.0000    0.0000   -0.0000   -0.0000    0.0011   -0.3349   -0.0000   -0.0000    0.0249    0.1446
       20 FE2    2px       -0.0000    0.0000    0.0001   -0.0003   -0.0000   -0.0000   -0.0000    0.0000   -0.0000   -0.0000
       21 FE2    3px        0.0003   -0.0009    0.0024   -0.0043   -0.0000    0.0000   -0.0030    0.0061   -0.0000    0.0000
       22 FE2    4px       -0.0387    0.1345   -0.1032    0.1829    0.0000   -0.0000    0.0926   -0.1878    0.0000   -0.0000
       23 FE2    5px       -0.0026    0.0091    0.1051   -0.1864   -0.0000   -0.0000   -0.4172    0.8457   -0.0000    0.0000
       24 FE2    2py        0.0000    0.0000   -0.0003   -0.0001    0.0000    0.0000    0.0000    0.0000    0.0000    0.0000
       25 FE2    3py       -0.0009   -0.0003   -0.0043   -0.0024    0.0000   -0.0000    0.0061    0.0030    0.0000   -0.0000
       26 FE2    4py        0.1345    0.0387    0.1829    0.1032   -0.0000    0.0000   -0.1878   -0.0926   -0.0000    0.0000
       27 FE2    5py        0.0091    0.0026   -0.1864   -0.1051    0.0000    0.0000    0.8457    0.4172    0.0001   -0.0000
       28 FE2    2pz        0.0000    0.0000    0.0000    0.0000    0.0006   -0.0000    0.0000    0.0000    0.0000    0.0000
       29 FE2    3pz        0.0000    0.0000    0.0000    0.0000    0.0144   -0.0001   -0.0000   -0.0000    0.0058   -0.0004
       30 FE2    4pz       -0.0000   -0.0000   -0.0000   -0.0000   -0.2430   -0.0374    0.0000    0.0000   -0.0969    0.0746
       31 FE2    5pz       -0.0000   -0.0000    0.0000    0.0000    0.2091   -0.0029   -0.0001   -0.0000    0.9695   -0.0118
       32 FE2    3d2-       0.0000   -0.0000   -0.0000    0.0000   -0.0000    0.0000    0.0000   -0.0000   -0.0000    0.0000
       33 FE2    4d2-      -0.0000    0.0001    0.0000   -0.0000    0.0000    0.0000   -0.0000    0.0000    0.0000    0.0000
       34 FE2    3d1-      -0.0494   -0.0142   -0.0013   -0.0007    0.0000    0.0000    0.0010    0.0005    0.0000   -0.0000
       35 FE2    4d1-       0.9500    0.2731   -0.0353   -0.0199   -0.0000   -0.0001    0.0157    0.0077   -0.0000   -0.0000
       36 FE2    3d0        0.0000    0.0000    0.0000    0.0000    0.0016    0.0198   -0.0000   -0.0000    0.0017    0.0007
       37 FE2    4d0       -0.0002   -0.0000    0.0000    0.0000    0.0219   -0.8864   -0.0000   -0.0000   -0.0034   -0.0302
       38 FE2    3d1+       0.0142   -0.0494    0.0007   -0.0013   -0.0000   -0.0000   -0.0005    0.0010   -0.0000    0.0000
       39 FE2    4d1+      -0.2731    0.9500    0.0199   -0.0353    0.0000    0.0000   -0.0077    0.0157    0.0000    0.0000
       40 FE2    3d2+       0.0000    0.0000    0.0000    0.0000   -0.0000    0.0000    0.0000    0.0000   -0.0000    0.0000
       41 FE2    4d2+      -0.0001   -0.0001    0.0000    0.0000    0.0000    0.0000   -0.0000   -0.0000    0.0000   -0.0000
       42 FE2    4f3-      -0.0000   -0.0000   -0.0000   -0.0000    0.0000    0.0000   -0.0000   -0.0000   -0.0000    0.0000
       43 FE2    4f2-      -0.0000    0.0000   -0.0001    0.0001   -0.0000    0.0000   -0.0000    0.0000    0.0000   -0.0000
       44 FE2    4f1-       0.0128    0.0037    0.8302    0.4682    0.0002   -0.0000    0.2319    0.1144   -0.0001    0.0000
       45 FE2    4f0       -0.0000   -0.0000   -0.0002   -0.0000    0.9469    0.0128   -0.0001   -0.0000   -0.2388    0.0234
       46 FE2    4f1+      -0.0037    0.0128   -0.4682    0.8302   -0.0000    0.0000   -0.1144    0.2319    0.0000   -0.0000
       47 FE2    4f2+      -0.0000   -0.0000   -0.0001   -0.0001   -0.0000    0.0000   -0.0000   -0.0000    0.0000   -0.0000
       48 FE2    4f3+       0.0000   -0.0000    0.0000   -0.0000    0.0000    0.0000    0.0000   -0.0000   -0.0000    0.0000
 
          Orbital           31        32        33        34        35        36        37        38        39        40    
          Energy            0.0512   -0.2350   -0.0130   -0.0130    0.0306    0.0979    0.0931    0.0931    0.7291    0.7301
          Occ. No.          0.0000    0.0000    0.0000    0.0000    0.0000    0.0000    0.0000    0.0000    0.0000    0.0000
 
        1 O1     1s        -0.0011    0.0020   -0.0000    0.0000    0.0004    0.0007    0.0000   -0.0000    0.0000   -0.0000
        2 O1     2s        -0.0084    0.0174   -0.0000    0.0000    0.0012    0.0077    0.0000    0.0000    0.0000   -0.0000
        3 O1     3s         0.0566   -0.0792    0.0000    0.0000   -0.0714    0.0175    0.0000    0.0000    0.0000   -0.0000
        4 O1     2px       -0.0000   -0.0000    0.0002   -0.0007   -0.0000   -0.0000    0.1377   -0.0387   -0.0000   -0.0000
        5 O1     3px        0.0000   -0.0000    0.0037   -0.0133    0.0000   -0.0001    0.9530   -0.2680   -0.0003   -0.0000
        6 O1     2py        0.0000    0.0000   -0.0007   -0.0002   -0.0000   -0.0000    0.0387    0.1377    0.0002   -0.0002
        7 O1     3py       -0.0000    0.0000   -0.0138   -0.0036   -0.0001    0.0000    0.2680    0.9530    0.0013   -0.0011
        8 O1     2pz        0.0165   -0.0220    0.0000   -0.0000    0.0822   -0.1024   -0.0000    0.0000   -0.0000    0.0000
        9 O1     3pz        0.0739   -0.0386   -0.0000   -0.0000    0.6668   -0.7479   -0.0000    0.0001   -0.0000    0.0000
       10 O1     3d2-       0.0000   -0.0000   -0.0000   -0.0000   -0.0000   -0.0000   -0.0001   -0.0002   -0.0024   -0.0147
       11 O1     3d1-       0.0000   -0.0000    0.0002    0.0001   -0.0000   -0.0000   -0.0005   -0.0016    0.0016   -0.0011
       12 O1     3d0       -0.0186    0.0362   -0.0000   -0.0000    0.0283   -0.0048    0.0000   -0.0000    0.0000   -0.0000
       13 O1     3d1+      -0.0000    0.0000   -0.0001    0.0002    0.0000    0.0000   -0.0018    0.0005   -0.0019    0.0016
       14 O1     3d2+       0.0000    0.0000   -0.0000   -0.0000   -0.0000   -0.0000    0.0001   -0.0003   -0.0042   -0.0247
       15 FE2    1s         0.0000   -0.0000   -0.0000   -0.0000    0.0000   -0.0001   -0.0000    0.0000   -0.0000    0.0000
       16 FE2    2s         0.0001   -0.0000   -0.0000   -0.0000    0.0003   -0.0004   -0.0000    0.0000   -0.0000    0.0000
       17 FE2    3s         0.0085    0.0021    0.0000   -0.0000    0.0013   -0.0021   -0.0000    0.0000   -0.0000    0.0000
       18 FE2    4s        -0.5460   -0.7608   -0.0000   -0.0000    0.1430   -0.0010    0.0000    0.0000    0.0000   -0.0000
       19 FE2    5s         0.6943   -0.6334   -0.0000   -0.0000    0.0668    0.0038    0.0000    0.0000    0.0000   -0.0000
       20 FE2    2px        0.0000    0.0000    0.0000   -0.0000    0.0000    0.0000   -0.0000    0.0000    0.0000    0.0000
       21 FE2    3px       -0.0000   -0.0000   -0.0008    0.0031   -0.0000   -0.0000   -0.0002    0.0000    0.0000   -0.0000
       22 FE2    4px        0.0000    0.0000    0.2440   -0.9120    0.0000    0.0000   -0.0335    0.0096   -0.0001    0.0001
       23 FE2    5px        0.0000    0.0000    0.0660   -0.2467    0.0000    0.0000   -0.0091    0.0026   -0.0000    0.0000
       24 FE2    2py       -0.0000   -0.0000   -0.0000   -0.0000   -0.0000   -0.0000   -0.0000   -0.0000   -0.0000    0.0000
       25 FE2    3py        0.0000    0.0000    0.0031    0.0008    0.0000    0.0000   -0.0000   -0.0002   -0.0000    0.0000
       26 FE2    4py       -0.0000    0.0000   -0.9120   -0.2440   -0.0001   -0.0001   -0.0094   -0.0340   -0.0001    0.0001
       27 FE2    5py       -0.0000    0.0000   -0.2467   -0.0660   -0.0000   -0.0000   -0.0025   -0.0092   -0.0000    0.0000
       28 FE2    2pz        0.0000   -0.0000    0.0000   -0.0000    0.0000   -0.0001   -0.0000    0.0000   -0.0000    0.0000
       29 FE2    3pz        0.0012    0.0007   -0.0000   -0.0000    0.0044    0.0013    0.0000    0.0000    0.0000   -0.0000
       30 FE2    4pz       -0.0441   -0.1089    0.0001   -0.0000   -0.6495   -0.7050   -0.0001   -0.0000   -0.0000    0.0000
       31 FE2    5pz       -0.0178   -0.0167    0.0000   -0.0000   -0.1079   -0.1157   -0.0000   -0.0000   -0.0000    0.0000
       32 FE2    3d2-      -0.0000   -0.0000    0.0000   -0.0000   -0.0000   -0.0000   -0.0000   -0.0000   -0.0007   -0.0029
       33 FE2    4d2-       0.0000    0.0000   -0.0000    0.0001    0.0000    0.0000    0.0003    0.0007    0.2463    0.9687
       34 FE2    3d1-       0.0000    0.0000    0.0057    0.0015    0.0000    0.0000   -0.0005   -0.0017   -0.0000    0.0000
       35 FE2    4d1-      -0.0002   -0.0001    0.1303    0.0349    0.0000   -0.0000   -0.0059   -0.0209   -0.0001    0.0001
       36 FE2    3d0       -0.0030   -0.0026   -0.0000   -0.0000    0.0140    0.0016    0.0000    0.0000    0.0000   -0.0000
       37 FE2    4d0       -0.4571   -0.0447   -0.0000   -0.0000    0.0700    0.0007    0.0000    0.0000    0.0000   -0.0000
       38 FE2    3d1+      -0.0000   -0.0000   -0.0015    0.0057   -0.0000   -0.0000   -0.0017    0.0005    0.0000   -0.0000
       39 FE2    4d1+       0.0001    0.0000   -0.0349    0.1303    0.0000    0.0000   -0.0209    0.0059   -0.0000   -0.0001
       40 FE2    3d2+      -0.0000   -0.0000    0.0000   -0.0000   -0.0000   -0.0000   -0.0000   -0.0000    0.0029   -0.0007
       41 FE2    4d2+       0.0000    0.0000    0.0000    0.0001    0.0000    0.0000    0.0002    0.0015   -0.9692    0.2463
       42 FE2    4f3-      -0.0000   -0.0000   -0.0000    0.0001   -0.0000    0.0000    0.0001    0.0004   -0.0011    0.0077
[...]
ATVX     1  Mu1.0033  Se1.026                       0.18124818      0.00000000     -0.00000000     -0.00000000
ATVX     1  Mu1.0034  Se1.026                       0.18125601     -0.00000000      0.00000000     -0.00000000
ATVX     1  Mu1.0035  Se1.026                       0.18911884     -0.00000290      0.00001311     -0.00000000
ATVX     1  Mu1.0036  Se1.026                       0.18912567     -0.00000231      0.00001043     -0.00000000
ATVX     1  Mu1.0037  Se1.026                       0.20565867     -0.00000000      0.00000000     -0.00000000
ATVX     1  Mu1.0038  Se1.026                       0.21473094     -0.00000138      0.00000628     -0.00000000
ATVX     1  Mu1.0039  Se1.026                       0.21478596      0.00000008     -0.00000036     -0.00000000
ATVX     1  Mu1.0040  Se1.026                       0.22701139     -0.00000000      0.00000000     -0.00000000
ATVX     1  Mu1.0041  Se1.026                       0.22701139      0.00000000     -0.00000000     -0.00000000
ATVX     1  Mu1.0042  Se1.026                       0.24262852      0.00000000     -0.00000000     -0.00000000
ATVX     1  Mu1.0043  Se1.026                       0.24263508     -0.00000000     -0.00000000      0.00000000
ATVX     1  Mu1.0044  Se1.026                       0.25470974     -0.00093656      0.00354982     -0.00000332
ATVX     1  Mu1.0045  Se1.026                       0.26273231     -0.00000013      0.00001429     -0.00000000
ATVX     1  Mu1.0046  Se1.026                       0.26274863      0.00000015     -0.00001761     -0.00000000
ATVX     1  Mu1.0047  Se1.026                       0.26894893      0.00003256      0.00093718      0.00000003
ATVX     1  Mu1.0001  Se1.027                      -0.15565734      0.00000000      0.00000000      0.00000000
ATVX     1  Mu1.0002  Se1.027                      -0.14071361     -0.00000000     -0.00000000      0.00000000
ATVX     1  Mu1.0003  Se1.027                      -0.14070673     -0.00000000     -0.00000000      0.00000000
ATVX     1  Mu1.0004  Se1.027                      -0.09856589     -0.00000000     -0.00000000      0.00000000
ATVX     1  Mu1.0005  Se1.027                       0.01270374     -0.00000000      0.00000000     -0.00000000
ATVX     1  Mu1.0006  Se1.027                       0.01270375     -0.00000000      0.00000000     -0.00000000
ATVX     1  Mu1.0007  Se1.027                       0.22993596     -0.00000000      0.00000000     -0.00000000
ATVX     1  Mu1.0008  Se1.027                       0.22993596     -0.00000000      0.00000000     -0.00000000
ATVX     1  Mu1.0009  Se1.027                       0.24380380      0.00000000     -0.00000002     -0.00000000
ATVX     1  Mu1.0010  Se1.027                       0.24381093      0.00000000     -0.00000002     -0.00000000
ATVX     1  Mu1.0011  Se1.027                       0.24579420      0.00000115     -0.00000925     -0.00000000
ATVX     1  Mu1.0012  Se1.027                       0.24580275      0.00000224     -0.00001808     -0.00000000
ATVX     1  Mu1.0013  Se1.027                       0.28434201     -0.00000000      0.00000000     -0.00000000
ATVX     1  Mu1.0014  Se1.027                       0.28434201     -0.00000000      0.00000000     -0.00000000
ATVX     1  Mu1.0015  Se1.027                       0.28453759     -0.00000164      0.00000498     -0.00000000
ATVX     1  Mu1.0016  Se1.027                       0.28458851      0.00000014     -0.00000042     -0.00000000
ATVX     1  Mu1.0017  Se1.027                       0.28922308      0.00000000     -0.00000000     -0.00000000
ATVX     1  Mu1.0018  Se1.027                       0.28922308     -0.00000000      0.00000000     -0.00000000
ATVX     1  Mu1.0001  Se1.028                      -0.15067196      0.00000000     -0.00000000     -0.00000000
ATVX     1  Mu1.0002  Se1.028                      -0.13572823      0.00000000      0.00000000      0.00000000
ATVX     1  Mu1.0003  Se1.028                      -0.13572135      0.00000024     -0.00000049     -0.00000000
ATVX     1  Mu1.0004  Se1.028                      -0.09358051     -0.00000000      0.00000000     -0.00000000
ATVX     1  Mu1.0005  Se1.028                       0.01768912     -0.00000045     -0.00007440      0.00000000
ATVX     1  Mu1.0006  Se1.028                       0.01768913     -0.00000846     -0.00139474      0.00000001
ATVX     1  Mu1.0007  Se1.028                       0.23492134      0.00000003     -0.00000046     -0.00000000
ATVX     1  Mu1.0008  Se1.028                       0.23492134     -0.00000154      0.00002255     -0.00000000
ATVX     1  Mu1.0009  Se1.028                       0.24878918     -0.00000000      0.00000000     -0.00000000
ATVX     1  Mu1.0010  Se1.028                       0.24879631      0.00000000     -0.00000000     -0.00000000
ATVX     1  Mu1.0011  Se1.028                       0.25077958     -0.00000000      0.00000000     -0.00000000
ATVX     1  Mu1.0012  Se1.028                       0.25078813     -0.00000000      0.00000000     -0.00000000
ATVX     1  Mu1.0013  Se1.028                       0.28932739      0.00000150     -0.00000502     -0.00000000
ATVX     1  Mu1.0014  Se1.028                       0.28932739      0.00000002     -0.00000005     -0.00000000
ATVX     1  Mu1.0015  Se1.028                       0.28952297     -0.00000000      0.00000000     -0.00000000
ATVX     1  Mu1.0016  Se1.028                       0.28957389      0.00000000     -0.00000000     -0.00000000
ATVX     1  Mu1.0017  Se1.028                       0.29420846     -0.00000004      0.00000015     -0.00000000
ATVX     1  Mu1.0018  Se1.028                       0.29420846      0.00000000     -0.00000000     -0.00000000
ATVX     1  Mu1.0001  Se1.029                      -0.15067047     -0.00000000     -0.00000000      0.00000000
ATVX     1  Mu1.0002  Se1.029                      -0.13572674     -0.00000024      0.00000049     -0.00000000
ATVX     1  Mu1.0003  Se1.029                      -0.13571986      0.00000000      0.00000000      0.00000000
ATVX     1  Mu1.0004  Se1.029                      -0.09357902      0.00000000      0.00000000      0.00000000
ATVX     1  Mu1.0005  Se1.029                       0.01769061      0.00000846      0.00139450      0.00000001
ATVX     1  Mu1.0006  Se1.029                       0.01769062     -0.00000045     -0.00007439      0.00000000
ATVX     1  Mu1.0007  Se1.029                       0.23492283      0.00000154     -0.00002255     -0.00000000
ATVX     1  Mu1.0008  Se1.029                       0.23492283      0.00000003     -0.00000046     -0.00000000
ATVX     1  Mu1.0009  Se1.029                       0.24879067     -0.00000000      0.00000000     -0.00000000
ATVX     1  Mu1.0010  Se1.029                       0.24879780      0.00000000     -0.00000000     -0.00000000
ATVX     1  Mu1.0011  Se1.029                       0.25078106     -0.00000000      0.00000000     -0.00000000
ATVX     1  Mu1.0012  Se1.029                       0.25078961      0.00000000     -0.00000000     -0.00000000
ATVX     1  Mu1.0013  Se1.029                       0.28932887      0.00000002     -0.00000005     -0.00000000
ATVX     1  Mu1.0014  Se1.029                       0.28932888     -0.00000150      0.00000502     -0.00000000
ATVX     1  Mu1.0015  Se1.029                       0.28952446      0.00000000     -0.00000000     -0.00000000
ATVX     1  Mu1.0016  Se1.029                       0.28957538     -0.00000000      0.00000000     -0.00000000
ATVX     1  Mu1.0017  Se1.029                       0.29420994      0.00000000     -0.00000000     -0.00000000
ATVX     1  Mu1.0018  Se1.029                       0.29420995      0.00000004     -0.00000015     -0.00000000
ATVX     1  Mu1.0001  Se1.030                       0.01515127      0.00000000     -0.00000000     -0.00000000
ATVX     1  Mu1.0002  Se1.030                       0.03009500     -0.00000000      0.00000000     -0.00000000
ATVX     1  Mu1.0003  Se1.030                       0.03010188     -0.00000000      0.00000000     -0.00000000
ATVX     1  Mu1.0004  Se1.030                       0.07224273     -0.00000000      0.00000000     -0.00000000
ATVX     1  Mu1.0005  Se1.030                       0.18351235      0.00000000     -0.00000000     -0.00000000
ATVX     1  Mu1.0006  Se1.030                       0.18351236     -0.00000000      0.00000000     -0.00000000
ATVX     1  Mu1.0277  Se1.031                       2.29883407      0.09615042     -0.04325106     -0.00415861
ATVX     1  Mu1.0278  Se1.032                       2.29883409     -0.09615040      0.04325105     -0.00415861
AIVX     1  Mu1.0140  In1.011 Se1.033               3.34287853     -0.10295059      0.03113594     -0.00320546
AIVX     1  Mu1.0142  In1.011 Se1.033               3.34746838     -0.07557299      0.02539219     -0.00191896
AIVX     1  Mu1.0130  In1.008 Se1.034               6.29713614      0.16688653     -0.02650392     -0.00442315
AIVX     1  Mu1.0130  In1.009 Se1.035               6.29609167     -0.16649893      0.02644341     -0.00440280
AIVX     1  Mu1.0169  In1.009 Se1.035               6.56110381     -0.17731533      0.02702526     -0.00479199
AIVX     1  Mu1.0130  In1.010 Se1.036               6.29609419     -0.16649979      0.02644353     -0.00440284
AIVX     1  Mu1.0169  In1.010 Se1.036               6.56110633     -0.17731669      0.02702546     -0.00479206
AIVX     1  Mu1.0033  In1.011 Se1.037               3.46850991     -0.09867037      0.02723839     -0.00268762
AIVX     1  Mu1.0034  In1.011 Se1.037               3.46850991     -0.10872446      0.03001386     -0.00326324
AIVX     1  Mu1.0051  In1.011 Se1.038               3.71846255     -0.14670220      0.03786436     -0.00555478
AIVX     1  Mu1.0040  In1.011 Se1.041               3.51634244      0.10146094     -0.02757108     -0.00279739
BVATM    1  Mu1.0001  Se1.027 Se1.026               0.24930371      0.00000000      0.00000000      0.00000000
BVATM    1  Mu1.0001  Se1.028 Se1.026               0.25428909      0.00000000      0.00000000      0.00000000
BVATM    1  Mu1.0001  Se1.029 Se1.026               0.25429057      0.00000000     -0.00000000     -0.00000000
BVATM    1  Mu1.0001  Se1.032 Se1.031               1.95805761     -0.07191947      0.03705037     -0.00266464
BVATM    1  Mu1.0001  Se1.038 Se1.037               5.00993268     -0.12961368      0.02587134     -0.00335328
BJATP    1  Mu1.0002  In1.011 Se1.033 Se1.031       2.94309377     -0.08247035      0.02789743     -0.00230071
BJATP    1  Mu1.0001  In1.011 Se1.033 Se1.032       2.94309377      0.08247035     -0.02789743     -0.00230071
BJATM    1  Mu1.0002  In1.011 Se1.033 Se1.031       2.94309377      0.07854867     -0.02860765     -0.00224709
BJATM    1  Mu1.0001  In1.011 Se1.033 Se1.032       2.94309377     -0.07854867      0.02860765     -0.00224709
BJAIP    1  Se1.033 In1.011 Se1.033 In1.011         3.92811589      0.12224395     -0.03327299     -0.00406742
--
 
   (Skipping property calculation,
    use PROP keyword to activate)
--
 
  Total CASPT2 energies:
::    CASPT2 Root  1     Total energy:  -1345.82606803
 
  A NEW JOBIPH FILE NAMED 'JOBMIX' IS PREPARED.
********************************************************************************
--- Stop Module: caspt2 at Wed Dec 25 08:37:56 2024 /rc=_RC_ALL_IS_WELL_ ---
*** files: xmldump
    saved to directory /home/grierjones/DDCASPT2/iron_oxo_DDCASPT2/cluster/5.51
--- Module caspt2 spent 5 minutes 30 seconds ---

>>> EXPORT i = B

>>> EXPORT j = P

>>> IF (-FILE GMJ_e2_${i}_${j}.csv)

>>> COPY /tmp/5.51/GMJ_RHS_B_P.csv /home/grierjones/DDCASPT2/iron_oxo_DDCASPT2/cluster/5.51/GMJ_RHS_B_P.csv

>>> COPY /tmp/5.51/GMJ_IVECW_B_P.csv /home/grierjones/DDCASPT2/iron_oxo_DDCASPT2/cluster/5.51/GMJ_IVECW_B_P.csv

>>> COPY /tmp/5.51/GMJ_IVECX_B_P.csv /home/grierjones/DDCASPT2/iron_oxo_DDCASPT2/cluster/5.51/GMJ_IVECX_B_P.csv

>>> COPY /tmp/5.51/GMJ_IVECC2_B_P.csv /home/grierjones/DDCASPT2/iron_oxo_DDCASPT2/cluster/5.51/GMJ_IVECC2_B_P.csv

>>> COPY /tmp/5.51/GMJ_e2_B_P.csv /home/grierjones/DDCASPT2/iron_oxo_DDCASPT2/cluster/5.51/GMJ_e2_B_P.csv

>>> END FOREACH

>>> EXPORT j = M

>>> IF (-FILE GMJ_e2_${i}_${j}.csv)

>>> COPY /tmp/5.51/GMJ_RHS_B_M.csv /home/grierjones/DDCASPT2/iron_oxo_DDCASPT2/cluster/5.51/GMJ_RHS_B_M.csv

>>> COPY /tmp/5.51/GMJ_IVECW_B_M.csv /home/grierjones/DDCASPT2/iron_oxo_DDCASPT2/cluster/5.51/GMJ_IVECW_B_M.csv

>>> COPY /tmp/5.51/GMJ_IVECX_B_M.csv /home/grierjones/DDCASPT2/iron_oxo_DDCASPT2/cluster/5.51/GMJ_IVECX_B_M.csv

>>> COPY /tmp/5.51/GMJ_IVECC2_B_M.csv /home/grierjones/DDCASPT2/iron_oxo_DDCASPT2/cluster/5.51/GMJ_IVECC2_B_M.csv

>>> COPY /tmp/5.51/GMJ_e2_B_M.csv /home/grierjones/DDCASPT2/iron_oxo_DDCASPT2/cluster/5.51/GMJ_e2_B_M.csv

>>> END FOREACH

>>> END FOREACH

>>> EXPORT i = E

>>> EXPORT j = P

>>> IF (-FILE GMJ_e2_${i}_${j}.csv)

>>> COPY /tmp/5.51/GMJ_RHS_E_P.csv /home/grierjones/DDCASPT2/iron_oxo_DDCASPT2/cluster/5.51/GMJ_RHS_E_P.csv

>>> COPY /tmp/5.51/GMJ_IVECW_E_P.csv /home/grierjones/DDCASPT2/iron_oxo_DDCASPT2/cluster/5.51/GMJ_IVECW_E_P.csv

>>> COPY /tmp/5.51/GMJ_IVECX_E_P.csv /home/grierjones/DDCASPT2/iron_oxo_DDCASPT2/cluster/5.51/GMJ_IVECX_E_P.csv

>>> COPY /tmp/5.51/GMJ_IVECC2_E_P.csv /home/grierjones/DDCASPT2/iron_oxo_DDCASPT2/cluster/5.51/GMJ_IVECC2_E_P.csv

>>> COPY /tmp/5.51/GMJ_e2_E_P.csv /home/grierjones/DDCASPT2/iron_oxo_DDCASPT2/cluster/5.51/GMJ_e2_E_P.csv

>>> END FOREACH

>>> EXPORT j = M

>>> IF (-FILE GMJ_e2_${i}_${j}.csv)

>>> COPY /tmp/5.51/GMJ_RHS_E_M.csv /home/grierjones/DDCASPT2/iron_oxo_DDCASPT2/cluster/5.51/GMJ_RHS_E_M.csv

>>> COPY /tmp/5.51/GMJ_IVECW_E_M.csv /home/grierjones/DDCASPT2/iron_oxo_DDCASPT2/cluster/5.51/GMJ_IVECW_E_M.csv

>>> COPY /tmp/5.51/GMJ_IVECX_E_M.csv /home/grierjones/DDCASPT2/iron_oxo_DDCASPT2/cluster/5.51/GMJ_IVECX_E_M.csv

>>> COPY /tmp/5.51/GMJ_IVECC2_E_M.csv /home/grierjones/DDCASPT2/iron_oxo_DDCASPT2/cluster/5.51/GMJ_IVECC2_E_M.csv

>>> COPY /tmp/5.51/GMJ_e2_E_M.csv /home/grierjones/DDCASPT2/iron_oxo_DDCASPT2/cluster/5.51/GMJ_e2_E_M.csv

>>> END FOREACH

>>> END FOREACH

>>> EXPORT i = F

>>> EXPORT j = P

>>> IF (-FILE GMJ_e2_${i}_${j}.csv)

>>> COPY /tmp/5.51/GMJ_RHS_F_P.csv /home/grierjones/DDCASPT2/iron_oxo_DDCASPT2/cluster/5.51/GMJ_RHS_F_P.csv

>>> COPY /tmp/5.51/GMJ_IVECW_F_P.csv /home/grierjones/DDCASPT2/iron_oxo_DDCASPT2/cluster/5.51/GMJ_IVECW_F_P.csv

>>> COPY /tmp/5.51/GMJ_IVECX_F_P.csv /home/grierjones/DDCASPT2/iron_oxo_DDCASPT2/cluster/5.51/GMJ_IVECX_F_P.csv

>>> COPY /tmp/5.51/GMJ_IVECC2_F_P.csv /home/grierjones/DDCASPT2/iron_oxo_DDCASPT2/cluster/5.51/GMJ_IVECC2_F_P.csv

>>> COPY /tmp/5.51/GMJ_e2_F_P.csv /home/grierjones/DDCASPT2/iron_oxo_DDCASPT2/cluster/5.51/GMJ_e2_F_P.csv

>>> END FOREACH

>>> EXPORT j = M

>>> IF (-FILE GMJ_e2_${i}_${j}.csv)

>>> COPY /tmp/5.51/GMJ_RHS_F_M.csv /home/grierjones/DDCASPT2/iron_oxo_DDCASPT2/cluster/5.51/GMJ_RHS_F_M.csv

>>> COPY /tmp/5.51/GMJ_IVECW_F_M.csv /home/grierjones/DDCASPT2/iron_oxo_DDCASPT2/cluster/5.51/GMJ_IVECW_F_M.csv

>>> COPY /tmp/5.51/GMJ_IVECX_F_M.csv /home/grierjones/DDCASPT2/iron_oxo_DDCASPT2/cluster/5.51/GMJ_IVECX_F_M.csv

>>> COPY /tmp/5.51/GMJ_IVECC2_F_M.csv /home/grierjones/DDCASPT2/iron_oxo_DDCASPT2/cluster/5.51/GMJ_IVECC2_F_M.csv

>>> COPY /tmp/5.51/GMJ_e2_F_M.csv /home/grierjones/DDCASPT2/iron_oxo_DDCASPT2/cluster/5.51/GMJ_e2_F_M.csv

>>> END FOREACH

>>> END FOREACH

>>> EXPORT i = G

>>> EXPORT j = P

>>> IF (-FILE GMJ_e2_${i}_${j}.csv)

>>> COPY /tmp/5.51/GMJ_RHS_G_P.csv /home/grierjones/DDCASPT2/iron_oxo_DDCASPT2/cluster/5.51/GMJ_RHS_G_P.csv

>>> COPY /tmp/5.51/GMJ_IVECW_G_P.csv /home/grierjones/DDCASPT2/iron_oxo_DDCASPT2/cluster/5.51/GMJ_IVECW_G_P.csv

>>> COPY /tmp/5.51/GMJ_IVECX_G_P.csv /home/grierjones/DDCASPT2/iron_oxo_DDCASPT2/cluster/5.51/GMJ_IVECX_G_P.csv

>>> COPY /tmp/5.51/GMJ_IVECC2_G_P.csv /home/grierjones/DDCASPT2/iron_oxo_DDCASPT2/cluster/5.51/GMJ_IVECC2_G_P.csv

>>> COPY /tmp/5.51/GMJ_e2_G_P.csv /home/grierjones/DDCASPT2/iron_oxo_DDCASPT2/cluster/5.51/GMJ_e2_G_P.csv

>>> END FOREACH

>>> EXPORT j = M

>>> IF (-FILE GMJ_e2_${i}_${j}.csv)

>>> COPY /tmp/5.51/GMJ_RHS_G_M.csv /home/grierjones/DDCASPT2/iron_oxo_DDCASPT2/cluster/5.51/GMJ_RHS_G_M.csv

>>> COPY /tmp/5.51/GMJ_IVECW_G_M.csv /home/grierjones/DDCASPT2/iron_oxo_DDCASPT2/cluster/5.51/GMJ_IVECW_G_M.csv

>>> COPY /tmp/5.51/GMJ_IVECX_G_M.csv /home/grierjones/DDCASPT2/iron_oxo_DDCASPT2/cluster/5.51/GMJ_IVECX_G_M.csv

>>> COPY /tmp/5.51/GMJ_IVECC2_G_M.csv /home/grierjones/DDCASPT2/iron_oxo_DDCASPT2/cluster/5.51/GMJ_IVECC2_G_M.csv

>>> COPY /tmp/5.51/GMJ_e2_G_M.csv /home/grierjones/DDCASPT2/iron_oxo_DDCASPT2/cluster/5.51/GMJ_e2_G_M.csv

>>> END FOREACH

>>> END FOREACH

>>> EXPORT i = H

>>> EXPORT j = P

>>> IF (-FILE GMJ_e2_${i}_${j}.csv)

>>> COPY /tmp/5.51/GMJ_RHS_H_P.csv /home/grierjones/DDCASPT2/iron_oxo_DDCASPT2/cluster/5.51/GMJ_RHS_H_P.csv

>>> COPY /tmp/5.51/GMJ_IVECW_H_P.csv /home/grierjones/DDCASPT2/iron_oxo_DDCASPT2/cluster/5.51/GMJ_IVECW_H_P.csv

>>> COPY /tmp/5.51/GMJ_IVECX_H_P.csv /home/grierjones/DDCASPT2/iron_oxo_DDCASPT2/cluster/5.51/GMJ_IVECX_H_P.csv

>>> COPY /tmp/5.51/GMJ_IVECC2_H_P.csv /home/grierjones/DDCASPT2/iron_oxo_DDCASPT2/cluster/5.51/GMJ_IVECC2_H_P.csv

>>> COPY /tmp/5.51/GMJ_e2_H_P.csv /home/grierjones/DDCASPT2/iron_oxo_DDCASPT2/cluster/5.51/GMJ_e2_H_P.csv

>>> END FOREACH

>>> EXPORT j = M

>>> IF (-FILE GMJ_e2_${i}_${j}.csv)

>>> COPY /tmp/5.51/GMJ_RHS_H_M.csv /home/grierjones/DDCASPT2/iron_oxo_DDCASPT2/cluster/5.51/GMJ_RHS_H_M.csv

>>> COPY /tmp/5.51/GMJ_IVECW_H_M.csv /home/grierjones/DDCASPT2/iron_oxo_DDCASPT2/cluster/5.51/GMJ_IVECW_H_M.csv

>>> COPY /tmp/5.51/GMJ_IVECX_H_M.csv /home/grierjones/DDCASPT2/iron_oxo_DDCASPT2/cluster/5.51/GMJ_IVECX_H_M.csv

>>> COPY /tmp/5.51/GMJ_IVECC2_H_M.csv /home/grierjones/DDCASPT2/iron_oxo_DDCASPT2/cluster/5.51/GMJ_IVECC2_H_M.csv

>>> COPY /tmp/5.51/GMJ_e2_H_M.csv /home/grierjones/DDCASPT2/iron_oxo_DDCASPT2/cluster/5.51/GMJ_e2_H_M.csv

>>> END FOREACH

>>> END FOREACH

>>> EXPORT i = A

>>> IF (-FILE GMJ_e2_$i.csv)

>>> COPY /tmp/5.51/GMJ_RHS_A.csv /home/grierjones/DDCASPT2/iron_oxo_DDCASPT2/cluster/5.51/GMJ_RHS_A.csv

>>> COPY /tmp/5.51/GMJ_IVECW_A.csv /home/grierjones/DDCASPT2/iron_oxo_DDCASPT2/cluster/5.51/GMJ_IVECW_A.csv

>>> COPY /tmp/5.51/GMJ_IVECX_A.csv /home/grierjones/DDCASPT2/iron_oxo_DDCASPT2/cluster/5.51/GMJ_IVECX_A.csv

>>> COPY /tmp/5.51/GMJ_IVECC2_A.csv /home/grierjones/DDCASPT2/iron_oxo_DDCASPT2/cluster/5.51/GMJ_IVECC2_A.csv

>>> COPY /tmp/5.51/GMJ_e2_A.csv /home/grierjones/DDCASPT2/iron_oxo_DDCASPT2/cluster/5.51/GMJ_e2_A.csv

>>> END FOREACH

>>> EXPORT i = C

>>> IF (-FILE GMJ_e2_$i.csv)

>>> COPY /tmp/5.51/GMJ_RHS_C.csv /home/grierjones/DDCASPT2/iron_oxo_DDCASPT2/cluster/5.51/GMJ_RHS_C.csv

>>> COPY /tmp/5.51/GMJ_IVECW_C.csv /home/grierjones/DDCASPT2/iron_oxo_DDCASPT2/cluster/5.51/GMJ_IVECW_C.csv

>>> COPY /tmp/5.51/GMJ_IVECX_C.csv /home/grierjones/DDCASPT2/iron_oxo_DDCASPT2/cluster/5.51/GMJ_IVECX_C.csv

>>> COPY /tmp/5.51/GMJ_IVECC2_C.csv /home/grierjones/DDCASPT2/iron_oxo_DDCASPT2/cluster/5.51/GMJ_IVECC2_C.csv

>>> COPY /tmp/5.51/GMJ_e2_C.csv /home/grierjones/DDCASPT2/iron_oxo_DDCASPT2/cluster/5.51/GMJ_e2_C.csv

>>> END FOREACH

>>> EXPORT i = D

>>> IF (-FILE GMJ_e2_$i.csv)

>>> COPY /tmp/5.51/GMJ_RHS_D.csv /home/grierjones/DDCASPT2/iron_oxo_DDCASPT2/cluster/5.51/GMJ_RHS_D.csv

>>> COPY /tmp/5.51/GMJ_IVECW_D.csv /home/grierjones/DDCASPT2/iron_oxo_DDCASPT2/cluster/5.51/GMJ_IVECW_D.csv

>>> COPY /tmp/5.51/GMJ_IVECX_D.csv /home/grierjones/DDCASPT2/iron_oxo_DDCASPT2/cluster/5.51/GMJ_IVECX_D.csv

>>> COPY /tmp/5.51/GMJ_IVECC2_D.csv /home/grierjones/DDCASPT2/iron_oxo_DDCASPT2/cluster/5.51/GMJ_IVECC2_D.csv

>>> COPY /tmp/5.51/GMJ_e2_D.csv /home/grierjones/DDCASPT2/iron_oxo_DDCASPT2/cluster/5.51/GMJ_e2_D.csv

>>> END FOREACH

.########################.
.# Non-zero return code #.
.########################.

    Timing: Wall=398.59 User=395.34 System=3.12
************************************
*** WorkDir at /tmp/5.51 cleaned ***
************************************
