[Molden Format]
[N_Atoms]
                     2
[Atoms] (AU)
LI1         1      3           0.00000000      0.00000000      0.00000000
O2          2      8           0.00000000      0.00000000      2.26767135
[Charge] (Mulliken)
  0.676361896726515     
 -0.676361896726529     
[GTO] (AU)
   1
   s  14
  9.497934400E+03  9.668999974E-05
  1.416811200E+03  6.087099984E-04
  3.214599400E+02  3.101519992E-03
  9.112416300E+01  1.266904997E-02
  2.999989100E+01  4.248012989E-02
  1.101763100E+01  1.150183297E-01
  4.372801000E+00  2.398650094E-01
  1.831256000E+00  3.584300090E-01
  8.022610000E-01  3.048527792E-01
  3.626480000E-01  8.824261976E-02
  1.139950000E-01 -8.445899977E-04
  5.123700000E-02 -7.943959979E-03
  2.246800000E-02 -3.764419990E-03
  7.860000000E-03 -8.868999976E-05
   s  14
  9.497934400E+03 -1.244999993E-05
  1.416811200E+03 -7.838999954E-05
  3.214599400E+02 -4.007099976E-04
  9.112416300E+01 -1.645249990E-03
  2.999989100E+01 -5.634599967E-03
  1.101763100E+01 -1.590780991E-02
  4.372801000E+00 -3.612581979E-02
  1.831256000E+00 -6.459927962E-02
  8.022610000E-01 -1.008321794E-01
  3.626480000E-01 -9.757613942E-02
  1.139950000E-01  2.301215886E-01
  5.123700000E-02  6.102389764E-01
  2.246800000E-02  2.849406083E-01
  7.860000000E-03  4.026899976E-03
   p   9
  1.311950400E+01  1.524940000E-03
  3.077424200E+00  8.314830000E-03
  1.098800500E+00  1.933203000E-02
  4.357784000E-01  4.934293000E-02
  1.802432000E-01  1.623554000E-01
  7.613330000E-02  3.847505400E-01
  3.254650000E-02  4.336100400E-01
  1.401820000E-02  1.287005900E-01
  4.906400000E-03 -1.018520000E-03
 
   2
   s  14
  1.053749500E+05  1.238600013E-04
  1.567924000E+04  5.120100053E-04
  3.534544700E+03  2.152910022E-03
  9.873651600E+02  8.528440089E-03
  3.159787500E+02  3.018049031E-02
  1.116542800E+02  9.099702095E-02
  4.269945100E+01  2.177936423E-01
  1.739559600E+01  3.686245738E-01
  7.438309000E+00  3.366707335E-01
  3.222862000E+00  9.657630101E-02
  1.253877000E+00  2.144520022E-03
  4.951550000E-01  1.194350012E-03
  1.916650000E-01  5.390200056E-04
  6.708300000E-02  2.103400022E-04
   s  14
  1.053749500E+05 -2.815000008E-05
  1.567924000E+04 -1.163000003E-04
  3.534544700E+03 -4.909200013E-04
  9.873651600E+02 -1.946160005E-03
  3.159787500E+02 -7.005300019E-03
  1.116542800E+02 -2.167814006E-02
  4.269945100E+01 -5.641213015E-02
  1.739559600E+01 -1.127053003E-01
  7.438309000E+00 -1.589119704E-01
  3.222862000E+00 -3.355083009E-02
  1.253877000E+00  3.531902810E-01
  4.951550000E-01  5.534199315E-01
  1.916650000E-01  2.301839106E-01
  6.708300000E-02  1.127267003E-02
   p   9
  2.000000000E+02  9.173000030E-04
  4.653336700E+01  7.377140024E-03
  1.462180900E+01  3.483515011E-02
  5.313064000E+00  1.144397004E-01
  2.102525000E+00  2.554966408E-01
  8.502230000E-01  3.722557412E-01
  3.375970000E-01  3.323314911E-01
  1.288920000E-01  1.400847905E-01
  4.511200000E-02  2.395784008E-02
 
[MO]
Sym=     1a  
Ene=   -20.3660
Spin= Alpha
Occup=    1.00000
   1        -0.00047063
   2        -0.00063422
   3        -0.00000000
   4        -0.00000000
   5        -0.00048581
   6         1.00005586
   7         0.00127597
   8        -0.00000000
   9         0.00000000
  10        -0.00049829
Sym=     1a  
Ene=   -20.3660
Spin= Beta
Occup=    1.00000
   1        -0.00047063
   2        -0.00063422
   3        -0.00000000
   4        -0.00000000
   5        -0.00048581
   6         1.00005586
   7         0.00127597
   8        -0.00000000
   9         0.00000000
  10        -0.00049829
Sym=     2a  
Ene=    -2.4977
Spin= Alpha
Occup=    1.00000
   1         0.98286248
   2         0.00665520
   3        -0.00000000
   4        -0.00000000
   5        -0.00151628
   6        -0.00595769
   7         0.05700422
   8         0.00000000
   9        -0.00000000
  10        -0.02804485
Sym=     2a  
Ene=    -2.4977
Spin= Beta
Occup=    1.00000
   1         0.98286248
   2         0.00665520
   3        -0.00000000
   4        -0.00000000
   5        -0.00151628
   6        -0.00595769
   7         0.05700422
   8         0.00000000
   9        -0.00000000
  10        -0.02804485
Sym=     3a  
Ene=    -1.1148
Spin= Alpha
Occup=    1.00000
   1        -0.22574468
   2         0.00572354
   3         0.00000000
   4         0.00000000
   5         0.04249018
   6        -0.00215598
   7         0.98751296
   8        -0.00000000
   9        -0.00000000
  10        -0.09612957
Sym=     3a  
Ene=    -1.1148
Spin= Beta
Occup=    1.00000
   1        -0.22574468
   2         0.00572354
   3         0.00000000
   4         0.00000000
   5         0.04249018
   6        -0.00215598
   7         0.98751296
   8        -0.00000000
   9        -0.00000000
  10        -0.09612957
Sym=     4a  
Ene=    -0.4171
Spin= Alpha
Occup=    1.00000
   1         0.00000000
   2        -0.00000000
   3         0.15795510
   4         0.04150752
   5        -0.00000000
   6         0.00000000
   7         0.00000000
   8         0.90816629
   9         0.23864837
  10         0.00000000
Sym=     4a  
Ene=    -0.4171
Spin= Beta
Occup=    1.00000
   1         0.00000000
   2        -0.00000000
   3         0.15795510
   4         0.04150752
   5        -0.00000000
   6         0.00000000
   7         0.00000000
   8         0.90816629
   9         0.23864837
  10         0.00000000
Sym=     5a  
Ene=    -0.4171
Spin= Alpha
Occup=    1.00000
   1         0.00000000
   2         0.00000000
   3        -0.04150752
   4         0.15795510
   5         0.00000000
   6        -0.00000000
   7        -0.00000000
   8        -0.23864837
   9         0.90816629
  10         0.00000000
Sym=     5a  
Ene=    -0.4171
Spin= Beta
Occup=    1.00000
   1         0.00000000
   2         0.00000000
   3        -0.04150752
   4         0.15795510
   5         0.00000000
   6        -0.00000000
   7        -0.00000000
   8        -0.23864837
   9         0.90816629
  10         0.00000000
Sym=     6a  
Ene=    -0.0123
Spin= Alpha
Occup=    1.00000
   1        -0.26628938
   2        -0.06465995
   3         0.00000000
   4         0.00000000
   5         0.05950174
   6         0.00043691
   7        -0.05858070
   8        -0.00000000
   9        -0.00000000
  10        -1.03355829
Sym=     6a  
Ene=    -0.0123
Spin= Beta
Occup=    0.00000
   1        -0.26628938
   2        -0.06465995
   3         0.00000000
   4         0.00000000
   5         0.05950174
   6         0.00043691
   7        -0.05858070
   8        -0.00000000
   9        -0.00000000
  10        -1.03355829
Sym=     7a  
Ene=     0.0171
Spin= Alpha
Occup=    0.00000
   1         0.00646860
   2         0.84183441
   3         0.00000000
   4        -0.00000000
   5        -0.54936904
   6        -0.00292779
   7        -0.06692250
   8        -0.00000000
   9         0.00000000
  10         0.02493203
Sym=     7a  
Ene=     0.0171
Spin= Beta
Occup=    0.00000
   1         0.00646860
   2         0.84183441
   3         0.00000000
   4        -0.00000000
   5        -0.54936904
   6        -0.00292779
   7        -0.06692250
   8        -0.00000000
   9         0.00000000
  10         0.02493203
Sym=     8a  
Ene=     0.1315
Spin= Alpha
Occup=    0.00000
   1         0.00000000
   2         0.00000000
   3         1.02899448
   4         0.11155839
   5         0.00000000
   6        -0.00000000
   7        -0.00000000
   8        -0.46229488
   9        -0.05011968
  10         0.00000000
Sym=     8a  
Ene=     0.1315
Spin= Beta
Occup=    0.00000
   1         0.00000000
   2         0.00000000
   3         1.02899448
   4         0.11155839
   5         0.00000000
   6        -0.00000000
   7        -0.00000000
   8        -0.46229488
   9        -0.05011968
  10         0.00000000
Sym=     9a  
Ene=     0.1315
Spin= Alpha
Occup=    0.00000
   1         0.00000000
   2         0.00000000
   3        -0.11155839
   4         1.02899448
   5        -0.00000000
   6         0.00000000
   7         0.00000000
   8         0.05011968
   9        -0.46229488
  10         0.00000000
Sym=     9a  
Ene=     0.1315
Spin= Beta
Occup=    0.00000
   1         0.00000000
   2         0.00000000
   3        -0.11155839
   4         1.02899448
   5        -0.00000000
   6         0.00000000
   7         0.00000000
   8         0.05011968
   9        -0.46229488
  10         0.00000000
Sym=    10a  
Ene=     0.2192
Spin= Alpha
Occup=    0.00000
   1        -0.10122490
   2        -0.69720841
   3         0.00000000
   4        -0.00000000
   5        -0.97628339
   6         0.08426548
   7         0.69642483
   8        -0.00000000
   9         0.00000000
  10         0.00093741
Sym=    10a  
Ene=     0.2192
Spin= Beta
Occup=    0.00000
   1        -0.10122490
   2        -0.69720841
   3         0.00000000
   4        -0.00000000
   5        -0.97628339
   6         0.08426548
   7         0.69642483
   8        -0.00000000
   9         0.00000000
  10         0.00093741
