[Molden Format]
[N_Atoms]
                     2
[Atoms] (AU)
LI1         1      3           0.00000000      0.00000000      0.00000000
O2          2      8           0.00000000      0.00000000      2.26767135
[Charge] (Mulliken)
  0.668596212599880     
 -0.668596212599894     
[GTO] (AU)
   1
   s  14
  9.497934400E+03  9.668999974E-05
  1.416811200E+03  6.087099984E-04
  3.214599400E+02  3.101519992E-03
  9.112416300E+01  1.266904997E-02
  2.999989100E+01  4.248012989E-02
  1.101763100E+01  1.150183297E-01
  4.372801000E+00  2.398650094E-01
  1.831256000E+00  3.584300090E-01
  8.022610000E-01  3.048527792E-01
  3.626480000E-01  8.824261976E-02
  1.139950000E-01 -8.445899977E-04
  5.123700000E-02 -7.943959979E-03
  2.246800000E-02 -3.764419990E-03
  7.860000000E-03 -8.868999976E-05
   s  14
  9.497934400E+03 -1.244999993E-05
  1.416811200E+03 -7.838999954E-05
  3.214599400E+02 -4.007099976E-04
  9.112416300E+01 -1.645249990E-03
  2.999989100E+01 -5.634599967E-03
  1.101763100E+01 -1.590780991E-02
  4.372801000E+00 -3.612581979E-02
  1.831256000E+00 -6.459927962E-02
  8.022610000E-01 -1.008321794E-01
  3.626480000E-01 -9.757613942E-02
  1.139950000E-01  2.301215886E-01
  5.123700000E-02  6.102389764E-01
  2.246800000E-02  2.849406083E-01
  7.860000000E-03  4.026899976E-03
   p   9
  1.311950400E+01  1.524940000E-03
  3.077424200E+00  8.314830000E-03
  1.098800500E+00  1.933203000E-02
  4.357784000E-01  4.934293000E-02
  1.802432000E-01  1.623554000E-01
  7.613330000E-02  3.847505400E-01
  3.254650000E-02  4.336100400E-01
  1.401820000E-02  1.287005900E-01
  4.906400000E-03 -1.018520000E-03
 
   2
   s  14
  1.053749500E+05  1.238600013E-04
  1.567924000E+04  5.120100053E-04
  3.534544700E+03  2.152910022E-03
  9.873651600E+02  8.528440089E-03
  3.159787500E+02  3.018049031E-02
  1.116542800E+02  9.099702095E-02
  4.269945100E+01  2.177936423E-01
  1.739559600E+01  3.686245738E-01
  7.438309000E+00  3.366707335E-01
  3.222862000E+00  9.657630101E-02
  1.253877000E+00  2.144520022E-03
  4.951550000E-01  1.194350012E-03
  1.916650000E-01  5.390200056E-04
  6.708300000E-02  2.103400022E-04
   s  14
  1.053749500E+05 -2.815000008E-05
  1.567924000E+04 -1.163000003E-04
  3.534544700E+03 -4.909200013E-04
  9.873651600E+02 -1.946160005E-03
  3.159787500E+02 -7.005300019E-03
  1.116542800E+02 -2.167814006E-02
  4.269945100E+01 -5.641213015E-02
  1.739559600E+01 -1.127053003E-01
  7.438309000E+00 -1.589119704E-01
  3.222862000E+00 -3.355083009E-02
  1.253877000E+00  3.531902810E-01
  4.951550000E-01  5.534199315E-01
  1.916650000E-01  2.301839106E-01
  6.708300000E-02  1.127267003E-02
   p   9
  2.000000000E+02  9.173000030E-04
  4.653336700E+01  7.377140024E-03
  1.462180900E+01  3.483515011E-02
  5.313064000E+00  1.144397004E-01
  2.102525000E+00  2.554966408E-01
  8.502230000E-01  3.722557412E-01
  3.375970000E-01  3.323314911E-01
  1.288920000E-01  1.400847905E-01
  4.511200000E-02  2.395784008E-02
 
[MO]
Sym=     1a  
Ene=   -20.3940
Spin= Alpha
Occup=    1.00000
   1        -0.00056197
   2        -0.00086201
   3        -0.00000000
   4         0.00000000
   5        -0.00071599
   6         1.00007726
   7         0.00254988
   8        -0.00000000
   9         0.00000000
  10        -0.00032618
Sym=     1a  
Ene=   -20.3500
Spin= Beta
Occup=    1.00000
   1        -0.00030771
   2        -0.00038575
   3        -0.00000000
   4        -0.00000000
   5        -0.00026745
   6         1.00003271
   7         0.00000005
   8         0.00000000
   9         0.00000000
  10        -0.00039756
Sym=     2a  
Ene=    -2.5125
Spin= Alpha
Occup=    1.00000
   1         0.97836235
   2         0.00445320
   3        -0.00000000
   4        -0.00000000
   5        -0.00102462
   6        -0.00598718
   7         0.06119513
   8         0.00000000
   9        -0.00000000
  10        -0.04146854
Sym=     2a  
Ene=    -2.4849
Spin= Beta
Occup=    1.00000
   1         0.98375305
   2         0.00795063
   3        -0.00000000
   4         0.00000000
   5        -0.00126165
   6        -0.00592142
   7         0.05271551
   8         0.00000000
   9        -0.00000000
  10        -0.02776062
Sym=     3a  
Ene=    -1.2048
Spin= Alpha
Occup=    1.00000
   1        -0.22249182
   2        -0.00685999
   3        -0.00000000
   4        -0.00000000
   5         0.02796412
   6        -0.00189635
   7         0.99960197
   8        -0.00000000
   9         0.00000000
  10        -0.06301160
Sym=     3a  
Ene=    -1.0321
Spin= Beta
Occup=    1.00000
   1        -0.22061921
   2         0.02188999
   3        -0.00000000
   4        -0.00000000
   5         0.05600989
   6        -0.00254402
   7         0.97545216
   8        -0.00000000
   9         0.00000000
  10        -0.09695448
Sym=     4a  
Ene=    -0.5230
Spin= Alpha
Occup=    1.00000
   1         0.28589765
   2         0.06611347
   3        -0.00000000
   4         0.00000000
   5        -0.06093494
   6        -0.00073899
   7         0.02721047
   8         0.00000000
   9        -0.00000000
  10         1.03569138
Sym=     4a  
Ene=    -0.3874
Spin= Beta
Occup=    1.00000
   1         0.00000000
   2        -0.00000000
   3         0.00398499
   4         0.20229177
   5         0.00000000
   6        -0.00000000
   7        -0.00000000
   8         0.01813449
   9         0.92056919
  10         0.00000000
Sym=     5a  
Ene=    -0.4529
Spin= Alpha
Occup=    1.00000
   1         0.00000000
   2        -0.00000000
   3        -0.00056552
   4         0.12528471
   5         0.00000000
   6        -0.00000000
   7        -0.00000000
   8        -0.00431257
   9         0.95539597
  10         0.00000000
Sym=     5a  
Ene=    -0.3874
Spin= Beta
Occup=    1.00000
   1        -0.00000000
   2         0.00000000
   3         0.20229177
   4        -0.00398499
   5         0.00000000
   6        -0.00000000
   7         0.00000000
   8         0.92056919
   9        -0.01813449
  10        -0.00000000
Sym=     6a  
Ene=    -0.4529
Spin= Alpha
Occup=    1.00000
   1        -0.00000000
   2         0.00000000
   3         0.12528471
   4         0.00056552
   5         0.00000000
   6        -0.00000000
   7         0.00000000
   8         0.95539597
   9         0.00431257
  10        -0.00000000
Sym=     6a  
Ene=     0.0162
Spin= Beta
Occup=    0.00000
   1        -0.00670385
   2        -0.84196795
   3        -0.00000000
   4         0.00000000
   5         0.54924241
   6         0.00299825
   7         0.07248382
   8         0.00000000
   9        -0.00000000
  10        -0.02485814
Sym=     7a  
Ene=     0.0179
Spin= Alpha
Occup=    0.00000
   1        -0.00601056
   2        -0.84220182
   3        -0.00000000
   4         0.00000000
   5         0.54850323
   6         0.00294358
   7         0.06281434
   8         0.00000000
   9        -0.00000000
  10        -0.02321647
Sym=     7a  
Ene=     0.1362
Spin= Beta
Occup=    0.00000
   1        -0.00000000
   2        -0.00000000
   3        -1.01798740
   4        -0.14391458
   5        -0.00000000
   6         0.00000000
   7         0.00000000
   8         0.49524658
   9         0.07001384
  10         0.00000000
Sym=     8a  
Ene=     0.1267
Spin= Alpha
Occup=    0.00000
   1        -0.00000000
   2        -0.00000000
   3        -1.03530173
   4        -0.10198699
   5        -0.00000000
   6         0.00000000
   7         0.00000000
   8         0.42821503
   9         0.04218322
  10        -0.00000000
Sym=     8a  
Ene=     0.1362
Spin= Beta
Occup=    0.00000
   1        -0.00000000
   2        -0.00000000
   3         0.14391458
   4        -1.01798740
   5         0.00000000
   6         0.00000000
   7        -0.00000000
   8        -0.07001384
   9         0.49524658
  10        -0.00000000
Sym=     9a  
Ene=     0.1267
Spin= Alpha
Occup=    0.00000
   1        -0.00000000
   2         0.00000000
   3        -0.10198699
   4         1.03530173
   5        -0.00000000
   6        -0.00000000
   7         0.00000000
   8         0.04218322
   9        -0.42821503
  10        -0.00000000
Sym=     9a  
Ene=     0.2192
Spin= Beta
Occup=    0.00000
   1         0.16230527
   2         0.69306043
   3        -0.00000000
   4        -0.00000000
   5         0.93598936
   6        -0.08237909
   7        -0.68036766
   8         0.00000000
   9        -0.00000000
  10         0.23752527
Sym=    10a  
Ene=     0.2130
Spin= Alpha
Occup=    0.00000
   1         0.09853160
   2         0.69663518
   3        -0.00000000
   4        -0.00000000
   5         0.97720600
   6        -0.08401259
   7        -0.68096205
   8         0.00000000
   9        -0.00000000
  10        -0.00264932
Sym=    10a  
Ene=     0.3181
Spin= Beta
Occup=    0.00000
   1         0.23525933
   2        -0.09621731
   3         0.00000000
   4        -0.00000000
   5        -0.28178344
   6         0.01894823
   7         0.22115814
   8        -0.00000000
   9         0.00000000
  10         1.00582588
