[Molden Format]
[N_Atoms]
                     2
[Atoms] (AU)
LI1         1      3           0.00000000      0.00000000      0.00000000
LI2         2      3           0.00000000      0.00000000      4.91328792
[Charge] (Mulliken)
 -7.283063041541027E-014
  6.572520305780927E-014
[GTO] (AU)
   1
   s  14
  9.497934400E+03  9.668999974E-05
  1.416811200E+03  6.087099984E-04
  3.214599400E+02  3.101519992E-03
  9.112416300E+01  1.266904997E-02
  2.999989100E+01  4.248012989E-02
  1.101763100E+01  1.150183297E-01
  4.372801000E+00  2.398650094E-01
  1.831256000E+00  3.584300090E-01
  8.022610000E-01  3.048527792E-01
  3.626480000E-01  8.824261976E-02
  1.139950000E-01 -8.445899977E-04
  5.123700000E-02 -7.943959979E-03
  2.246800000E-02 -3.764419990E-03
  7.860000000E-03 -8.868999976E-05
   s  14
  9.497934400E+03 -1.244999993E-05
  1.416811200E+03 -7.838999954E-05
  3.214599400E+02 -4.007099976E-04
  9.112416300E+01 -1.645249990E-03
  2.999989100E+01 -5.634599967E-03
  1.101763100E+01 -1.590780991E-02
  4.372801000E+00 -3.612581979E-02
  1.831256000E+00 -6.459927962E-02
  8.022610000E-01 -1.008321794E-01
  3.626480000E-01 -9.757613942E-02
  1.139950000E-01  2.301215886E-01
  5.123700000E-02  6.102389764E-01
  2.246800000E-02  2.849406083E-01
  7.860000000E-03  4.026899976E-03
   p   9
  1.311950400E+01  1.524940000E-03
  3.077424200E+00  8.314830000E-03
  1.098800500E+00  1.933203000E-02
  4.357784000E-01  4.934293000E-02
  1.802432000E-01  1.623554000E-01
  7.613330000E-02  3.847505400E-01
  3.254650000E-02  4.336100400E-01
  1.401820000E-02  1.287005900E-01
  4.906400000E-03 -1.018520000E-03
 
   2
   s  14
  9.497934400E+03  9.668999974E-05
  1.416811200E+03  6.087099984E-04
  3.214599400E+02  3.101519992E-03
  9.112416300E+01  1.266904997E-02
  2.999989100E+01  4.248012989E-02
  1.101763100E+01  1.150183297E-01
  4.372801000E+00  2.398650094E-01
  1.831256000E+00  3.584300090E-01
  8.022610000E-01  3.048527792E-01
  3.626480000E-01  8.824261976E-02
  1.139950000E-01 -8.445899977E-04
  5.123700000E-02 -7.943959979E-03
  2.246800000E-02 -3.764419990E-03
  7.860000000E-03 -8.868999976E-05
   s  14
  9.497934400E+03 -1.244999993E-05
  1.416811200E+03 -7.838999954E-05
  3.214599400E+02 -4.007099976E-04
  9.112416300E+01 -1.645249990E-03
  2.999989100E+01 -5.634599967E-03
  1.101763100E+01 -1.590780991E-02
  4.372801000E+00 -3.612581979E-02
  1.831256000E+00 -6.459927962E-02
  8.022610000E-01 -1.008321794E-01
  3.626480000E-01 -9.757613942E-02
  1.139950000E-01  2.301215886E-01
  5.123700000E-02  6.102389764E-01
  2.246800000E-02  2.849406083E-01
  7.860000000E-03  4.026899976E-03
   p   9
  1.311950400E+01  1.524940000E-03
  3.077424200E+00  8.314830000E-03
  1.098800500E+00  1.933203000E-02
  4.357784000E-01  4.934293000E-02
  1.802432000E-01  1.623554000E-01
  7.613330000E-02  3.847505400E-01
  3.254650000E-02  4.336100400E-01
  1.401820000E-02  1.287005900E-01
  4.906400000E-03 -1.018520000E-03
 
[MO]
Sym=     1a  
Ene=    -2.4527
Spin= Alpha
Occup=    1.00000
   1         0.70699490
   2         0.00938658
   3         0.00000000
   4        -0.00000000
   5        -0.00074573
   6         0.70699490
   7         0.00938658
   8         0.00000000
   9         0.00000000
  10         0.00074573
Sym=     1a  
Ene=    -2.4527
Spin= Beta
Occup=    1.00000
   1         0.70699490
   2         0.00938658
   3         0.00000000
   4        -0.00000000
   5        -0.00074573
   6         0.70699490
   7         0.00938658
   8         0.00000000
   9         0.00000000
  10         0.00074573
Sym=     2a  
Ene=    -2.4523
Spin= Alpha
Occup=    1.00000
   1        -0.70651020
   2        -0.00500218
   3         0.00000000
   4        -0.00000000
   5         0.00291396
   6         0.70651020
   7         0.00500218
   8        -0.00000000
   9         0.00000000
  10         0.00291396
Sym=     2a  
Ene=    -2.4523
Spin= Beta
Occup=    1.00000
   1        -0.70651020
   2        -0.00500218
   3         0.00000000
   4        -0.00000000
   5         0.00291396
   6         0.70651020
   7         0.00500218
   8        -0.00000000
   9         0.00000000
  10         0.00291396
Sym=     3a  
Ene=    -0.1828
Spin= Alpha
Occup=    1.00000
   1        -0.06435442
   2         0.50874865
   3        -0.00000000
   4         0.00000000
   5         0.13209829
   6        -0.06435442
   7         0.50874865
   8         0.00000000
   9        -0.00000000
  10        -0.13209829
Sym=     3a  
Ene=    -0.1828
Spin= Beta
Occup=    1.00000
   1        -0.06435442
   2         0.50874865
   3        -0.00000000
   4         0.00000000
   5         0.13209829
   6        -0.06435442
   7         0.50874865
   8         0.00000000
   9        -0.00000000
  10        -0.13209829
Sym=     4a  
Ene=     0.0219
Spin= Alpha
Occup=    0.00000
   1         0.03354451
   2        -0.44232315
   3        -0.00000000
   4        -0.00000000
   5         0.45483163
   6        -0.03354451
   7         0.44232315
   8        -0.00000000
   9        -0.00000000
  10         0.45483163
Sym=     4a  
Ene=     0.0219
Spin= Beta
Occup=    0.00000
   1         0.03354451
   2        -0.44232315
   3        -0.00000000
   4        -0.00000000
   5         0.45483163
   6        -0.03354451
   7         0.44232315
   8        -0.00000000
   9        -0.00000000
  10         0.45483163
Sym=     5a  
Ene=     0.0441
Spin= Alpha
Occup=    0.00000
   1         0.00000000
   2         0.00000000
   3        -0.06556823
   4         0.56676242
   5         0.00000000
   6        -0.00000000
   7        -0.00000000
   8        -0.06556823
   9         0.56676242
  10         0.00000000
Sym=     5a  
Ene=     0.0441
Spin= Beta
Occup=    0.00000
   1         0.00000000
   2         0.00000000
   3        -0.06556823
   4         0.56676242
   5         0.00000000
   6        -0.00000000
   7        -0.00000000
   8        -0.06556823
   9         0.56676242
  10         0.00000000
Sym=     6a  
Ene=     0.0441
Spin= Alpha
Occup=    0.00000
   1        -0.00000000
   2        -0.00000000
   3         0.56676242
   4         0.06556823
   5         0.00000000
   6        -0.00000000
   7         0.00000000
   8         0.56676242
   9         0.06556823
  10        -0.00000000
Sym=     6a  
Ene=     0.0441
Spin= Beta
Occup=    0.00000
   1        -0.00000000
   2        -0.00000000
   3         0.56676242
   4         0.06556823
   5         0.00000000
   6        -0.00000000
   7         0.00000000
   8         0.56676242
   9         0.06556823
  10        -0.00000000
Sym=     7a  
Ene=     0.0785
Spin= Alpha
Occup=    0.00000
   1         0.07024509
   2         0.35843220
   3         0.00000000
   4        -0.00000000
   5        -0.75665505
   6         0.07024509
   7         0.35843220
   8         0.00000000
   9         0.00000000
  10         0.75665505
Sym=     7a  
Ene=     0.0785
Spin= Beta
Occup=    0.00000
   1         0.07024509
   2         0.35843220
   3         0.00000000
   4        -0.00000000
   5        -0.75665505
   6         0.07024509
   7         0.35843220
   8         0.00000000
   9         0.00000000
  10         0.75665505
Sym=     8a  
Ene=     0.1326
Spin= Alpha
Occup=    0.00000
   1        -0.00000000
   2        -0.00000000
   3        -0.79139241
   4        -0.67179327
   5         0.00000000
   6         0.00000000
   7        -0.00000000
   8         0.79139241
   9         0.67179327
  10        -0.00000000
Sym=     8a  
Ene=     0.1326
Spin= Beta
Occup=    0.00000
   1        -0.00000000
   2        -0.00000000
   3        -0.79139241
   4        -0.67179327
   5         0.00000000
   6         0.00000000
   7        -0.00000000
   8         0.79139241
   9         0.67179327
  10        -0.00000000
Sym=     9a  
Ene=     0.1326
Spin= Alpha
Occup=    0.00000
   1        -0.00000000
   2        -0.00000000
   3         0.67179327
   4        -0.79139241
   5         0.00000000
   6        -0.00000000
   7         0.00000000
   8        -0.67179327
   9         0.79139241
  10         0.00000000
Sym=     9a  
Ene=     0.1326
Spin= Beta
Occup=    0.00000
   1        -0.00000000
   2        -0.00000000
   3         0.67179327
   4        -0.79139241
   5         0.00000000
   6        -0.00000000
   7         0.00000000
   8        -0.67179327
   9         0.79139241
  10         0.00000000
Sym=    10a  
Ene=     0.3067
Spin= Alpha
Occup=    0.00000
   1         0.40845416
   2         2.63708712
   3         0.00000000
   4        -0.00000000
   5         1.72030138
   6        -0.40845416
   7        -2.63708712
   8         0.00000000
   9         0.00000000
  10         1.72030138
Sym=    10a  
Ene=     0.3067
Spin= Beta
Occup=    0.00000
   1         0.40845416
   2         2.63708712
   3         0.00000000
   4        -0.00000000
   5         1.72030138
   6        -0.40845416
   7        -2.63708712
   8         0.00000000
   9         0.00000000
  10         1.72030138
