[Molden Format]
[N_Atoms]
                     2
[Atoms] (AU)
LI1         1      3           0.00000000      0.00000000      0.00000000
LI2         2      3           0.00000000      0.00000000      4.91328792
[Charge] (Mulliken)
  0.999944804211052     
   1.00005519578894     
[GTO] (AU)
   1
   s  14
  9.497934400E+03  9.668999974E-05
  1.416811200E+03  6.087099984E-04
  3.214599400E+02  3.101519992E-03
  9.112416300E+01  1.266904997E-02
  2.999989100E+01  4.248012989E-02
  1.101763100E+01  1.150183297E-01
  4.372801000E+00  2.398650094E-01
  1.831256000E+00  3.584300090E-01
  8.022610000E-01  3.048527792E-01
  3.626480000E-01  8.824261976E-02
  1.139950000E-01 -8.445899977E-04
  5.123700000E-02 -7.943959979E-03
  2.246800000E-02 -3.764419990E-03
  7.860000000E-03 -8.868999976E-05
   s  14
  9.497934400E+03 -1.244999993E-05
  1.416811200E+03 -7.838999954E-05
  3.214599400E+02 -4.007099976E-04
  9.112416300E+01 -1.645249990E-03
  2.999989100E+01 -5.634599967E-03
  1.101763100E+01 -1.590780991E-02
  4.372801000E+00 -3.612581979E-02
  1.831256000E+00 -6.459927962E-02
  8.022610000E-01 -1.008321794E-01
  3.626480000E-01 -9.757613942E-02
  1.139950000E-01  2.301215886E-01
  5.123700000E-02  6.102389764E-01
  2.246800000E-02  2.849406083E-01
  7.860000000E-03  4.026899976E-03
   p   9
  1.311950400E+01  1.524940000E-03
  3.077424200E+00  8.314830000E-03
  1.098800500E+00  1.933203000E-02
  4.357784000E-01  4.934293000E-02
  1.802432000E-01  1.623554000E-01
  7.613330000E-02  3.847505400E-01
  3.254650000E-02  4.336100400E-01
  1.401820000E-02  1.287005900E-01
  4.906400000E-03 -1.018520000E-03
 
   2
   s  14
  9.497934400E+03  9.668999974E-05
  1.416811200E+03  6.087099984E-04
  3.214599400E+02  3.101519992E-03
  9.112416300E+01  1.266904997E-02
  2.999989100E+01  4.248012989E-02
  1.101763100E+01  1.150183297E-01
  4.372801000E+00  2.398650094E-01
  1.831256000E+00  3.584300090E-01
  8.022610000E-01  3.048527792E-01
  3.626480000E-01  8.824261976E-02
  1.139950000E-01 -8.445899977E-04
  5.123700000E-02 -7.943959979E-03
  2.246800000E-02 -3.764419990E-03
  7.860000000E-03 -8.868999976E-05
   s  14
  9.497934400E+03 -1.244999993E-05
  1.416811200E+03 -7.838999954E-05
  3.214599400E+02 -4.007099976E-04
  9.112416300E+01 -1.645249990E-03
  2.999989100E+01 -5.634599967E-03
  1.101763100E+01 -1.590780991E-02
  4.372801000E+00 -3.612581979E-02
  1.831256000E+00 -6.459927962E-02
  8.022610000E-01 -1.008321794E-01
  3.626480000E-01 -9.757613942E-02
  1.139950000E-01  2.301215886E-01
  5.123700000E-02  6.102389764E-01
  2.246800000E-02  2.849406083E-01
  7.860000000E-03  4.026899976E-03
   p   9
  1.311950400E+01  1.524940000E-03
  3.077424200E+00  8.314830000E-03
  1.098800500E+00  1.933203000E-02
  4.357784000E-01  4.934293000E-02
  1.802432000E-01  1.623554000E-01
  7.613330000E-02  3.847505400E-01
  3.254650000E-02  4.336100400E-01
  1.401820000E-02  1.287005900E-01
  4.906400000E-03 -1.018520000E-03
 
[MO]
Sym=     1a  
Ene=    -2.9970
Spin= Alpha
Occup=    2.00000
   1        -0.00178476
   2        -0.00232030
   3        -0.00000000
   4         0.00000000
   5        -0.00082748
   6         1.00019556
   7         0.01377028
   8         0.00000000
   9         0.00000000
  10        -0.00327344
Sym=     2a  
Ene=    -2.9970
Spin= Alpha
Occup=    1.99998
   1        -1.00021203
   2        -0.01403364
   3        -0.00000000
   4        -0.00000000
   5        -0.00340079
   6        -0.00040724
   7         0.00245719
   8        -0.00000000
   9         0.00000000
  10        -0.00088122
Sym=     3a  
Ene=    -0.0008
Spin= Alpha
Occup=    0.00002
   1         0.13413879
   2         1.84651891
   3        -0.00000000
   4         0.00000000
   5         0.87625201
   6        -0.24896483
   7        -1.19817624
   8        -0.00000000
   9        -0.00000000
  10         0.47115600
Sym=     4a  
Ene=    -0.3472
Spin= Alpha
Occup=    0.00000
   1        -0.12576294
   2        -0.75265966
   3         0.00000000
   4        -0.00000000
   5         0.12841246
   6         0.02617927
   7         1.21736549
   8         0.00000000
   9        -0.00000000
  10        -0.28731118
Sym=     5a  
Ene=    -0.3111
Spin= Alpha
Occup=    0.00000
   1        -0.00000000
   2        -0.00000000
   3        -0.07067426
   4         0.56618472
   5         0.00000000
   6        -0.00000000
   7         0.00000000
   8        -0.07066533
   9         0.56611314
  10         0.00000000
Sym=     6a  
Ene=    -0.3111
Spin= Alpha
Occup=    0.00000
   1         0.00000000
   2        -0.00000000
   3        -0.56618472
   4        -0.07067426
   5        -0.00000000
   6        -0.00000000
   7         0.00000000
   8        -0.56611314
   9        -0.07066533
  10         0.00000000
Sym=     7a  
Ene=    -0.2726
Spin= Alpha
Occup=    0.00000
   1        -0.05762746
   2        -0.43036045
   3        -0.00000000
   4        -0.00000000
   5         0.68654783
   6        -0.05574012
   7        -0.49040759
   8        -0.00000000
   9        -0.00000000
  10        -0.73007320
Sym=     8a  
Ene=    -0.2368
Spin= Alpha
Occup=    0.00000
   1        -0.00000000
   2         0.00000000
   3        -0.76000665
   4        -0.70707629
   5        -0.00000000
   6         0.00000000
   7         0.00000000
   8         0.76003567
   9         0.70710329
  10        -0.00000000
Sym=     9a  
Ene=    -0.2368
Spin= Alpha
Occup=    0.00000
   1         0.00000000
   2         0.00000000
   3        -0.70707629
   4         0.76000665
   5         0.00000000
   6        -0.00000000
   7        -0.00000000
   8         0.70710329
   9        -0.76003567
  10         0.00000000
Sym=    10a  
Ene=    -0.1400
Spin= Alpha
Occup=    0.00000
   1        -0.37212443
   2        -1.83732118
   3        -0.00000000
   4         0.00000000
   5        -1.58133710
   6         0.33146225
   7         2.09260362
   8        -0.00000000
   9        -0.00000000
  10        -1.70843217
