[Molden Format]
[N_Atoms]
                     2
[Atoms] (AU)
N1          1      7           0.00000000      0.00000000      0.00000000
O2          2      8           0.00000000      0.00000000      2.64561657
[Charge] (Mulliken)
  0.167335430300270     
 -0.167335430300302     
[GTO] (AU)
   1
   s  14
  7.476171500E+04  1.182599996E-04
  1.112365400E+04  5.172899983E-04
  2.512685700E+03  2.266659992E-03
  7.037772900E+02  9.145289970E-03
  2.254787900E+02  3.239342989E-02
  7.961581000E+01  9.770792967E-02
  3.023728300E+01  2.317036792E-01
  1.226362200E+01  3.768898887E-01
  5.265086000E+00  3.177420689E-01
  2.333471000E+00  8.211308973E-02
  9.018560000E-01  3.312089989E-03
  3.583360000E-01  3.720819988E-03
  1.410930000E-01  3.165419989E-03
  4.938300000E-02  4.595799985E-04
   s  14
  7.476171500E+04 -2.707000010E-05
  1.112365400E+04 -1.183700004E-04
  2.512685700E+03 -5.203800020E-04
  7.037772900E+02 -2.102930008E-03
  2.254787900E+02 -7.568200028E-03
  7.961581000E+01 -2.346767009E-02
  3.023728300E+01 -6.042901023E-02
  1.226362200E+01 -1.170549104E-01
  5.265086000E+00 -1.555321506E-01
  2.333471000E+00 -2.468935009E-02
  9.018560000E-01  3.625054514E-01
  3.583360000E-01  5.550845021E-01
  1.410930000E-01  2.148376908E-01
  4.938300000E-02  8.983850034E-03
   p   9
  1.266665700E+02  1.233630000E-03
  2.983738900E+01  9.493409996E-03
  9.394038000E+00  4.293961998E-02
  3.405104000E+00  1.362925399E-01
  1.350000000E+00  2.921362499E-01
  5.576960000E-01  3.887887598E-01
  2.324490000E-01  2.946801399E-01
  9.426400000E-02  8.012875997E-02
  3.299200000E-02  5.405199998E-04
 
   2
   s  14
  1.053749500E+05  1.238600013E-04
  1.567924000E+04  5.120100053E-04
  3.534544700E+03  2.152910022E-03
  9.873651600E+02  8.528440089E-03
  3.159787500E+02  3.018049031E-02
  1.116542800E+02  9.099702095E-02
  4.269945100E+01  2.177936423E-01
  1.739559600E+01  3.686245738E-01
  7.438309000E+00  3.366707335E-01
  3.222862000E+00  9.657630101E-02
  1.253877000E+00  2.144520022E-03
  4.951550000E-01  1.194350012E-03
  1.916650000E-01  5.390200056E-04
  6.708300000E-02  2.103400022E-04
   s  14
  1.053749500E+05 -2.815000008E-05
  1.567924000E+04 -1.163000003E-04
  3.534544700E+03 -4.909200013E-04
  9.873651600E+02 -1.946160005E-03
  3.159787500E+02 -7.005300019E-03
  1.116542800E+02 -2.167814006E-02
  4.269945100E+01 -5.641213015E-02
  1.739559600E+01 -1.127053003E-01
  7.438309000E+00 -1.589119704E-01
  3.222862000E+00 -3.355083009E-02
  1.253877000E+00  3.531902810E-01
  4.951550000E-01  5.534199315E-01
  1.916650000E-01  2.301839106E-01
  6.708300000E-02  1.127267003E-02
   p   9
  2.000000000E+02  9.173000030E-04
  4.653336700E+01  7.377140024E-03
  1.462180900E+01  3.483515011E-02
  5.313064000E+00  1.144397004E-01
  2.102525000E+00  2.554966408E-01
  8.502230000E-01  3.722557412E-01
  3.375970000E-01  3.323314911E-01
  1.288920000E-01  1.400847905E-01
  4.511200000E-02  2.395784008E-02
 
[MO]
Sym=     1a  
Ene=   -20.7080
Spin= Alpha
Occup=    1.00000
   1        -0.00005561
   2        -0.00050510
   3        -0.00000000
   4         0.00000000
   5        -0.00019620
   6         1.00001784
   7        -0.00077281
   8         0.00000000
   9        -0.00000000
  10        -0.00128459
Sym=     1a  
Ene=   -20.7430
Spin= Beta
Occup=    1.00000
   1        -0.00010074
   2        -0.00087058
   3        -0.00000000
   4         0.00000000
   5        -0.00054321
   6         1.00003982
   7         0.00129351
   8        -0.00000000
   9        -0.00000000
  10        -0.00155988
Sym=     2a  
Ene=   -15.7690
Spin= Alpha
Occup=    1.00000
   1         1.00007002
   2        -0.00296109
   3         0.00000000
   4         0.00000000
   5         0.00242838
   6        -0.00031461
   7        -0.00176427
   8        -0.00000000
   9        -0.00000000
  10         0.00088811
Sym=     2a  
Ene=   -15.7040
Spin= Beta
Occup=    1.00000
   1         0.99998467
   2        -0.00795397
   3         0.00000000
   4         0.00000000
   5         0.00177470
   6        -0.00019068
   7        -0.00071114
   8        -0.00000000
   9        -0.00000000
  10         0.00009011
Sym=     3a  
Ene=    -1.4301
Spin= Alpha
Occup=    1.00000
   1        -0.01694379
   2         0.52528752
   3         0.00000000
   4        -0.00000000
   5         0.16951386
   6        -0.01768434
   7         0.61342086
   8         0.00000000
   9        -0.00000000
  10        -0.14446889
Sym=     3a  
Ene=    -1.4777
Spin= Beta
Occup=    1.00000
   1        -0.02165791
   2         0.19536753
   3        -0.00000000
   4        -0.00000000
   5         0.12035544
   6        -0.01013076
   7         0.86125346
   8        -0.00000000
   9        -0.00000000
  10        -0.14801382
Sym=     4a  
Ene=    -1.0307
Spin= Alpha
Occup=    1.00000
   1        -0.01041855
   2        -0.78566304
   3        -0.00000000
   4         0.00000000
   5         0.10523294
   6         0.01318412
   7         0.72600408
   8        -0.00000000
   9        -0.00000000
  10         0.14818082
Sym=     4a  
Ene=    -0.8941
Spin= Beta
Occup=    1.00000
   1         0.00473707
   2        -0.73580884
   3         0.00000000
   4         0.00000000
   5        -0.02695974
   6         0.01698858
   7         0.48659227
   8        -0.00000000
   9         0.00000000
  10         0.44293572
Sym=     5a  
Ene=    -0.7107
Spin= Alpha
Occup=    1.00000
   1        -0.00000000
   2        -0.00000000
   3         0.00241156
   4         0.70581110
   5        -0.00000000
   6         0.00000000
   7         0.00000000
   8         0.00201411
   9         0.58948806
  10         0.00000000
Sym=     5a  
Ene=    -0.7039
Spin= Beta
Occup=    1.00000
   1        -0.00000000
   2        -0.00000000
   3         0.12449575
   4        -0.00042537
   5         0.00000000
   6        -0.00000000
   7         0.00000000
   8         0.96939458
   9        -0.00331215
  10        -0.00000000
Sym=     6a  
Ene=    -0.6320
Spin= Alpha
Occup=    1.00000
   1        -0.00000000
   2        -0.00000000
   3         0.94269139
   4        -0.00322091
   5         0.00000000
   6        -0.00000000
   7        -0.00000000
   8         0.20185074
   9        -0.00068967
  10        -0.00000000
Sym=     6a  
Ene=    -0.6261
Spin= Beta
Occup=    1.00000
   1         0.00000000
   2         0.00000000
   3         0.00056169
   4         0.16439335
   5        -0.00000000
   6         0.00000000
   7         0.00000000
   8         0.00326765
   9         0.95637255
  10         0.00000000
Sym=     7a  
Ene=    -0.6101
Spin= Alpha
Occup=    1.00000
   1        -0.02524506
   2        -0.32800608
   3        -0.00000000
   4         0.00000000
   5         0.64345580
   6        -0.02055008
   7        -0.30867514
   8        -0.00000000
   9         0.00000000
  10        -0.62925760
Sym=     7a  
Ene=    -0.5872
Spin= Beta
Occup=    1.00000
   1         0.03372984
   2         0.62552299
   3        -0.00000000
   4        -0.00000000
   5        -0.51626014
   6         0.00872723
   7         0.10031535
   8         0.00000000
   9        -0.00000000
  10         0.65967782
Sym=     8a  
Ene=    -0.5073
Spin= Alpha
Occup=    1.00000
   1        -0.00000000
   2        -0.00000000
   3        -0.00250480
   4        -0.73310088
   5        -0.00000000
   6         0.00000000
   7         0.00000000
   8         0.00283425
   9         0.82952398
  10        -0.00000000
Sym=     8a  
Ene=     0.1540
Spin= Beta
Occup=    0.00000
   1        -0.00000000
   2        -0.00000000
   3        -1.01000347
   4         0.00345090
   5         0.00000000
   6         0.00000000
   7         0.00000000
   8         0.30964552
   9        -0.00105797
  10        -0.00000000
Sym=     9a  
Ene=     0.1072
Spin= Alpha
Occup=    0.00000
   1        -0.00000000
   2         0.00000000
   3        -0.38332643
   4         0.00130972
   5         0.00000000
   6        -0.00000000
   7        -0.00000000
   8         0.99742794
   9        -0.00340793
  10        -0.00000000
Sym=     9a  
Ene=     0.1657
Spin= Beta
Occup=    0.00000
   1        -0.00000000
   2        -0.00000000
   3        -0.00343135
   4        -1.00428135
   5         0.00000000
   6         0.00000000
   7        -0.00000000
   8         0.00118830
   9         0.34778982
  10        -0.00000000
Sym=    10a  
Ene=     0.3390
Spin= Alpha
Occup=    0.00000
   1         0.05255938
   2         0.51739449
   3        -0.00000000
   4         0.00000000
   5         0.90175513
   6        -0.04771975
   7        -0.52319344
   8        -0.00000000
   9         0.00000000
  10         0.90831426
Sym=    10a  
Ene=     0.3813
Spin= Beta
Occup=    0.00000
   1         0.04834190
   2         0.54549181
   3        -0.00000000
   4         0.00000000
   5         0.99260883
   6        -0.05171776
   7        -0.53271718
   8         0.00000000
   9         0.00000000
  10         0.78137939
