[Molden Format]
[N_Atoms]
                     2
[Atoms] (AU)
F1          1      9           0.00000000      0.00000000      0.00000000
O2          2      8           0.00000000      0.00000000      1.88972612
[Charge] (Mulliken)
 -1.761142279627492E-002
  1.761142279624739E-002
[GTO] (AU)
   1
   s  14
  1.031094600E+05  1.713099991E-04
  1.528100700E+04  7.123999962E-04
  3.441539200E+03  2.990479984E-03
  9.670948300E+02  1.164036994E-02
  3.140353400E+02  3.968642979E-02
  1.134423000E+02  1.128546094E-01
  4.464472700E+01  2.473650687E-01
  1.894287400E+01  3.672702681E-01
  8.532743000E+00  2.896286985E-01
  3.919401000E+00  7.786681959E-02
  1.568157000E+00  4.562139976E-03
  6.232900000E-01  2.468879987E-03
  2.408610000E-01  1.106309994E-03
  8.430100000E-02  1.739699991E-04
   s  14
  1.031094600E+05 -4.044999995E-05
  1.528100700E+04 -1.682299998E-04
  3.441539200E+03 -7.084299991E-04
  9.670948300E+02 -2.767999996E-03
  3.140353400E+02 -9.611379987E-03
  1.134423000E+02 -2.833957996E-02
  4.464472700E+01 -6.839343991E-02
  1.894287400E+01 -1.237379298E-01
  8.532743000E+00 -1.512859698E-01
  3.919401000E+00 -9.099909988E-03
  1.568157000E+00  3.716257695E-01
  6.232900000E-01  5.500214393E-01
  2.408610000E-01  2.092318697E-01
  8.430100000E-02  8.074639989E-03
   p   9
  2.453302900E+02  1.024860004E-03
  5.691900500E+01  8.344290032E-03
  1.760456800E+01  4.078927016E-02
  6.274995000E+00  1.351370605E-01
  2.447030000E+00  2.798830811E-01
  9.950600000E-01  3.597966414E-01
  4.039730000E-01  3.055347412E-01
  1.548100000E-01  1.354703905E-01
  5.418400000E-02  2.804449011E-02
 
   2
   s  14
  1.053749500E+05  1.238600013E-04
  1.567924000E+04  5.120100053E-04
  3.534544700E+03  2.152910022E-03
  9.873651600E+02  8.528440089E-03
  3.159787500E+02  3.018049031E-02
  1.116542800E+02  9.099702095E-02
  4.269945100E+01  2.177936423E-01
  1.739559600E+01  3.686245738E-01
  7.438309000E+00  3.366707335E-01
  3.222862000E+00  9.657630101E-02
  1.253877000E+00  2.144520022E-03
  4.951550000E-01  1.194350012E-03
  1.916650000E-01  5.390200056E-04
  6.708300000E-02  2.103400022E-04
   s  14
  1.053749500E+05 -2.815000008E-05
  1.567924000E+04 -1.163000003E-04
  3.534544700E+03 -4.909200013E-04
  9.873651600E+02 -1.946160005E-03
  3.159787500E+02 -7.005300019E-03
  1.116542800E+02 -2.167814006E-02
  4.269945100E+01 -5.641213015E-02
  1.739559600E+01 -1.127053003E-01
  7.438309000E+00 -1.589119704E-01
  3.222862000E+00 -3.355083009E-02
  1.253877000E+00  3.531902810E-01
  4.951550000E-01  5.534199315E-01
  1.916650000E-01  2.301839106E-01
  6.708300000E-02  1.127267003E-02
   p   9
  2.000000000E+02  9.173000030E-04
  4.653336700E+01  7.377140024E-03
  1.462180900E+01  3.483515011E-02
  5.313064000E+00  1.144397004E-01
  2.102525000E+00  2.554966408E-01
  8.502230000E-01  3.722557412E-01
  3.375970000E-01  3.323314911E-01
  1.288920000E-01  1.400847905E-01
  4.511200000E-02  2.395784008E-02
 
[MO]
Sym=     1a  
Ene=   -26.6190
Spin= Alpha
Occup=    1.00000
   1         1.00013326
   2        -0.00151924
   3         0.00000000
   4         0.00000000
   5         0.00273919
   6        -0.00029401
   7        -0.00173302
   8        -0.00000000
   9        -0.00000000
  10         0.00085891
Sym=     1a  
Ene=   -26.6040
Spin= Beta
Occup=    1.00000
   1         1.00010358
   2        -0.00220066
   3         0.00000000
   4         0.00000000
   5         0.00263617
   6        -0.00020995
   7        -0.00143432
   8        -0.00000000
   9        -0.00000000
  10         0.00065170
Sym=     2a  
Ene=   -20.8770
Spin= Alpha
Occup=    1.00000
   1        -0.00059850
   2        -0.00237493
   3        -0.00000000
   4        -0.00000000
   5        -0.00082626
   6         1.00015515
   7         0.00243513
   8         0.00000000
   9        -0.00000000
  10        -0.00376294
Sym=     2a  
Ene=   -20.8430
Spin= Beta
Occup=    1.00000
   1        -0.00053123
   2        -0.00159606
   3        -0.00000000
   4        -0.00000000
   5        -0.00036570
   6         1.00008880
   7         0.00035047
   8         0.00000000
   9        -0.00000000
  10        -0.00337571
Sym=     3a  
Ene=    -2.1927
Spin= Alpha
Occup=    1.00000
   1        -0.02877779
   2         0.63410196
   3         0.00000000
   4         0.00000000
   5         0.24720770
   6        -0.04624138
   7         0.34270645
   8         0.00000000
   9         0.00000000
  10        -0.21009769
Sym=     3a  
Ene=    -2.1453
Spin= Beta
Occup=    1.00000
   1        -0.02743875
   2         0.65206276
   3         0.00000000
   4         0.00000000
   5         0.25836395
   6        -0.04710466
   7         0.30784747
   8         0.00000000
   9        -0.00000000
  10        -0.21593441
Sym=     4a  
Ene=    -1.2961
Spin= Alpha
Occup=    1.00000
   1        -0.02946780
   2        -0.73065308
   3        -0.00000000
   4         0.00000000
   5         0.37560070
   6        -0.00146807
   7         0.69601911
   8         0.00000000
   9         0.00000000
  10         0.02304809
Sym=     4a  
Ene=    -1.2105
Spin= Beta
Occup=    1.00000
   1        -0.02912984
   2        -0.70934705
   3        -0.00000000
   4         0.00000000
   5         0.46988132
   6        -0.00880540
   7         0.61162902
   8         0.00000000
   9        -0.00000000
  10        -0.01213675
Sym=     5a  
Ene=    -1.0642
Spin= Alpha
Occup=    1.00000
   1         0.00000000
   2         0.00000000
   3        -0.01774631
   4         0.74685108
   5        -0.00000000
   6         0.00000000
   7        -0.00000000
   8        -0.01135052
   9         0.47768528
  10         0.00000000
Sym=     5a  
Ene=    -1.0086
Spin= Beta
Occup=    1.00000
   1        -0.00000000
   2        -0.00000000
   3         0.78712003
   4         0.01870316
   5         0.00000000
   6        -0.00000000
   7        -0.00000000
   8         0.42431099
   9         0.01008227
  10        -0.00000000
Sym=     6a  
Ene=    -1.0252
Spin= Alpha
Occup=    1.00000
   1        -0.00000000
   2        -0.00000000
   3         0.77344133
   4         0.01837813
   5         0.00000000
   6        -0.00000000
   7        -0.00000000
   8         0.44297114
   9         0.01052566
  10        -0.00000000
Sym=     6a  
Ene=    -0.8993
Spin= Beta
Occup=    1.00000
   1         0.00000000
   2         0.00000000
   3        -0.02005389
   4         0.84396553
   5        -0.00000000
   6         0.00000000
   7         0.00000000
   8        -0.00807617
   9         0.33988472
  10         0.00000000
Sym=     7a  
Ene=    -0.8891
Spin= Alpha
Occup=    1.00000
   1         0.02050419
   2         0.19899237
   3         0.00000000
   4        -0.00000000
   5        -0.64025846
   6         0.04405518
   7         0.62203942
   8         0.00000000
   9        -0.00000000
  10         0.58831839
Sym=     7a  
Ene=    -0.8412
Spin= Beta
Occup=    1.00000
   1         0.01804811
   2         0.14817939
   3         0.00000000
   4        -0.00000000
   5        -0.58221907
   6         0.04226376
   7         0.68819168
   8         0.00000000
   9        -0.00000000
  10         0.59444412
Sym=     8a  
Ene=    -0.6078
Spin= Alpha
Occup=    1.00000
   1        -0.00000000
   2        -0.00000000
   3         0.01745940
   4        -0.73477677
   5        -0.00000000
   6         0.00000000
   7         0.00000000
   8        -0.02215689
   9         0.93246996
  10         0.00000000
Sym=     8a  
Ene=    -0.5170
Spin= Beta
Occup=    1.00000
   1         0.00000000
   2         0.00000000
   3        -0.69146620
   4        -0.01643028
   5         0.00000000
   6        -0.00000000
   7        -0.00000000
   8         0.95793717
   9         0.02276203
  10        -0.00000000
Sym=     9a  
Ene=    -0.5491
Spin= Alpha
Occup=    1.00000
   1         0.00000000
   2         0.00000000
   3        -0.70673330
   4        -0.01679305
   5         0.00000000
   6        -0.00000000
   7        -0.00000000
   8         0.94945248
   9         0.02256042
  10        -0.00000000
Sym=     9a  
Ene=     0.1207
Spin= Beta
Occup=    0.00000
   1        -0.00000000
   2        -0.00000000
   3         0.01475139
   4        -0.62081046
   5        -0.00000000
   6         0.00000000
   7         0.00000000
   8        -0.02354862
   9         0.99104078
  10         0.00000000
Sym=    10a  
Ene=     0.7520
Spin= Alpha
Occup=    0.00000
   1         0.11737663
   2         0.89831483
   3        -0.00000000
   4        -0.00000000
   5         0.93774025
   6        -0.10767369
   7        -0.85112845
   8        -0.00000000
   9         0.00000000
  10         1.08171912
Sym=    10a  
Ene=     0.8014
Spin= Beta
Occup=    0.00000
   1         0.11843344
   2         0.91224506
   3        -0.00000000
   4        -0.00000000
   5         0.93003057
   6        -0.10828223
   7        -0.87794181
   8        -0.00000000
   9         0.00000000
  10         1.07739098
