   This run of MOLCAS is using the pymolcas driver

                             OPE
                             OPE          NMOL  CASOP  ENMOLC A   SO
                 OPE        NMOLC        AS  OP EN  MO LC     AS  OP
                OPENM       OL CA        SO  PE NM  OL CA     SOP EN
                OP EN      MO   LC       AS  OP ENMOL  CASO   PENMOL
                OP  EN     MO   LC       AS  OP EN     MO     LC ASO
               OP   E  NMOL  C  AS       OP  EN MO     LC     AS  OP
               OP  E   NMO   LC AS        OPEN  MO     LCASOP EN   M
               O  PEN   MO  LCA  SO
            OPE   NMO   L   CAS    OP
        OPENMOL  CASOP     ENMOL   CASOPE
     OPENMOLCA   SOPENMOLCASOPEN   MOLCASOPE
    OPENMOLCAS   OP           EN   MOL    CAS
    OPENMOLCAS       OP  ENM        O     LCA
    OPENMOLCAS    OPEN  MOLCASO     P  E  NMO
    OPENMOLCAS     OP               E  N  MOL
    OPENMOLCA   SO           PENM   O  L  CAS    OPEN    MO    LCAS
    OPENMOLCA   SOP           ENM   O  L  CAS   OP  EN  MOLC  AS   O
    OPENMOLCA   SOPE           NM      O  LCA   S      OP  EN MO
    OPENMOLC                AS         O  PEN   M      OL  CA  SOPE
    OPENMO        LCASOPE  NMOL        C  ASO   P      ENMOLC     AS
    OPE     NMO      LCA  SO     P     E   NM   OL  CA SO  PE N   MO
          OPENMOLCA            SOPE   NMO        LCAS  O    P  ENMO
     OPENMOLCASOPENMOLCASOPENMOLCASOPENMOLCA
        OPENMOLCASOPENMOLCASOPENMOLCASOPE
            OPENMOLCASOPENMOLCASOPENM
               OPENMOLCASOPENMOLCA        version: 24.02
                   OPENMOLCASO
                       OPE                tag: 126-g611b04c8f

 OpenMolcas is free software; you can redistribute it and/or modify it
 under the terms of the GNU Lesser General Public License version 2.1.
 OpenMolcas is distributed in the hope that it will be useful, but it
 is provided "as is" and without any express or implied warranties.
 For more details see the full text of the license in the file
 LICENSE or in <http://www.gnu.org/licenses/>.

                 Copyright (C) The OpenMolcas Authors
           For the author list and the recommended citation,
                   consult the file CONTRIBUTORS.md

           *************************************************
           * pymolcas version py2.28                       *
           *   build c4a6d18ded8cb6cad61d2372a9abd97c      *
           *   (after the EMIL interpreter by V. Veryazov) *
           *************************************************

configuration info
------------------
Host name: debian (Linux)
C Compiler ID: GNU
C flags: -std=gnu99
Fortran Compiler ID: Intel
Fortran flags: -fpp -i8 -heap-arrays
Definitions: _MOLCAS_;_I8_;_LINUX_
Parallel: OFF (GA=OFF)


   ------------------------------------------------------------------
  |
  |              Project: 2.80
  |       Submitted from: /home/grierjones/DDCASPT2/delta_ML/BeF/2.80
  |         Scratch area: /tmp/2.80
  |      Save outputs to: /home/grierjones/DDCASPT2/delta_ML/BeF/2.80
  |               Molcas: /usr/local
  |
  | Scratch area is empty
  |
  |       MOLCAS_DRIVER = /usr/local/pymolcas
  | MOLCAS_KEEP_WORKDIR = NO
  |  MOLCAS_NEW_WORKDIR = YES
  |       MOLCAS_NPROCS = 1
  |       MOLCAS_SOURCE = /usr/local
  |    MOLCAS_STRUCTURE = 0
  |
   ------------------------------------------------------------------

++ ---------   Input file   ---------

&GATEWAY
coord=2.80.xyz
Basis = ANO-RCC-MB
Group = nosymm
End of Input

&SEWARD
End of Input

&SCF
UHF

&MBPT2
Frozen
0

&RASSCF
Title= RASSCF
FileOrb
/home/grierjones/DDCASPT2/delta_ML/BeF/2.70/2.70.RasOrb

NACTEL
1 0 0
Inactive
6
RAS2
2
Symmetry
1
Spin
2
orblisting
all
ITERation
200 100
CIMX
200
SDAV
500

&CASPT2
Imaginary Shift
0.0
Frozen
0

-- ----------------------------------

--- Start Module: gateway at Thu Apr 25 13:42:13 2024 ---
 
()()()()()()()()()()()()()()()()()()()()()()()()()()()()()()()()()()()()()()()()()()()()()()()()()()

                                              &GATEWAY

                                   only a single process is used
                       available to each process: 2.0 GB of memory, 1 thread?
                                            pid: 100440
()()()()()()()()()()()()()()()()()()()()()()()()()()()()()()()()()()()()()()()()()()()()()()()()()()
 
 
++    Symmetry information:
      ---------------------
 
                    Character Table for C1 
 
                             E  
                    a        1  x, y, xy, Rz, z, xz, Ry, yz, Rx, I
--
 
 
++    Basis set information:
      ----------------------
 
 
      Basis set label: BE.ANO-RCC...2S1P.
 
      Electronic valence basis set:
      ------------------
      Associated Effective Charge   4.000000 au
      Associated Actual Charge      4.000000 au
      Nuclear Model: Point charge
 
      Shell  nPrim  nBasis  Cartesian Spherical Contaminant
         s      14       2        X                  
         p       9       1        X                  
 
 
      Basis set label: F.ANO-RCC...2S1P.
 
      Electronic valence basis set:
      ------------------
      Associated Effective Charge   9.000000 au
      Associated Actual Charge      9.000000 au
      Nuclear Model: Point charge
 
      Shell  nPrim  nBasis  Cartesian Spherical Contaminant
         s      14       2        X                  
         p       9       1        X                  
--
 
 
++    Molecular structure info:
      -------------------------
 
                    ************************************************ 
                    **** Cartesian Coordinates / Bohr, Angstrom **** 
                    ************************************************ 
 
     Center  Label                x              y              z                     x              y              z
        1      BE1              0.000000       0.000000       0.000000              0.000000       0.000000       0.000000
        2      F2               0.000000       0.000000       5.291233              0.000000       0.000000       2.800000
--
 
 
            Nuclear Potential Energy              6.80370700 au
 
--- Stop Module: gateway at Thu Apr 25 13:42:14 2024 /rc=_RC_ALL_IS_WELL_ ---
*** files: xmldump
    saved to directory /home/grierjones/DDCASPT2/delta_ML/BeF/2.80

--- Start Module: seward at Thu Apr 25 13:42:14 2024 ---
 
()()()()()()()()()()()()()()()()()()()()()()()()()()()()()()()()()()()()()()()()()()()()()()()()()()

                                              &SEWARD

                                   only a single process is used
                       available to each process: 2.0 GB of memory, 1 thread?
                                            pid: 100443
()()()()()()()()()()()()()()()()()()()()()()()()()()()()()()()()()()()()()()()()()()()()()()()()()()
 
               SEWARD will generate:
                  Multipole Moment integrals up to order  2
                  Kinetic Energy integrals
                  Nuclear Attraction integrals (point charge)
                  One-Electron Hamiltonian integrals
                  Velocity integrals
                  Relativistic Douglas-Kroll-Hess integrals:
                    - Parametrization         : EXP
                    - DKH order of Hamiltonian: 2
                    - DKH order of Properties : 0
                         - multipole moment operators
                         - electric potential operators
                         - contact operators
                  Orbital angular momentum around ( 0.0000  0.0000  3.5888 )
                  Velocity quadrupole around ( 0.0000  0.0000  3.5888 )
                  Atomic mean-field integrals
                  Two-Electron Repulsion integrals
 
                   Integrals are discarded if absolute value <: 1.00E-14
                   Integral cutoff threshold is set to       <: 1.00E-16
 
            Nuclear Potential Energy              6.80370700 au
 
 
      Basis set specifications :
      Symmetry species         a  
      Basis functions           10
 
 
      Input file to MOLDEN was generated!
 
--- Stop Module: seward at Thu Apr 25 13:42:14 2024 /rc=_RC_ALL_IS_WELL_ ---
*** files: 2.80.GssOrb 2.80.guessorb.h5 2.80.guessorb.molden xmldump
    saved to directory /home/grierjones/DDCASPT2/delta_ML/BeF/2.80

*** symbolic link created: INPORB -> 2.80.GssOrb
--- Start Module: scf at Thu Apr 25 13:42:14 2024 ---
 
()()()()()()()()()()()()()()()()()()()()()()()()()()()()()()()()()()()()()()()()()()()()()()()()()()

                                                &SCF

                                   only a single process is used
                       available to each process: 2.0 GB of memory, 1 thread?
                                            pid: 100446
()()()()()()()()()()()()()()()()()()()()()()()()()()()()()()()()()()()()()()()()()()()()()()()()()()
 
++    Input section:
      --------------
 
      Header of the integral files:
      
       Integrals generated by Gateway/Seward, Thu Apr 25 13:42:14 2024
 
 
      Cartesian coordinates in Angstrom:
      -----------------------------------------------------
      No.  Label        X            Y            Z        
      -----------------------------------------------------
       1   BE1        0.00000000   0.00000000   0.00000000
       2   F2         0.00000000   0.00000000   2.80000000
      -----------------------------------------------------
      Nuclear repulsion energy =    6.80370700
--
 
++    Orbital specifications:
      -----------------------
 
      Symmetry species               1
                                     a
      Frozen orbitals                0
      Occupied orbitals alpha        7
      Occupied orbitals beta         6
      Secondary orbitals alpha       3
      Secondary orbitals beta        4
      Deleted orbitals               0
      Total number of orbitals      10
      Number of basis functions     10
--
 
      Molecular charge                           0.000
 
++    Optimization specifications:
      ----------------------------
 
      SCF Algorithm: Conventional USCF
      D(i)-D(i-1) density differences are used
      Number of density matrices in core                 5
      Maximum number of NDDO SCF iterations            400
      Maximum number of HF SCF iterations              400
      Threshold for SCF energy change             1.00E-09
      Threshold for density matrix                1.00E-04
      Threshold for Fock matrix                   1.50E-04
      Threshold for linear dependence             1.00E-09
      Threshold at which DIIS is turned on        1.50E-01
      Maximum depth in the DIIS procedure                5
      Maximum depth in the BFGS Hessian update          30
      Threshold at which QNR/C2DIIS is turned on  7.50E-02
      Threshold for Norm(delta) (QNR/C2DIIS)      1.00E-03
      All orbitals punched on: UHFORB
--
 
      Input vectors read from INPORB
      Orbital file label: *Guess orbitals
 
 
++ Convergence information
                               UHF SCF        iterations: Energy and convergence statistics
 
Iter     Tot. SCF        One-elec.       Two-elec.     Energy      Max Dij or  Max Fij      DNorm      TNorm      AccCon     Time
         Energy          Energy          Energy        Change      Delta Norm                                                in Sec.
   1  -113.887396387  -177.302154243    56.611050858   0.00E+00    8.21E-01*   6.08E-02*    5.12E+00   2.48E+01   None         0.
   2  -113.901253559  -172.202913004    51.497952448  -1.39E-02*   1.49E-01*   8.82E-02*    2.17E+00   2.36E+01   EDIIS        0.
   3  -113.984013922  -175.282712003    54.494991084  -8.28E-02*   2.69E-01*   4.52E-02*    5.09E-01   2.43E+01   c2DIIS       0.
   4  -114.008409734  -174.134338180    53.322221449  -2.44E-02*   2.92E-01*   2.13E-02*    4.67E-01   2.40E+01   c2DIIS       0.
   5  -114.020773576  -173.837395815    53.012915242  -1.24E-02*   3.07E-01*   1.77E-02*    4.57E-01   2.40E+01   c2DIIS       0.
   6  -114.031275087  -173.575357695    52.740375611  -1.05E-02*   5.97E-02*   1.38E-01*    4.58E-01   2.39E+01   c2DIIS       0.
   7  -114.069523041  -172.190367493    51.317137455  -3.82E-02*   1.97E-02*   4.12E-03*    1.69E-01   2.36E+01   QNRc2DIIS    0.
   8  -114.069612891  -172.183023775    51.309703887  -8.99E-05*   9.92E-03*   1.07E-03*    2.80E-02   2.36E+01   QNRc2DIIS    0.
   9  -114.069623991  -172.176438912    51.303107924  -1.11E-05*   5.92E-03*   4.26E-04*    1.40E-02   2.36E+01   QNRc2DIIS    0.
  10  -114.069626047  -172.172984244    51.299651200  -2.06E-06*   6.18E-03*   1.81E-04*    8.28E-03   2.36E+01   QNRc2DIIS    0.
  11  -114.069626919  -172.174472746    51.301138830  -8.72E-07*   8.54E-04    6.07E-05     8.00E-03   2.36E+01   QNRc2DIIS    0.
  12  -114.069626964  -172.175025556    51.301691595  -4.49E-08*   4.57E-04    3.53E-05     1.10E-03   2.36E+01   QNRc2DIIS    0.
  13  -114.069626975  -172.175350233    51.302016260  -1.14E-08*   3.04E-05    6.39E-06     6.37E-04   2.36E+01   QNRc2DIIS    0.
  14  -114.069626975  -172.175379066    51.302045093  -1.18E-10    6.19E-06    1.77E-06     4.24E-05   2.36E+01   QNRc2DIIS    0.
 
       Convergence after  14 Macro Iterations
--
 
 *****************************************************************************************************************************
 *                                                                                                                           *
 *                                             SCF/KS-DFT Program, Final results                                             *
 *                                                                                                                           *
 *                                                                                                                           *
 *                                                                                                                           *
 *                                                       Final Results                                                       *
 *                                                                                                                           *
 *****************************************************************************************************************************
 
::    Total SCF energy                               -114.0696269754
      One-electron energy                            -172.1753790659
      Two-electron energy                              51.3020450932
      Nuclear repulsion energy                          6.8037069973
      Kinetic energy (interpolated)                   114.8201076333
      Virial theorem                                    0.9934638569
      Total spin, S(S+1)                                1.0233749463
      Total spin, S                                     0.6284391638
      Max non-diagonal density matrix element           0.0000031170
      Max non-diagonal Fock matrix element              0.0000007282
 
 
      All orbitals with orbital energies smaller than  E(LUMO)+0.5 are printed
 
++    Molecular orbitals:
      -------------------
 
      Title: UHF orbitals (alpha)

      Molecular orbitals for symmetry species 1: a  
 
          Orbital            1         2         3         4         5         6         7         8         9        10    
          Energy          -26.4042   -4.7290   -1.6486   -0.8007   -0.7120   -0.7120   -0.3270    0.0951    0.0951    0.1213
          Occ. No.          1.0000    1.0000    1.0000    1.0000    1.0000    1.0000    1.0000    0.0000    0.0000    0.0000
 
        1 BE1    1s        -0.0000    1.0000   -0.0005    0.0059   -0.0000    0.0000   -0.0020   -0.0000   -0.0000    0.0008
        2 BE1    2s        -0.0001    0.0022   -0.0009    0.0089    0.0000    0.0000    0.9622   -0.0000   -0.0000    0.2965
        3 BE1    2px        0.0000    0.0000    0.0000    0.0000    0.0000    0.0038   -0.0000    0.1438    0.9908    0.0000
        4 BE1    2py        0.0000   -0.0000   -0.0000   -0.0000   -0.0038    0.0000    0.0000    0.9908   -0.1438    0.0000
        5 BE1    2pz       -0.0002   -0.0006   -0.0014    0.0104    0.0000   -0.0000   -0.2793   -0.0000   -0.0000    0.9771
        6 F2     1s         1.0000    0.0000    0.0025   -0.0001   -0.0000    0.0000   -0.0020    0.0000    0.0000   -0.0127
        7 F2     2s        -0.0024    0.0001    1.0002    0.0060   -0.0000    0.0000   -0.0286    0.0000    0.0000   -0.1417
        8 F2     2px        0.0000   -0.0000    0.0000    0.0000   -0.0091   -1.0001    0.0000   -0.0064   -0.0438   -0.0000
        9 F2     2py        0.0000    0.0000    0.0000    0.0000    1.0001   -0.0091   -0.0000   -0.0438    0.0064   -0.0000
       10 F2     2pz       -0.0001   -0.0001   -0.0082    1.0020   -0.0000    0.0000    0.0499   -0.0000   -0.0000    0.1365
--
 
 
      Input file to MOLDEN was generated!
 
 
++    Static properties:
      ------------------
 
 
      LoProp Charges per center
 

                   BE1      F2    
      Nuclear      4.0000   9.0000
      Electronic  -3.9211  -9.0789
 
      Total        0.0789  -0.0789
--
 
 
      All orbitals with orbital energies smaller than  E(LUMO)+0.5 are printed
 
++    Molecular orbitals:
      -------------------
 
      Title: UHF orbitals (beta)

      Molecular orbitals for symmetry species 1: a  
 
          Orbital            1         2         3         4         5         6         7         8         9        10    
          Energy          -26.3642   -4.7269   -1.4824   -0.6698   -0.6698   -0.3248    0.0495    0.1006    0.1006    0.1618
          Occ. No.          1.0000    1.0000    1.0000    1.0000    1.0000    1.0000    0.0000    0.0000    0.0000    0.0000
 
        1 BE1    1s        -0.0000    1.0000   -0.0005   -0.0000    0.0000   -0.0035    0.0037   -0.0000    0.0000    0.0036
        2 BE1    2s        -0.0000    0.0023    0.0073    0.0000   -0.0000    0.9150    0.4183    0.0000   -0.0000   -0.0399
        3 BE1    2px        0.0000    0.0000   -0.0000   -0.0000   -0.0009   -0.0000    0.0000    0.8572   -0.5172    0.0000
        4 BE1    2py        0.0000   -0.0000   -0.0000    0.0009   -0.0000   -0.0000   -0.0000    0.5172    0.8572    0.0000
        5 BE1    2pz       -0.0001    0.0006    0.0052    0.0000   -0.0000    0.2861   -0.4956   -0.0000   -0.0000    0.8399
        6 F2     1s         1.0000   -0.0000    0.0040   -0.0000    0.0000   -0.0083    0.0034   -0.0000    0.0000   -0.0094
        7 F2     2s        -0.0041   -0.0000    0.9988   -0.0000    0.0000   -0.1045    0.0326   -0.0000    0.0000   -0.1084
        8 F2     2px        0.0000   -0.0000    0.0000   -0.0354   -0.9993   -0.0000    0.0000   -0.0419    0.0253    0.0000
        9 F2     2py        0.0000    0.0000    0.0000    0.9993   -0.0354   -0.0000    0.0000   -0.0253   -0.0419    0.0000
       10 F2     2pz       -0.0001   -0.0000    0.0034   -0.0000    0.0000   -0.2031    0.7402   -0.0000   -0.0000    0.6604
--
 
 
++    Molecular charges:
      ------------------
 
      Mulliken charges per centre and basis function type
      ---------------------------------------------------
 
                            BE1                     F2    
                     alpha        beta       alpha        beta
      1s           1.0000      1.0000      1.0000      1.0000
      2s           0.9187      0.8487      1.0002      0.9995
      2px         -0.0002      0.0000      1.0002      1.0000
      2pz          0.0794      0.0859      1.0017      0.0658
      2py         -0.0002      0.0000      1.0002      1.0000
      Total        1.9978      1.9348      5.0022      4.0652
      Total              3.9325                  9.0675
 
      Charge            0.0675                 -0.0675
 
      Total electronic charge=   13.000000
 
      Total            charge=   -0.000000
--
 
 
      Input file to MOLDEN was generated!
 
 
++    Static properties:
      ------------------
 
 
      LoProp Charges per center
 

                   BE1      F2    
      Nuclear      4.0000   9.0000
      Electronic  -3.9211  -9.0789
 
      Total        0.0789  -0.0789
--
 
 
++    Natural Bond Order analysis
      ---------------------------
      Based on LoProp computed density
      -------------------------------------------------------------------------------------
      Atom A       Atom B       Bond Order
      -------------------------------------------------------------------------------------
      NBO located      1.000 non-bonded electrons on atom BE1       
      The remaining    5.509 electrons are to be considered as diffuse
--
 
 
++    Molecular orbitals:
      -------------------
 
      Title: Natural orbitals

      Molecular orbitals for symmetry species 1: a  
 
          Orbital            1         2         3         4         5         6         7         8         9        10    
          Energy          -26.3842   -4.7279   -1.5653   -0.6909   -0.6909   -0.3219   -0.3336    0.0954    0.0978    0.0978
          Occ. No.          2.0000    2.0000    2.0000    2.0000    2.0000    1.8527    1.0000    0.1473    0.0000    0.0000
 
        1 BE1    1s        -0.0000    1.0000    0.0004    0.0000    0.0000    0.0017    0.0049    0.0013    0.0000    0.0000
        2 BE1    2s        -0.0002    0.0004    0.0074   -0.0000    0.0000   -0.9388    0.3614    0.0430    0.0000   -0.0000
        3 BE1    2px        0.0000    0.0000   -0.0000    0.0000   -0.0015    0.0000    0.0000   -0.0000    0.1437   -0.9908
        4 BE1    2py        0.0000   -0.0000    0.0000   -0.0015   -0.0000   -0.0000    0.0000   -0.0000    0.9908    0.1437
        5 BE1    2pz       -0.0001   -0.0000   -0.0006    0.0000    0.0000   -0.0117   -0.0926    1.0120    0.0000   -0.0000
        6 F2     1s         1.0000    0.0000   -0.0025    0.0000    0.0000    0.0050   -0.0009   -0.0118   -0.0000    0.0000
        7 F2     2s        -0.0024    0.0001   -1.0004   -0.0000    0.0000    0.0548   -0.0164   -0.1318   -0.0000    0.0000
        8 F2     2px       -0.0000   -0.0000    0.0000   -0.0091    1.0000    0.0000    0.0000    0.0000   -0.0067    0.0461
        9 F2     2py       -0.0000   -0.0000   -0.0000    1.0000    0.0091    0.0000    0.0000    0.0000   -0.0461   -0.0067
       10 F2     2pz        0.0000    0.0004   -0.0065   -0.0000   -0.0000    0.2720    0.9505    0.2184    0.0000   -0.0000
--
 
 
++    Molecular properties:
      ---------------------
 
      Charge (e):
                      =   -0.0000
      Dipole Moment (Debye):
      Origin of the operator (Ang)=    0.0000    0.0000    0.0000
                   X=  8.1030E-13               Y= -4.4133E-14               Z= -8.2347E-01           Total=  8.2347E-01
      Quadrupole Moment (Debye*Ang):
      Origin of the operator (Ang)=    0.0000    0.0000    1.8991
                  XX= -1.1873E+01              XY=  7.8845E-16              XZ= -1.2825E-12              YY= -1.1873E+01
                  YZ=  1.6364E-13              ZZ= -1.0937E+01
      In traceless form (Debye*Ang)
                  XX= -4.6792E-01              XY=  1.1827E-15              XZ= -1.9237E-12              YY= -4.6792E-01
                  YZ=  2.4546E-13              ZZ=  9.3584E-01
--
 
 
      Input file to MOLDEN was generated!
 
 ###############################################################################
 ###############################################################################
 ###                                                                         ###
 ###                                                                         ###
 ###    WARNING: RunFile label nBas                                          ###
 ###    was used       87 times                                              ###
 ###                                                                         ###
 ###                                                                         ###
 ###############################################################################
 ###############################################################################
--- Stop Module: scf at Thu Apr 25 13:42:15 2024 /rc=_RC_ALL_IS_WELL_ ---
*** files: 2.80.LprOrb 2.80.LoProp.molden 2.80.scf.molden 2.80.scf.h5 2.80.UhfOrb 2.80.UnaOrb xmldump
    saved to directory /home/grierjones/DDCASPT2/delta_ML/BeF/2.80

*** symbolic link created: INPORB -> 2.80.UnaOrb
--- Start Module: mbpt2 at Thu Apr 25 13:42:15 2024 ---
 
()()()()()()()()()()()()()()()()()()()()()()()()()()()()()()()()()()()()()()()()()()()()()()()()()()

                                               &MBPT2

                                   only a single process is used
                       available to each process: 2.0 GB of memory, 1 thread?
                                            pid: 100450
()()()()()()()()()()()()()()()()()()()()()()()()()()()()()()()()()()()()()()()()()()()()()()()()()()
 
 
 ###############################################################################
 ###############################################################################
 ###                                                                         ###
 ###                                                                         ###
 ###    WARNING: MP2 implementation intended for RHF references only         ###
 ###                                                                         ###
 ###                                                                         ###
 ###############################################################################
 ###############################################################################
MBPT2 WARNING: Reference function according to RunFile:UHF-SCF 
I'll assume you know what you're doing and continue
 
 
WARNING!
Default frozen orbitals as non valence orbitals is overwritten by user input.
Default values:   2
 
 
      Cartesian coordinates in Angstrom:
      -----------------------------------------------------
      No.  Label        X            Y            Z        
      -----------------------------------------------------
       1   BE1        0.00000000   0.00000000   0.00000000
       2   F2         0.00000000   0.00000000   2.80000000
      -----------------------------------------------------
      Nuclear repulsion energy =    6.80370700
 
      Contents of RUNFILE file:
      -------------------------
 
      Symmetry species                           1
                                                 a
      Number of basis functions                 10
      Frozen occupied orbitals                   0
      Active occupied orbitals                   7
      Active external orbitals                   3
      Deleted external orbitals                  0
 
 
      Energies of the active occupied orbitals
 
      symmetry species 1                   -26.404237     -4.728954     -1.648557     -0.800679     -0.711960
                                            -0.711960     -0.326955
 
 
      Energies of the active external orbitals
 
      symmetry species 1                     0.095100      0.095100      0.121341
 
 
      ********************************************************************************************************
      *                                               Results                                                *
      ********************************************************************************************************
 
 Conventional algorithm used...

       SCF energy                           =     -114.0696269754 a.u.
       Second-order correlation energy      =       -0.0155569363 a.u.

       Total energy                         =     -114.0851839117 a.u.
       Reference weight ( Cref**2 )         =        0.98239
 
::    Total MBPT2 energy                             -114.0851839117
 
 
       Zeroth-order energy (E0)             =      -63.8628987939 a.u.
 
       Shanks-type energy S1(E)             =     -114.0851887336 a.u.
 
 


       Data processing and timing information:

       Section                                              time(sec)
                                                          CPU  Elapsed

      Input data processing                              0.02      0.05
      Transformation of integrals                        0.00      0.00
      MBPT2 calculations (BJAI)                          0.00      0.00
      Total MBPT2 calculations                           0.02      0.05
 
 
--- Stop Module: mbpt2 at Thu Apr 25 13:42:15 2024 /rc=_RC_ALL_IS_WELL_ ---
*** files: xmldump
    saved to directory /home/grierjones/DDCASPT2/delta_ML/BeF/2.80

*** symbolic link created: INPORB -> 2.80.UnaOrb
--- Start Module: rasscf at Thu Apr 25 13:42:15 2024 ---
 
()()()()()()()()()()()()()()()()()()()()()()()()()()()()()()()()()()()()()()()()()()()()()()()()()()

                                              &RASSCF

                                   only a single process is used
                       available to each process: 2.0 GB of memory, 1 thread?
                                            pid: 100453
()()()()()()()()()()()()()()()()()()()()()()()()()()()()()()()()()()()()()()()()()()()()()()()()()()
 
 
      Header of the ONEINT file:
      --------------------------
      
      Integrals generated by Gateway/Seward, Thu Apr 25 13:42:14 2024
 
 
      OrdInt status: non-squared
 
 
      Cartesian coordinates in Angstrom:
      -----------------------------------------------------
      No.  Label        X            Y            Z        
      -----------------------------------------------------
       1   BE1        0.00000000   0.00000000   0.00000000
       2   F2         0.00000000   0.00000000   2.80000000
      -----------------------------------------------------
      Nuclear repulsion energy =    6.80370700
 
++    Wave function specifications:
      -----------------------------
 
      Number of closed shell electrons          12
      Number of electrons in active shells       1
      Max number of holes in RAS1 space          0
      Max nr of electrons in RAS3 space          0
      Number of inactive orbitals                6
      Number of active orbitals                  2
      Number of secondary orbitals               2
      Spin quantum number                      0.5
      State symmetry                             1
--
 
++    Orbital specifications:
      -----------------------
 
      Symmetry species                           1
                                                 a
      Frozen orbitals                            0
      Inactive orbitals                          6
      Active orbitals                            2
      RAS1 orbitals                              0
      RAS2 orbitals                              2
      RAS3 orbitals                              0
      Secondary orbitals                         2
      Deleted orbitals                           0
      Number of basis functions                 10
--
 
++    CI expansion specifications:
      ----------------------------
 
      Number of CSFs                             2
      Number of determinants                     2
      Number of root(s) required                 1
      Root chosen for geometry opt.              1
      CI root used                               1
         
      highest root included in the CI            1
      max. size of the explicit Hamiltonian      2
--
 
++    Optimization specifications:
      ----------------------------
 
      RASSCF algorithm: Conventional
      Maximum number of macro iterations       200
      Maximum number of SX iterations          100
      Threshold for RASSCF energy            1.000E-08
      Threshold for max MO rotation          1.000E-01
      Threshold for max BLB element          1.000E-04
      Level shift parameter                  5.000E-01
      Make Quasi-Newton update
--
 
      The MO-coefficients are taken from the file:
      /home/grierjones/DDCASPT2/delta_ML/BeF/2.70/2.70.RasOrb                                                                                                                                                                                                         
      Title: RASSCF average (pseudo-natural) orbitals                                      
 
      Total molecular charge    0.00
 
      ************************************************************************************************************************
      *                                                                                                                      *
      *                                            Wave function control section                                             *
      *                                                                                                                      *
      ************************************************************************************************************************
 
 
                                         RASSCF iterations: Energy and convergence statistics
                                         ----------------------------------------------------
 
      Iter CI   SX   CI       RASSCF       Energy    max ROT     max BLB   max BLB  Level Ln srch  Step   QN   Walltime
          iter iter root      energy       change     param      element    value   shift minimum  type update hh:mm:ss
 Nr of preliminary CI iterations:   1
 ###############################################################################
 ###############################################################################
 ###                                                                         ###
 ###                                                                         ###
 ###    WARNING: Problems in orbital optimization.                           ###
 ###                                                                         ###
 ###                                                                         ###
 ###############################################################################
 ###############################################################################
  Warning: In symmetry  1, orbital p=   8 has diagonal density matrix element D(p,p) close to zero. D(p,p)=  3.980062E-27
        1   1    4    1  -114.06392489    0.00E+00  -8.85E-03    6   7 1 -4.44E-03*  0.53   0.00    SX    NO    0:00:00
 ###############################################################################
 ###############################################################################
 ###                                                                         ###
 ###                                                                         ###
 ###    WARNING: Problems in orbital optimization.                           ###
 ###                                                                         ###
 ###                                                                         ###
 ###############################################################################
 ###############################################################################
  Warning: In symmetry  1, orbital p=   8 has diagonal density matrix element D(p,p) close to zero. D(p,p)=  3.988383E-27
        2   1    4    1  -114.06399337   -6.85E-05* -5.50E-03    6   7 1 -2.76E-03*  0.54   0.00    SX    NO    0:00:00
 ###############################################################################
 ###############################################################################
 ###                                                                         ###
 ###                                                                         ###
 ###    WARNING: Problems in orbital optimization.                           ###
 ###                                                                         ###
 ###                                                                         ###
 ###############################################################################
 ###############################################################################
  Warning: In symmetry  1, orbital p=   8 has diagonal density matrix element D(p,p) close to zero. D(p,p)=  3.994353E-27
        3   1    4    1  -114.06401938   -2.60E-05* -3.40E-03    6   7 1 -1.71E-03*  0.54   0.00    SX    NO    0:00:00
 ###############################################################################
 ###############################################################################
 ###                                                                         ###
 ###                                                                         ###
 ###    WARNING: Problems in orbital optimization.                           ###
 ###                                                                         ###
 ###                                                                         ###
 ###############################################################################
 ###############################################################################
  Warning: In symmetry  1, orbital p=   8 has diagonal density matrix element D(p,p) close to zero. D(p,p)=  3.998433E-27
        4   1    4    1  -114.06402927   -9.88E-06* -2.10E-03    6   7 1 -1.05E-03*  0.54   0.00    SX    NO    0:00:00
 ###############################################################################
 ###############################################################################
 ###                                                                         ###
 ###                                                                         ###
 ###    WARNING: Problems in orbital optimization.                           ###
 ###                                                                         ###
 ###                                                                         ###
 ###############################################################################
 ###############################################################################
  Warning: In symmetry  1, orbital p=   8 has diagonal density matrix element D(p,p) close to zero. D(p,p)=  4.001149E-27
        5   1    4    1  -114.06403302   -3.76E-06* -3.13E-03    6   7 1 -6.50E-04*  0.54   2.50    LS   YES    0:00:00
 ###############################################################################
 ###############################################################################
 ###                                                                         ###
 ###                                                                         ###
 ###    WARNING: Problems in orbital optimization.                           ###
 ###                                                                         ###
 ###                                                                         ###
 ###############################################################################
 ###############################################################################
  Warning: In symmetry  1, orbital p=   8 has diagonal density matrix element D(p,p) close to zero. D(p,p)=  4.005207E-27
        6   1    3    1  -114.06403531   -2.29E-06* -2.49E-04    6   7 1 -4.83E-05   0.54   1.08    QN   YES    0:00:00
 ###############################################################################
 ###############################################################################
 ###                                                                         ###
 ###                                                                         ###
 ###    WARNING: Problems in orbital optimization.                           ###
 ###                                                                         ###
 ###                                                                         ###
 ###############################################################################
 ###############################################################################
  Warning: In symmetry  1, orbital p=   8 has diagonal density matrix element D(p,p) close to zero. D(p,p)=  4.005789E-27
        7   1    3    1  -114.06403533   -1.80E-08* -3.10E-05    6  10 1  3.98E-05   0.54   1.18    QN   YES    0:00:00
 ###############################################################################
 ###############################################################################
 ###                                                                         ###
 ###                                                                         ###
 ###    WARNING: Problems in orbital optimization.                           ###
 ###                                                                         ###
 ###                                                                         ###
 ###############################################################################
 ###############################################################################
  Warning: In symmetry  1, orbital p=   8 has diagonal density matrix element D(p,p) close to zero. D(p,p)=  4.006016E-27
        8   1    3    1  -114.06403533   -2.84E-09   3.35E-05    6  10 1  2.68E-05   0.54   1.82    QN   YES    0:00:00
      Convergence after  8 iterations
        9   1    3    1  -114.06403533   -1.32E-09   3.35E-05    6  10 1  7.94E-06   0.54   1.82    QN   YES    0:00:00
 
      ************************************************************************************************************************
                                                      Wave function printout:
                       occupation of active orbitals, and spin coupling of open shells (u,d: Spin up or down)
      ************************************************************************************************************************
 
      Note: transformation to natural orbitals
      has been made, which may change the order of the CSFs.
 
      printout of CI-coefficients larger than  0.05 for root  1
      energy=    -114.064035
      conf/sym  11     Coeff  Weight
             1  u0   1.00000 1.00000
 
      Natural orbitals and occupation numbers for root  1
      sym 1:   1.000000   0.000000
 
      ************************************************************************************************************************
      *                                                                                                                      *
      *                                                    Final results                                                     *
      *                                                                                                                      *
      ************************************************************************************************************************
 
 
++    Wave function specifications:
      -----------------------------
 
      Number of closed shell electrons          12
      Number of electrons in active shells       1
      Max number of holes in RAS1 space          0
      Max nr of electrons in RAS3 space          0
      Number of inactive orbitals                6
      Number of active orbitals                  2
      Number of secondary orbitals               2
      Spin quantum number                      0.5
      State symmetry                             1
--
 
++    Orbital specifications:
      -----------------------
 
      Symmetry species                           1
                                                 a
      Frozen orbitals                            0
      Inactive orbitals                          6
      Active orbitals                            2
      RAS1 orbitals                              0
      RAS2 orbitals                              2
      RAS3 orbitals                              0
      Secondary orbitals                         2
      Deleted orbitals                           0
      Number of basis functions                 10
--
 
++    CI expansion specifications:
      ----------------------------
 
      Number of CSFs                             2
      Number of determinants                     2
      Number of root(s) required                 1
      CI root used                               1
      highest root included in the CI            1
      Root passed to geometry opt.               1
--
 
++    Final optimization conditions:
      ------------------------------
 
      Average CI energy                            -114.06403533
      RASSCF energy for state  1                   -114.06403533
      Super-CI energy                                -0.00000000
      RASSCF energy change                           -0.00000000
      Max change in MO coefficients               3.410E-05
      Max non-diagonal density matrix element     3.352E-05
      Maximum BLB matrix element                  7.943E-06
      (orbital pair   6,  10 in symmetry   1)
      Norm of electronic gradient            1.015E-05
--
 
 
      Final state energy(ies):
      ------------------------
 
::    RASSCF root number  1 Total energy:   -114.06403533
 
++    Molecular orbitals:
      -------------------
 
      Pseudonatural active orbitals and approximate occupation numbers
 
 
 
 
      Molecular orbitals for symmetry species 1: a  
 
 
      Orbital                 1         2         3         4         5         6         7         8         9        10
      Energy           -26.4137   -4.7138   -1.5850   -0.7107   -0.7107   -0.3204   -0.3612   -0.0000    0.1013    0.1151
      Occ. No.           2.0000    2.0000    2.0000    2.0000    2.0000    2.0000    1.0000    0.0000    0.0000    0.0000
 
     1 BE1    1s        -0.0000    1.0000   -0.0005   -0.0000   -0.0000    0.0028   -0.0054    0.0000   -0.0000   -0.0007
     2 BE1    2s        -0.0001    0.0021    0.0021    0.0000    0.0000   -0.9801   -0.2301   -0.0000    0.0000   -0.0158
     3 BE1    2px        0.0000   -0.0000   -0.0000   -0.0026   -0.0000   -0.0000   -0.0000   -0.0275   -1.0008   -0.0000
     4 BE1    2py        0.0000    0.0000    0.0000    0.0000   -0.0026    0.0000    0.0000   -1.0008    0.0275    0.0000
     5 BE1    2pz       -0.0001    0.0000    0.0001    0.0000   -0.0000   -0.0033   -0.0077   -0.0000    0.0000   -1.0163
     6 F2     1s         1.0000    0.0000    0.0033   -0.0000   -0.0000    0.0054    0.0013    0.0000   -0.0000    0.0117
     7 F2     2s        -0.0033    0.0000    0.9998   -0.0000   -0.0000    0.0679    0.0170    0.0000   -0.0000    0.1295
     8 F2     2px        0.0000    0.0000    0.0000    1.0000    0.0123    0.0000   -0.0000    0.0013    0.0455    0.0000
     9 F2     2py        0.0000   -0.0000    0.0000   -0.0123    1.0000    0.0000   -0.0000    0.0455   -0.0013   -0.0000
    10 F2     2pz       -0.0000   -0.0000    0.0003   -0.0000   -0.0000    0.1364   -0.9960   -0.0000    0.0000   -0.1206
--
 
      Von Neumann Entropy (Root   1) =  0.50000
 

      Mulliken population analysis for root number:  1
      -----------------------------------------------
 
 
++    Molecular charges:
      ------------------
 
      Mulliken charges per centre and basis function type
      ---------------------------------------------------
 
                BE1     F2    
      1s       2.0000  2.0000
      2s       1.9689  2.0000
      2px     -0.0002  2.0002
      2pz     -0.0008  1.0320
      2py     -0.0002  2.0002
      Total    3.9676  9.0324
 
      N-E      0.0324 -0.0324
 
      Total electronic charge=   13.000000
 
      Total            charge=   -0.000000
--
 
 

      Expectation values of various properties for root number:  1
      -----------------------------------------------------------
 
 
++    Molecular properties:
      ---------------------
 
      Charge (e):
                      =   -0.0000
      Dipole Moment (Debye):
      Origin of the operator (Ang)=    0.0000    0.0000    0.0000
                   X= -1.6722E-13               Y=  8.4799E-13               Z= -4.2018E-01           Total=  4.2018E-01
      Quadrupole Moment (Debye*Ang):
      Origin of the operator (Ang)=    0.0000    0.0000    1.8991
                  XX= -1.2145E+01              XY=  6.7337E-16              XZ=  5.1802E-13              YY= -1.2145E+01
                  YZ= -1.1475E-12              ZZ= -1.0750E+01
      In traceless form (Debye*Ang)
                  XX= -6.9765E-01              XY=  1.0101E-15              XZ=  7.7703E-13              YY= -6.9765E-01
                  YZ= -1.7213E-12              ZZ=  1.3953E+00
--
 

      Mulliken spin population analysis for root number:  1
      ---------------------------------------------------
 
 
++    Molecular charges:
      ------------------
 
      Mulliken spin population per centre and basis function type
      ---------------------------------------------------
 
                BE1     F2    
      1s      -0.0000 -0.0000
      2s       0.0313  0.0000
      2px      0.0000  0.0000
      2pz     -0.0009  0.9696
      2py     -0.0000  0.0000
      Total    0.0303  0.9697
 
      Total electronic spin=    1.000000
--
 
 

      LoProp population analysis for root number:  1
      -----------------------------------------------
 
 
++    LoProp analysis:
      ----------------
 
 
 
      Input file to MOLDEN was generated!
 
 
++    Static properties:
      ------------------
 
 
      LoProp Charges per center
 

                   BE1      F2    
      Nuclear      4.0000   9.0000
      Electronic  -3.9668  -9.0332
 
      Total        0.0332  -0.0332
--
 
 
      Natural Bond Order analysis for root number:  1
 
++    Natural Bond Order analysis
      ---------------------------
      Based on LoProp computed density
      -------------------------------------------------------------------------------------
      Atom A       Atom B       Bond Order
      -------------------------------------------------------------------------------------
      NBO located      1.000 non-bonded electrons on atom BE1       
      NBO located      0.982 non-bonded electrons on atom BE1       
      The remaining    4.512 electrons are to be considered as diffuse
--
 
--
 
 
      Input file to MOLDEN was generated!
 
 
      Input file to MOLDEN was generated!
 
      Average orbitals are written to the RASORB file
      Natural orbitals for root   1 are written to the RASORB.1 file
      Spin density orbitals for root   1 are written to the SPDORB.1 file
 
--- Stop Module: rasscf at Thu Apr 25 13:42:15 2024 /rc=_RC_ALL_IS_WELL_ ---
*** files: 2.80.LprOrb 2.80.rasscf.molden 2.80.rasscf.molden.1 2.80.LoProp.molden 2.80.RasOrb.1 2.80.RasOrb 2.80.rasscf.h5 2.80.SpdOrb.1 xmldump
    saved to directory /home/grierjones/DDCASPT2/delta_ML/BeF/2.80

*** symbolic link created: INPORB -> 2.80.RasOrb
--- Start Module: caspt2 at Thu Apr 25 13:42:16 2024 ---
 
()()()()()()()()()()()()()()()()()()()()()()()()()()()()()()()()()()()()()()()()()()()()()()()()()()

                                              &CASPT2

                                   only a single process is used
                       available to each process: 2.0 GB of memory, 1 thread?
                                            pid: 100456
()()()()()()()()()()()()()()()()()()()()()()()()()()()()()()()()()()()()()()()()()()()()()()()()()()
 
 ###############################################################################
 ###############################################################################
 ###                                                                         ###
 ###                                                                         ###
 ###    WARNING: User changed nr of frozen orbitals.                         ###
 ###                                                                         ###
 ###                                                                         ###
 ###############################################################################
 ###############################################################################
 
++    Wave function specifications:
      -----------------------------
 
      Number of closed shell electrons          12
      Number of electrons in active shells       1
      Max number of holes in RAS1 space          0
      Max number of electrons in RAS3 space      0
      Number of inactive orbitals                6
      Number of active orbitals                  2
      Number of secondary orbitals               2
      Spin quantum number                      0.5
      State symmetry                             1
      Number of CSFs                             2
      Number of CASSCF root(s) available         1
      CASPT2 state passed to geometry opt.       1
      A file JOBMIX will be created
      This is a CASSCF or RASSCF reference function
--
 
++    Orbital specifications:
      -----------------------
 
      Symmetry species                           1
                                                 a
      Frozen orbitals                            0
      Inactive orbitals                          6
      Active orbitals                            2
      Secondary orbitals                         2
      Deleted orbitals                           0
      Number of basis functions                 10
--
 
++    CASPT2 specifications:
      ----------------------
 
      Type of calculation                        SS-CASPT2
      Fock operator                              state-specific
      IPEA shift                                 0.25
      Real shift                                 0.00
      Imaginary shift                            0.00
      The input orbitals will be transformed to quasi-canonical
--
 
--------------------------------------------------------------------------------
 Estimated memory requirements:
  POLY3 :                   250056
  RHS:                      250428
  SIGMA :                   250384
  PRPCTL:                        0
 Available workspace:    230392719
 
++ CASPT2 computation for group   1
 
********************************************************************************
 Multi-State initialization phase begins for group   1
--------------------------------------------------------------------------------
********************************************************************************
 Compute H0 matrices for state    1
--------------------------------------------------------------------------------
--------------------------------------------------------------------------------
 H0 matrices have been computed.
 
********************************************************************************
  CASPT2 EQUATION SOLUTION
--------------------------------------------------------------------------------
 
  Total nr of CASPT2 parameters:
   Before reduction:         518
   After  reduction:         377
 
 Variance of |WF0>:       0.0186668367
 
 The contributions to the second order correlation energy in atomic units.
-----------------------------------------------------------------------------------------------------------------------------
  IT.      VJTU        VJTI        ATVX        AIVX        VJAI        BVAT        BJAT        BJAI        TOTAL       RNORM  
-----------------------------------------------------------------------------------------------------------------------------
   1    -0.000271   -0.006438    0.000000   -0.000280   -0.000601    0.000000   -0.000464   -0.012686   -0.020740    0.001115
   2    -0.000268   -0.006460    0.000000   -0.000295   -0.000603    0.000000   -0.000460   -0.012748   -0.020833    0.000130
   3    -0.000267   -0.006457    0.000000   -0.000295   -0.000604    0.000000   -0.000459   -0.012744   -0.020826    0.000013
-----------------------------------------------------------------------------------------------------------------------------
 
  FINAL CASPT2 RESULT:
 
      Reference energy:        -114.0640353340
      E2 (Non-variational):      -0.0208249279
      E2 (Variational):          -0.0208249305
      Total energy:            -114.0848602644
      Residual norm:              0.0000002265
      Reference weight:           0.97547
 
      Contributions to the CASPT2 correlation energy
      Active & Virtual Only:          0.0000000050
      One Inactive Excited:          -0.0010211086
      Two Inactive Excited:          -0.0198038243
 
 
++ Denominators, etc.
--------------------------------------------------------------------------------------------------------------
 Report on small energy denominators, large coefficients, and large energy contributions.
CASE  SYMM ACTIVE-MIX  NON-ACTIVE INDICES          DENOMINATOR     RHS VALUE       COEFFICIENT     CONTRIBUTION
VJTIP    1  Mu1.0002  In1.006 In1.006               0.84356507      0.07267436     -0.08740956     -0.00635243
VJAIP    1  Mu1.0001  Se1.010 In1.006 In1.006       0.51984665     -0.01099609      0.02916163     -0.00032066
BJAIP    1  Se1.009 In1.006 Se1.009 In1.006         0.84356507      0.07267436     -0.08740956     -0.00635243
BJAIP    1  Se1.010 In1.006 Se1.010 In1.006         0.87114063      0.07280695     -0.08562563     -0.00623414
--
 
   (Skipping property calculation,
    use PROP keyword to activate)
--
 
  Total CASPT2 energies:
::    CASPT2 Root  1     Total energy:   -114.08486026
 
  A NEW JOBIPH FILE NAMED 'JOBMIX' IS PREPARED.
********************************************************************************
--- Stop Module: caspt2 at Thu Apr 25 13:42:16 2024 /rc=_RC_ALL_IS_WELL_ ---
*** files: xmldump
    saved to directory /home/grierjones/DDCASPT2/delta_ML/BeF/2.80

.##################.
.# Happy landing! #.
.##################.

    Timing: Wall=2.24 User=1.59 System=0.28
************************************
*** WorkDir at /tmp/2.80 removed ***
************************************
