[Molden Format]
[N_Atoms]
                     2
[Atoms] (AU)
BE1         1      4           0.00000000      0.00000000      0.00000000
F2          2      9           0.00000000      0.00000000      5.29123315
[Charge] (Mulliken)
  6.746268081215190E-002
 -6.746268081218965E-002
[GTO] (AU)
   1
   s  14
  2.262859900E+04  8.443999941E-05
  3.372318100E+03  4.601499968E-04
  7.603504000E+02  2.285389984E-03
  2.117404800E+02  9.648129932E-03
  6.722346800E+01  3.494469975E-02
  2.337217700E+01  1.061099893E-01
  8.721373000E+00  2.458240383E-01
  3.468091000E+00  3.862428773E-01
  1.452144000E+00  3.105526078E-01
  6.086150000E-01  6.415933955E-02
  2.576860000E-01 -2.265049984E-03
  1.041760000E-01 -5.217499963E-04
  4.242700000E-02 -8.757499938E-04
  1.484900000E-02  1.242199991E-04
   s  14
  2.262859900E+04 -1.586999994E-05
  3.372318100E+03 -8.656999968E-05
  7.603504000E+02 -4.302199984E-04
  2.117404800E+02 -1.825079993E-03
  6.722346800E+01 -6.682749976E-03
  2.337217700E+01 -2.095119992E-02
  8.721373000E+00 -5.200308981E-02
  3.468091000E+00 -9.849176964E-02
  1.452144000E+00 -1.355800695E-01
  6.086150000E-01 -6.429875976E-02
  2.576860000E-01  3.125414989E-01
  1.041760000E-01  6.270468577E-01
  4.242700000E-02  2.110231492E-01
  1.484900000E-02 -4.104669985E-03
   p   9
  3.371018400E+01  1.069960000E-03
  8.057649500E+00  6.828550001E-03
  2.836471400E+00  2.119065000E-02
  1.099965700E+00  5.843696001E-02
  4.433964000E-01  2.020920800E-01
  1.822264000E-01  4.582953101E-01
  7.572410000E-02  3.691239601E-01
  3.168540000E-02  6.611471001E-02
  1.108990000E-02  1.405160000E-03
 
   2
   s  14
  1.031094600E+05  1.713099991E-04
  1.528100700E+04  7.123999962E-04
  3.441539200E+03  2.990479984E-03
  9.670948300E+02  1.164036994E-02
  3.140353400E+02  3.968642979E-02
  1.134423000E+02  1.128546094E-01
  4.464472700E+01  2.473650687E-01
  1.894287400E+01  3.672702681E-01
  8.532743000E+00  2.896286985E-01
  3.919401000E+00  7.786681959E-02
  1.568157000E+00  4.562139976E-03
  6.232900000E-01  2.468879987E-03
  2.408610000E-01  1.106309994E-03
  8.430100000E-02  1.739699991E-04
   s  14
  1.031094600E+05 -4.044999995E-05
  1.528100700E+04 -1.682299998E-04
  3.441539200E+03 -7.084299991E-04
  9.670948300E+02 -2.767999996E-03
  3.140353400E+02 -9.611379987E-03
  1.134423000E+02 -2.833957996E-02
  4.464472700E+01 -6.839343991E-02
  1.894287400E+01 -1.237379298E-01
  8.532743000E+00 -1.512859698E-01
  3.919401000E+00 -9.099909988E-03
  1.568157000E+00  3.716257695E-01
  6.232900000E-01  5.500214393E-01
  2.408610000E-01  2.092318697E-01
  8.430100000E-02  8.074639989E-03
   p   9
  2.453302900E+02  1.024860004E-03
  5.691900500E+01  8.344290032E-03
  1.760456800E+01  4.078927016E-02
  6.274995000E+00  1.351370605E-01
  2.447030000E+00  2.798830811E-01
  9.950600000E-01  3.597966414E-01
  4.039730000E-01  3.055347412E-01
  1.548100000E-01  1.354703905E-01
  5.418400000E-02  2.804449011E-02
 
[MO]
Sym=     1a  
Ene=   -26.4040
Spin= Alpha
Occup=    1.00000
   1        -0.00000456
   2        -0.00010339
   3         0.00000000
   4         0.00000000
   5        -0.00015209
   6         0.99999930
   7        -0.00242308
   8         0.00000000
   9         0.00000000
  10        -0.00008230
Sym=     1a  
Ene=   -26.3640
Spin= Beta
Occup=    1.00000
   1        -0.00000362
   2        -0.00003565
   3         0.00000000
   4         0.00000000
   5        -0.00005281
   6         0.99999241
   7        -0.00408701
   8         0.00000000
   9         0.00000000
  10        -0.00005226
Sym=     2a  
Ene=    -4.7290
Spin= Alpha
Occup=    1.00000
   1         0.99999703
   2         0.00219040
   3         0.00000000
   4        -0.00000000
   5        -0.00057858
   6         0.00000668
   7         0.00008193
   8        -0.00000000
   9         0.00000000
  10        -0.00006313
Sym=     2a  
Ene=    -4.7269
Spin= Beta
Occup=    1.00000
   1         0.99999693
   2         0.00232990
   3         0.00000000
   4        -0.00000000
   5         0.00057847
   6        -0.00000726
   7        -0.00003719
   8        -0.00000000
   9         0.00000000
  10        -0.00003456
Sym=     3a  
Ene=    -1.6486
Spin= Alpha
Occup=    1.00000
   1        -0.00052335
   2        -0.00089696
   3         0.00000000
   4        -0.00000000
   5        -0.00143247
   6         0.00246981
   7         1.00020519
   8         0.00000000
   9         0.00000000
  10        -0.00818076
Sym=     3a  
Ene=    -1.4824
Spin= Beta
Occup=    1.00000
   1        -0.00051189
   2         0.00727267
   3        -0.00000000
   4        -0.00000000
   5         0.00522476
   6         0.00399647
   7         0.99880514
   8         0.00000000
   9         0.00000000
  10         0.00335118
Sym=     4a  
Ene=    -0.8007
Spin= Alpha
Occup=    1.00000
   1         0.00587512
   2         0.00891845
   3         0.00000000
   4        -0.00000000
   5         0.01036016
   6        -0.00009251
   7         0.00603412
   8         0.00000000
   9         0.00000000
  10         1.00201191
Sym=     4a  
Ene=    -0.6698
Spin= Beta
Occup=    1.00000
   1        -0.00000000
   2         0.00000000
   3        -0.00003123
   4         0.00088236
   5         0.00000000
   6        -0.00000000
   7        -0.00000000
   8        -0.03537349
   9         0.99933135
  10        -0.00000000
Sym=     5a  
Ene=    -0.7120
Spin= Alpha
Occup=    1.00000
   1        -0.00000000
   2         0.00000000
   3         0.00003503
   4        -0.00383666
   5         0.00000000
   6        -0.00000000
   7        -0.00000000
   8        -0.00913138
   9         1.00013521
  10        -0.00000000
Sym=     5a  
Ene=    -0.6698
Spin= Beta
Occup=    1.00000
   1         0.00000000
   2        -0.00000000
   3        -0.00088236
   4        -0.00003123
   5        -0.00000000
   6         0.00000000
   7         0.00000000
   8        -0.99933135
   9        -0.03537349
  10         0.00000000
Sym=     6a  
Ene=    -0.7120
Spin= Alpha
Occup=    1.00000
   1         0.00000000
   2         0.00000000
   3         0.00383666
   4         0.00003503
   5        -0.00000000
   6         0.00000000
   7         0.00000000
   8        -1.00013521
   9        -0.00913138
  10         0.00000000
Sym=     6a  
Ene=    -0.3248
Spin= Beta
Occup=    1.00000
   1        -0.00346416
   2         0.91501126
   3        -0.00000000
   4        -0.00000000
   5         0.28610885
   6        -0.00830616
   7        -0.10450327
   8        -0.00000000
   9        -0.00000000
  10        -0.20305085
Sym=     7a  
Ene=    -0.3270
Spin= Alpha
Occup=    1.00000
   1        -0.00196792
   2         0.96222292
   3        -0.00000000
   4         0.00000000
   5        -0.27930711
   6        -0.00200021
   7        -0.02862913
   8         0.00000000
   9        -0.00000000
  10         0.04992962
Sym=     7a  
Ene=     0.0495
Spin= Beta
Occup=    0.00000
   1         0.00374145
   2         0.41827688
   3         0.00000000
   4        -0.00000000
   5        -0.49555583
   6         0.00342841
   7         0.03256862
   8         0.00000000
   9         0.00000000
  10         0.74015043
Sym=     8a  
Ene=     0.0951
Spin= Alpha
Occup=    0.00000
   1        -0.00000000
   2        -0.00000000
   3         0.14375492
   4         0.99077289
   5        -0.00000000
   6         0.00000000
   7         0.00000000
   8        -0.00635261
   9        -0.04378280
  10        -0.00000000
Sym=     8a  
Ene=     0.1006
Spin= Beta
Occup=    0.00000
   1        -0.00000000
   2         0.00000000
   3         0.85722705
   4         0.51717707
   5        -0.00000000
   6        -0.00000000
   7        -0.00000000
   8        -0.04191791
   9        -0.02528966
  10        -0.00000000
Sym=     9a  
Ene=     0.0951
Spin= Alpha
Occup=    0.00000
   1        -0.00000000
   2        -0.00000000
   3         0.99077289
   4        -0.14375492
   5        -0.00000000
   6         0.00000000
   7         0.00000000
   8        -0.04378280
   9         0.00635261
  10        -0.00000000
Sym=     9a  
Ene=     0.1006
Spin= Beta
Occup=    0.00000
   1         0.00000000
   2        -0.00000000
   3        -0.51717707
   4         0.85722705
   5        -0.00000000
   6         0.00000000
   7         0.00000000
   8         0.02528966
   9        -0.04191791
  10        -0.00000000
Sym=    10a  
Ene=     0.1213
Spin= Alpha
Occup=    0.00000
   1         0.00076484
   2         0.29647151
   3         0.00000000
   4         0.00000000
   5         0.97710558
   6        -0.01270299
   7        -0.14172380
   8        -0.00000000
   9        -0.00000000
  10         0.13648609
Sym=    10a  
Ene=     0.1618
Spin= Beta
Occup=    0.00000
   1         0.00363083
   2        -0.03992473
   3         0.00000000
   4         0.00000000
   5         0.83987858
   6        -0.00940934
   7        -0.10838777
   8         0.00000000
   9         0.00000000
  10         0.66041857
