[Molden Format]
[N_Atoms]
                     2
[Atoms] (AU)
O1          1      8           0.00000000      0.00000000      0.00000000
O2          2      8           0.00000000      0.00000000      2.83458919
[Charge] (Mulliken)
  0.000000000000000E+000
  0.000000000000000E+000
[GTO] (AU)
   1
   s  14
  1.053749500E+05  1.238600013E-04
  1.567924000E+04  5.120100053E-04
  3.534544700E+03  2.152910022E-03
  9.873651600E+02  8.528440089E-03
  3.159787500E+02  3.018049031E-02
  1.116542800E+02  9.099702095E-02
  4.269945100E+01  2.177936423E-01
  1.739559600E+01  3.686245738E-01
  7.438309000E+00  3.366707335E-01
  3.222862000E+00  9.657630101E-02
  1.253877000E+00  2.144520022E-03
  4.951550000E-01  1.194350012E-03
  1.916650000E-01  5.390200056E-04
  6.708300000E-02  2.103400022E-04
   s  14
  1.053749500E+05 -2.815000008E-05
  1.567924000E+04 -1.163000003E-04
  3.534544700E+03 -4.909200013E-04
  9.873651600E+02 -1.946160005E-03
  3.159787500E+02 -7.005300019E-03
  1.116542800E+02 -2.167814006E-02
  4.269945100E+01 -5.641213015E-02
  1.739559600E+01 -1.127053003E-01
  7.438309000E+00 -1.589119704E-01
  3.222862000E+00 -3.355083009E-02
  1.253877000E+00  3.531902810E-01
  4.951550000E-01  5.534199315E-01
  1.916650000E-01  2.301839106E-01
  6.708300000E-02  1.127267003E-02
   p   9
  2.000000000E+02  9.173000030E-04
  4.653336700E+01  7.377140024E-03
  1.462180900E+01  3.483515011E-02
  5.313064000E+00  1.144397004E-01
  2.102525000E+00  2.554966408E-01
  8.502230000E-01  3.722557412E-01
  3.375970000E-01  3.323314911E-01
  1.288920000E-01  1.400847905E-01
  4.511200000E-02  2.395784008E-02
 
   2
   s  14
  1.053749500E+05  1.238600013E-04
  1.567924000E+04  5.120100053E-04
  3.534544700E+03  2.152910022E-03
  9.873651600E+02  8.528440089E-03
  3.159787500E+02  3.018049031E-02
  1.116542800E+02  9.099702095E-02
  4.269945100E+01  2.177936423E-01
  1.739559600E+01  3.686245738E-01
  7.438309000E+00  3.366707335E-01
  3.222862000E+00  9.657630101E-02
  1.253877000E+00  2.144520022E-03
  4.951550000E-01  1.194350012E-03
  1.916650000E-01  5.390200056E-04
  6.708300000E-02  2.103400022E-04
   s  14
  1.053749500E+05 -2.815000008E-05
  1.567924000E+04 -1.163000003E-04
  3.534544700E+03 -4.909200013E-04
  9.873651600E+02 -1.946160005E-03
  3.159787500E+02 -7.005300019E-03
  1.116542800E+02 -2.167814006E-02
  4.269945100E+01 -5.641213015E-02
  1.739559600E+01 -1.127053003E-01
  7.438309000E+00 -1.589119704E-01
  3.222862000E+00 -3.355083009E-02
  1.253877000E+00  3.531902810E-01
  4.951550000E-01  5.534199315E-01
  1.916650000E-01  2.301839106E-01
  6.708300000E-02  1.127267003E-02
   p   9
  2.000000000E+02  9.173000030E-04
  4.653336700E+01  7.377140024E-03
  1.462180900E+01  3.483515011E-02
  5.313064000E+00  1.144397004E-01
  2.102525000E+00  2.554966408E-01
  8.502230000E-01  3.722557412E-01
  3.375970000E-01  3.323314911E-01
  1.288920000E-01  1.400847905E-01
  4.511200000E-02  2.395784008E-02
 
[MO]
Sym=     1a  
Ene=   -20.6860
Spin= Alpha
Occup=    2.00000
   1         0.70705613
   2         0.00054562
   3         0.00000000
   4         0.00000000
   5         0.00067551
   6         0.70705613
   7         0.00054562
   8        -0.00000000
   9         0.00000000
  10        -0.00067551
Sym=     2a  
Ene=   -20.6830
Spin= Alpha
Occup=    2.00000
   1        -0.70710455
   2         0.00051030
   3         0.00000000
   4         0.00000000
   5         0.00065712
   6         0.70710455
   7        -0.00051030
   8         0.00000000
   9        -0.00000000
  10         0.00065712
Sym=     3a  
Ene=    -1.5490
Spin= Alpha
Occup=    2.00000
   1        -0.01194195
   2         0.60579031
   3         0.00000000
   4        -0.00000000
   5         0.13492945
   6        -0.01194195
   7         0.60579031
   8         0.00000000
   9        -0.00000000
  10        -0.13492945
Sym=     4a  
Ene=    -1.1143
Spin= Alpha
Occup=    2.00000
   1        -0.00250409
   2        -0.69748170
   3        -0.00000000
   4         0.00000000
   5         0.19334955
   6         0.00250409
   7         0.69748170
   8        -0.00000000
   9        -0.00000000
  10         0.19334955
Sym=     5a  
Ene=    -0.7284
Spin= Alpha
Occup=    2.00000
   1        -0.00000000
   2        -0.00000000
   3        -0.42998621
   4         0.50184101
   5        -0.00000000
   6         0.00000000
   7         0.00000000
   8        -0.42998621
   9         0.50184101
  10        -0.00000000
Sym=     6a  
Ene=    -0.7284
Spin= Alpha
Occup=    2.00000
   1         0.00000000
   2         0.00000000
   3         0.50184101
   4         0.42998621
   5         0.00000000
   6        -0.00000000
   7        -0.00000000
   8         0.50184101
   9         0.42998621
  10         0.00000000
Sym=     7a  
Ene=    -0.7031
Spin= Alpha
Occup=    2.00000
   1         0.01635653
   2         0.28046596
   3        -0.00000000
   4        -0.00000000
   5        -0.64212375
   6         0.01635653
   7         0.28046596
   8        -0.00000000
   9         0.00000000
  10         0.64212375
Sym=     8a  
Ene=    -0.5440
Spin= Alpha
Occup=    1.00000
   1        -0.00000000
   2        -0.00000000
   3         0.20970177
   4        -0.73534243
   5        -0.00000000
   6         0.00000000
   7         0.00000000
   8        -0.20970177
   9         0.73534243
  10        -0.00000000
Sym=     9a  
Ene=    -0.5440
Spin= Alpha
Occup=    1.00000
   1        -0.00000000
   2        -0.00000000
   3        -0.73534243
   4        -0.20970177
   5        -0.00000000
   6         0.00000000
   7         0.00000000
   8         0.73534243
   9         0.20970177
  10        -0.00000000
Sym=    10a  
Ene=    -0.3996
Spin= Alpha
Occup=    0.00000
   1         0.03053949
   2         0.45210401
   3        -0.00000000
   4        -0.00000000
   5         0.83173979
   6        -0.03053949
   7        -0.45210401
   8        -0.00000000
   9         0.00000000
  10         0.83173979
