[Molden Format]
[N_Atoms]
                     2
[Atoms] (AU)
O1          1      8           0.00000000      0.00000000      0.00000000
O2          2      8           0.00000000      0.00000000      2.83458919
[Charge] (Mulliken)
  0.999999992556621     
   1.00000000744338     
[GTO] (AU)
   1
   s  14
  1.053749500E+05  1.238600013E-04
  1.567924000E+04  5.120100053E-04
  3.534544700E+03  2.152910022E-03
  9.873651600E+02  8.528440089E-03
  3.159787500E+02  3.018049031E-02
  1.116542800E+02  9.099702095E-02
  4.269945100E+01  2.177936423E-01
  1.739559600E+01  3.686245738E-01
  7.438309000E+00  3.366707335E-01
  3.222862000E+00  9.657630101E-02
  1.253877000E+00  2.144520022E-03
  4.951550000E-01  1.194350012E-03
  1.916650000E-01  5.390200056E-04
  6.708300000E-02  2.103400022E-04
   s  14
  1.053749500E+05 -2.815000008E-05
  1.567924000E+04 -1.163000003E-04
  3.534544700E+03 -4.909200013E-04
  9.873651600E+02 -1.946160005E-03
  3.159787500E+02 -7.005300019E-03
  1.116542800E+02 -2.167814006E-02
  4.269945100E+01 -5.641213015E-02
  1.739559600E+01 -1.127053003E-01
  7.438309000E+00 -1.589119704E-01
  3.222862000E+00 -3.355083009E-02
  1.253877000E+00  3.531902810E-01
  4.951550000E-01  5.534199315E-01
  1.916650000E-01  2.301839106E-01
  6.708300000E-02  1.127267003E-02
   p   9
  2.000000000E+02  9.173000030E-04
  4.653336700E+01  7.377140024E-03
  1.462180900E+01  3.483515011E-02
  5.313064000E+00  1.144397004E-01
  2.102525000E+00  2.554966408E-01
  8.502230000E-01  3.722557412E-01
  3.375970000E-01  3.323314911E-01
  1.288920000E-01  1.400847905E-01
  4.511200000E-02  2.395784008E-02
 
   2
   s  14
  1.053749500E+05  1.238600013E-04
  1.567924000E+04  5.120100053E-04
  3.534544700E+03  2.152910022E-03
  9.873651600E+02  8.528440089E-03
  3.159787500E+02  3.018049031E-02
  1.116542800E+02  9.099702095E-02
  4.269945100E+01  2.177936423E-01
  1.739559600E+01  3.686245738E-01
  7.438309000E+00  3.366707335E-01
  3.222862000E+00  9.657630101E-02
  1.253877000E+00  2.144520022E-03
  4.951550000E-01  1.194350012E-03
  1.916650000E-01  5.390200056E-04
  6.708300000E-02  2.103400022E-04
   s  14
  1.053749500E+05 -2.815000008E-05
  1.567924000E+04 -1.163000003E-04
  3.534544700E+03 -4.909200013E-04
  9.873651600E+02 -1.946160005E-03
  3.159787500E+02 -7.005300019E-03
  1.116542800E+02 -2.167814006E-02
  4.269945100E+01 -5.641213015E-02
  1.739559600E+01 -1.127053003E-01
  7.438309000E+00 -1.589119704E-01
  3.222862000E+00 -3.355083009E-02
  1.253877000E+00  3.531902810E-01
  4.951550000E-01  5.534199315E-01
  1.916650000E-01  2.301839106E-01
  6.708300000E-02  1.127267003E-02
   p   9
  2.000000000E+02  9.173000030E-04
  4.653336700E+01  7.377140024E-03
  1.462180900E+01  3.483515011E-02
  5.313064000E+00  1.144397004E-01
  2.102525000E+00  2.554966408E-01
  8.502230000E-01  3.722557412E-01
  3.375970000E-01  3.323314911E-01
  1.288920000E-01  1.400847905E-01
  4.511200000E-02  2.395784008E-02
 
[MO]
Sym=     1a  
Ene=   -22.2810
Spin= Alpha
Occup=    2.00000
   1         0.70707902
   2        -0.00165761
   3         0.00000000
   4        -0.00000000
   5         0.00068372
   6         0.70708101
   7        -0.00165765
   8         0.00000000
   9         0.00000000
  10        -0.00068372
Sym=     2a  
Ene=   -22.2770
Spin= Alpha
Occup=    2.00000
   1        -0.70693641
   2         0.01159013
   3        -0.00000000
   4         0.00000000
   5        -0.00070936
   6         0.70693442
   7        -0.01159013
   8         0.00000000
   9         0.00000000
  10        -0.00070936
Sym=     3a  
Ene=    -2.5521
Spin= Alpha
Occup=    2.00000
   1         0.00988815
   2        -0.60091911
   3         0.00000000
   4        -0.00000000
   5        -0.14585889
   6         0.00988815
   7        -0.60091911
   8         0.00000000
   9        -0.00000000
  10         0.14585889
Sym=     4a  
Ene=    -1.6884
Spin= Alpha
Occup=    2.00000
   1         0.01669109
   2         0.29075218
   3         0.00000000
   4        -0.00000000
   5        -0.63972967
   6         0.01669109
   7         0.29075218
   8         0.00000000
   9        -0.00000000
  10         0.63972966
Sym=     5a  
Ene=    -1.5842
Spin= Alpha
Occup=    2.00000
   1         0.00000000
   2        -0.00000000
   3         0.35266349
   4         0.55889265
   5        -0.00000000
   6         0.00000000
   7         0.00000000
   8         0.35266349
   9         0.55889265
  10         0.00000000
Sym=     6a  
Ene=    -1.5834
Spin= Alpha
Occup=    2.00000
   1        -0.00000000
   2         0.00000000
   3         0.55889265
   4        -0.35266349
   5         0.00000000
   6        -0.00000000
   7        -0.00000000
   8         0.55889265
   9        -0.35266349
  10        -0.00000000
Sym=     7a  
Ene=    -2.2435
Spin= Alpha
Occup=    1.98935
   1        -0.01909296
   2        -0.77451098
   3         0.00000000
   4        -0.00000000
   5         0.02086533
   6         0.01909296
   7         0.77451098
   8         0.00000000
   9        -0.00000000
  10         0.02086533
Sym=     8a  
Ene=     0.0000
Spin= Alpha
Occup=    0.01065
   1         0.00000000
   2         0.00000000
   3        -0.40805670
   4        -0.64667848
   5         0.00000000
   6        -0.00000000
   7         0.00000000
   8         0.40805670
   9         0.64667848
  10         0.00000000
Sym=     9a  
Ene=    -1.1570
Spin= Alpha
Occup=    0.00000
   1         0.00000000
   2         0.00000000
   3        -0.64667848
   4         0.40805670
   5         0.00000000
   6        -0.00000000
   7        -0.00000000
   8         0.64667848
   9        -0.40805670
  10         0.00000000
Sym=    10a  
Ene=    -0.9818
Spin= Alpha
Occup=    0.00000
   1         0.02852299
   2         0.30145884
   3         0.00000000
   4        -0.00000000
   5         0.85366251
   6        -0.02852299
   7        -0.30145884
   8        -0.00000000
   9         0.00000000
  10         0.85366252
