[Molden Format]
[N_Atoms]
                     2
[Atoms] (AU)
O1          1      8           0.00000000      0.00000000      0.00000000
O2          2      8           0.00000000      0.00000000      2.83458919
[Charge] (Mulliken)
  1.244337965999875E-012
 -1.252331571777177E-012
[GTO] (AU)
   1
   s  14
  1.053749500E+05  1.238600013E-04
  1.567924000E+04  5.120100053E-04
  3.534544700E+03  2.152910022E-03
  9.873651600E+02  8.528440089E-03
  3.159787500E+02  3.018049031E-02
  1.116542800E+02  9.099702095E-02
  4.269945100E+01  2.177936423E-01
  1.739559600E+01  3.686245738E-01
  7.438309000E+00  3.366707335E-01
  3.222862000E+00  9.657630101E-02
  1.253877000E+00  2.144520022E-03
  4.951550000E-01  1.194350012E-03
  1.916650000E-01  5.390200056E-04
  6.708300000E-02  2.103400022E-04
   s  14
  1.053749500E+05 -2.815000008E-05
  1.567924000E+04 -1.163000003E-04
  3.534544700E+03 -4.909200013E-04
  9.873651600E+02 -1.946160005E-03
  3.159787500E+02 -7.005300019E-03
  1.116542800E+02 -2.167814006E-02
  4.269945100E+01 -5.641213015E-02
  1.739559600E+01 -1.127053003E-01
  7.438309000E+00 -1.589119704E-01
  3.222862000E+00 -3.355083009E-02
  1.253877000E+00  3.531902810E-01
  4.951550000E-01  5.534199315E-01
  1.916650000E-01  2.301839106E-01
  6.708300000E-02  1.127267003E-02
   p   9
  2.000000000E+02  9.173000030E-04
  4.653336700E+01  7.377140024E-03
  1.462180900E+01  3.483515011E-02
  5.313064000E+00  1.144397004E-01
  2.102525000E+00  2.554966408E-01
  8.502230000E-01  3.722557412E-01
  3.375970000E-01  3.323314911E-01
  1.288920000E-01  1.400847905E-01
  4.511200000E-02  2.395784008E-02
 
   2
   s  14
  1.053749500E+05  1.238600013E-04
  1.567924000E+04  5.120100053E-04
  3.534544700E+03  2.152910022E-03
  9.873651600E+02  8.528440089E-03
  3.159787500E+02  3.018049031E-02
  1.116542800E+02  9.099702095E-02
  4.269945100E+01  2.177936423E-01
  1.739559600E+01  3.686245738E-01
  7.438309000E+00  3.366707335E-01
  3.222862000E+00  9.657630101E-02
  1.253877000E+00  2.144520022E-03
  4.951550000E-01  1.194350012E-03
  1.916650000E-01  5.390200056E-04
  6.708300000E-02  2.103400022E-04
   s  14
  1.053749500E+05 -2.815000008E-05
  1.567924000E+04 -1.163000003E-04
  3.534544700E+03 -4.909200013E-04
  9.873651600E+02 -1.946160005E-03
  3.159787500E+02 -7.005300019E-03
  1.116542800E+02 -2.167814006E-02
  4.269945100E+01 -5.641213015E-02
  1.739559600E+01 -1.127053003E-01
  7.438309000E+00 -1.589119704E-01
  3.222862000E+00 -3.355083009E-02
  1.253877000E+00  3.531902810E-01
  4.951550000E-01  5.534199315E-01
  1.916650000E-01  2.301839106E-01
  6.708300000E-02  1.127267003E-02
   p   9
  2.000000000E+02  9.173000030E-04
  4.653336700E+01  7.377140024E-03
  1.462180900E+01  3.483515011E-02
  5.313064000E+00  1.144397004E-01
  2.102525000E+00  2.554966408E-01
  8.502230000E-01  3.722557412E-01
  3.375970000E-01  3.323314911E-01
  1.288920000E-01  1.400847905E-01
  4.511200000E-02  2.395784008E-02
 
[MO]
Sym=     1a  
Ene=   -20.8340
Spin= Alpha
Occup=    1.00000
   1         0.70707117
   2        -0.00049682
   3         0.00000000
   4        -0.00000000
   5         0.00058964
   6         0.70707121
   7        -0.00049682
   8        -0.00000000
   9         0.00000000
  10        -0.00058964
Sym=     1a  
Ene=   -20.8340
Spin= Beta
Occup=    1.00000
   1         0.70707117
   2        -0.00049682
   3         0.00000000
   4        -0.00000000
   5         0.00058964
   6         0.70707121
   7        -0.00049682
   8        -0.00000000
   9         0.00000000
  10        -0.00058964
Sym=     2a  
Ene=   -20.8340
Spin= Alpha
Occup=    1.00000
   1        -0.70715424
   2        -0.00002098
   3         0.00000000
   4        -0.00000000
   5        -0.00081092
   6         0.70715420
   7         0.00002098
   8        -0.00000000
   9         0.00000000
  10        -0.00081092
Sym=     2a  
Ene=   -20.8340
Spin= Beta
Occup=    1.00000
   1        -0.70715424
   2        -0.00002098
   3         0.00000000
   4        -0.00000000
   5        -0.00081092
   6         0.70715420
   7         0.00002098
   8        -0.00000000
   9         0.00000000
  10        -0.00081092
Sym=     3a  
Ene=    -1.5019
Spin= Alpha
Occup=    1.00000
   1        -0.01020607
   2         0.61528047
   3        -0.00000000
   4         0.00000000
   5         0.11226125
   6        -0.01020607
   7         0.61528047
   8        -0.00000000
   9         0.00000000
  10        -0.11226125
Sym=     3a  
Ene=    -1.5019
Spin= Beta
Occup=    1.00000
   1        -0.01020607
   2         0.61528047
   3        -0.00000000
   4         0.00000000
   5         0.11226125
   6        -0.01020607
   7         0.61528047
   8        -0.00000000
   9         0.00000000
  10        -0.11226125
Sym=     4a  
Ene=    -1.2140
Spin= Alpha
Occup=    1.00000
   1        -0.00627155
   2        -0.74708359
   3        -0.00000000
   4         0.00000000
   5         0.09123696
   6         0.00627155
   7         0.74708359
   8        -0.00000000
   9         0.00000000
  10         0.09123696
Sym=     4a  
Ene=    -1.2140
Spin= Beta
Occup=    1.00000
   1        -0.00627155
   2        -0.74708359
   3        -0.00000000
   4         0.00000000
   5         0.09123696
   6         0.00627155
   7         0.74708359
   8        -0.00000000
   9         0.00000000
  10         0.09123696
Sym=     5a  
Ene=    -0.7175
Spin= Alpha
Occup=    1.00000
   1        -0.00000000
   2        -0.00000000
   3        -0.18123501
   4         0.63552058
   5         0.00000000
   6        -0.00000000
   7        -0.00000000
   8        -0.18123501
   9         0.63552058
  10        -0.00000000
Sym=     5a  
Ene=    -0.7175
Spin= Beta
Occup=    1.00000
   1        -0.00000000
   2        -0.00000000
   3        -0.18123501
   4         0.63552058
   5         0.00000000
   6        -0.00000000
   7        -0.00000000
   8        -0.18123501
   9         0.63552058
  10        -0.00000000
Sym=     6a  
Ene=    -0.6641
Spin= Alpha
Occup=    1.00000
   1         0.01687279
   2         0.25898466
   3         0.00000000
   4         0.00000000
   5        -0.64647227
   6         0.01687279
   7         0.25898466
   8        -0.00000000
   9         0.00000000
  10         0.64647227
Sym=     6a  
Ene=    -0.6641
Spin= Beta
Occup=    1.00000
   1         0.01687279
   2         0.25898466
   3         0.00000000
   4         0.00000000
   5        -0.64647227
   6         0.01687279
   7         0.25898466
   8        -0.00000000
   9         0.00000000
  10         0.64647227
Sym=     7a  
Ene=    -0.5791
Spin= Alpha
Occup=    1.00000
   1        -0.00000000
   2        -0.00000000
   3         0.20970177
   4        -0.73534243
   5         0.00000000
   6        -0.00000000
   7        -0.00000000
   8        -0.20970177
   9         0.73534243
  10        -0.00000000
Sym=     7a  
Ene=    -0.5791
Spin= Beta
Occup=    1.00000
   1        -0.00000000
   2        -0.00000000
   3         0.20970177
   4        -0.73534243
   5         0.00000000
   6        -0.00000000
   7        -0.00000000
   8        -0.20970177
   9         0.73534243
  10        -0.00000000
Sym=     8a  
Ene=    -0.5769
Spin= Alpha
Occup=    1.00000
   1        -0.00000000
   2        -0.00000000
   3         0.63552058
   4         0.18123501
   5         0.00000000
   6        -0.00000000
   7         0.00000000
   8         0.63552058
   9         0.18123501
  10        -0.00000000
Sym=     8a  
Ene=    -0.5769
Spin= Beta
Occup=    1.00000
   1        -0.00000000
   2        -0.00000000
   3         0.63552058
   4         0.18123501
   5         0.00000000
   6        -0.00000000
   7         0.00000000
   8         0.63552058
   9         0.18123501
  10        -0.00000000
Sym=     9a  
Ene=    -0.1025
Spin= Alpha
Occup=    0.00000
   1         0.00000000
   2         0.00000000
   3        -0.73534243
   4        -0.20970177
   5         0.00000000
   6        -0.00000000
   7        -0.00000000
   8         0.73534243
   9         0.20970177
  10         0.00000000
Sym=     9a  
Ene=    -0.1025
Spin= Beta
Occup=    0.00000
   1         0.00000000
   2         0.00000000
   3        -0.73534243
   4        -0.20970177
   5         0.00000000
   6        -0.00000000
   7        -0.00000000
   8         0.73534243
   9         0.20970177
  10         0.00000000
Sym=    10a  
Ene=     0.1294
Spin= Alpha
Occup=    0.00000
   1         0.02879859
   2         0.36434206
   3         0.00000000
   4        -0.00000000
   5         0.84902928
   6        -0.02879859
   7        -0.36434206
   8        -0.00000000
   9        -0.00000000
  10         0.84902928
Sym=    10a  
Ene=     0.1294
Spin= Beta
Occup=    0.00000
   1         0.02879859
   2         0.36434206
   3         0.00000000
   4        -0.00000000
   5         0.84902928
   6        -0.02879859
   7        -0.36434206
   8        -0.00000000
   9        -0.00000000
  10         0.84902928
