[Molden Format]
[N_Atoms]
                     2
[Atoms] (AU)
BE1         1      4           0.00000000      0.00000000      0.00000000
N2          2      7           0.00000000      0.00000000      4.91328792
[Charge] (Mulliken)
  0.424292149671378     
 -0.424292149671401     
[GTO] (AU)
   1
   s  14
  2.262859900E+04  8.443999941E-05
  3.372318100E+03  4.601499968E-04
  7.603504000E+02  2.285389984E-03
  2.117404800E+02  9.648129932E-03
  6.722346800E+01  3.494469975E-02
  2.337217700E+01  1.061099893E-01
  8.721373000E+00  2.458240383E-01
  3.468091000E+00  3.862428773E-01
  1.452144000E+00  3.105526078E-01
  6.086150000E-01  6.415933955E-02
  2.576860000E-01 -2.265049984E-03
  1.041760000E-01 -5.217499963E-04
  4.242700000E-02 -8.757499938E-04
  1.484900000E-02  1.242199991E-04
   s  14
  2.262859900E+04 -1.586999994E-05
  3.372318100E+03 -8.656999968E-05
  7.603504000E+02 -4.302199984E-04
  2.117404800E+02 -1.825079993E-03
  6.722346800E+01 -6.682749976E-03
  2.337217700E+01 -2.095119992E-02
  8.721373000E+00 -5.200308981E-02
  3.468091000E+00 -9.849176964E-02
  1.452144000E+00 -1.355800695E-01
  6.086150000E-01 -6.429875976E-02
  2.576860000E-01  3.125414989E-01
  1.041760000E-01  6.270468577E-01
  4.242700000E-02  2.110231492E-01
  1.484900000E-02 -4.104669985E-03
   p   9
  3.371018400E+01  1.069960000E-03
  8.057649500E+00  6.828550001E-03
  2.836471400E+00  2.119065000E-02
  1.099965700E+00  5.843696001E-02
  4.433964000E-01  2.020920800E-01
  1.822264000E-01  4.582953101E-01
  7.572410000E-02  3.691239601E-01
  3.168540000E-02  6.611471001E-02
  1.108990000E-02  1.405160000E-03
 
   2
   s  14
  7.476171500E+04  1.182599996E-04
  1.112365400E+04  5.172899983E-04
  2.512685700E+03  2.266659992E-03
  7.037772900E+02  9.145289970E-03
  2.254787900E+02  3.239342989E-02
  7.961581000E+01  9.770792967E-02
  3.023728300E+01  2.317036792E-01
  1.226362200E+01  3.768898887E-01
  5.265086000E+00  3.177420689E-01
  2.333471000E+00  8.211308973E-02
  9.018560000E-01  3.312089989E-03
  3.583360000E-01  3.720819988E-03
  1.410930000E-01  3.165419989E-03
  4.938300000E-02  4.595799985E-04
   s  14
  7.476171500E+04 -2.707000010E-05
  1.112365400E+04 -1.183700004E-04
  2.512685700E+03 -5.203800020E-04
  7.037772900E+02 -2.102930008E-03
  2.254787900E+02 -7.568200028E-03
  7.961581000E+01 -2.346767009E-02
  3.023728300E+01 -6.042901023E-02
  1.226362200E+01 -1.170549104E-01
  5.265086000E+00 -1.555321506E-01
  2.333471000E+00 -2.468935009E-02
  9.018560000E-01  3.625054514E-01
  3.583360000E-01  5.550845021E-01
  1.410930000E-01  2.148376908E-01
  4.938300000E-02  8.983850034E-03
   p   9
  1.266665700E+02  1.233630000E-03
  2.983738900E+01  9.493409996E-03
  9.394038000E+00  4.293961998E-02
  3.405104000E+00  1.362925399E-01
  1.350000000E+00  2.921362499E-01
  5.576960000E-01  3.887887598E-01
  2.324490000E-01  2.946801399E-01
  9.426400000E-02  8.012875997E-02
  3.299200000E-02  5.405199998E-04
 
[MO]
Sym=     1a  
Ene=   -15.2860
Spin= Alpha
Occup=    2.00000
   1        -0.00004678
   2        -0.00062469
   3         0.00000001
   4         0.00000000
   5        -0.00079991
   6         1.00001312
   7        -0.00467592
   8         0.00000001
   9         0.00000000
  10        -0.00018072
Sym=     2a  
Ene=    -4.8606
Spin= Alpha
Occup=    2.00000
   1         0.99999535
   2         0.00310677
   3         0.00000006
   4         0.00000002
   5         0.00030165
   6        -0.00002034
   7        -0.00001403
   8        -0.00000003
   9        -0.00000001
  10         0.00001632
Sym=     3a  
Ene=    -0.7765
Spin= Alpha
Occup=    2.00000
   1        -0.00414865
   2         0.04935655
   3         0.00000348
   4         0.00000087
   5         0.04897886
   6         0.00328352
   7         0.97922483
   8        -0.00000182
   9        -0.00000045
  10        -0.02222765
Sym=     4a  
Ene=    -0.2219
Spin= Alpha
Occup=    2.00000
   1        -0.00000000
   2         0.00000068
   3        -0.07966302
   4         0.32451928
   5         0.00000009
   6        -0.00000001
   7        -0.00000016
   8        -0.21864012
   9         0.89066339
  10        -0.00000022
Sym=     5a  
Ene=    -0.2219
Spin= Alpha
Occup=    2.00000
   1         0.00000004
   2         0.00000102
   3         0.32451940
   4         0.07966305
   5         0.00000186
   6        -0.00000006
   7        -0.00000025
   8         0.89066334
   9         0.21864011
  10         0.00000366
Sym=     6a  
Ene=    -0.2277
Spin= Alpha
Occup=    1.00000
   1         0.00284788
   2        -0.98434355
   3         0.00000018
   4         0.00000045
   5         0.17177303
   6         0.00733893
   7         0.13731244
   8        -0.00000013
   9         0.00000053
  10         0.03546792
Sym=     7a  
Ene=    -0.0000
Spin= Alpha
Occup=    0.00000
   1         0.00016793
   2         0.00496946
   3        -0.91792892
   4        -0.22673105
   5         0.01348294
   6        -0.00035961
   7        -0.00403513
   8         0.39415462
   9         0.09735731
  10         0.01642834
Sym=     8a  
Ene=     0.0492
Spin= Alpha
Occup=    0.00000
   1        -0.00000001
   2         0.00000006
   3         0.22677173
   4        -0.91809357
   5         0.00000172
   6        -0.00000004
   7        -0.00000050
   8        -0.09737476
   9         0.39422526
  10        -0.00000056
Sym=     9a  
Ene=     0.0552
Spin= Alpha
Occup=    0.00000
   1         0.00227979
   2        -0.13806276
   3        -0.00536634
   4        -0.00132721
   5        -0.93092718
   6         0.02268220
   7         0.29376100
   8         0.00230443
   9         0.00057024
  10         0.25847694
Sym=    10a  
Ene=     0.3365
Spin= Alpha
Occup=    0.00000
   1         0.01005820
   2         0.23103706
   3         0.01653601
   4         0.00408440
   5         0.44627000
   6        -0.01260095
   7        -0.12885734
   8        -0.00710437
   9        -0.00175465
  10         0.99577318
