[Molden Format]
[N_Atoms]
                     2
[Atoms] (AU)
BE1         1      4           0.00000000      0.00000000      0.00000000
N2          2      7           0.00000000      0.00000000      4.91328792
[Charge] (Mulliken)
 -6.635415957879331E-002
  6.635415957875423E-002
[GTO] (AU)
   1
   s  14
  2.262859900E+04  8.443999941E-05
  3.372318100E+03  4.601499968E-04
  7.603504000E+02  2.285389984E-03
  2.117404800E+02  9.648129932E-03
  6.722346800E+01  3.494469975E-02
  2.337217700E+01  1.061099893E-01
  8.721373000E+00  2.458240383E-01
  3.468091000E+00  3.862428773E-01
  1.452144000E+00  3.105526078E-01
  6.086150000E-01  6.415933955E-02
  2.576860000E-01 -2.265049984E-03
  1.041760000E-01 -5.217499963E-04
  4.242700000E-02 -8.757499938E-04
  1.484900000E-02  1.242199991E-04
   s  14
  2.262859900E+04 -1.586999994E-05
  3.372318100E+03 -8.656999968E-05
  7.603504000E+02 -4.302199984E-04
  2.117404800E+02 -1.825079993E-03
  6.722346800E+01 -6.682749976E-03
  2.337217700E+01 -2.095119992E-02
  8.721373000E+00 -5.200308981E-02
  3.468091000E+00 -9.849176964E-02
  1.452144000E+00 -1.355800695E-01
  6.086150000E-01 -6.429875976E-02
  2.576860000E-01  3.125414989E-01
  1.041760000E-01  6.270468577E-01
  4.242700000E-02  2.110231492E-01
  1.484900000E-02 -4.104669985E-03
   p   9
  3.371018400E+01  1.069960000E-03
  8.057649500E+00  6.828550001E-03
  2.836471400E+00  2.119065000E-02
  1.099965700E+00  5.843696001E-02
  4.433964000E-01  2.020920800E-01
  1.822264000E-01  4.582953101E-01
  7.572410000E-02  3.691239601E-01
  3.168540000E-02  6.611471001E-02
  1.108990000E-02  1.405160000E-03
 
   2
   s  14
  7.476171500E+04  1.182599996E-04
  1.112365400E+04  5.172899983E-04
  2.512685700E+03  2.266659992E-03
  7.037772900E+02  9.145289970E-03
  2.254787900E+02  3.239342989E-02
  7.961581000E+01  9.770792967E-02
  3.023728300E+01  2.317036792E-01
  1.226362200E+01  3.768898887E-01
  5.265086000E+00  3.177420689E-01
  2.333471000E+00  8.211308973E-02
  9.018560000E-01  3.312089989E-03
  3.583360000E-01  3.720819988E-03
  1.410930000E-01  3.165419989E-03
  4.938300000E-02  4.595799985E-04
   s  14
  7.476171500E+04 -2.707000010E-05
  1.112365400E+04 -1.183700004E-04
  2.512685700E+03 -5.203800020E-04
  7.037772900E+02 -2.102930008E-03
  2.254787900E+02 -7.568200028E-03
  7.961581000E+01 -2.346767009E-02
  3.023728300E+01 -6.042901023E-02
  1.226362200E+01 -1.170549104E-01
  5.265086000E+00 -1.555321506E-01
  2.333471000E+00 -2.468935009E-02
  9.018560000E-01  3.625054514E-01
  3.583360000E-01  5.550845021E-01
  1.410930000E-01  2.148376908E-01
  4.938300000E-02  8.983850034E-03
   p   9
  1.266665700E+02  1.233630000E-03
  2.983738900E+01  9.493409996E-03
  9.394038000E+00  4.293961998E-02
  3.405104000E+00  1.362925399E-01
  1.350000000E+00  2.921362499E-01
  5.576960000E-01  3.887887598E-01
  2.324490000E-01  2.946801399E-01
  9.426400000E-02  8.012875997E-02
  3.299200000E-02  5.405199998E-04
 
[MO]
Sym=     1a  
Ene=   -15.6330
Spin= Alpha
Occup=    1.00000
   1        -0.00005186
   2        -0.00067362
   3         0.00000000
   4        -0.00000000
   5        -0.00080582
   6         1.00001508
   7        -0.00440125
   8         0.00000000
   9        -0.00000000
  10        -0.00035926
Sym=     1a  
Ene=   -15.6000
Spin= Beta
Occup=    1.00000
   1        -0.00004213
   2        -0.00046818
   3         0.00000000
   4         0.00000000
   5        -0.00051091
   6         0.99999298
   7        -0.00676041
   8         0.00000000
   9         0.00000000
  10        -0.00025885
Sym=     2a  
Ene=    -4.6733
Spin= Alpha
Occup=    1.00000
   1         0.99999734
   2         0.00219226
   3         0.00000000
   4         0.00000000
   5         0.00089372
   6        -0.00002149
   7        -0.00010250
   8        -0.00000000
   9        -0.00000000
  10        -0.00002362
Sym=     2a  
Ene=    -4.6727
Spin= Beta
Occup=    1.00000
   1         0.99999625
   2         0.00233350
   3        -0.00000000
   4        -0.00000000
   5         0.00059887
   6        -0.00001677
   7        -0.00002928
   8         0.00000000
   9         0.00000000
  10        -0.00009202
Sym=     3a  
Ene=    -1.0366
Spin= Alpha
Occup=    1.00000
   1        -0.00397562
   2         0.00658025
   3        -0.00000000
   4        -0.00000000
   5         0.00484156
   6         0.00449163
   7         0.99771308
   8        -0.00000000
   9        -0.00000000
  10        -0.02055819
Sym=     3a  
Ene=    -0.8925
Spin= Beta
Occup=    1.00000
   1        -0.00391270
   2         0.02416740
   3         0.00000000
   4         0.00000000
   5         0.02238858
   6         0.00615466
   7         0.99095060
   8         0.00000000
   9         0.00000000
  10        -0.00961915
Sym=     4a  
Ene=    -0.5550
Spin= Alpha
Occup=    1.00000
   1         0.00000000
   2        -0.00000000
   3        -0.00369708
   4         0.01603287
   5        -0.00000000
   6         0.00000000
   7         0.00000000
   8        -0.22438172
   9         0.97306140
  10         0.00000000
Sym=     4a  
Ene=    -0.4516
Spin= Beta
Occup=    1.00000
   1         0.01004886
   2        -0.21886209
   3        -0.00000000
   4        -0.00000000
   5        -0.08351319
   6         0.00462146
   7         0.07193729
   8        -0.00000000
   9        -0.00000000
  10         0.92833177
Sym=     5a  
Ene=    -0.4954
Spin= Alpha
Occup=    1.00000
   1         0.01010366
   2        -0.17124526
   3         0.00000000
   4         0.00000000
   5        -0.07748851
   6         0.00386384
   7         0.06435623
   8         0.00000000
   9         0.00000000
  10         0.94539515
Sym=     5a  
Ene=    -0.2653
Spin= Beta
Occup=    1.00000
   1         0.00139440
   2         0.97595120
   3        -0.00000000
   4        -0.00000000
   5        -0.17118860
   6        -0.00722741
   7        -0.10884743
   8        -0.00000000
   9        -0.00000000
  10         0.30110187
Sym=     6a  
Ene=    -0.2646
Spin= Alpha
Occup=    1.00000
   1         0.00147539
   2         1.00486710
   3         0.00000000
   4         0.00000000
   5        -0.01988070
   6        -0.01071442
   7        -0.13485422
   8         0.00000000
   9         0.00000000
  10         0.30007401
Sym=     6a  
Ene=     0.0803
Spin= Beta
Occup=    0.00000
   1         0.00000000
   2         0.00000000
   3         0.54143705
   4         0.12485191
   5        -0.00000000
   6         0.00000000
   7         0.00000000
   8         0.76948796
   9         0.17743899
  10         0.00000000
Sym=     7a  
Ene=     0.0509
Spin= Alpha
Occup=    0.00000
   1        -0.00000000
   2        -0.00000000
   3         0.35315375
   4         0.08143499
   5         0.00000000
   6        -0.00000000
   7        -0.00000000
   8         0.88136094
   9         0.20323618
  10        -0.00000000
Sym=     7a  
Ene=     0.1094
Spin= Beta
Occup=    0.00000
   1         0.00000000
   2         0.00000000
   3        -0.19979648
   4         0.86644422
   5         0.00000000
   6        -0.00000000
   7        -0.00000000
   8        -0.08855410
   9         0.38402674
  10         0.00000000
Sym=     8a  
Ene=     0.1239
Spin= Alpha
Occup=    0.00000
   1         0.00000000
   2        -0.00000000
   3        -0.22533754
   4         0.97720646
   5         0.00000000
   6        -0.00000000
   7        -0.00000000
   8         0.02105993
   9        -0.09132919
  10         0.00000000
Sym=     8a  
Ene=     0.1453
Spin= Beta
Occup=    0.00000
   1        -0.00000000
   2        -0.00000000
   3        -0.81365559
   4        -0.18762376
   5        -0.00000000
   6         0.00000000
   7         0.00000000
   8         0.60255937
   9         0.13894633
  10        -0.00000000
Sym=     9a  
Ene=     0.1348
Spin= Alpha
Occup=    0.00000
   1        -0.00000000
   2         0.00000000
   3        -0.91130233
   4        -0.21014047
   5         0.00000000
   6        -0.00000000
   7        -0.00000000
   8         0.42236525
   9         0.09739472
  10        -0.00000000
Sym=     9a  
Ene=     0.1720
Spin= Beta
Occup=    0.00000
   1         0.00342001
   2         0.20705410
   3        -0.00000000
   4        -0.00000000
   5         1.03009120
   6        -0.02582335
   7        -0.28569624
   8         0.00000000
   9         0.00000000
  10         0.32839259
Sym=    10a  
Ene=     0.1667
Spin= Alpha
Occup=    0.00000
   1         0.00277014
   2         0.06863740
   3         0.00000000
   4         0.00000000
   5         1.04472252
   6        -0.02417075
   7        -0.25079015
   8        -0.00000000
   9        -0.00000000
  10         0.27596618
Sym=    10a  
Ene=     0.1913
Spin= Beta
Occup=    0.00000
   1         0.00000000
   2         0.00000000
   3         0.10426909
   4        -0.45217687
   5         0.00000000
   6        -0.00000000
   7        -0.00000000
   8        -0.20724104
   9         0.89872853
  10         0.00000000
