[Molden Format]
[N_Atoms]
                     2
[Atoms] (AU)
C1          1      6           0.00000000      0.00000000      0.00000000
LI2         2      3           0.00000000      0.00000000      2.45664396
[Charge] (Mulliken)
 -0.361577826739726     
  0.361577826739714     
[GTO] (AU)
   1
   s  14
  5.055750100E+04  1.128874000E-04
  7.524785600E+03  5.295373000E-04
  1.694327600E+03  2.450038300E-03
  4.728227900E+02  1.005398470E-02
  1.517107500E+02  3.545398060E-02
  5.391874600E+01  1.044071086E-01
  2.065931100E+01  2.412894918E-01
  8.383976000E+00  3.834225483E-01
  3.577015000E+00  3.078514393E-01
  1.547118000E+00  6.872442990E-02
  6.130130000E-01  2.224445000E-04
  2.460680000E-01  1.976748900E-03
  9.908700000E-02  2.057859400E-03
  3.468000000E-02  4.182020000E-04
   s  14
  5.055750100E+04 -2.507420000E-05
  7.524785600E+03 -1.175945000E-04
  1.694327600E+03 -5.456275000E-04
  4.728227900E+02 -2.245077100E-03
  1.517107500E+02 -8.043471800E-03
  5.391874600E+01 -2.442588710E-02
  2.065931100E+01 -6.136791180E-02
  8.383976000E+00 -1.177767835E-01
  3.577015000E+00 -1.550487783E-01
  1.547118000E+00 -1.933316860E-02
  6.130130000E-01  3.996930678E-01
  2.460680000E-01  5.589420949E-01
  9.908700000E-02  1.711195023E-01
  3.468000000E-02  7.456244600E-03
   p   9
  8.333315500E+01  1.344656000E-03
  1.955761100E+01  1.023555500E-02
  6.080365000E+00  4.520067100E-02
  2.179317000E+00  1.410756198E-01
  8.651500000E-01  3.047388085E-01
  3.619440000E-01  3.995281011E-01
  1.547400000E-01  2.719163432E-01
  6.542900000E-02  5.857669330E-02
  2.290000000E-02 -1.263813000E-04
 
   2
   s  14
  9.497934400E+03  9.668999974E-05
  1.416811200E+03  6.087099984E-04
  3.214599400E+02  3.101519992E-03
  9.112416300E+01  1.266904997E-02
  2.999989100E+01  4.248012989E-02
  1.101763100E+01  1.150183297E-01
  4.372801000E+00  2.398650094E-01
  1.831256000E+00  3.584300090E-01
  8.022610000E-01  3.048527792E-01
  3.626480000E-01  8.824261976E-02
  1.139950000E-01 -8.445899977E-04
  5.123700000E-02 -7.943959979E-03
  2.246800000E-02 -3.764419990E-03
  7.860000000E-03 -8.868999976E-05
   s  14
  9.497934400E+03 -1.244999993E-05
  1.416811200E+03 -7.838999954E-05
  3.214599400E+02 -4.007099976E-04
  9.112416300E+01 -1.645249990E-03
  2.999989100E+01 -5.634599967E-03
  1.101763100E+01 -1.590780991E-02
  4.372801000E+00 -3.612581979E-02
  1.831256000E+00 -6.459927962E-02
  8.022610000E-01 -1.008321794E-01
  3.626480000E-01 -9.757613942E-02
  1.139950000E-01  2.301215886E-01
  5.123700000E-02  6.102389764E-01
  2.246800000E-02  2.849406083E-01
  7.860000000E-03  4.026899976E-03
   p   9
  1.311950400E+01  1.524940000E-03
  3.077424200E+00  8.314830000E-03
  1.098800500E+00  1.933203000E-02
  4.357784000E-01  4.934293000E-02
  1.802432000E-01  1.623554000E-01
  7.613330000E-02  3.847505400E-01
  3.254650000E-02  4.336100400E-01
  1.401820000E-02  1.287005900E-01
  4.906400000E-03 -1.018520000E-03
 
[MO]
Sym=     1a  
Ene=   -11.2200
Spin= Alpha
Occup=    1.00000
   1         1.00028376
   2         0.00158697
   3        -0.00000000
   4         0.00000000
   5         0.00090807
   6        -0.00099360
   7        -0.00232667
   8        -0.00000000
   9        -0.00000000
  10         0.00151114
Sym=     1a  
Ene=   -11.1940
Spin= Beta
Occup=    1.00000
   1         1.00017566
   2        -0.00171210
   3         0.00000000
   4        -0.00000000
   5         0.00075643
   6        -0.00051947
   7        -0.00157034
   8        -0.00000000
   9        -0.00000000
  10         0.00089472
Sym=     2a  
Ene=    -2.5532
Spin= Alpha
Occup=    1.00000
   1        -0.00677549
   2         0.02919019
   3         0.00000000
   4        -0.00000000
   5         0.01941710
   6         0.98933364
   7         0.00543337
   8        -0.00000000
   9         0.00000000
  10         0.00050028
Sym=     2a  
Ene=    -2.5530
Spin= Beta
Occup=    1.00000
   1        -0.00663257
   2         0.02386826
   3         0.00000000
   4        -0.00000000
   5         0.01766224
   6         0.99085339
   7         0.00579874
   8        -0.00000000
   9         0.00000000
  10         0.00047895
Sym=     3a  
Ene=    -0.7449
Spin= Alpha
Occup=    1.00000
   1        -0.00472789
   2         0.97196448
   3        -0.00000000
   4        -0.00000000
   5         0.08091885
   6        -0.21449923
   7         0.02097311
   8         0.00000000
   9        -0.00000000
  10        -0.06040698
Sym=     3a  
Ene=    -0.6136
Spin= Beta
Occup=    1.00000
   1        -0.00796174
   2         0.93028304
   3        -0.00000000
   4         0.00000000
   5         0.09655215
   6        -0.20699324
   7         0.06318284
   8         0.00000000
   9        -0.00000000
  10        -0.09567996
Sym=     4a  
Ene=    -0.3864
Spin= Alpha
Occup=    1.00000
   1        -0.00000000
   2        -0.00000000
   3        -0.15585456
   4         0.90386900
   5        -0.00000000
   6         0.00000000
   7         0.00000000
   8        -0.03110289
   9         0.18037930
  10        -0.00000000
Sym=     4a  
Ene=    -0.2640
Spin= Beta
Occup=    1.00000
   1         0.00000000
   2         0.00000000
   3         0.76407927
   4         0.13175055
   5        -0.00000000
   6        -0.00000000
   7        -0.00000000
   8         0.39951774
   9         0.06888903
  10         0.00000000
Sym=     5a  
Ene=    -0.3304
Spin= Alpha
Occup=    1.00000
   1         0.00000000
   2         0.00000000
   3         0.86862805
   4         0.14977794
   5        -0.00000000
   6        -0.00000000
   7        -0.00000000
   8         0.24310696
   9         0.04191905
  10         0.00000000
Sym=     5a  
Ene=     0.0151
Spin= Beta
Occup=    0.00000
   1        -0.00094797
   2        -0.10958120
   3        -0.00000000
   4         0.00000000
   5         0.01128000
   6         0.00754000
   7         0.81907841
   8         0.00000000
   9         0.00000000
  10         0.57977657
Sym=     6a  
Ene=     0.0155
Spin= Alpha
Occup=    0.00000
   1        -0.00324821
   2        -0.11425129
   3        -0.00000000
   4        -0.00000000
   5         0.03157078
   6         0.00218621
   7         0.83097390
   8         0.00000000
   9        -0.00000000
  10         0.55933137
Sym=     6a  
Ene=     0.0396
Spin= Beta
Occup=    0.00000
   1        -0.00000000
   2        -0.00000000
   3        -0.04945598
   4         0.28681692
   5        -0.00000000
   6         0.00000000
   7        -0.00000000
   8        -0.14516505
   9         0.84187589
  10        -0.00000000
Sym=     7a  
Ene=     0.1242
Spin= Alpha
Occup=    0.00000
   1         0.00000000
   2         0.00000000
   3         0.09616676
   4        -0.55771327
   5         0.00000000
   6        -0.00000000
   7        -0.00000000
   8        -0.18047520
   9         1.04665495
  10         0.00000000
Sym=     7a  
Ene=     0.1669
Spin= Beta
Occup=    0.00000
   1        -0.00000000
   2        -0.00000000
   3        -0.73770328
   4        -0.12720252
   5        -0.00000000
   6         0.00000000
   7         0.00000000
   8         0.98407766
   9         0.16968497
  10        -0.00000000
Sym=     8a  
Ene=     0.1442
Spin= Alpha
Occup=    0.00000
   1        -0.00000000
   2        -0.00000000
   3        -0.61115348
   4        -0.10538148
   5         0.00000000
   6         0.00000000
   7         0.00000000
   8         1.03388697
   9         0.17827362
  10        -0.00000000
Sym=     8a  
Ene=     0.1927
Spin= Beta
Occup=    0.00000
   1         0.05329944
   2         0.34078676
   3        -0.00000000
   4        -0.00000000
   5         1.00357162
   6        -0.33851895
   7        -0.44566762
   8         0.00000000
   9         0.00000000
  10         0.27408087
Sym=     9a  
Ene=     0.1593
Spin= Alpha
Occup=    0.00000
   1         0.02231698
   2         0.13124988
   3         0.00000000
   4         0.00000000
   5         1.04641392
   6        -0.31715470
   7        -0.28236452
   8        -0.00000000
   9        -0.00000000
  10         0.03741939
Sym=     9a  
Ene=     0.2237
Spin= Beta
Occup=    0.00000
   1         0.14185992
   2         1.02150903
   3        -0.00000000
   4        -0.00000000
   5        -0.30778018
   6        -0.08343849
   7        -0.79431595
   8         0.00000000
   9         0.00000000
  10         1.04954855
Sym=    10a  
Ene=     0.2048
Spin= Alpha
Occup=    0.00000
   1         0.14926563
   2         1.03042423
   3        -0.00000000
   4         0.00000000
   5        -0.09349981
   6        -0.14445408
   7        -0.85659379
   8         0.00000000
   9        -0.00000000
  10         1.09729928
Sym=    10a  
Ene=     0.2942
Spin= Beta
Occup=    0.00000
   1        -0.00000000
   2        -0.00000000
   3         0.17633149
   4        -1.02262374
   5         0.00000000
   6         0.00000000
   7         0.00000000
   8        -0.11165033
   9         0.64750927
  10        -0.00000000
