[Molden Format]
[N_Atoms]
                     2
[Atoms] (AU)
H1          1      1           0.00000000      0.00000000      0.00000000
LI2         2      3           0.00000000      0.00000000      1.88972612
[Charge] (Mulliken)
 -0.352857017616274     
  0.352857017616270     
[GTO] (AU)
   1
   s   8
  1.886144500E+02  9.638500027E-04
  2.827659600E+01  7.491960021E-03
  6.424830000E+00  3.759541011E-02
  1.815041000E+00  1.433949804E-01
  5.910630000E-01  3.486363010E-01
  2.121490000E-01  4.382973612E-01
  7.989100000E-02  1.651066105E-01
  2.796200000E-02  2.102287006E-02
 
   2
   s  14
  9.497934400E+03  9.668999974E-05
  1.416811200E+03  6.087099984E-04
  3.214599400E+02  3.101519992E-03
  9.112416300E+01  1.266904997E-02
  2.999989100E+01  4.248012989E-02
  1.101763100E+01  1.150183297E-01
  4.372801000E+00  2.398650094E-01
  1.831256000E+00  3.584300090E-01
  8.022610000E-01  3.048527792E-01
  3.626480000E-01  8.824261976E-02
  1.139950000E-01 -8.445899977E-04
  5.123700000E-02 -7.943959979E-03
  2.246800000E-02 -3.764419990E-03
  7.860000000E-03 -8.868999976E-05
   s  14
  9.497934400E+03 -1.244999993E-05
  1.416811200E+03 -7.838999954E-05
  3.214599400E+02 -4.007099976E-04
  9.112416300E+01 -1.645249990E-03
  2.999989100E+01 -5.634599967E-03
  1.101763100E+01 -1.590780991E-02
  4.372801000E+00 -3.612581979E-02
  1.831256000E+00 -6.459927962E-02
  8.022610000E-01 -1.008321794E-01
  3.626480000E-01 -9.757613942E-02
  1.139950000E-01  2.301215886E-01
  5.123700000E-02  6.102389764E-01
  2.246800000E-02  2.849406083E-01
  7.860000000E-03  4.026899976E-03
   p   9
  1.311950400E+01  1.524940000E-03
  3.077424200E+00  8.314830000E-03
  1.098800500E+00  1.933203000E-02
  4.357784000E-01  4.934293000E-02
  1.802432000E-01  1.623554000E-01
  7.613330000E-02  3.847505400E-01
  3.254650000E-02  4.336100400E-01
  1.401820000E-02  1.287005900E-01
  4.906400000E-03 -1.018520000E-03
 
[MO]
Sym=     1a  
Ene=    -2.4698
Spin= Alpha
Occup=    1.00000
   1         0.02016344
   2         0.99461894
   3         0.00658169
   4        -0.00000000
   5        -0.00000000
   6         0.00501319
Sym=     1a  
Ene=    -2.4698
Spin= Beta
Occup=    1.00000
   1         0.02016344
   2         0.99461894
   3         0.00658169
   4        -0.00000000
   5        -0.00000000
   6         0.00501319
Sym=     2a  
Ene=    -0.3238
Spin= Alpha
Occup=    1.00000
   1        -0.72466267
   2         0.20486293
   3        -0.29379434
   4        -0.00000000
   5         0.00000000
   6         0.23466211
Sym=     2a  
Ene=    -0.3238
Spin= Beta
Occup=    1.00000
   1        -0.72466267
   2         0.20486293
   3        -0.29379434
   4        -0.00000000
   5         0.00000000
   6         0.23466211
Sym=     3a  
Ene=     0.0176
Spin= Alpha
Occup=    0.00000
   1        -0.13430799
   2         0.02687175
   3         0.74732597
   4         0.00000000
   5        -0.00000000
   6         0.66909585
Sym=     3a  
Ene=     0.0176
Spin= Beta
Occup=    0.00000
   1        -0.13430799
   2         0.02687175
   3         0.74732597
   4         0.00000000
   5        -0.00000000
   6         0.66909585
Sym=     4a  
Ene=     0.0696
Spin= Alpha
Occup=    0.00000
   1        -0.00000000
   2         0.00000000
   3         0.00000000
   4         0.10952485
   5         0.99398406
   6        -0.00000000
Sym=     4a  
Ene=     0.0696
Spin= Beta
Occup=    0.00000
   1        -0.00000000
   2         0.00000000
   3         0.00000000
   4         0.10952485
   5         0.99398406
   6        -0.00000000
Sym=     5a  
Ene=     0.0696
Spin= Alpha
Occup=    0.00000
   1         0.00000000
   2        -0.00000000
   3        -0.00000000
   4         0.99398406
   5        -0.10952485
   6        -0.00000000
Sym=     5a  
Ene=     0.0696
Spin= Beta
Occup=    0.00000
   1         0.00000000
   2        -0.00000000
   3        -0.00000000
   4         0.99398406
   5        -0.10952485
   6        -0.00000000
Sym=     6a  
Ene=     0.3216
Spin= Alpha
Occup=    0.00000
   1         1.23966483
   2        -0.32076832
   3        -0.94662388
   4        -0.00000000
   5         0.00000000
   6         0.94961466
Sym=     6a  
Ene=     0.3216
Spin= Beta
Occup=    0.00000
   1         1.23966483
   2        -0.32076832
   3        -0.94662388
   4        -0.00000000
   5         0.00000000
   6         0.94961466
