[Molden Format]
[N_Atoms]
                     2
[Atoms] (AU)
C1          1      6           0.00000000      0.00000000      0.00000000
C2          2      6           0.00000000      0.00000000      1.51178090
[Charge] (Mulliken)
  2.131628207280301E-013
 -2.167155344068306E-013
[GTO] (AU)
   1
   s  14
  5.055750100E+04  1.128874000E-04
  7.524785600E+03  5.295373000E-04
  1.694327600E+03  2.450038300E-03
  4.728227900E+02  1.005398470E-02
  1.517107500E+02  3.545398060E-02
  5.391874600E+01  1.044071086E-01
  2.065931100E+01  2.412894918E-01
  8.383976000E+00  3.834225483E-01
  3.577015000E+00  3.078514393E-01
  1.547118000E+00  6.872442990E-02
  6.130130000E-01  2.224445000E-04
  2.460680000E-01  1.976748900E-03
  9.908700000E-02  2.057859400E-03
  3.468000000E-02  4.182020000E-04
   s  14
  5.055750100E+04 -2.507420000E-05
  7.524785600E+03 -1.175945000E-04
  1.694327600E+03 -5.456275000E-04
  4.728227900E+02 -2.245077100E-03
  1.517107500E+02 -8.043471800E-03
  5.391874600E+01 -2.442588710E-02
  2.065931100E+01 -6.136791180E-02
  8.383976000E+00 -1.177767835E-01
  3.577015000E+00 -1.550487783E-01
  1.547118000E+00 -1.933316860E-02
  6.130130000E-01  3.996930678E-01
  2.460680000E-01  5.589420949E-01
  9.908700000E-02  1.711195023E-01
  3.468000000E-02  7.456244600E-03
   p   9
  8.333315500E+01  1.344656000E-03
  1.955761100E+01  1.023555500E-02
  6.080365000E+00  4.520067100E-02
  2.179317000E+00  1.410756198E-01
  8.651500000E-01  3.047388085E-01
  3.619440000E-01  3.995281011E-01
  1.547400000E-01  2.719163432E-01
  6.542900000E-02  5.857669330E-02
  2.290000000E-02 -1.263813000E-04
 
   2
   s  14
  5.055750100E+04  1.128874000E-04
  7.524785600E+03  5.295373000E-04
  1.694327600E+03  2.450038300E-03
  4.728227900E+02  1.005398470E-02
  1.517107500E+02  3.545398060E-02
  5.391874600E+01  1.044071086E-01
  2.065931100E+01  2.412894918E-01
  8.383976000E+00  3.834225483E-01
  3.577015000E+00  3.078514393E-01
  1.547118000E+00  6.872442990E-02
  6.130130000E-01  2.224445000E-04
  2.460680000E-01  1.976748900E-03
  9.908700000E-02  2.057859400E-03
  3.468000000E-02  4.182020000E-04
   s  14
  5.055750100E+04 -2.507420000E-05
  7.524785600E+03 -1.175945000E-04
  1.694327600E+03 -5.456275000E-04
  4.728227900E+02 -2.245077100E-03
  1.517107500E+02 -8.043471800E-03
  5.391874600E+01 -2.442588710E-02
  2.065931100E+01 -6.136791180E-02
  8.383976000E+00 -1.177767835E-01
  3.577015000E+00 -1.550487783E-01
  1.547118000E+00 -1.933316860E-02
  6.130130000E-01  3.996930678E-01
  2.460680000E-01  5.589420949E-01
  9.908700000E-02  1.711195023E-01
  3.468000000E-02  7.456244600E-03
   p   9
  8.333315500E+01  1.344656000E-03
  1.955761100E+01  1.023555500E-02
  6.080365000E+00  4.520067100E-02
  2.179317000E+00  1.410756198E-01
  8.651500000E-01  3.047388085E-01
  3.619440000E-01  3.995281011E-01
  1.547400000E-01  2.719163432E-01
  6.542900000E-02  5.857669330E-02
  2.290000000E-02 -1.263813000E-04
 
[MO]
Sym=     1a  
Ene=   -11.7460
Spin= Alpha
Occup=    1.00000
   1         0.70196968
   2        -0.00226746
   3        -0.00000000
   4         0.00000000
   5         0.00903865
   6         0.70196968
   7        -0.00226746
   8         0.00000000
   9         0.00000000
  10        -0.00903865
Sym=     1a  
Ene=   -11.7460
Spin= Beta
Occup=    1.00000
   1         0.70196968
   2        -0.00226746
   3        -0.00000000
   4         0.00000000
   5         0.00903865
   6         0.70196968
   7        -0.00226746
   8         0.00000000
   9         0.00000000
  10        -0.00903865
Sym=     2a  
Ene=   -11.6680
Spin= Alpha
Occup=    1.00000
   1        -0.71455939
   2        -0.01255261
   3        -0.00000000
   4        -0.00000000
   5        -0.00906353
   6         0.71455939
   7         0.01255261
   8         0.00000000
   9         0.00000000
  10        -0.00906353
Sym=     2a  
Ene=   -11.6680
Spin= Beta
Occup=    1.00000
   1        -0.71455939
   2        -0.01255261
   3        -0.00000000
   4        -0.00000000
   5        -0.00906353
   6         0.71455939
   7         0.01255261
   8         0.00000000
   9         0.00000000
  10        -0.00906353
Sym=     3a  
Ene=    -1.3062
Spin= Alpha
Occup=    1.00000
   1        -0.14179783
   2         0.40647528
   3         0.00000000
   4        -0.00000000
   5         0.34100625
   6        -0.14179783
   7         0.40647528
   8         0.00000000
   9        -0.00000000
  10        -0.34100625
Sym=     3a  
Ene=    -1.3062
Spin= Beta
Occup=    1.00000
   1        -0.14179783
   2         0.40647528
   3         0.00000000
   4        -0.00000000
   5         0.34100625
   6        -0.14179783
   7         0.40647528
   8         0.00000000
   9        -0.00000000
  10        -0.34100625
Sym=     4a  
Ene=    -0.7212
Spin= Alpha
Occup=    1.00000
   1        -0.00000000
   2        -0.00000000
   3         0.12737153
   4         0.54315751
   5         0.00000000
   6        -0.00000000
   7         0.00000000
   8         0.12737153
   9         0.54315751
  10         0.00000000
Sym=     4a  
Ene=    -0.7212
Spin= Beta
Occup=    1.00000
   1        -0.00000000
   2        -0.00000000
   3         0.12737153
   4         0.54315751
   5         0.00000000
   6        -0.00000000
   7         0.00000000
   8         0.12737153
   9         0.54315751
  10         0.00000000
Sym=     5a  
Ene=    -0.7212
Spin= Alpha
Occup=    1.00000
   1         0.00000000
   2        -0.00000000
   3         0.54315751
   4        -0.12737153
   5         0.00000000
   6        -0.00000000
   7         0.00000000
   8         0.54315751
   9        -0.12737153
  10         0.00000000
Sym=     5a  
Ene=    -0.7212
Spin= Beta
Occup=    1.00000
   1         0.00000000
   2        -0.00000000
   3         0.54315751
   4        -0.12737153
   5         0.00000000
   6        -0.00000000
   7         0.00000000
   8         0.54315751
   9        -0.12737153
  10         0.00000000
Sym=     6a  
Ene=    -0.5129
Spin= Alpha
Occup=    1.00000
   1        -0.01077378
   2        -0.62235097
   3        -0.00000000
   4        -0.00000000
   5         0.37945060
   6         0.01077378
   7         0.62235097
   8        -0.00000000
   9         0.00000000
  10         0.37945060
Sym=     6a  
Ene=    -0.5129
Spin= Beta
Occup=    1.00000
   1        -0.01077378
   2        -0.62235097
   3        -0.00000000
   4        -0.00000000
   5         0.37945060
   6         0.01077378
   7         0.62235097
   8        -0.00000000
   9         0.00000000
  10         0.37945060
Sym=     7a  
Ene=    -0.1723
Spin= Alpha
Occup=    0.00000
   1         0.11143499
   2         0.42531054
   3         0.00000000
   4        -0.00000000
   5        -0.74543157
   6         0.11143499
   7         0.42531054
   8         0.00000000
   9         0.00000000
  10         0.74543157
Sym=     7a  
Ene=    -0.1723
Spin= Beta
Occup=    0.00000
   1         0.11143499
   2         0.42531054
   3         0.00000000
   4        -0.00000000
   5        -0.74543157
   6         0.11143499
   7         0.42531054
   8         0.00000000
   9         0.00000000
  10         0.74543157
Sym=     8a  
Ene=     0.3973
Spin= Alpha
Occup=    0.00000
   1        -0.00000000
   2        -0.00000000
   3        -1.11493906
   4         0.16560765
   5         0.00000000
   6         0.00000000
   7         0.00000000
   8         1.11493906
   9        -0.16560765
  10         0.00000000
Sym=     8a  
Ene=     0.3973
Spin= Beta
Occup=    0.00000
   1        -0.00000000
   2        -0.00000000
   3        -1.11493906
   4         0.16560765
   5         0.00000000
   6         0.00000000
   7         0.00000000
   8         1.11493906
   9        -0.16560765
  10         0.00000000
Sym=     9a  
Ene=     0.3973
Spin= Alpha
Occup=    0.00000
   1         0.00000000
   2         0.00000000
   3        -0.16560765
   4        -1.11493906
   5         0.00000000
   6        -0.00000000
   7        -0.00000000
   8         0.16560765
   9         1.11493906
  10         0.00000000
Sym=     9a  
Ene=     0.3973
Spin= Beta
Occup=    0.00000
   1         0.00000000
   2         0.00000000
   3        -0.16560765
   4        -1.11493906
   5         0.00000000
   6        -0.00000000
   7        -0.00000000
   8         0.16560765
   9         1.11493906
  10         0.00000000
Sym=    10a  
Ene=     2.3876
Spin= Alpha
Occup=    0.00000
   1         1.22486861
   2         4.49060939
   3        -0.00000000
   4         0.00000000
   5         2.32832066
   6        -1.22486861
   7        -4.49060939
   8         0.00000000
   9        -0.00000000
  10         2.32832066
Sym=    10a  
Ene=     2.3876
Spin= Beta
Occup=    0.00000
   1         1.22486861
   2         4.49060939
   3        -0.00000000
   4         0.00000000
   5         2.32832066
   6        -1.22486861
   7        -4.49060939
   8         0.00000000
   9        -0.00000000
  10         2.32832066
