[Molden Format]
[N_Atoms]
                     2
[Atoms] (AU)
C1          1      6           0.00000000      0.00000000      0.00000000
C2          2      6           0.00000000      0.00000000      1.51178090
[Charge] (Mulliken)
  0.000000000000000E+000
  0.000000000000000E+000
[GTO] (AU)
   1
   s  14
  5.055750100E+04  1.128874000E-04
  7.524785600E+03  5.295373000E-04
  1.694327600E+03  2.450038300E-03
  4.728227900E+02  1.005398470E-02
  1.517107500E+02  3.545398060E-02
  5.391874600E+01  1.044071086E-01
  2.065931100E+01  2.412894918E-01
  8.383976000E+00  3.834225483E-01
  3.577015000E+00  3.078514393E-01
  1.547118000E+00  6.872442990E-02
  6.130130000E-01  2.224445000E-04
  2.460680000E-01  1.976748900E-03
  9.908700000E-02  2.057859400E-03
  3.468000000E-02  4.182020000E-04
   s  14
  5.055750100E+04 -2.507420000E-05
  7.524785600E+03 -1.175945000E-04
  1.694327600E+03 -5.456275000E-04
  4.728227900E+02 -2.245077100E-03
  1.517107500E+02 -8.043471800E-03
  5.391874600E+01 -2.442588710E-02
  2.065931100E+01 -6.136791180E-02
  8.383976000E+00 -1.177767835E-01
  3.577015000E+00 -1.550487783E-01
  1.547118000E+00 -1.933316860E-02
  6.130130000E-01  3.996930678E-01
  2.460680000E-01  5.589420949E-01
  9.908700000E-02  1.711195023E-01
  3.468000000E-02  7.456244600E-03
   p   9
  8.333315500E+01  1.344656000E-03
  1.955761100E+01  1.023555500E-02
  6.080365000E+00  4.520067100E-02
  2.179317000E+00  1.410756198E-01
  8.651500000E-01  3.047388085E-01
  3.619440000E-01  3.995281011E-01
  1.547400000E-01  2.719163432E-01
  6.542900000E-02  5.857669330E-02
  2.290000000E-02 -1.263813000E-04
 
   2
   s  14
  5.055750100E+04  1.128874000E-04
  7.524785600E+03  5.295373000E-04
  1.694327600E+03  2.450038300E-03
  4.728227900E+02  1.005398470E-02
  1.517107500E+02  3.545398060E-02
  5.391874600E+01  1.044071086E-01
  2.065931100E+01  2.412894918E-01
  8.383976000E+00  3.834225483E-01
  3.577015000E+00  3.078514393E-01
  1.547118000E+00  6.872442990E-02
  6.130130000E-01  2.224445000E-04
  2.460680000E-01  1.976748900E-03
  9.908700000E-02  2.057859400E-03
  3.468000000E-02  4.182020000E-04
   s  14
  5.055750100E+04 -2.507420000E-05
  7.524785600E+03 -1.175945000E-04
  1.694327600E+03 -5.456275000E-04
  4.728227900E+02 -2.245077100E-03
  1.517107500E+02 -8.043471800E-03
  5.391874600E+01 -2.442588710E-02
  2.065931100E+01 -6.136791180E-02
  8.383976000E+00 -1.177767835E-01
  3.577015000E+00 -1.550487783E-01
  1.547118000E+00 -1.933316860E-02
  6.130130000E-01  3.996930678E-01
  2.460680000E-01  5.589420949E-01
  9.908700000E-02  1.711195023E-01
  3.468000000E-02  7.456244600E-03
   p   9
  8.333315500E+01  1.344656000E-03
  1.955761100E+01  1.023555500E-02
  6.080365000E+00  4.520067100E-02
  2.179317000E+00  1.410756198E-01
  8.651500000E-01  3.047388085E-01
  3.619440000E-01  3.995281011E-01
  1.547400000E-01  2.719163432E-01
  6.542900000E-02  5.857669330E-02
  2.290000000E-02 -1.263813000E-04
 
[MO]
Sym=     1a  
Ene=   -11.4790
Spin= Alpha
Occup=    2.00000
   1         0.70100234
   2         0.00753187
   3         0.00000000
   4         0.00000000
   5         0.00643091
   6         0.70100234
   7         0.00753187
   8        -0.00000000
   9        -0.00000000
  10        -0.00643091
Sym=     2a  
Ene=   -11.2580
Spin= Alpha
Occup=    2.00000
   1        -0.70803723
   2         0.00668877
   3        -0.00000000
   4         0.00000000
   5         0.00639776
   6         0.70803723
   7        -0.00668877
   8         0.00000000
   9        -0.00000000
  10         0.00639776
Sym=     3a  
Ene=    -1.2466
Spin= Alpha
Occup=    2.00000
   1        -0.11504856
   2         0.51154537
   3         0.00000000
   4        -0.00000000
   5         0.11218243
   6        -0.11504856
   7         0.51154537
   8        -0.00000000
   9         0.00000000
  10        -0.11218243
Sym=     4a  
Ene=    -0.6995
Spin= Alpha
Occup=    2.00000
   1        -0.00000000
   2         0.00000000
   3         0.45338585
   4        -0.32509208
   5        -0.00000000
   6         0.00000000
   7        -0.00000000
   8         0.45338585
   9        -0.32509208
  10        -0.00000000
Sym=     5a  
Ene=    -0.6995
Spin= Alpha
Occup=    2.00000
   1         0.00000000
   2         0.00000000
   3         0.32509208
   4         0.45338585
   5         0.00000000
   6        -0.00000000
   7        -0.00000000
   8         0.32509208
   9         0.45338585
  10         0.00000000
Sym=     6a  
Ene=    -0.6351
Spin= Alpha
Occup=    2.00000
   1         0.05354832
   2        -0.40686033
   3         0.00000000
   4        -0.00000000
   5         0.49037472
   6        -0.05354832
   7         0.40686033
   8         0.00000000
   9        -0.00000000
  10         0.49037472
Sym=     7a  
Ene=    -0.3056
Spin= Alpha
Occup=    0.00000
   1         0.14368492
   2         0.29048400
   3        -0.00000000
   4         0.00000000
   5        -0.81203998
   6         0.14368492
   7         0.29048400
   8         0.00000000
   9        -0.00000000
  10         0.81203998
Sym=     8a  
Ene=    -0.1714
Spin= Alpha
Occup=    0.00000
   1        -0.00000000
   2        -0.00000000
   3        -1.02346216
   4        -0.47227134
   5        -0.00000000
   6         0.00000000
   7         0.00000000
   8         1.02346216
   9         0.47227134
  10        -0.00000000
Sym=     9a  
Ene=    -0.1714
Spin= Alpha
Occup=    0.00000
   1        -0.00000000
   2        -0.00000000
   3         0.47227134
   4        -1.02346216
   5        -0.00000000
   6         0.00000000
   7         0.00000000
   8        -0.47227134
   9         1.02346216
  10        -0.00000000
Sym=    10a  
Ene=    -0.0121
Spin= Alpha
Occup=    0.00000
   1         1.22753010
   2         4.51524872
   3         0.00000000
   4        -0.00000000
   5         2.30751678
   6        -1.22753010
   7        -4.51524872
   8        -0.00000000
   9         0.00000000
  10         2.30751678
