[Molden Format]
[N_Atoms]
                     2
[Atoms] (AU)
C1          1      6           0.00000000      0.00000000      0.00000000
C2          2      6           0.00000000      0.00000000      1.51178090
[Charge] (Mulliken)
  0.999999999999154     
   1.00000000000083     
[GTO] (AU)
   1
   s  14
  5.055750100E+04  1.128874000E-04
  7.524785600E+03  5.295373000E-04
  1.694327600E+03  2.450038300E-03
  4.728227900E+02  1.005398470E-02
  1.517107500E+02  3.545398060E-02
  5.391874600E+01  1.044071086E-01
  2.065931100E+01  2.412894918E-01
  8.383976000E+00  3.834225483E-01
  3.577015000E+00  3.078514393E-01
  1.547118000E+00  6.872442990E-02
  6.130130000E-01  2.224445000E-04
  2.460680000E-01  1.976748900E-03
  9.908700000E-02  2.057859400E-03
  3.468000000E-02  4.182020000E-04
   s  14
  5.055750100E+04 -2.507420000E-05
  7.524785600E+03 -1.175945000E-04
  1.694327600E+03 -5.456275000E-04
  4.728227900E+02 -2.245077100E-03
  1.517107500E+02 -8.043471800E-03
  5.391874600E+01 -2.442588710E-02
  2.065931100E+01 -6.136791180E-02
  8.383976000E+00 -1.177767835E-01
  3.577015000E+00 -1.550487783E-01
  1.547118000E+00 -1.933316860E-02
  6.130130000E-01  3.996930678E-01
  2.460680000E-01  5.589420949E-01
  9.908700000E-02  1.711195023E-01
  3.468000000E-02  7.456244600E-03
   p   9
  8.333315500E+01  1.344656000E-03
  1.955761100E+01  1.023555500E-02
  6.080365000E+00  4.520067100E-02
  2.179317000E+00  1.410756198E-01
  8.651500000E-01  3.047388085E-01
  3.619440000E-01  3.995281011E-01
  1.547400000E-01  2.719163432E-01
  6.542900000E-02  5.857669330E-02
  2.290000000E-02 -1.263813000E-04
 
   2
   s  14
  5.055750100E+04  1.128874000E-04
  7.524785600E+03  5.295373000E-04
  1.694327600E+03  2.450038300E-03
  4.728227900E+02  1.005398470E-02
  1.517107500E+02  3.545398060E-02
  5.391874600E+01  1.044071086E-01
  2.065931100E+01  2.412894918E-01
  8.383976000E+00  3.834225483E-01
  3.577015000E+00  3.078514393E-01
  1.547118000E+00  6.872442990E-02
  6.130130000E-01  2.224445000E-04
  2.460680000E-01  1.976748900E-03
  9.908700000E-02  2.057859400E-03
  3.468000000E-02  4.182020000E-04
   s  14
  5.055750100E+04 -2.507420000E-05
  7.524785600E+03 -1.175945000E-04
  1.694327600E+03 -5.456275000E-04
  4.728227900E+02 -2.245077100E-03
  1.517107500E+02 -8.043471800E-03
  5.391874600E+01 -2.442588710E-02
  2.065931100E+01 -6.136791180E-02
  8.383976000E+00 -1.177767835E-01
  3.577015000E+00 -1.550487783E-01
  1.547118000E+00 -1.933316860E-02
  6.130130000E-01  3.996930678E-01
  2.460680000E-01  5.589420949E-01
  9.908700000E-02  1.711195023E-01
  3.468000000E-02  7.456244600E-03
   p   9
  8.333315500E+01  1.344656000E-03
  1.955761100E+01  1.023555500E-02
  6.080365000E+00  4.520067100E-02
  2.179317000E+00  1.410756198E-01
  8.651500000E-01  3.047388085E-01
  3.619440000E-01  3.995281011E-01
  1.547400000E-01  2.719163432E-01
  6.542900000E-02  5.857669330E-02
  2.290000000E-02 -1.263813000E-04
 
[MO]
Sym=     1a  
Ene=   -12.8920
Spin= Alpha
Occup=    2.00000
   1         0.70244056
   2        -0.00265172
   3         0.00000000
   4         0.00000000
   5         0.00727671
   6         0.70244056
   7        -0.00265172
   8         0.00000000
   9         0.00000000
  10        -0.00727671
Sym=     2a  
Ene=   -12.8150
Spin= Alpha
Occup=    2.00000
   1        -0.71159997
   2        -0.00192780
   3         0.00000000
   4         0.00000000
   5        -0.00329305
   6         0.71159997
   7         0.00192780
   8         0.00000000
   9        -0.00000000
  10        -0.00329305
Sym=     3a  
Ene=    -2.2267
Spin= Alpha
Occup=    2.00000
   1        -0.15092116
   2         0.35996929
   3         0.00000000
   4         0.00000000
   5         0.41679818
   6        -0.15092116
   7         0.35996929
   8         0.00000000
   9        -0.00000000
  10        -0.41679818
Sym=     4a  
Ene=    -1.5724
Spin= Alpha
Occup=    2.00000
   1         0.00000000
   2        -0.00000000
   3        -0.21207008
   4         0.51601344
   5         0.00000000
   6        -0.00000000
   7         0.00000000
   8        -0.21207008
   9         0.51601344
  10         0.00000000
Sym=     5a  
Ene=    -1.5700
Spin= Alpha
Occup=    1.98853
   1         0.00000000
   2         0.00000000
   3         0.51601344
   4         0.21207008
   5        -0.00000000
   6        -0.00000000
   7        -0.00000000
   8         0.51601344
   9         0.21207008
  10         0.00000000
Sym=     6a  
Ene=    -0.0005
Spin= Alpha
Occup=    0.01147
   1        -0.17841203
   2        -1.23155184
   3         0.00000000
   4        -0.00000000
   5         0.05697104
   6         0.17841203
   7         1.23155184
   8         0.00000000
   9        -0.00000000
  10         0.05697104
Sym=     7a  
Ene=    -0.9898
Spin= Alpha
Occup=    0.00000
   1         0.09531986
   2         0.46532938
   3        -0.00000000
   4        -0.00000000
   5        -0.70587641
   6         0.09531986
   7         0.46532938
   8         0.00000000
   9        -0.00000000
  10         0.70587641
Sym=     8a  
Ene=    -0.5054
Spin= Alpha
Occup=    0.00000
   1         0.00000000
   2         0.00000000
   3         0.42846869
   4        -1.04255915
   5         0.00000000
   6        -0.00000000
   7        -0.00000000
   8        -0.42846869
   9         1.04255915
  10         0.00000000
Sym=     9a  
Ene=    -0.5052
Spin= Alpha
Occup=    0.00000
   1        -0.00000000
   2        -0.00000000
   3        -1.04255915
   4        -0.42846869
   5         0.00000000
   6         0.00000000
   7         0.00000000
   8         1.04255915
   9         0.42846869
  10        -0.00000000
Sym=    10a  
Ene=     1.3941
Spin= Alpha
Occup=    0.00000
   1        -1.21359340
   2        -4.36306399
   3         0.00000000
   4        -0.00000000
   5        -2.35836499
   6         1.21359340
   7         4.36306399
   8        -0.00000000
   9         0.00000000
  10        -2.35836499
