[Molden Format]
[N_Atoms]
                     2
[Atoms] (AU)
F1          1      9           0.00000000      0.00000000      0.00000000
O2          2      8           0.00000000      0.00000000      3.40150702
[Charge] (Mulliken)
 -3.418398545475476E-002
  3.418398545470858E-002
[GTO] (AU)
   1
   s  14
  1.031094600E+05  1.713099991E-04
  1.528100700E+04  7.123999962E-04
  3.441539200E+03  2.990479984E-03
  9.670948300E+02  1.164036994E-02
  3.140353400E+02  3.968642979E-02
  1.134423000E+02  1.128546094E-01
  4.464472700E+01  2.473650687E-01
  1.894287400E+01  3.672702681E-01
  8.532743000E+00  2.896286985E-01
  3.919401000E+00  7.786681959E-02
  1.568157000E+00  4.562139976E-03
  6.232900000E-01  2.468879987E-03
  2.408610000E-01  1.106309994E-03
  8.430100000E-02  1.739699991E-04
   s  14
  1.031094600E+05 -4.044999995E-05
  1.528100700E+04 -1.682299998E-04
  3.441539200E+03 -7.084299991E-04
  9.670948300E+02 -2.767999996E-03
  3.140353400E+02 -9.611379987E-03
  1.134423000E+02 -2.833957996E-02
  4.464472700E+01 -6.839343991E-02
  1.894287400E+01 -1.237379298E-01
  8.532743000E+00 -1.512859698E-01
  3.919401000E+00 -9.099909988E-03
  1.568157000E+00  3.716257695E-01
  6.232900000E-01  5.500214393E-01
  2.408610000E-01  2.092318697E-01
  8.430100000E-02  8.074639989E-03
   p   9
  2.453302900E+02  1.024860004E-03
  5.691900500E+01  8.344290032E-03
  1.760456800E+01  4.078927016E-02
  6.274995000E+00  1.351370605E-01
  2.447030000E+00  2.798830811E-01
  9.950600000E-01  3.597966414E-01
  4.039730000E-01  3.055347412E-01
  1.548100000E-01  1.354703905E-01
  5.418400000E-02  2.804449011E-02
 
   2
   s  14
  1.053749500E+05  1.238600013E-04
  1.567924000E+04  5.120100053E-04
  3.534544700E+03  2.152910022E-03
  9.873651600E+02  8.528440089E-03
  3.159787500E+02  3.018049031E-02
  1.116542800E+02  9.099702095E-02
  4.269945100E+01  2.177936423E-01
  1.739559600E+01  3.686245738E-01
  7.438309000E+00  3.366707335E-01
  3.222862000E+00  9.657630101E-02
  1.253877000E+00  2.144520022E-03
  4.951550000E-01  1.194350012E-03
  1.916650000E-01  5.390200056E-04
  6.708300000E-02  2.103400022E-04
   s  14
  1.053749500E+05 -2.815000008E-05
  1.567924000E+04 -1.163000003E-04
  3.534544700E+03 -4.909200013E-04
  9.873651600E+02 -1.946160005E-03
  3.159787500E+02 -7.005300019E-03
  1.116542800E+02 -2.167814006E-02
  4.269945100E+01 -5.641213015E-02
  1.739559600E+01 -1.127053003E-01
  7.438309000E+00 -1.589119704E-01
  3.222862000E+00 -3.355083009E-02
  1.253877000E+00  3.531902810E-01
  4.951550000E-01  5.534199315E-01
  1.916650000E-01  2.301839106E-01
  6.708300000E-02  1.127267003E-02
   p   9
  2.000000000E+02  9.173000030E-04
  4.653336700E+01  7.377140024E-03
  1.462180900E+01  3.483515011E-02
  5.313064000E+00  1.144397004E-01
  2.102525000E+00  2.554966408E-01
  8.502230000E-01  3.722557412E-01
  3.375970000E-01  3.323314911E-01
  1.288920000E-01  1.400847905E-01
  4.511200000E-02  2.395784008E-02
 
[MO]
Sym=     1a  
Ene=   -26.4460
Spin= Alpha
Occup=    1.00000
   1         0.99999960
   2        -0.00245055
   3        -0.00000000
   4        -0.00000000
   5         0.00019143
   6        -0.00001327
   7        -0.00016423
   8         0.00000000
   9        -0.00000000
  10         0.00014851
Sym=     1a  
Ene=   -26.4070
Spin= Beta
Occup=    1.00000
   1         0.99999233
   2        -0.00410111
   3        -0.00000000
   4        -0.00000000
   5         0.00015806
   6        -0.00000376
   7        -0.00007027
   8         0.00000000
   9         0.00000000
  10         0.00003622
Sym=     2a  
Ene=   -20.7650
Spin= Alpha
Occup=    1.00000
   1        -0.00001715
   2        -0.00016984
   3         0.00000000
   4        -0.00000000
   5        -0.00014871
   6         1.00000229
   7        -0.00023626
   8        -0.00000000
   9         0.00000000
  10        -0.00021332
Sym=     2a  
Ene=   -20.7610
Spin= Beta
Occup=    1.00000
   1        -0.00002031
   2        -0.00013059
   3         0.00000000
   4        -0.00000000
   5        -0.00005089
   6         1.00000093
   7        -0.00038271
   8        -0.00000000
   9         0.00000000
  10        -0.00017307
Sym=     3a  
Ene=    -1.6892
Spin= Alpha
Occup=    1.00000
   1         0.00180772
   2         0.98461496
   3        -0.00000000
   4        -0.00000000
   5         0.02646283
   6        -0.00309536
   7         0.09162453
   8         0.00000000
   9        -0.00000000
  10        -0.02063005
Sym=     3a  
Ene=    -1.5386
Spin= Beta
Occup=    1.00000
   1         0.00252148
   2         0.96075680
   3         0.00000000
   4        -0.00000000
   5         0.01307732
   6        -0.00284474
   7         0.17348530
   8        -0.00000000
   9        -0.00000000
  10        -0.05724303
Sym=     4a  
Ene=    -1.3082
Spin= Alpha
Occup=    1.00000
   1        -0.00451121
   2        -0.17523312
   3         0.00000000
   4         0.00000000
   5         0.10423247
   6        -0.00052625
   7         0.97702782
   8        -0.00000000
   9        -0.00000000
  10        -0.01184130
Sym=     4a  
Ene=    -1.2790
Spin= Beta
Occup=    1.00000
   1        -0.00485229
   2        -0.25009796
   3         0.00000000
   4         0.00000000
   5         0.04425761
   6         0.00055807
   7         0.97985531
   8         0.00000000
   9        -0.00000000
  10         0.00476620
Sym=     5a  
Ene=    -0.8212
Spin= Alpha
Occup=    1.00000
   1        -0.00051634
   2        -0.01699476
   3        -0.00000000
   4        -0.00000000
   5         0.98321252
   6        -0.01217251
   7        -0.25503136
   8        -0.00000000
   9        -0.00000000
  10        -0.10342424
Sym=     5a  
Ene=    -0.7128
Spin= Beta
Occup=    1.00000
   1         0.00000000
   2         0.00000000
   3         0.88424173
   4         0.34423242
   5        -0.00000000
   6         0.00000000
   7         0.00000000
   8         0.23642283
   9         0.09203864
  10         0.00000000
Sym=     6a  
Ene=    -0.7586
Spin= Alpha
Occup=    1.00000
   1        -0.00000000
   2         0.00000000
   3        -0.32497687
   4         0.83477932
   5         0.00000000
   6        -0.00000000
   7        -0.00000000
   8        -0.13918650
   9         0.35753317
  10        -0.00000000
Sym=     6a  
Ene=    -0.7035
Spin= Beta
Occup=    1.00000
   1         0.00000000
   2         0.00000000
   3        -0.36155077
   4         0.92872797
   5        -0.00000000
   6         0.00000000
   7         0.00000000
   8        -0.01338378
   9         0.03437938
  10         0.00000000
Sym=     7a  
Ene=    -0.7502
Spin= Alpha
Occup=    1.00000
   1        -0.00000000
   2        -0.00000000
   3        -0.90478125
   4        -0.35222839
   5        -0.00000000
   6         0.00000000
   7         0.00000000
   8        -0.16645970
   9        -0.06480222
  10        -0.00000000
Sym=     7a  
Ene=    -0.6841
Spin= Beta
Occup=    1.00000
   1         0.01318158
   2         0.20100639
   3        -0.00000000
   4        -0.00000000
   5        -0.18202126
   6         0.00183919
   7         0.03642739
   8        -0.00000000
   9        -0.00000000
  10         0.96408654
Sym=     8a  
Ene=    -0.6861
Spin= Alpha
Occup=    1.00000
   1         0.00000000
   2         0.00000000
   3        -0.16342004
   4         0.41978271
   5         0.00000000
   6        -0.00000000
   7        -0.00000000
   8         0.33607022
   9        -0.86327520
  10         0.00000000
Sym=     8a  
Ene=    -0.6048
Spin= Beta
Occup=    1.00000
   1        -0.00000000
   2        -0.00000000
   3         0.30197781
   4         0.11755898
   5         0.00000000
   6        -0.00000000
   7        -0.00000000
   8        -0.90397914
   9        -0.35191613
  10        -0.00000000
Sym=     9a  
Ene=    -0.6131
Spin= Alpha
Occup=    1.00000
   1         0.00000000
   2         0.00000000
   3         0.23333435
   4         0.09083630
   5         0.00000000
   6        -0.00000000
   7        -0.00000000
   8        -0.91943743
   9        -0.35793400
  10         0.00000000
Sym=     9a  
Ene=     0.0688
Spin= Beta
Occup=    0.00000
   1        -0.00000000
   2        -0.00000000
   3         0.03996390
   4        -0.10265664
   5         0.00000000
   6        -0.00000000
   7        -0.00000000
   8        -0.36350646
   9         0.93375162
  10        -0.00000000
Sym=    10a  
Ene=     0.0881
Spin= Alpha
Occup=    0.00000
   1         0.01394686
   2         0.17578913
   3        -0.00000000
   4        -0.00000000
   5         0.27041869
   6        -0.00368245
   7        -0.05031306
   8        -0.00000000
   9         0.00000000
  10         1.02029207
Sym=    10a  
Ene=     0.0966
Spin= Beta
Occup=    0.00000
   1        -0.00541242
   2        -0.07312257
   3        -0.00000000
   4         0.00000000
   5        -1.00803589
   6         0.01274884
   7         0.19751000
   8        -0.00000000
   9         0.00000000
  10        -0.34568193
