[Molden Format]
[N_Atoms]
                     2
[Atoms] (AU)
BE1         1      4           0.00000000      0.00000000      0.00000000
BE2         2      4           0.00000000      0.00000000      3.40150702
[Charge] (Mulliken)
  0.999999999998972     
   1.00000000000102     
[GTO] (AU)
   1
   s  14
  2.262859900E+04  8.443999941E-05
  3.372318100E+03  4.601499968E-04
  7.603504000E+02  2.285389984E-03
  2.117404800E+02  9.648129932E-03
  6.722346800E+01  3.494469975E-02
  2.337217700E+01  1.061099893E-01
  8.721373000E+00  2.458240383E-01
  3.468091000E+00  3.862428773E-01
  1.452144000E+00  3.105526078E-01
  6.086150000E-01  6.415933955E-02
  2.576860000E-01 -2.265049984E-03
  1.041760000E-01 -5.217499963E-04
  4.242700000E-02 -8.757499938E-04
  1.484900000E-02  1.242199991E-04
   s  14
  2.262859900E+04 -1.586999994E-05
  3.372318100E+03 -8.656999968E-05
  7.603504000E+02 -4.302199984E-04
  2.117404800E+02 -1.825079993E-03
  6.722346800E+01 -6.682749976E-03
  2.337217700E+01 -2.095119992E-02
  8.721373000E+00 -5.200308981E-02
  3.468091000E+00 -9.849176964E-02
  1.452144000E+00 -1.355800695E-01
  6.086150000E-01 -6.429875976E-02
  2.576860000E-01  3.125414989E-01
  1.041760000E-01  6.270468577E-01
  4.242700000E-02  2.110231492E-01
  1.484900000E-02 -4.104669985E-03
   p   9
  3.371018400E+01  1.069960000E-03
  8.057649500E+00  6.828550001E-03
  2.836471400E+00  2.119065000E-02
  1.099965700E+00  5.843696001E-02
  4.433964000E-01  2.020920800E-01
  1.822264000E-01  4.582953101E-01
  7.572410000E-02  3.691239601E-01
  3.168540000E-02  6.611471001E-02
  1.108990000E-02  1.405160000E-03
 
   2
   s  14
  2.262859900E+04  8.443999941E-05
  3.372318100E+03  4.601499968E-04
  7.603504000E+02  2.285389984E-03
  2.117404800E+02  9.648129932E-03
  6.722346800E+01  3.494469975E-02
  2.337217700E+01  1.061099893E-01
  8.721373000E+00  2.458240383E-01
  3.468091000E+00  3.862428773E-01
  1.452144000E+00  3.105526078E-01
  6.086150000E-01  6.415933955E-02
  2.576860000E-01 -2.265049984E-03
  1.041760000E-01 -5.217499963E-04
  4.242700000E-02 -8.757499938E-04
  1.484900000E-02  1.242199991E-04
   s  14
  2.262859900E+04 -1.586999994E-05
  3.372318100E+03 -8.656999968E-05
  7.603504000E+02 -4.302199984E-04
  2.117404800E+02 -1.825079993E-03
  6.722346800E+01 -6.682749976E-03
  2.337217700E+01 -2.095119992E-02
  8.721373000E+00 -5.200308981E-02
  3.468091000E+00 -9.849176964E-02
  1.452144000E+00 -1.355800695E-01
  6.086150000E-01 -6.429875976E-02
  2.576860000E-01  3.125414989E-01
  1.041760000E-01  6.270468577E-01
  4.242700000E-02  2.110231492E-01
  1.484900000E-02 -4.104669985E-03
   p   9
  3.371018400E+01  1.069960000E-03
  8.057649500E+00  6.828550001E-03
  2.836471400E+00  2.119065000E-02
  1.099965700E+00  5.843696001E-02
  4.433964000E-01  2.020920800E-01
  1.822264000E-01  4.582953101E-01
  7.572410000E-02  3.691239601E-01
  3.168540000E-02  6.611471001E-02
  1.108990000E-02  1.405160000E-03
 
[MO]
Sym=     1a  
Ene=    -5.3938
Spin= Alpha
Occup=    2.00000
   1         0.70772278
   2        -0.00291337
   3        -0.00000000
   4        -0.00000000
   5        -0.00336286
   6         0.70772277
   7        -0.00291337
   8        -0.00000000
   9         0.00000000
  10         0.00336286
Sym=     2a  
Ene=    -5.3930
Spin= Alpha
Occup=    2.00000
   1        -0.70653940
   2         0.00253006
   3        -0.00000000
   4         0.00000000
   5         0.00302249
   6         0.70653941
   7        -0.00253006
   8         0.00000000
   9         0.00000000
  10         0.00302249
Sym=     3a  
Ene=    -0.9499
Spin= Alpha
Occup=    1.97298
   1        -0.06667197
   2         0.42198798
   3        -0.00000000
   4         0.00000000
   5         0.29457779
   6        -0.06667197
   7         0.42198798
   8         0.00000000
   9        -0.00000000
  10        -0.29457779
Sym=     4a  
Ene=     0.0000
Spin= Alpha
Occup=    0.02702
   1         0.00000000
   2         0.00000000
   3        -0.06975321
   4         0.58598330
   5         0.00000000
   6        -0.00000000
   7        -0.00000000
   8        -0.06975321
   9         0.58598330
  10         0.00000000
Sym=     5a  
Ene=    -0.4830
Spin= Alpha
Occup=    0.00000
   1         0.01290413
   2         0.69580534
   3        -0.00000000
   4        -0.00000000
   5        -0.29791471
   6        -0.01290413
   7        -0.69580534
   8        -0.00000000
   9        -0.00000000
  10        -0.29791471
Sym=     6a  
Ene=    -0.4675
Spin= Alpha
Occup=    0.00000
   1         0.00000000
   2         0.00000000
   3         0.58598330
   4         0.06975321
   5        -0.00000000
   6        -0.00000000
   7        -0.00000000
   8         0.58598330
   9         0.06975321
  10        -0.00000000
Sym=     7a  
Ene=    -0.4285
Spin= Alpha
Occup=    0.00000
   1         0.05087364
   2         0.44383090
   3         0.00000000
   4         0.00000000
   5        -0.63889819
   6         0.05087364
   7         0.44383090
   8        -0.00000000
   9         0.00000000
  10         0.63889819
Sym=     8a  
Ene=    -0.2995
Spin= Alpha
Occup=    0.00000
   1        -0.00000000
   2         0.00000000
   3         0.11127196
   4        -0.93477434
   5         0.00000000
   6        -0.00000000
   7         0.00000000
   8        -0.11127196
   9         0.93477434
  10        -0.00000000
Sym=     9a  
Ene=    -0.2992
Spin= Alpha
Occup=    0.00000
   1         0.00000000
   2        -0.00000000
   3        -0.93477434
   4        -0.11127196
   5        -0.00000000
   6        -0.00000000
   7         0.00000000
   8         0.93477434
   9         0.11127196
  10         0.00000000
Sym=    10a  
Ene=     0.0240
Spin= Alpha
Occup=    0.00000
   1        -0.37667058
   2        -2.05600182
   3        -0.00000000
   4         0.00000000
   5        -1.59593545
   6         0.37667058
   7         2.05600182
   8        -0.00000000
   9         0.00000000
  10        -1.59593545
