[Molden Format]
[N_Atoms]
                     2
[Atoms] (AU)
BE1         1      4           0.00000000      0.00000000      0.00000000
BE2         2      4           0.00000000      0.00000000      3.40150702
[Charge] (Mulliken)
 -6.821210263296962E-013
  6.794564910705958E-013
[GTO] (AU)
   1
   s  14
  2.262859900E+04  8.443999941E-05
  3.372318100E+03  4.601499968E-04
  7.603504000E+02  2.285389984E-03
  2.117404800E+02  9.648129932E-03
  6.722346800E+01  3.494469975E-02
  2.337217700E+01  1.061099893E-01
  8.721373000E+00  2.458240383E-01
  3.468091000E+00  3.862428773E-01
  1.452144000E+00  3.105526078E-01
  6.086150000E-01  6.415933955E-02
  2.576860000E-01 -2.265049984E-03
  1.041760000E-01 -5.217499963E-04
  4.242700000E-02 -8.757499938E-04
  1.484900000E-02  1.242199991E-04
   s  14
  2.262859900E+04 -1.586999994E-05
  3.372318100E+03 -8.656999968E-05
  7.603504000E+02 -4.302199984E-04
  2.117404800E+02 -1.825079993E-03
  6.722346800E+01 -6.682749976E-03
  2.337217700E+01 -2.095119992E-02
  8.721373000E+00 -5.200308981E-02
  3.468091000E+00 -9.849176964E-02
  1.452144000E+00 -1.355800695E-01
  6.086150000E-01 -6.429875976E-02
  2.576860000E-01  3.125414989E-01
  1.041760000E-01  6.270468577E-01
  4.242700000E-02  2.110231492E-01
  1.484900000E-02 -4.104669985E-03
   p   9
  3.371018400E+01  1.069960000E-03
  8.057649500E+00  6.828550001E-03
  2.836471400E+00  2.119065000E-02
  1.099965700E+00  5.843696001E-02
  4.433964000E-01  2.020920800E-01
  1.822264000E-01  4.582953101E-01
  7.572410000E-02  3.691239601E-01
  3.168540000E-02  6.611471001E-02
  1.108990000E-02  1.405160000E-03
 
   2
   s  14
  2.262859900E+04  8.443999941E-05
  3.372318100E+03  4.601499968E-04
  7.603504000E+02  2.285389984E-03
  2.117404800E+02  9.648129932E-03
  6.722346800E+01  3.494469975E-02
  2.337217700E+01  1.061099893E-01
  8.721373000E+00  2.458240383E-01
  3.468091000E+00  3.862428773E-01
  1.452144000E+00  3.105526078E-01
  6.086150000E-01  6.415933955E-02
  2.576860000E-01 -2.265049984E-03
  1.041760000E-01 -5.217499963E-04
  4.242700000E-02 -8.757499938E-04
  1.484900000E-02  1.242199991E-04
   s  14
  2.262859900E+04 -1.586999994E-05
  3.372318100E+03 -8.656999968E-05
  7.603504000E+02 -4.302199984E-04
  2.117404800E+02 -1.825079993E-03
  6.722346800E+01 -6.682749976E-03
  2.337217700E+01 -2.095119992E-02
  8.721373000E+00 -5.200308981E-02
  3.468091000E+00 -9.849176964E-02
  1.452144000E+00 -1.355800695E-01
  6.086150000E-01 -6.429875976E-02
  2.576860000E-01  3.125414989E-01
  1.041760000E-01  6.270468577E-01
  4.242700000E-02  2.110231492E-01
  1.484900000E-02 -4.104669985E-03
   p   9
  3.371018400E+01  1.069960000E-03
  8.057649500E+00  6.828550001E-03
  2.836471400E+00  2.119065000E-02
  1.099965700E+00  5.843696001E-02
  4.433964000E-01  2.020920800E-01
  1.822264000E-01  4.582953101E-01
  7.572410000E-02  3.691239601E-01
  3.168540000E-02  6.611471001E-02
  1.108990000E-02  1.405160000E-03
 
[MO]
Sym=     1a  
Ene=    -4.7313
Spin= Alpha
Occup=    1.00000
   1         0.70671156
   2         0.00201030
   3         0.00000000
   4         0.00000000
   5         0.00141805
   6         0.70671155
   7         0.00201030
   8        -0.00000000
   9         0.00000000
  10        -0.00141805
Sym=     1a  
Ene=    -4.7313
Spin= Beta
Occup=    1.00000
   1         0.70671156
   2         0.00201030
   3         0.00000000
   4         0.00000000
   5         0.00141805
   6         0.70671155
   7         0.00201030
   8        -0.00000000
   9         0.00000000
  10        -0.00141805
Sym=     2a  
Ene=    -4.7301
Spin= Alpha
Occup=    1.00000
   1        -0.70772031
   2        -0.00370157
   3         0.00000000
   4         0.00000000
   5        -0.00212787
   6         0.70772031
   7         0.00370157
   8        -0.00000000
   9         0.00000000
  10        -0.00212787
Sym=     2a  
Ene=    -4.7301
Spin= Beta
Occup=    1.00000
   1        -0.70772031
   2        -0.00370157
   3         0.00000000
   4         0.00000000
   5        -0.00212787
   6         0.70772031
   7         0.00370157
   8        -0.00000000
   9         0.00000000
  10        -0.00212787
Sym=     3a  
Ene=    -0.4478
Spin= Alpha
Occup=    1.00000
   1        -0.06676385
   2         0.48718616
   3         0.00000000
   4        -0.00000000
   5         0.18927330
   6        -0.06676385
   7         0.48718616
   8         0.00000000
   9        -0.00000000
  10        -0.18927330
Sym=     3a  
Ene=    -0.4478
Spin= Beta
Occup=    1.00000
   1        -0.06676385
   2         0.48718616
   3         0.00000000
   4        -0.00000000
   5         0.18927330
   6        -0.06676385
   7         0.48718616
   8         0.00000000
   9        -0.00000000
  10        -0.18927330
Sym=     4a  
Ene=    -0.2107
Spin= Alpha
Occup=    1.00000
   1        -0.02091123
   2        -0.73818739
   3         0.00000000
   4        -0.00000000
   5         0.26483734
   6         0.02091123
   7         0.73818739
   8         0.00000000
   9        -0.00000000
  10         0.26483734
Sym=     4a  
Ene=    -0.2107
Spin= Beta
Occup=    1.00000
   1        -0.02091123
   2        -0.73818739
   3         0.00000000
   4        -0.00000000
   5         0.26483734
   6         0.02091123
   7         0.73818739
   8         0.00000000
   9        -0.00000000
  10         0.26483734
Sym=     5a  
Ene=     0.0179
Spin= Alpha
Occup=    0.00000
   1         0.00000000
   2         0.00000000
   3         0.06228644
   4         0.58682394
   5        -0.00000000
   6         0.00000000
   7         0.00000000
   8         0.06228644
   9         0.58682394
  10         0.00000000
Sym=     5a  
Ene=     0.0179
Spin= Beta
Occup=    0.00000
   1         0.00000000
   2         0.00000000
   3         0.06228644
   4         0.58682394
   5        -0.00000000
   6         0.00000000
   7         0.00000000
   8         0.06228644
   9         0.58682394
  10         0.00000000
Sym=     6a  
Ene=     0.0179
Spin= Alpha
Occup=    0.00000
   1         0.00000000
   2         0.00000000
   3         0.58682394
   4        -0.06228644
   5        -0.00000000
   6         0.00000000
   7        -0.00000000
   8         0.58682394
   9        -0.06228644
  10         0.00000000
Sym=     6a  
Ene=     0.0179
Spin= Beta
Occup=    0.00000
   1         0.00000000
   2         0.00000000
   3         0.58682394
   4        -0.06228644
   5        -0.00000000
   6         0.00000000
   7        -0.00000000
   8         0.58682394
   9        -0.06228644
  10         0.00000000
Sym=     7a  
Ene=     0.0416
Spin= Alpha
Occup=    0.00000
   1         0.06329427
   2         0.37109812
   3        -0.00000000
   4        -0.00000000
   5        -0.67760747
   6         0.06329427
   7         0.37109812
   8        -0.00000000
   9        -0.00000000
  10         0.67760747
Sym=     7a  
Ene=     0.0416
Spin= Beta
Occup=    0.00000
   1         0.06329427
   2         0.37109812
   3        -0.00000000
   4        -0.00000000
   5        -0.67760747
   6         0.06329427
   7         0.37109812
   8        -0.00000000
   9        -0.00000000
  10         0.67760747
Sym=     8a  
Ene=     0.2038
Spin= Alpha
Occup=    0.00000
   1         0.00000000
   2         0.00000000
   3         0.62599037
   4        -0.70307935
   5        -0.00000000
   6        -0.00000000
   7        -0.00000000
   8        -0.62599037
   9         0.70307935
  10        -0.00000000
Sym=     8a  
Ene=     0.2038
Spin= Beta
Occup=    0.00000
   1         0.00000000
   2         0.00000000
   3         0.62599037
   4        -0.70307935
   5        -0.00000000
   6        -0.00000000
   7        -0.00000000
   8        -0.62599037
   9         0.70307935
  10        -0.00000000
Sym=     9a  
Ene=     0.2038
Spin= Alpha
Occup=    0.00000
   1        -0.00000000
   2        -0.00000000
   3        -0.70307935
   4        -0.62599037
   5        -0.00000000
   6         0.00000000
   7         0.00000000
   8         0.70307935
   9         0.62599037
  10         0.00000000
Sym=     9a  
Ene=     0.2038
Spin= Beta
Occup=    0.00000
   1        -0.00000000
   2        -0.00000000
   3        -0.70307935
   4        -0.62599037
   5        -0.00000000
   6         0.00000000
   7         0.00000000
   8         0.70307935
   9         0.62599037
  10         0.00000000
Sym=    10a  
Ene=     0.5641
Spin= Alpha
Occup=    0.00000
   1         0.37408536
   2         2.04116649
   3        -0.00000000
   4        -0.00000000
   5         1.60175807
   6        -0.37408536
   7        -2.04116649
   8        -0.00000000
   9         0.00000000
  10         1.60175807
Sym=    10a  
Ene=     0.5641
Spin= Beta
Occup=    0.00000
   1         0.37408536
   2         2.04116649
   3        -0.00000000
   4        -0.00000000
   5         1.60175807
   6        -0.37408536
   7        -2.04116649
   8        -0.00000000
   9         0.00000000
  10         1.60175807
