[Molden Format]
[N_Atoms]
                     2
[Atoms] (AU)
C1          1      6           0.00000000      0.00000000      0.00000000
C2          2      6           0.00000000      0.00000000      3.02356180
[Charge] (Mulliken)
  0.000000000000000E+000
  0.000000000000000E+000
[GTO] (AU)
   1
   s  14
  5.055750100E+04  1.128874000E-04
  7.524785600E+03  5.295373000E-04
  1.694327600E+03  2.450038300E-03
  4.728227900E+02  1.005398470E-02
  1.517107500E+02  3.545398060E-02
  5.391874600E+01  1.044071086E-01
  2.065931100E+01  2.412894918E-01
  8.383976000E+00  3.834225483E-01
  3.577015000E+00  3.078514393E-01
  1.547118000E+00  6.872442990E-02
  6.130130000E-01  2.224445000E-04
  2.460680000E-01  1.976748900E-03
  9.908700000E-02  2.057859400E-03
  3.468000000E-02  4.182020000E-04
   s  14
  5.055750100E+04 -2.507420000E-05
  7.524785600E+03 -1.175945000E-04
  1.694327600E+03 -5.456275000E-04
  4.728227900E+02 -2.245077100E-03
  1.517107500E+02 -8.043471800E-03
  5.391874600E+01 -2.442588710E-02
  2.065931100E+01 -6.136791180E-02
  8.383976000E+00 -1.177767835E-01
  3.577015000E+00 -1.550487783E-01
  1.547118000E+00 -1.933316860E-02
  6.130130000E-01  3.996930678E-01
  2.460680000E-01  5.589420949E-01
  9.908700000E-02  1.711195023E-01
  3.468000000E-02  7.456244600E-03
   p   9
  8.333315500E+01  1.344656000E-03
  1.955761100E+01  1.023555500E-02
  6.080365000E+00  4.520067100E-02
  2.179317000E+00  1.410756198E-01
  8.651500000E-01  3.047388085E-01
  3.619440000E-01  3.995281011E-01
  1.547400000E-01  2.719163432E-01
  6.542900000E-02  5.857669330E-02
  2.290000000E-02 -1.263813000E-04
 
   2
   s  14
  5.055750100E+04  1.128874000E-04
  7.524785600E+03  5.295373000E-04
  1.694327600E+03  2.450038300E-03
  4.728227900E+02  1.005398470E-02
  1.517107500E+02  3.545398060E-02
  5.391874600E+01  1.044071086E-01
  2.065931100E+01  2.412894918E-01
  8.383976000E+00  3.834225483E-01
  3.577015000E+00  3.078514393E-01
  1.547118000E+00  6.872442990E-02
  6.130130000E-01  2.224445000E-04
  2.460680000E-01  1.976748900E-03
  9.908700000E-02  2.057859400E-03
  3.468000000E-02  4.182020000E-04
   s  14
  5.055750100E+04 -2.507420000E-05
  7.524785600E+03 -1.175945000E-04
  1.694327600E+03 -5.456275000E-04
  4.728227900E+02 -2.245077100E-03
  1.517107500E+02 -8.043471800E-03
  5.391874600E+01 -2.442588710E-02
  2.065931100E+01 -6.136791180E-02
  8.383976000E+00 -1.177767835E-01
  3.577015000E+00 -1.550487783E-01
  1.547118000E+00 -1.933316860E-02
  6.130130000E-01  3.996930678E-01
  2.460680000E-01  5.589420949E-01
  9.908700000E-02  1.711195023E-01
  3.468000000E-02  7.456244600E-03
   p   9
  8.333315500E+01  1.344656000E-03
  1.955761100E+01  1.023555500E-02
  6.080365000E+00  4.520067100E-02
  2.179317000E+00  1.410756198E-01
  8.651500000E-01  3.047388085E-01
  3.619440000E-01  3.995281011E-01
  1.547400000E-01  2.719163432E-01
  6.542900000E-02  5.857669330E-02
  2.290000000E-02 -1.263813000E-04
 
[MO]
Sym=     1a  
Ene=   -11.3340
Spin= Alpha
Occup=    2.00000
   1         0.70682090
   2         0.00146726
   3         0.00000000
   4         0.00000000
   5         0.00165670
   6         0.70682089
   7         0.00146726
   8         0.00000000
   9         0.00000000
  10        -0.00165670
Sym=     2a  
Ene=   -11.3250
Spin= Alpha
Occup=    2.00000
   1        -0.70711743
   2         0.00133050
   3         0.00000000
   4         0.00000000
   5         0.00158072
   6         0.70711743
   7        -0.00133050
   8        -0.00000000
   9        -0.00000000
  10         0.00158072
Sym=     3a  
Ene=    -1.0180
Spin= Alpha
Occup=    2.00000
   1        -0.02939395
   2         0.53765511
   3         0.00000000
   4        -0.00000000
   5         0.18807421
   6        -0.02939395
   7         0.53765511
   8        -0.00000000
   9        -0.00000000
  10        -0.18807421
Sym=     4a  
Ene=    -0.6219
Spin= Alpha
Occup=    2.00000
   1         0.00023340
   2        -0.62574715
   3         0.00000000
   4        -0.00000000
   5         0.32915507
   6        -0.00023340
   7         0.62574715
   8         0.00000000
   9         0.00000000
  10         0.32915507
Sym=     5a  
Ene=    -0.5300
Spin= Alpha
Occup=    2.00000
   1         0.00000000
   2        -0.00000000
   3        -0.08396209
   4         0.63537288
   5        -0.00000000
   6         0.00000000
   7         0.00000000
   8        -0.08396209
   9         0.63537288
  10        -0.00000000
Sym=     6a  
Ene=    -0.5300
Spin= Alpha
Occup=    2.00000
   1        -0.00000000
   2         0.00000000
   3         0.63537288
   4         0.08396209
   5        -0.00000000
   6         0.00000000
   7         0.00000000
   8         0.63537288
   9         0.08396209
  10         0.00000000
Sym=     7a  
Ene=    -0.4645
Spin= Alpha
Occup=    0.00000
   1         0.02631665
   2         0.35444349
   3        -0.00000000
   4        -0.00000000
   5        -0.62535452
   6         0.02631665
   7         0.35444349
   8        -0.00000000
   9         0.00000000
  10         0.62535452
Sym=     8a  
Ene=    -0.3408
Spin= Alpha
Occup=    0.00000
   1         0.00000000
   2         0.00000000
   3        -0.75939094
   4         0.24926277
   5        -0.00000000
   6         0.00000000
   7         0.00000000
   8         0.75939094
   9        -0.24926277
  10         0.00000000
Sym=     9a  
Ene=    -0.3408
Spin= Alpha
Occup=    0.00000
   1        -0.00000000
   2        -0.00000000
   3        -0.24926277
   4        -0.75939094
   5        -0.00000000
   6         0.00000000
   7         0.00000000
   8         0.24926277
   9         0.75939094
  10        -0.00000000
Sym=    10a  
Ene=    -0.1727
Spin= Alpha
Occup=    0.00000
   1         0.07827304
   2         0.79486827
   3        -0.00000000
   4        -0.00000000
   5         0.93283976
   6        -0.07827304
   7        -0.79486827
   8         0.00000000
   9         0.00000000
  10         0.93283976
