[Molden Format]
[N_Atoms]
                     2
[Atoms] (AU)
C1          1      6           0.00000000      0.00000000      0.00000000
C2          2      6           0.00000000      0.00000000      3.02356180
[Charge] (Mulliken)
  1.776356839400250E-013
 -1.971756091734278E-013
[GTO] (AU)
   1
   s  14
  5.055750100E+04  1.128874000E-04
  7.524785600E+03  5.295373000E-04
  1.694327600E+03  2.450038300E-03
  4.728227900E+02  1.005398470E-02
  1.517107500E+02  3.545398060E-02
  5.391874600E+01  1.044071086E-01
  2.065931100E+01  2.412894918E-01
  8.383976000E+00  3.834225483E-01
  3.577015000E+00  3.078514393E-01
  1.547118000E+00  6.872442990E-02
  6.130130000E-01  2.224445000E-04
  2.460680000E-01  1.976748900E-03
  9.908700000E-02  2.057859400E-03
  3.468000000E-02  4.182020000E-04
   s  14
  5.055750100E+04 -2.507420000E-05
  7.524785600E+03 -1.175945000E-04
  1.694327600E+03 -5.456275000E-04
  4.728227900E+02 -2.245077100E-03
  1.517107500E+02 -8.043471800E-03
  5.391874600E+01 -2.442588710E-02
  2.065931100E+01 -6.136791180E-02
  8.383976000E+00 -1.177767835E-01
  3.577015000E+00 -1.550487783E-01
  1.547118000E+00 -1.933316860E-02
  6.130130000E-01  3.996930678E-01
  2.460680000E-01  5.589420949E-01
  9.908700000E-02  1.711195023E-01
  3.468000000E-02  7.456244600E-03
   p   9
  8.333315500E+01  1.344656000E-03
  1.955761100E+01  1.023555500E-02
  6.080365000E+00  4.520067100E-02
  2.179317000E+00  1.410756198E-01
  8.651500000E-01  3.047388085E-01
  3.619440000E-01  3.995281011E-01
  1.547400000E-01  2.719163432E-01
  6.542900000E-02  5.857669330E-02
  2.290000000E-02 -1.263813000E-04
 
   2
   s  14
  5.055750100E+04  1.128874000E-04
  7.524785600E+03  5.295373000E-04
  1.694327600E+03  2.450038300E-03
  4.728227900E+02  1.005398470E-02
  1.517107500E+02  3.545398060E-02
  5.391874600E+01  1.044071086E-01
  2.065931100E+01  2.412894918E-01
  8.383976000E+00  3.834225483E-01
  3.577015000E+00  3.078514393E-01
  1.547118000E+00  6.872442990E-02
  6.130130000E-01  2.224445000E-04
  2.460680000E-01  1.976748900E-03
  9.908700000E-02  2.057859400E-03
  3.468000000E-02  4.182020000E-04
   s  14
  5.055750100E+04 -2.507420000E-05
  7.524785600E+03 -1.175945000E-04
  1.694327600E+03 -5.456275000E-04
  4.728227900E+02 -2.245077100E-03
  1.517107500E+02 -8.043471800E-03
  5.391874600E+01 -2.442588710E-02
  2.065931100E+01 -6.136791180E-02
  8.383976000E+00 -1.177767835E-01
  3.577015000E+00 -1.550487783E-01
  1.547118000E+00 -1.933316860E-02
  6.130130000E-01  3.996930678E-01
  2.460680000E-01  5.589420949E-01
  9.908700000E-02  1.711195023E-01
  3.468000000E-02  7.456244600E-03
   p   9
  8.333315500E+01  1.344656000E-03
  1.955761100E+01  1.023555500E-02
  6.080365000E+00  4.520067100E-02
  2.179317000E+00  1.410756198E-01
  8.651500000E-01  3.047388085E-01
  3.619440000E-01  3.995281011E-01
  1.547400000E-01  2.719163432E-01
  6.542900000E-02  5.857669330E-02
  2.290000000E-02 -1.263813000E-04
 
[MO]
Sym=     1a  
Ene=   -11.3670
Spin= Alpha
Occup=    2.00000
   1         0.70699896
   2        -0.00202853
   3         0.00000000
   4         0.00000000
   5         0.00040047
   6         0.70699898
   7        -0.00202853
   8        -0.00000000
   9        -0.00000000
  10        -0.00040047
Sym=     2a  
Ene=   -11.3660
Spin= Alpha
Occup=    2.00000
   1        -0.70723062
   2         0.00286149
   3         0.00000000
   4         0.00000000
   5        -0.00129231
   6         0.70723060
   7        -0.00286149
   8        -0.00000000
   9        -0.00000000
  10        -0.00129231
Sym=     3a  
Ene=    -0.9150
Spin= Alpha
Occup=    2.00000
   1        -0.02341999
   2         0.55484180
   3        -0.00000000
   4         0.00000000
   5         0.15630876
   6        -0.02341999
   7         0.55484180
   8        -0.00000000
   9         0.00000000
  10        -0.15630876
Sym=     4a  
Ene=    -0.3673
Spin= Alpha
Occup=    2.00000
   1         0.00000000
   2        -0.00000000
   3         0.11133491
   4         0.63115201
   5         0.00000000
   6         0.00000000
   7         0.00000000
   8         0.11133491
   9         0.63115201
  10         0.00000000
Sym=     5a  
Ene=    -0.3673
Spin= Alpha
Occup=    2.00000
   1        -0.00000000
   2         0.00000000
   3         0.63115201
   4        -0.11133491
   5        -0.00000000
   6        -0.00000000
   7         0.00000000
   8         0.63115201
   9        -0.11133491
  10        -0.00000000
Sym=     6a  
Ene=    -0.5397
Spin= Alpha
Occup=    1.82782
   1        -0.01275290
   2        -0.72256099
   3        -0.00000000
   4        -0.00000000
   5         0.20673491
   6         0.01275290
   7         0.72256099
   8         0.00000000
   9        -0.00000000
  10         0.20673491
Sym=     7a  
Ene=     0.0000
Spin= Alpha
Occup=    0.17218
   1         0.02750109
   2         0.32688196
   3        -0.00000000
   4        -0.00000000
   5        -0.63404286
   6         0.02750109
   7         0.32688196
   8         0.00000000
   9        -0.00000000
  10         0.63404286
Sym=     8a  
Ene=     0.1115
Spin= Alpha
Occup=    0.00000
   1        -0.00000000
   2        -0.00000000
   3         0.79902096
   4         0.01928821
   5        -0.00000000
   6         0.00000000
   7         0.00000000
   8        -0.79902096
   9        -0.01928821
  10        -0.00000000
Sym=     9a  
Ene=     0.1115
Spin= Alpha
Occup=    0.00000
   1         0.00000000
   2         0.00000000
   3         0.01928821
   4        -0.79902096
   5         0.00000000
   6        -0.00000000
   7         0.00000000
   8        -0.01928821
   9         0.79902096
  10         0.00000000
Sym=    10a  
Ene=     0.5218
Spin= Alpha
Occup=    0.00000
   1        -0.07618406
   2        -0.70800725
   3        -0.00000000
   4        -0.00000000
   5        -0.96736477
   6         0.07618406
   7         0.70800725
   8         0.00000000
   9         0.00000000
  10        -0.96736477
