[Molden Format]
[N_Atoms]
                     2
[Atoms] (AU)
C1          1      6           0.00000000      0.00000000      0.00000000
C2          2      6           0.00000000      0.00000000      3.02356180
[Charge] (Mulliken)
  1.878843747249448E-010
 -1.879012501149191E-010
[GTO] (AU)
   1
   s  14
  5.055750100E+04  1.128874000E-04
  7.524785600E+03  5.295373000E-04
  1.694327600E+03  2.450038300E-03
  4.728227900E+02  1.005398470E-02
  1.517107500E+02  3.545398060E-02
  5.391874600E+01  1.044071086E-01
  2.065931100E+01  2.412894918E-01
  8.383976000E+00  3.834225483E-01
  3.577015000E+00  3.078514393E-01
  1.547118000E+00  6.872442990E-02
  6.130130000E-01  2.224445000E-04
  2.460680000E-01  1.976748900E-03
  9.908700000E-02  2.057859400E-03
  3.468000000E-02  4.182020000E-04
   s  14
  5.055750100E+04 -2.507420000E-05
  7.524785600E+03 -1.175945000E-04
  1.694327600E+03 -5.456275000E-04
  4.728227900E+02 -2.245077100E-03
  1.517107500E+02 -8.043471800E-03
  5.391874600E+01 -2.442588710E-02
  2.065931100E+01 -6.136791180E-02
  8.383976000E+00 -1.177767835E-01
  3.577015000E+00 -1.550487783E-01
  1.547118000E+00 -1.933316860E-02
  6.130130000E-01  3.996930678E-01
  2.460680000E-01  5.589420949E-01
  9.908700000E-02  1.711195023E-01
  3.468000000E-02  7.456244600E-03
   p   9
  8.333315500E+01  1.344656000E-03
  1.955761100E+01  1.023555500E-02
  6.080365000E+00  4.520067100E-02
  2.179317000E+00  1.410756198E-01
  8.651500000E-01  3.047388085E-01
  3.619440000E-01  3.995281011E-01
  1.547400000E-01  2.719163432E-01
  6.542900000E-02  5.857669330E-02
  2.290000000E-02 -1.263813000E-04
 
   2
   s  14
  5.055750100E+04  1.128874000E-04
  7.524785600E+03  5.295373000E-04
  1.694327600E+03  2.450038300E-03
  4.728227900E+02  1.005398470E-02
  1.517107500E+02  3.545398060E-02
  5.391874600E+01  1.044071086E-01
  2.065931100E+01  2.412894918E-01
  8.383976000E+00  3.834225483E-01
  3.577015000E+00  3.078514393E-01
  1.547118000E+00  6.872442990E-02
  6.130130000E-01  2.224445000E-04
  2.460680000E-01  1.976748900E-03
  9.908700000E-02  2.057859400E-03
  3.468000000E-02  4.182020000E-04
   s  14
  5.055750100E+04 -2.507420000E-05
  7.524785600E+03 -1.175945000E-04
  1.694327600E+03 -5.456275000E-04
  4.728227900E+02 -2.245077100E-03
  1.517107500E+02 -8.043471800E-03
  5.391874600E+01 -2.442588710E-02
  2.065931100E+01 -6.136791180E-02
  8.383976000E+00 -1.177767835E-01
  3.577015000E+00 -1.550487783E-01
  1.547118000E+00 -1.933316860E-02
  6.130130000E-01  3.996930678E-01
  2.460680000E-01  5.589420949E-01
  9.908700000E-02  1.711195023E-01
  3.468000000E-02  7.456244600E-03
   p   9
  8.333315500E+01  1.344656000E-03
  1.955761100E+01  1.023555500E-02
  6.080365000E+00  4.520067100E-02
  2.179317000E+00  1.410756198E-01
  8.651500000E-01  3.047388085E-01
  3.619440000E-01  3.995281011E-01
  1.547400000E-01  2.719163432E-01
  6.542900000E-02  5.857669330E-02
  2.290000000E-02 -1.263813000E-04
 
[MO]
Sym=     1a  
Ene=   -11.3670
Spin= Alpha
Occup=    1.00000
   1         0.70700196
   2        -0.00213777
   3        -0.00000000
   4         0.00000000
   5         0.00039654
   6         0.70700213
   7        -0.00213777
   8        -0.00000000
   9         0.00000000
  10        -0.00039654
Sym=     1a  
Ene=   -11.3670
Spin= Beta
Occup=    1.00000
   1         0.70700196
   2        -0.00213777
   3        -0.00000000
   4         0.00000000
   5         0.00039654
   6         0.70700213
   7        -0.00213777
   8        -0.00000000
   9         0.00000000
  10        -0.00039654
Sym=     2a  
Ene=   -11.3660
Spin= Alpha
Occup=    1.00000
   1        -0.70726514
   2         0.00112688
   3        -0.00000000
   4        -0.00000000
   5        -0.00090115
   6         0.70726497
   7        -0.00112688
   8        -0.00000000
   9        -0.00000000
  10        -0.00090115
Sym=     2a  
Ene=   -11.3660
Spin= Beta
Occup=    1.00000
   1        -0.70726514
   2         0.00112688
   3        -0.00000000
   4        -0.00000000
   5        -0.00090115
   6         0.70726497
   7        -0.00112688
   8        -0.00000000
   9        -0.00000000
  10        -0.00090115
Sym=     3a  
Ene=    -0.9238
Spin= Alpha
Occup=    1.00000
   1        -0.02171913
   2         0.57226573
   3        -0.00000000
   4         0.00000000
   5         0.12057980
   6        -0.02171913
   7         0.57226573
   8        -0.00000000
   9         0.00000000
  10        -0.12057980
Sym=     3a  
Ene=    -0.9238
Spin= Beta
Occup=    1.00000
   1        -0.02171913
   2         0.57226573
   3        -0.00000000
   4         0.00000000
   5         0.12057980
   6        -0.02171913
   7         0.57226573
   8        -0.00000000
   9         0.00000000
  10        -0.12057980
Sym=     4a  
Ene=    -0.5759
Spin= Alpha
Occup=    1.00000
   1        -0.01465508
   2        -0.75479703
   3        -0.00000000
   4         0.00000000
   5         0.16139997
   6         0.01465508
   7         0.75479703
   8        -0.00000000
   9        -0.00000000
  10         0.16139997
Sym=     4a  
Ene=    -0.5759
Spin= Beta
Occup=    1.00000
   1        -0.01465508
   2        -0.75479703
   3        -0.00000000
   4         0.00000000
   5         0.16139997
   6         0.01465508
   7         0.75479703
   8        -0.00000000
   9        -0.00000000
  10         0.16139997
Sym=     5a  
Ene=    -0.3715
Spin= Alpha
Occup=    1.00000
   1        -0.00000000
   2        -0.00000000
   3         0.15545554
   4         0.62175711
   5         0.00000000
   6        -0.00000000
   7        -0.00000000
   8         0.15545554
   9         0.62175711
  10        -0.00000000
Sym=     5a  
Ene=    -0.3715
Spin= Beta
Occup=    1.00000
   1        -0.00000000
   2        -0.00000000
   3         0.15545554
   4         0.62175711
   5         0.00000000
   6        -0.00000000
   7        -0.00000000
   8         0.15545554
   9         0.62175711
  10        -0.00000000
Sym=     6a  
Ene=    -0.3715
Spin= Alpha
Occup=    1.00000
   1         0.00000000
   2         0.00000000
   3         0.62175711
   4        -0.15545554
   5        -0.00000000
   6         0.00000000
   7         0.00000000
   8         0.62175711
   9        -0.15545554
  10         0.00000000
Sym=     6a  
Ene=    -0.3715
Spin= Beta
Occup=    1.00000
   1         0.00000000
   2         0.00000000
   3         0.62175711
   4        -0.15545554
   5        -0.00000000
   6         0.00000000
   7         0.00000000
   8         0.62175711
   9        -0.15545554
  10         0.00000000
Sym=     7a  
Ene=    -0.0527
Spin= Alpha
Occup=    0.00000
   1         0.02878785
   2         0.29531801
   3        -0.00000000
   4         0.00000000
   5        -0.64179692
   6         0.02878785
   7         0.29531801
   8        -0.00000000
   9         0.00000000
  10         0.64179692
Sym=     7a  
Ene=    -0.0527
Spin= Beta
Occup=    0.00000
   1         0.02878785
   2         0.29531801
   3        -0.00000000
   4         0.00000000
   5        -0.64179692
   6         0.02878785
   7         0.29531801
   8        -0.00000000
   9         0.00000000
  10         0.64179692
Sym=     8a  
Ene=     0.1061
Spin= Alpha
Occup=    0.00000
   1         0.00000000
   2         0.00000000
   3        -0.79925374
   4        -0.00004068
   5         0.00000000
   6        -0.00000000
   7        -0.00000000
   8         0.79925374
   9         0.00004068
  10         0.00000000
Sym=     8a  
Ene=     0.1061
Spin= Beta
Occup=    0.00000
   1         0.00000000
   2         0.00000000
   3        -0.79925374
   4        -0.00004068
   5         0.00000000
   6        -0.00000000
   7        -0.00000000
   8         0.79925374
   9         0.00004068
  10         0.00000000
Sym=     9a  
Ene=     0.1061
Spin= Alpha
Occup=    0.00000
   1        -0.00000000
   2        -0.00000000
   3         0.00004068
   4        -0.79925374
   5        -0.00000000
   6         0.00000000
   7         0.00000000
   8        -0.00004068
   9         0.79925374
  10        -0.00000000
Sym=     9a  
Ene=     0.1061
Spin= Beta
Occup=    0.00000
   1        -0.00000000
   2        -0.00000000
   3         0.00004068
   4        -0.79925374
   5        -0.00000000
   6         0.00000000
   7         0.00000000
   8        -0.00004068
   9         0.79925374
  10        -0.00000000
Sym=    10a  
Ene=     0.5189
Spin= Alpha
Occup=    0.00000
   1         0.07551924
   2         0.67354066
   3         0.00000000
   4        -0.00000000
   5         0.97595329
   6        -0.07551924
   7        -0.67354066
   8        -0.00000000
   9         0.00000000
  10         0.97595329
Sym=    10a  
Ene=     0.5189
Spin= Beta
Occup=    0.00000
   1         0.07551924
   2         0.67354066
   3         0.00000000
   4        -0.00000000
   5         0.97595329
   6        -0.07551924
   7        -0.67354066
   8        -0.00000000
   9         0.00000000
  10         0.97595329
