[Molden Format]
[N_Atoms]
                     2
[Atoms] (AU)
C1          1      6           0.00000000      0.00000000      0.00000000
C2          2      6           0.00000000      0.00000000      3.02356180
[Charge] (Mulliken)
  0.999999999968844     
   1.00000000003115     
[GTO] (AU)
   1
   s  14
  5.055750100E+04  1.128874000E-04
  7.524785600E+03  5.295373000E-04
  1.694327600E+03  2.450038300E-03
  4.728227900E+02  1.005398470E-02
  1.517107500E+02  3.545398060E-02
  5.391874600E+01  1.044071086E-01
  2.065931100E+01  2.412894918E-01
  8.383976000E+00  3.834225483E-01
  3.577015000E+00  3.078514393E-01
  1.547118000E+00  6.872442990E-02
  6.130130000E-01  2.224445000E-04
  2.460680000E-01  1.976748900E-03
  9.908700000E-02  2.057859400E-03
  3.468000000E-02  4.182020000E-04
   s  14
  5.055750100E+04 -2.507420000E-05
  7.524785600E+03 -1.175945000E-04
  1.694327600E+03 -5.456275000E-04
  4.728227900E+02 -2.245077100E-03
  1.517107500E+02 -8.043471800E-03
  5.391874600E+01 -2.442588710E-02
  2.065931100E+01 -6.136791180E-02
  8.383976000E+00 -1.177767835E-01
  3.577015000E+00 -1.550487783E-01
  1.547118000E+00 -1.933316860E-02
  6.130130000E-01  3.996930678E-01
  2.460680000E-01  5.589420949E-01
  9.908700000E-02  1.711195023E-01
  3.468000000E-02  7.456244600E-03
   p   9
  8.333315500E+01  1.344656000E-03
  1.955761100E+01  1.023555500E-02
  6.080365000E+00  4.520067100E-02
  2.179317000E+00  1.410756198E-01
  8.651500000E-01  3.047388085E-01
  3.619440000E-01  3.995281011E-01
  1.547400000E-01  2.719163432E-01
  6.542900000E-02  5.857669330E-02
  2.290000000E-02 -1.263813000E-04
 
   2
   s  14
  5.055750100E+04  1.128874000E-04
  7.524785600E+03  5.295373000E-04
  1.694327600E+03  2.450038300E-03
  4.728227900E+02  1.005398470E-02
  1.517107500E+02  3.545398060E-02
  5.391874600E+01  1.044071086E-01
  2.065931100E+01  2.412894918E-01
  8.383976000E+00  3.834225483E-01
  3.577015000E+00  3.078514393E-01
  1.547118000E+00  6.872442990E-02
  6.130130000E-01  2.224445000E-04
  2.460680000E-01  1.976748900E-03
  9.908700000E-02  2.057859400E-03
  3.468000000E-02  4.182020000E-04
   s  14
  5.055750100E+04 -2.507420000E-05
  7.524785600E+03 -1.175945000E-04
  1.694327600E+03 -5.456275000E-04
  4.728227900E+02 -2.245077100E-03
  1.517107500E+02 -8.043471800E-03
  5.391874600E+01 -2.442588710E-02
  2.065931100E+01 -6.136791180E-02
  8.383976000E+00 -1.177767835E-01
  3.577015000E+00 -1.550487783E-01
  1.547118000E+00 -1.933316860E-02
  6.130130000E-01  3.996930678E-01
  2.460680000E-01  5.589420949E-01
  9.908700000E-02  1.711195023E-01
  3.468000000E-02  7.456244600E-03
   p   9
  8.333315500E+01  1.344656000E-03
  1.955761100E+01  1.023555500E-02
  6.080365000E+00  4.520067100E-02
  2.179317000E+00  1.410756198E-01
  8.651500000E-01  3.047388085E-01
  3.619440000E-01  3.995281011E-01
  1.547400000E-01  2.719163432E-01
  6.542900000E-02  5.857669330E-02
  2.290000000E-02 -1.263813000E-04
 
[MO]
Sym=     1a  
Ene=   -12.3960
Spin= Alpha
Occup=    2.00000
   1         0.70702902
   2        -0.00331719
   3         0.00000000
   4         0.00000000
   5         0.00043832
   6         0.70702907
   7        -0.00331719
   8         0.00000000
   9        -0.00000000
  10        -0.00043832
Sym=     2a  
Ene=   -12.3950
Spin= Alpha
Occup=    2.00000
   1        -0.70698867
   2         0.00882130
   3         0.00000000
   4         0.00000000
   5        -0.00077320
   6         0.70698862
   7        -0.00882130
   8         0.00000000
   9         0.00000000
  10        -0.00077320
Sym=     3a  
Ene=    -1.7273
Spin= Alpha
Occup=    2.00000
   1        -0.02327021
   2         0.53917793
   3         0.00000000
   4         0.00000000
   5         0.18537180
   6        -0.02327021
   7         0.53917794
   8        -0.00000000
   9         0.00000000
  10        -0.18537180
Sym=     4a  
Ene=    -1.1413
Spin= Alpha
Occup=    2.00000
   1         0.00000000
   2        -0.00000000
   3        -0.24362233
   4         0.59278705
   5         0.00000000
   6         0.00000000
   7         0.00000000
   8        -0.24362233
   9         0.59278705
  10         0.00000000
Sym=     5a  
Ene=    -0.7882
Spin= Alpha
Occup=    0.02799
   1         0.00000000
   2        -0.00000000
   3         0.59278705
   4         0.24362233
   5         0.00000000
   6        -0.00000000
   7         0.00000000
   8         0.59278705
   9         0.24362233
  10         0.00000000
Sym=     6a  
Ene=    -0.0790
Spin= Alpha
Occup=    1.97201
   1        -0.02787530
   2        -0.81390814
   3        -0.00000000
   4        -0.00000000
   5         0.07027891
   6         0.02787530
   7         0.81390813
   8        -0.00000000
   9        -0.00000000
  10         0.07027891
Sym=     7a  
Ene=    -0.8302
Spin= Alpha
Occup=    0.00000
   1         0.02684725
   2         0.35211007
   3        -0.00000000
   4        -0.00000000
   5        -0.62616295
   6         0.02684725
   7         0.35211007
   8        -0.00000000
   9        -0.00000000
  10         0.62616295
Sym=     8a  
Ene=    -0.6930
Spin= Alpha
Occup=    0.00000
   1        -0.00000000
   2        -0.00000000
   3         0.30381826
   4        -0.73925706
   5         0.00000000
   6        -0.00000000
   7        -0.00000000
   8        -0.30381826
   9         0.73925706
  10        -0.00000000
Sym=     9a  
Ene=    -0.6108
Spin= Alpha
Occup=    0.00000
   1         0.00000000
   2         0.00000000
   3        -0.73925706
   4        -0.30381826
   5         0.00000000
   6        -0.00000000
   7        -0.00000000
   8         0.73925706
   9         0.30381826
  10         0.00000000
Sym=    10a  
Ene=    -0.3530
Spin= Alpha
Occup=    0.00000
   1        -0.07437616
   2        -0.60071006
   3        -0.00000000
   4        -0.00000000
   5        -0.98670961
   6         0.07437616
   7         0.60071006
   8         0.00000000
   9         0.00000000
  10        -0.98670961
