[Molden Format]
[N_Atoms]
                     2
[Atoms] (AU)
BE1         1      4           0.00000000      0.00000000      0.00000000
N2          2      7           0.00000000      0.00000000      4.15739747
[Charge] (Mulliken)
 -8.319912255966067E-003
  8.319912255922546E-003
[GTO] (AU)
   1
   s  14
  2.262859900E+04  8.443999941E-05
  3.372318100E+03  4.601499968E-04
  7.603504000E+02  2.285389984E-03
  2.117404800E+02  9.648129932E-03
  6.722346800E+01  3.494469975E-02
  2.337217700E+01  1.061099893E-01
  8.721373000E+00  2.458240383E-01
  3.468091000E+00  3.862428773E-01
  1.452144000E+00  3.105526078E-01
  6.086150000E-01  6.415933955E-02
  2.576860000E-01 -2.265049984E-03
  1.041760000E-01 -5.217499963E-04
  4.242700000E-02 -8.757499938E-04
  1.484900000E-02  1.242199991E-04
   s  14
  2.262859900E+04 -1.586999994E-05
  3.372318100E+03 -8.656999968E-05
  7.603504000E+02 -4.302199984E-04
  2.117404800E+02 -1.825079993E-03
  6.722346800E+01 -6.682749976E-03
  2.337217700E+01 -2.095119992E-02
  8.721373000E+00 -5.200308981E-02
  3.468091000E+00 -9.849176964E-02
  1.452144000E+00 -1.355800695E-01
  6.086150000E-01 -6.429875976E-02
  2.576860000E-01  3.125414989E-01
  1.041760000E-01  6.270468577E-01
  4.242700000E-02  2.110231492E-01
  1.484900000E-02 -4.104669985E-03
   p   9
  3.371018400E+01  1.069960000E-03
  8.057649500E+00  6.828550001E-03
  2.836471400E+00  2.119065000E-02
  1.099965700E+00  5.843696001E-02
  4.433964000E-01  2.020920800E-01
  1.822264000E-01  4.582953101E-01
  7.572410000E-02  3.691239601E-01
  3.168540000E-02  6.611471001E-02
  1.108990000E-02  1.405160000E-03
 
   2
   s  14
  7.476171500E+04  1.182599996E-04
  1.112365400E+04  5.172899983E-04
  2.512685700E+03  2.266659992E-03
  7.037772900E+02  9.145289970E-03
  2.254787900E+02  3.239342989E-02
  7.961581000E+01  9.770792967E-02
  3.023728300E+01  2.317036792E-01
  1.226362200E+01  3.768898887E-01
  5.265086000E+00  3.177420689E-01
  2.333471000E+00  8.211308973E-02
  9.018560000E-01  3.312089989E-03
  3.583360000E-01  3.720819988E-03
  1.410930000E-01  3.165419989E-03
  4.938300000E-02  4.595799985E-04
   s  14
  7.476171500E+04 -2.707000010E-05
  1.112365400E+04 -1.183700004E-04
  2.512685700E+03 -5.203800020E-04
  7.037772900E+02 -2.102930008E-03
  2.254787900E+02 -7.568200028E-03
  7.961581000E+01 -2.346767009E-02
  3.023728300E+01 -6.042901023E-02
  1.226362200E+01 -1.170549104E-01
  5.265086000E+00 -1.555321506E-01
  2.333471000E+00 -2.468935009E-02
  9.018560000E-01  3.625054514E-01
  3.583360000E-01  5.550845021E-01
  1.410930000E-01  2.148376908E-01
  4.938300000E-02  8.983850034E-03
   p   9
  1.266665700E+02  1.233630000E-03
  2.983738900E+01  9.493409996E-03
  9.394038000E+00  4.293961998E-02
  3.405104000E+00  1.362925399E-01
  1.350000000E+00  2.921362499E-01
  5.576960000E-01  3.887887598E-01
  2.324490000E-01  2.946801399E-01
  9.426400000E-02  8.012875997E-02
  3.299200000E-02  5.405199998E-04
 
[MO]
Sym=     1a  
Ene=   -15.6560
Spin= Alpha
Occup=    1.00000
   1        -0.00014014
   2        -0.00126369
   3         0.00000000
   4         0.00000000
   5        -0.00145643
   6         1.00007663
   7        -0.00177071
   8        -0.00000000
   9        -0.00000000
  10        -0.00069301
Sym=     1a  
Ene=   -15.5650
Spin= Beta
Occup=    1.00000
   1        -0.00006940
   2        -0.00043282
   3         0.00000000
   4         0.00000000
   5        -0.00039134
   6         0.99998376
   7        -0.00870394
   8        -0.00000000
   9        -0.00000000
  10        -0.00032361
Sym=     2a  
Ene=    -4.7027
Spin= Alpha
Occup=    1.00000
   1         0.99998986
   2         0.00297868
   3         0.00000000
   4         0.00000000
   5         0.00052035
   6        -0.00004239
   7        -0.00000826
   8        -0.00000000
   9        -0.00000000
  10        -0.00023478
Sym=     2a  
Ene=    -4.7379
Spin= Beta
Occup=    1.00000
   1         0.99999591
   2         0.00438195
   3         0.00000000
   4         0.00000000
   5         0.00037996
   6        -0.00006026
   7        -0.00017095
   8        -0.00000000
   9        -0.00000000
  10         0.00015883
Sym=     3a  
Ene=    -1.1668
Spin= Alpha
Occup=    1.00000
   1         0.01040710
   2         0.00079497
   3        -0.00000000
   4        -0.00000000
   5        -0.00312138
   6        -0.00242133
   7        -0.99900850
   8         0.00000000
   9         0.00000000
  10         0.01790945
Sym=     3a  
Ene=    -0.7691
Spin= Beta
Occup=    1.00000
   1         0.01098975
   2        -0.11744709
   3         0.00000000
   4         0.00000000
   5        -0.06303424
   6        -0.00407948
   7        -0.94388611
   8        -0.00000000
   9        -0.00000000
  10         0.03964552
Sym=     4a  
Ene=    -0.5891
Spin= Alpha
Occup=    1.00000
   1        -0.02296367
   2         0.07587084
   3         0.00000000
   4         0.00000000
   5         0.08193374
   6        -0.00467210
   7        -0.06160886
   8         0.00000000
   9         0.00000000
  10        -0.96242639
Sym=     4a  
Ene=    -0.3675
Spin= Beta
Occup=    1.00000
   1        -0.00371181
   2         0.98116254
   3         0.00000000
   4         0.00000000
   5        -0.10044262
   6        -0.01710351
   7        -0.29389336
   8        -0.00000000
   9        -0.00000000
  10        -0.10275454
Sym=     5a  
Ene=    -0.5856
Spin= Alpha
Occup=    1.00000
   1         0.00000000
   2        -0.00000000
   3        -0.01426228
   4         0.01714958
   5        -0.00000000
   6         0.00000000
   7         0.00000000
   8        -0.63743406
   9         0.76647844
  10         0.00000000
Sym=     5a  
Ene=    -0.2398
Spin= Beta
Occup=    1.00000
   1         0.00000000
   2        -0.00000000
   3         0.74591235
   4         0.62033048
   5        -0.00000000
   6         0.00000000
   7         0.00000000
   8         0.11400653
   9         0.09481238
  10         0.00000000
Sym=     6a  
Ene=    -0.5806
Spin= Alpha
Occup=    1.00000
   1        -0.00000000
   2         0.00000000
   3        -0.01401016
   4        -0.01165141
   5         0.00000000
   6        -0.00000000
   7        -0.00000000
   8        -0.76694278
   9        -0.63782022
  10        -0.00000000
Sym=     6a  
Ene=     0.0564
Spin= Beta
Occup=    0.00000
   1        -0.00000000
   2         0.00000000
   3        -0.60017157
   4         0.72167241
   5         0.00000000
   6        -0.00000000
   7        -0.00000000
   8        -0.15674545
   9         0.18847755
  10        -0.00000000
Sym=     7a  
Ene=     0.0705
Spin= Alpha
Occup=    0.00000
   1         0.00342388
   2         1.00224961
   3        -0.00000000
   4        -0.00000000
   5        -0.19755635
   6        -0.01229690
   7        -0.14749436
   8         0.00000000
   9         0.00000000
  10         0.20096866
Sym=     7a  
Ene=     0.0582
Spin= Beta
Occup=    0.00000
   1         0.00816562
   2         0.02896377
   3        -0.00000000
   4        -0.00000000
   5        -0.81663499
   6         0.03099102
   7         0.34330320
   8        -0.00000000
   9        -0.00000000
  10         0.47875841
Sym=     8a  
Ene=     0.1640
Spin= Alpha
Occup=    0.00000
   1         0.00000000
   2         0.00000000
   3        -0.64455875
   4         0.77504548
   5         0.00000000
   6        -0.00000000
   7        -0.00000000
   8         0.09662926
   9        -0.11619122
  10         0.00000000
Sym=     8a  
Ene=     0.2148
Spin= Beta
Occup=    0.00000
   1        -0.00000000
   2        -0.00000000
   3         0.21119746
   4         0.17564024
   5        -0.00000000
   6         0.00000000
   7         0.00000000
   8        -0.76680644
   9        -0.63770683
  10        -0.00000000
Sym=     9a  
Ene=     0.2012
Spin= Alpha
Occup=    0.00000
   1         0.00000000
   2         0.00000000
   3         0.77510858
   4         0.64461123
   5         0.00000000
   6        -0.00000000
   7        -0.00000000
   8        -0.11308568
   9        -0.09404657
  10         0.00000000
Sym=     9a  
Ene=     0.2352
Spin= Beta
Occup=    0.00000
   1        -0.00000000
   2        -0.00000000
   3         0.23548562
   4        -0.28315815
   5        -0.00000000
   6         0.00000000
   7        -0.00000000
   8        -0.62537210
   9         0.75197461
  10        -0.00000000
Sym=    10a  
Ene=     0.2425
Spin= Alpha
Occup=    0.00000
   1        -0.01199644
   2        -0.31832798
   3         0.00000000
   4         0.00000000
   5        -1.07884900
   6         0.04599125
   7         0.42543563
   8        -0.00000000
   9        -0.00000000
  10        -0.38478046
Sym=    10a  
Ene=     0.3320
Spin= Beta
Occup=    0.00000
   1         0.02404085
   2         0.36643202
   3         0.00000000
   4         0.00000000
   5         0.72712717
   6        -0.03478821
   7        -0.33066547
   8        -0.00000000
   9        -0.00000000
  10         0.93471399
