[Molden Format]
[N_Atoms]
                     2
[Atoms] (AU)
LI1         1      3           0.00000000      0.00000000      0.00000000
LI2         2      3           0.00000000      0.00000000      2.83458919
[Charge] (Mulliken)
  6.252776074688882E-013
 -6.381561945545400E-013
[GTO] (AU)
   1
   s  14
  9.497934400E+03  9.668999974E-05
  1.416811200E+03  6.087099984E-04
  3.214599400E+02  3.101519992E-03
  9.112416300E+01  1.266904997E-02
  2.999989100E+01  4.248012989E-02
  1.101763100E+01  1.150183297E-01
  4.372801000E+00  2.398650094E-01
  1.831256000E+00  3.584300090E-01
  8.022610000E-01  3.048527792E-01
  3.626480000E-01  8.824261976E-02
  1.139950000E-01 -8.445899977E-04
  5.123700000E-02 -7.943959979E-03
  2.246800000E-02 -3.764419990E-03
  7.860000000E-03 -8.868999976E-05
   s  14
  9.497934400E+03 -1.244999993E-05
  1.416811200E+03 -7.838999954E-05
  3.214599400E+02 -4.007099976E-04
  9.112416300E+01 -1.645249990E-03
  2.999989100E+01 -5.634599967E-03
  1.101763100E+01 -1.590780991E-02
  4.372801000E+00 -3.612581979E-02
  1.831256000E+00 -6.459927962E-02
  8.022610000E-01 -1.008321794E-01
  3.626480000E-01 -9.757613942E-02
  1.139950000E-01  2.301215886E-01
  5.123700000E-02  6.102389764E-01
  2.246800000E-02  2.849406083E-01
  7.860000000E-03  4.026899976E-03
   p   9
  1.311950400E+01  1.524940000E-03
  3.077424200E+00  8.314830000E-03
  1.098800500E+00  1.933203000E-02
  4.357784000E-01  4.934293000E-02
  1.802432000E-01  1.623554000E-01
  7.613330000E-02  3.847505400E-01
  3.254650000E-02  4.336100400E-01
  1.401820000E-02  1.287005900E-01
  4.906400000E-03 -1.018520000E-03
 
   2
   s  14
  9.497934400E+03  9.668999974E-05
  1.416811200E+03  6.087099984E-04
  3.214599400E+02  3.101519992E-03
  9.112416300E+01  1.266904997E-02
  2.999989100E+01  4.248012989E-02
  1.101763100E+01  1.150183297E-01
  4.372801000E+00  2.398650094E-01
  1.831256000E+00  3.584300090E-01
  8.022610000E-01  3.048527792E-01
  3.626480000E-01  8.824261976E-02
  1.139950000E-01 -8.445899977E-04
  5.123700000E-02 -7.943959979E-03
  2.246800000E-02 -3.764419990E-03
  7.860000000E-03 -8.868999976E-05
   s  14
  9.497934400E+03 -1.244999993E-05
  1.416811200E+03 -7.838999954E-05
  3.214599400E+02 -4.007099976E-04
  9.112416300E+01 -1.645249990E-03
  2.999989100E+01 -5.634599967E-03
  1.101763100E+01 -1.590780991E-02
  4.372801000E+00 -3.612581979E-02
  1.831256000E+00 -6.459927962E-02
  8.022610000E-01 -1.008321794E-01
  3.626480000E-01 -9.757613942E-02
  1.139950000E-01  2.301215886E-01
  5.123700000E-02  6.102389764E-01
  2.246800000E-02  2.849406083E-01
  7.860000000E-03  4.026899976E-03
   p   9
  1.311950400E+01  1.524940000E-03
  3.077424200E+00  8.314830000E-03
  1.098800500E+00  1.933203000E-02
  4.357784000E-01  4.934293000E-02
  1.802432000E-01  1.623554000E-01
  7.613330000E-02  3.847505400E-01
  3.254650000E-02  4.336100400E-01
  1.401820000E-02  1.287005900E-01
  4.906400000E-03 -1.018520000E-03
 
[MO]
Sym=     1a  
Ene=    -2.5680
Spin= Alpha
Occup=    2.00000
   1         0.69958288
   2         0.00468950
   3        -0.00000000
   4         0.00000000
   5         0.00546769
   6         0.69958288
   7         0.00468950
   8         0.00000000
   9        -0.00000000
  10        -0.00546769
Sym=     2a  
Ene=    -2.5277
Spin= Alpha
Occup=    2.00000
   1        -0.71504553
   2        -0.01162631
   3        -0.00000000
   4         0.00000000
   5        -0.00184691
   6         0.71504553
   7         0.01162631
   8         0.00000000
   9        -0.00000000
  10        -0.00184691
Sym=     3a  
Ene=    -0.1915
Spin= Alpha
Occup=    1.81369
   1        -0.11047029
   2         0.49759702
   3        -0.00000000
   4         0.00000000
   5         0.12447140
   6        -0.11047029
   7         0.49759702
   8        -0.00000000
   9         0.00000000
  10        -0.12447140
Sym=     4a  
Ene=    -0.0000
Spin= Alpha
Occup=    0.18631
   1        -0.00000000
   2         0.00000000
   3         0.48737327
   4        -0.20240113
   5         0.00000000
   6        -0.00000000
   7         0.00000000
   8         0.48737327
   9        -0.20240113
  10         0.00000000
Sym=     5a  
Ene=     0.0120
Spin= Alpha
Occup=    0.00000
   1        -0.00000000
   2         0.00000000
   3         0.20240113
   4         0.48737327
   5        -0.00000000
   6         0.00000000
   7        -0.00000000
   8         0.20240113
   9         0.48737327
  10        -0.00000000
Sym=     6a  
Ene=     0.0239
Spin= Alpha
Occup=    0.00000
   1         0.04015844
   2        -0.41025531
   3         0.00000000
   4         0.00000000
   5         0.45564999
   6        -0.04015844
   7         0.41025531
   8         0.00000000
   9         0.00000000
  10         0.45564999
Sym=     7a  
Ene=     0.1125
Spin= Alpha
Occup=    0.00000
   1         0.19413678
   2         0.31548956
   3         0.00000000
   4         0.00000000
   5        -1.10717486
   6         0.19413678
   7         0.31548956
   8        -0.00000000
   9        -0.00000000
  10         1.10717486
Sym=     8a  
Ene=     0.1616
Spin= Alpha
Occup=    0.00000
   1         0.00000000
   2         0.00000000
   3        -1.44350239
   4         0.59947175
   5         0.00000000
   6        -0.00000000
   7        -0.00000000
   8         1.44350239
   9        -0.59947175
  10         0.00000000
Sym=     9a  
Ene=     0.1618
Spin= Alpha
Occup=    0.00000
   1         0.00000000
   2         0.00000000
   3        -0.59947175
   4        -1.44350239
   5        -0.00000000
   6         0.00000000
   7         0.00000000
   8         0.59947175
   9         1.44350239
  10         0.00000000
Sym=    10a  
Ene=     1.1628
Spin= Alpha
Occup=    0.00000
   1        -1.95141102
   2        -8.36666791
   3        -0.00000000
   4         0.00000000
   5        -2.88696085
   6         1.95141102
   7         8.36666791
   8         0.00000000
   9        -0.00000000
  10        -2.88696085
