[Molden Format]
[N_Atoms]
                     2
[Atoms] (AU)
LI1         1      3           0.00000000      0.00000000      0.00000000
LI2         2      3           0.00000000      0.00000000      2.83458919
[Charge] (Mulliken)
   1.00211242967786     
  0.997887570322127     
[GTO] (AU)
   1
   s  14
  9.497934400E+03  9.668999974E-05
  1.416811200E+03  6.087099984E-04
  3.214599400E+02  3.101519992E-03
  9.112416300E+01  1.266904997E-02
  2.999989100E+01  4.248012989E-02
  1.101763100E+01  1.150183297E-01
  4.372801000E+00  2.398650094E-01
  1.831256000E+00  3.584300090E-01
  8.022610000E-01  3.048527792E-01
  3.626480000E-01  8.824261976E-02
  1.139950000E-01 -8.445899977E-04
  5.123700000E-02 -7.943959979E-03
  2.246800000E-02 -3.764419990E-03
  7.860000000E-03 -8.868999976E-05
   s  14
  9.497934400E+03 -1.244999993E-05
  1.416811200E+03 -7.838999954E-05
  3.214599400E+02 -4.007099976E-04
  9.112416300E+01 -1.645249990E-03
  2.999989100E+01 -5.634599967E-03
  1.101763100E+01 -1.590780991E-02
  4.372801000E+00 -3.612581979E-02
  1.831256000E+00 -6.459927962E-02
  8.022610000E-01 -1.008321794E-01
  3.626480000E-01 -9.757613942E-02
  1.139950000E-01  2.301215886E-01
  5.123700000E-02  6.102389764E-01
  2.246800000E-02  2.849406083E-01
  7.860000000E-03  4.026899976E-03
   p   9
  1.311950400E+01  1.524940000E-03
  3.077424200E+00  8.314830000E-03
  1.098800500E+00  1.933203000E-02
  4.357784000E-01  4.934293000E-02
  1.802432000E-01  1.623554000E-01
  7.613330000E-02  3.847505400E-01
  3.254650000E-02  4.336100400E-01
  1.401820000E-02  1.287005900E-01
  4.906400000E-03 -1.018520000E-03
 
   2
   s  14
  9.497934400E+03  9.668999974E-05
  1.416811200E+03  6.087099984E-04
  3.214599400E+02  3.101519992E-03
  9.112416300E+01  1.266904997E-02
  2.999989100E+01  4.248012989E-02
  1.101763100E+01  1.150183297E-01
  4.372801000E+00  2.398650094E-01
  1.831256000E+00  3.584300090E-01
  8.022610000E-01  3.048527792E-01
  3.626480000E-01  8.824261976E-02
  1.139950000E-01 -8.445899977E-04
  5.123700000E-02 -7.943959979E-03
  2.246800000E-02 -3.764419990E-03
  7.860000000E-03 -8.868999976E-05
   s  14
  9.497934400E+03 -1.244999993E-05
  1.416811200E+03 -7.838999954E-05
  3.214599400E+02 -4.007099976E-04
  9.112416300E+01 -1.645249990E-03
  2.999989100E+01 -5.634599967E-03
  1.101763100E+01 -1.590780991E-02
  4.372801000E+00 -3.612581979E-02
  1.831256000E+00 -6.459927962E-02
  8.022610000E-01 -1.008321794E-01
  3.626480000E-01 -9.757613942E-02
  1.139950000E-01  2.301215886E-01
  5.123700000E-02  6.102389764E-01
  2.246800000E-02  2.849406083E-01
  7.860000000E-03  4.026899976E-03
   p   9
  1.311950400E+01  1.524940000E-03
  3.077424200E+00  8.314830000E-03
  1.098800500E+00  1.933203000E-02
  4.357784000E-01  4.934293000E-02
  1.802432000E-01  1.623554000E-01
  7.613330000E-02  3.847505400E-01
  3.254650000E-02  4.336100400E-01
  1.401820000E-02  1.287005900E-01
  4.906400000E-03 -1.018520000E-03
 
[MO]
Sym=     1a  
Ene=    -3.1467
Spin= Alpha
Occup=    2.00000
   1         0.01634008
   2        -0.01310496
   3        -0.00000000
   4         0.00000000
   5         0.00056654
   6         1.00130329
   7         0.02221883
   8         0.00000000
   9         0.00000000
  10        -0.01124488
Sym=     2a  
Ene=    -3.1445
Spin= Alpha
Occup=    1.99985
   1        -1.00139686
   2        -0.02035774
   3        -0.00000000
   4        -0.00000000
   5        -0.01040119
   6         0.04380704
   7         0.01154424
   8        -0.00000000
   9        -0.00000000
  10         0.00121559
Sym=     3a  
Ene=    -0.0022
Spin= Alpha
Occup=    0.00015
   1        -1.62757210
   2        -6.18215751
   3        -0.00000000
   4         0.00000000
   5        -1.97667671
   6         1.40303512
   7         6.50074506
   8        -0.00000000
   9        -0.00000000
  10        -2.72748586
Sym=     4a  
Ene=    -0.3597
Spin= Alpha
Occup=    0.00000
   1        -0.00000000
   2        -0.00000000
   3        -0.39079443
   4         0.35489033
   5        -0.00000000
   6         0.00000000
   7        -0.00000000
   8        -0.39055807
   9         0.35467569
  10        -0.00000000
Sym=     5a  
Ene=    -0.3597
Spin= Alpha
Occup=    0.00000
   1         0.00000000
   2         0.00000000
   3         0.35489033
   4         0.39079443
   5         0.00000000
   6        -0.00000000
   7         0.00000000
   8         0.35467569
   9         0.39055807
  10         0.00000000
Sym=     6a  
Ene=    -0.3560
Spin= Alpha
Occup=    0.00000
   1         0.07291016
   2         0.35243963
   3        -0.00000000
   4        -0.00000000
   5         0.41593583
   6        -0.15381963
   7         0.30661639
   8        -0.00000000
   9         0.00000000
  10         0.55917962
Sym=     7a  
Ene=    -0.2935
Spin= Alpha
Occup=    0.00000
   1        -0.20563752
   2        -0.99826214
   3         0.00000000
   4        -0.00000000
   5         0.94190768
   6        -0.05007057
   7         0.11774845
   8         0.00000000
   9         0.00000000
  10        -0.86285934
Sym=     8a  
Ene=    -0.2321
Spin= Alpha
Occup=    0.00000
   1         0.00000000
   2         0.00000000
   3        -1.55986726
   4         0.09854518
   5         0.00000000
   6        -0.00000000
   7        -0.00000000
   8         1.55997484
   9        -0.09855197
  10        -0.00000000
Sym=     9a  
Ene=    -0.2321
Spin= Alpha
Occup=    0.00000
   1        -0.00000000
   2        -0.00000000
   3         0.09854518
   4         1.55986726
   5        -0.00000000
   6         0.00000000
   7         0.00000000
   8        -0.09855197
   9        -1.55997484
  10        -0.00000000
Sym=    10a  
Ene=     0.0604
Spin= Alpha
Occup=    0.00000
   1        -1.07729312
   2        -5.58357738
   3        -0.00000000
   4        -0.00000000
   5        -2.19453195
   6         1.36419000
   7         5.30552009
   8         0.00000000
   9         0.00000000
  10        -1.13446348
