[Molden Format]
[N_Atoms]
                     2
[Atoms] (AU)
LI1         1      3           0.00000000      0.00000000      0.00000000
LI2         2      3           0.00000000      0.00000000      2.83458919
[Charge] (Mulliken)
 -3.783640067922533E-013
  3.725908470642025E-013
[GTO] (AU)
   1
   s  14
  9.497934400E+03  9.668999974E-05
  1.416811200E+03  6.087099984E-04
  3.214599400E+02  3.101519992E-03
  9.112416300E+01  1.266904997E-02
  2.999989100E+01  4.248012989E-02
  1.101763100E+01  1.150183297E-01
  4.372801000E+00  2.398650094E-01
  1.831256000E+00  3.584300090E-01
  8.022610000E-01  3.048527792E-01
  3.626480000E-01  8.824261976E-02
  1.139950000E-01 -8.445899977E-04
  5.123700000E-02 -7.943959979E-03
  2.246800000E-02 -3.764419990E-03
  7.860000000E-03 -8.868999976E-05
   s  14
  9.497934400E+03 -1.244999993E-05
  1.416811200E+03 -7.838999954E-05
  3.214599400E+02 -4.007099976E-04
  9.112416300E+01 -1.645249990E-03
  2.999989100E+01 -5.634599967E-03
  1.101763100E+01 -1.590780991E-02
  4.372801000E+00 -3.612581979E-02
  1.831256000E+00 -6.459927962E-02
  8.022610000E-01 -1.008321794E-01
  3.626480000E-01 -9.757613942E-02
  1.139950000E-01  2.301215886E-01
  5.123700000E-02  6.102389764E-01
  2.246800000E-02  2.849406083E-01
  7.860000000E-03  4.026899976E-03
   p   9
  1.311950400E+01  1.524940000E-03
  3.077424200E+00  8.314830000E-03
  1.098800500E+00  1.933203000E-02
  4.357784000E-01  4.934293000E-02
  1.802432000E-01  1.623554000E-01
  7.613330000E-02  3.847505400E-01
  3.254650000E-02  4.336100400E-01
  1.401820000E-02  1.287005900E-01
  4.906400000E-03 -1.018520000E-03
 
   2
   s  14
  9.497934400E+03  9.668999974E-05
  1.416811200E+03  6.087099984E-04
  3.214599400E+02  3.101519992E-03
  9.112416300E+01  1.266904997E-02
  2.999989100E+01  4.248012989E-02
  1.101763100E+01  1.150183297E-01
  4.372801000E+00  2.398650094E-01
  1.831256000E+00  3.584300090E-01
  8.022610000E-01  3.048527792E-01
  3.626480000E-01  8.824261976E-02
  1.139950000E-01 -8.445899977E-04
  5.123700000E-02 -7.943959979E-03
  2.246800000E-02 -3.764419990E-03
  7.860000000E-03 -8.868999976E-05
   s  14
  9.497934400E+03 -1.244999993E-05
  1.416811200E+03 -7.838999954E-05
  3.214599400E+02 -4.007099976E-04
  9.112416300E+01 -1.645249990E-03
  2.999989100E+01 -5.634599967E-03
  1.101763100E+01 -1.590780991E-02
  4.372801000E+00 -3.612581979E-02
  1.831256000E+00 -6.459927962E-02
  8.022610000E-01 -1.008321794E-01
  3.626480000E-01 -9.757613942E-02
  1.139950000E-01  2.301215886E-01
  5.123700000E-02  6.102389764E-01
  2.246800000E-02  2.849406083E-01
  7.860000000E-03  4.026899976E-03
   p   9
  1.311950400E+01  1.524940000E-03
  3.077424200E+00  8.314830000E-03
  1.098800500E+00  1.933203000E-02
  4.357784000E-01  4.934293000E-02
  1.802432000E-01  1.623554000E-01
  7.613330000E-02  3.847505400E-01
  3.254650000E-02  4.336100400E-01
  1.401820000E-02  1.287005900E-01
  4.906400000E-03 -1.018520000E-03
 
[MO]
Sym=     1a  
Ene=    -2.5609
Spin= Alpha
Occup=    1.00000
   1         0.69897111
   2         0.00739257
   3         0.00000000
   4        -0.00000000
   5         0.00614971
   6         0.69897111
   7         0.00739257
   8        -0.00000000
   9        -0.00000000
  10        -0.00614971
Sym=     1a  
Ene=    -2.5609
Spin= Beta
Occup=    1.00000
   1         0.69897111
   2         0.00739257
   3         0.00000000
   4        -0.00000000
   5         0.00614971
   6         0.69897111
   7         0.00739257
   8        -0.00000000
   9        -0.00000000
  10        -0.00614971
Sym=     2a  
Ene=    -2.5206
Spin= Alpha
Occup=    1.00000
   1        -0.71500558
   2        -0.01142664
   3         0.00000000
   4        -0.00000000
   5        -0.00180712
   6         0.71500558
   7         0.01142664
   8        -0.00000000
   9        -0.00000000
  10        -0.00180712
Sym=     2a  
Ene=    -2.5206
Spin= Beta
Occup=    1.00000
   1        -0.71500558
   2        -0.01142664
   3         0.00000000
   4        -0.00000000
   5        -0.00180712
   6         0.71500558
   7         0.01142664
   8        -0.00000000
   9        -0.00000000
  10        -0.00180712
Sym=     3a  
Ene=    -0.2052
Spin= Alpha
Occup=    1.00000
   1        -0.11138305
   2         0.50218277
   3         0.00000000
   4        -0.00000000
   5         0.10802622
   6        -0.11138305
   7         0.50218277
   8         0.00000000
   9         0.00000000
  10        -0.10802622
Sym=     3a  
Ene=    -0.2052
Spin= Beta
Occup=    1.00000
   1        -0.11138305
   2         0.50218277
   3         0.00000000
   4        -0.00000000
   5         0.10802622
   6        -0.11138305
   7         0.50218277
   8         0.00000000
   9         0.00000000
  10        -0.10802622
Sym=     4a  
Ene=     0.0128
Spin= Alpha
Occup=    0.00000
   1        -0.00000000
   2         0.00000000
   3         0.40414533
   4        -0.33936038
   5        -0.00000000
   6         0.00000000
   7        -0.00000000
   8         0.40414533
   9        -0.33936038
  10        -0.00000000
Sym=     4a  
Ene=     0.0128
Spin= Beta
Occup=    0.00000
   1        -0.00000000
   2         0.00000000
   3         0.40414533
   4        -0.33936038
   5        -0.00000000
   6         0.00000000
   7        -0.00000000
   8         0.40414533
   9        -0.33936038
  10        -0.00000000
Sym=     5a  
Ene=     0.0128
Spin= Alpha
Occup=    0.00000
   1        -0.00000000
   2         0.00000000
   3         0.33936038
   4         0.40414533
   5        -0.00000000
   6         0.00000000
   7        -0.00000000
   8         0.33936038
   9         0.40414533
  10        -0.00000000
Sym=     5a  
Ene=     0.0128
Spin= Beta
Occup=    0.00000
   1        -0.00000000
   2         0.00000000
   3         0.33936038
   4         0.40414533
   5        -0.00000000
   6         0.00000000
   7        -0.00000000
   8         0.33936038
   9         0.40414533
  10        -0.00000000
Sym=     6a  
Ene=     0.0243
Spin= Alpha
Occup=    0.00000
   1         0.03961598
   2        -0.41243226
   3         0.00000000
   4         0.00000000
   5         0.45489890
   6        -0.03961598
   7         0.41243226
   8         0.00000000
   9         0.00000000
  10         0.45489890
Sym=     6a  
Ene=     0.0243
Spin= Beta
Occup=    0.00000
   1         0.03961598
   2        -0.41243226
   3         0.00000000
   4         0.00000000
   5         0.45489890
   6        -0.03961598
   7         0.41243226
   8         0.00000000
   9         0.00000000
  10         0.45489890
Sym=     7a  
Ene=     0.1155
Spin= Alpha
Occup=    0.00000
   1         0.19581160
   2         0.30808484
   3         0.00000000
   4         0.00000000
   5        -1.10889662
   6         0.19581160
   7         0.30808484
   8        -0.00000000
   9        -0.00000000
  10         1.10889662
Sym=     7a  
Ene=     0.1155
Spin= Beta
Occup=    0.00000
   1         0.19581160
   2         0.30808484
   3         0.00000000
   4         0.00000000
   5        -1.10889662
   6         0.19581160
   7         0.30808484
   8        -0.00000000
   9        -0.00000000
  10         1.10889662
Sym=     8a  
Ene=     0.1648
Spin= Alpha
Occup=    0.00000
   1         0.00000000
   2         0.00000000
   3        -1.55944077
   4         0.10587739
   5         0.00000000
   6        -0.00000000
   7        -0.00000000
   8         1.55944077
   9        -0.10587739
  10         0.00000000
Sym=     8a  
Ene=     0.1648
Spin= Beta
Occup=    0.00000
   1         0.00000000
   2         0.00000000
   3        -1.55944077
   4         0.10587739
   5         0.00000000
   6        -0.00000000
   7        -0.00000000
   8         1.55944077
   9        -0.10587739
  10         0.00000000
Sym=     9a  
Ene=     0.1648
Spin= Alpha
Occup=    0.00000
   1         0.00000000
   2         0.00000000
   3        -0.10587739
   4        -1.55944077
   5        -0.00000000
   6         0.00000000
   7         0.00000000
   8         0.10587739
   9         1.55944077
  10         0.00000000
Sym=     9a  
Ene=     0.1648
Spin= Beta
Occup=    0.00000
   1         0.00000000
   2         0.00000000
   3        -0.10587739
   4        -1.55944077
   5        -0.00000000
   6         0.00000000
   7         0.00000000
   8         0.10587739
   9         1.55944077
  10         0.00000000
Sym=    10a  
Ene=     1.1660
Spin= Alpha
Occup=    0.00000
   1        -1.95143675
   2        -8.36656116
   3        -0.00000000
   4         0.00000000
   5        -2.88707932
   6         1.95143675
   7         8.36656116
   8         0.00000000
   9        -0.00000000
  10        -2.88707932
Sym=    10a  
Ene=     1.1660
Spin= Beta
Occup=    0.00000
   1        -1.95143675
   2        -8.36656116
   3        -0.00000000
   4         0.00000000
   5        -2.88707932
   6         1.95143675
   7         8.36656116
   8         0.00000000
   9        -0.00000000
  10        -2.88707932
