[Molden Format]
[N_Atoms]
                     2
[Atoms] (AU)
B1          1      5           0.00000000      0.00000000      0.00000000
O2          2      8           0.00000000      0.00000000      1.88972612
[Charge] (Mulliken)
  0.737053077094960     
 -0.737053077094984     
[GTO] (AU)
   1
   s  14
  3.336021700E+04  1.039699991E-04
  4.972095200E+03  5.254399956E-04
  1.125641700E+03  2.509059979E-03
  3.164913600E+02  1.031887991E-02
  1.020072600E+02  3.636632969E-02
  3.629587300E+01  1.064607991E-01
  1.397141000E+01  2.403999880E-01
  5.741156000E+00  3.748581168E-01
  2.494268000E+00  3.100066974E-01
  1.114202000E+00  7.922455933E-02
  4.215490000E-01 -4.947589958E-03
  1.696330000E-01 -7.737119935E-03
  6.853500000E-02 -1.501079987E-03
  2.398700000E-02 -1.333299989E-04
   s  14
  3.336021700E+04 -2.030000008E-05
  4.972095200E+03 -1.025700004E-04
  1.125641700E+03 -4.911300020E-04
  3.164913600E+02 -2.026570008E-03
  1.020072600E+02 -7.261010030E-03
  3.629587300E+01 -2.197722009E-02
  1.397141000E+01 -5.408428022E-02
  5.741156000E+00 -1.022402604E-01
  2.494268000E+00 -1.423595206E-01
  1.114202000E+00 -4.658690019E-02
  4.215490000E-01  3.799402916E-01
  1.696330000E-01  5.890463624E-01
  6.853500000E-02  1.749075107E-01
  2.398700000E-02 -1.142030005E-03
   p   9
  5.500000000E+01  1.229800005E-03
  1.336610100E+01  8.827380035E-03
  4.135394000E+00  3.843340015E-02
  1.481256000E+00  1.150031805E-01
  6.021360000E-01  2.733674011E-01
  2.556360000E-01  4.061972116E-01
  1.111510000E-01  3.014967912E-01
  4.764800000E-02  7.684809030E-02
  1.667700000E-02 -8.170000032E-06
 
   2
   s  14
  1.053749500E+05  1.238600013E-04
  1.567924000E+04  5.120100053E-04
  3.534544700E+03  2.152910022E-03
  9.873651600E+02  8.528440089E-03
  3.159787500E+02  3.018049031E-02
  1.116542800E+02  9.099702095E-02
  4.269945100E+01  2.177936423E-01
  1.739559600E+01  3.686245738E-01
  7.438309000E+00  3.366707335E-01
  3.222862000E+00  9.657630101E-02
  1.253877000E+00  2.144520022E-03
  4.951550000E-01  1.194350012E-03
  1.916650000E-01  5.390200056E-04
  6.708300000E-02  2.103400022E-04
   s  14
  1.053749500E+05 -2.815000008E-05
  1.567924000E+04 -1.163000003E-04
  3.534544700E+03 -4.909200013E-04
  9.873651600E+02 -1.946160005E-03
  3.159787500E+02 -7.005300019E-03
  1.116542800E+02 -2.167814006E-02
  4.269945100E+01 -5.641213015E-02
  1.739559600E+01 -1.127053003E-01
  7.438309000E+00 -1.589119704E-01
  3.222862000E+00 -3.355083009E-02
  1.253877000E+00  3.531902810E-01
  4.951550000E-01  5.534199315E-01
  1.916650000E-01  2.301839106E-01
  6.708300000E-02  1.127267003E-02
   p   9
  2.000000000E+02  9.173000030E-04
  4.653336700E+01  7.377140024E-03
  1.462180900E+01  3.483515011E-02
  5.313064000E+00  1.144397004E-01
  2.102525000E+00  2.554966408E-01
  8.502230000E-01  3.722557412E-01
  3.375970000E-01  3.323314911E-01
  1.288920000E-01  1.400847905E-01
  4.511200000E-02  2.395784008E-02
 
[MO]
Sym=     1a  
Ene=   -20.6690
Spin= Alpha
Occup=    2.00000
   1         0.00001876
   2        -0.00310773
   3         0.00000011
   4         0.00000003
   5        -0.00296499
   6         1.00053559
   7         0.00351495
   8         0.00000024
   9         0.00000006
  10         0.00551344
Sym=     2a  
Ene=    -7.8612
Spin= Alpha
Occup=    2.00000
   1         1.00560990
   2         0.00742515
   3         0.00000061
   4         0.00000016
   5        -0.00769931
   6        -0.00015617
   7         0.00772378
   8         0.00000135
   9         0.00000035
  10         0.04110875
Sym=     3a  
Ene=    -1.3847
Spin= Alpha
Occup=    2.00000
   1        -0.09024266
   2         0.01551626
   3         0.00000525
   4         0.00000137
   5         0.06777461
   6        -0.00929996
   7         0.95292260
   8         0.00001150
   9         0.00000301
  10         0.07186746
Sym=     4a  
Ene=    -0.6503
Spin= Alpha
Occup=    2.00000
   1         0.00000478
   2        -0.00000262
   3        -0.34846435
   4        -0.09116349
   5        -0.00000557
   6         0.00000088
   7         0.00001718
   8        -0.76296115
   9        -0.19960206
  10         0.00003559
Sym=     5a  
Ene=    -0.6503
Spin= Alpha
Occup=    2.00000
   1        -0.00000000
   2         0.00000000
   3        -0.09116349
   4         0.34846435
   5         0.00000000
   6        -0.00000000
   7        -0.00000000
   8        -0.19960206
   9         0.76296115
  10        -0.00000000
Sym=     6a  
Ene=    -0.8488
Spin= Alpha
Occup=    2.00000
   1         0.12205722
   2        -0.07986340
   3         0.00001247
   4         0.00000326
   5        -0.18372306
   6         0.01955785
   7         0.07840857
   8         0.00002732
   9         0.00000715
  10         0.96188339
Sym=     7a  
Ene=     0.0272
Spin= Alpha
Occup=    1.00000
   1        -0.03484577
   2        -0.85471122
   3         0.00000001
   4         0.00000000
   5         0.58905441
   6        -0.00529633
   7         0.07931876
   8        -0.00000000
   9        -0.00000000
  10        -0.20148997
Sym=     8a  
Ene=     0.2417
Spin= Alpha
Occup=    0.00000
   1        -0.00000000
   2        -0.00000001
   3        -1.04255788
   4         0.13956854
   5         0.00000000
   6        -0.00000000
   7         0.00000000
   8         0.77677558
   9        -0.10398793
  10        -0.00000000
Sym=     9a  
Ene=     0.2417
Spin= Alpha
Occup=    0.00000
   1        -0.00000000
   2        -0.00000000
   3        -0.13956854
   4        -1.04255788
   5         0.00000000
   6        -0.00000000
   7         0.00000000
   8         0.10398793
   9         0.77677558
  10        -0.00000000
Sym=    10a  
Ene=     0.8053
Spin= Alpha
Occup=    0.00000
   1        -0.27146190
   2        -1.32948492
   3         0.00000000
   4         0.00000000
   5        -1.36230481
   6         0.24945252
   7         1.55202732
   8         0.00000000
   9         0.00000000
  10        -0.69954207
