[Molden Format]
[N_Atoms]
                     2
[Atoms] (AU)
LI1         1      3           0.00000000      0.00000000      0.00000000
O2          2      8           0.00000000      0.00000000      2.64561657
[Charge] (Mulliken)
  0.645610477136153     
 -0.645610477136167     
[GTO] (AU)
   1
   s  14
  9.497934400E+03  9.668999974E-05
  1.416811200E+03  6.087099984E-04
  3.214599400E+02  3.101519992E-03
  9.112416300E+01  1.266904997E-02
  2.999989100E+01  4.248012989E-02
  1.101763100E+01  1.150183297E-01
  4.372801000E+00  2.398650094E-01
  1.831256000E+00  3.584300090E-01
  8.022610000E-01  3.048527792E-01
  3.626480000E-01  8.824261976E-02
  1.139950000E-01 -8.445899977E-04
  5.123700000E-02 -7.943959979E-03
  2.246800000E-02 -3.764419990E-03
  7.860000000E-03 -8.868999976E-05
   s  14
  9.497934400E+03 -1.244999993E-05
  1.416811200E+03 -7.838999954E-05
  3.214599400E+02 -4.007099976E-04
  9.112416300E+01 -1.645249990E-03
  2.999989100E+01 -5.634599967E-03
  1.101763100E+01 -1.590780991E-02
  4.372801000E+00 -3.612581979E-02
  1.831256000E+00 -6.459927962E-02
  8.022610000E-01 -1.008321794E-01
  3.626480000E-01 -9.757613942E-02
  1.139950000E-01  2.301215886E-01
  5.123700000E-02  6.102389764E-01
  2.246800000E-02  2.849406083E-01
  7.860000000E-03  4.026899976E-03
   p   9
  1.311950400E+01  1.524940000E-03
  3.077424200E+00  8.314830000E-03
  1.098800500E+00  1.933203000E-02
  4.357784000E-01  4.934293000E-02
  1.802432000E-01  1.623554000E-01
  7.613330000E-02  3.847505400E-01
  3.254650000E-02  4.336100400E-01
  1.401820000E-02  1.287005900E-01
  4.906400000E-03 -1.018520000E-03
 
   2
   s  14
  1.053749500E+05  1.238600013E-04
  1.567924000E+04  5.120100053E-04
  3.534544700E+03  2.152910022E-03
  9.873651600E+02  8.528440089E-03
  3.159787500E+02  3.018049031E-02
  1.116542800E+02  9.099702095E-02
  4.269945100E+01  2.177936423E-01
  1.739559600E+01  3.686245738E-01
  7.438309000E+00  3.366707335E-01
  3.222862000E+00  9.657630101E-02
  1.253877000E+00  2.144520022E-03
  4.951550000E-01  1.194350012E-03
  1.916650000E-01  5.390200056E-04
  6.708300000E-02  2.103400022E-04
   s  14
  1.053749500E+05 -2.815000008E-05
  1.567924000E+04 -1.163000003E-04
  3.534544700E+03 -4.909200013E-04
  9.873651600E+02 -1.946160005E-03
  3.159787500E+02 -7.005300019E-03
  1.116542800E+02 -2.167814006E-02
  4.269945100E+01 -5.641213015E-02
  1.739559600E+01 -1.127053003E-01
  7.438309000E+00 -1.589119704E-01
  3.222862000E+00 -3.355083009E-02
  1.253877000E+00  3.531902810E-01
  4.951550000E-01  5.534199315E-01
  1.916650000E-01  2.301839106E-01
  6.708300000E-02  1.127267003E-02
   p   9
  2.000000000E+02  9.173000030E-04
  4.653336700E+01  7.377140024E-03
  1.462180900E+01  3.483515011E-02
  5.313064000E+00  1.144397004E-01
  2.102525000E+00  2.554966408E-01
  8.502230000E-01  3.722557412E-01
  3.375970000E-01  3.323314911E-01
  1.288920000E-01  1.400847905E-01
  4.511200000E-02  2.395784008E-02
 
[MO]
Sym=     1a  
Ene=   -20.3720
Spin= Alpha
Occup=    1.00000
   1        -0.00035375
   2        -0.00077455
   3         0.00000000
   4        -0.00000000
   5        -0.00074877
   6         1.00006906
   7         0.00237805
   8         0.00000000
   9        -0.00000000
  10        -0.00016712
Sym=     1a  
Ene=   -20.3290
Spin= Beta
Occup=    1.00000
   1        -0.00019834
   2        -0.00034733
   3         0.00000000
   4        -0.00000000
   5        -0.00029947
   6         1.00002983
   7        -0.00010489
   8         0.00000000
   9        -0.00000000
  10        -0.00023156
Sym=     2a  
Ene=    -2.4920
Spin= Alpha
Occup=    1.00000
   1         0.99280753
   2         0.00953662
   3        -0.00000000
   4        -0.00000000
   5        -0.00205511
   6        -0.00243038
   7         0.03140200
   8        -0.00000000
   9         0.00000000
  10        -0.02088117
Sym=     2a  
Ene=    -2.4791
Spin= Beta
Occup=    1.00000
   1         0.99513648
   2         0.01163044
   3        -0.00000000
   4        -0.00000000
   5        -0.00200656
   6        -0.00239892
   7         0.02562745
   8        -0.00000000
   9        -0.00000000
  10        -0.01193602
Sym=     3a  
Ene=    -1.1887
Spin= Alpha
Occup=    1.00000
   1        -0.13091104
   2         0.00628551
   3        -0.00000000
   4        -0.00000000
   5         0.02680687
   6        -0.00317274
   7         0.98897091
   8         0.00000000
   9         0.00000000
  10        -0.05444286
Sym=     3a  
Ene=    -1.0137
Spin= Beta
Occup=    1.00000
   1        -0.13117619
   2         0.03466131
   3        -0.00000000
   4        -0.00000000
   5         0.05581664
   6        -0.00371170
   7         0.96321235
   8         0.00000000
   9         0.00000000
  10        -0.09642489
Sym=     4a  
Ene=    -0.5230
Spin= Alpha
Occup=    1.00000
   1         0.18911926
   2         0.01961944
   3         0.00000000
   4         0.00000000
   5        -0.05785388
   6         0.00193840
   7         0.05763651
   8        -0.00000000
   9        -0.00000000
  10         1.01538241
Sym=     4a  
Ene=    -0.3513
Spin= Beta
Occup=    1.00000
   1         0.00000000
   2        -0.00000000
   3         0.16387524
   4         0.14730711
   5        -0.00000000
   6         0.00000000
   7         0.00000000
   8         0.68338375
   9         0.61429221
  10         0.00000000
Sym=     5a  
Ene=    -0.4215
Spin= Alpha
Occup=    1.00000
   1         0.00000000
   2        -0.00000000
   3         0.11753429
   4         0.05658786
   5        -0.00000000
   6         0.00000000
   7         0.00000000
   8         0.86277349
   9         0.41538945
  10         0.00000000
Sym=     5a  
Ene=    -0.3513
Spin= Beta
Occup=    1.00000
   1        -0.00000000
   2         0.00000000
   3        -0.14730711
   4         0.16387524
   5         0.00000000
   6        -0.00000000
   7        -0.00000000
   8        -0.61429221
   9         0.68338375
  10        -0.00000000
Sym=     6a  
Ene=    -0.4215
Spin= Alpha
Occup=    1.00000
   1         0.00000000
   2        -0.00000000
   3        -0.05658786
   4         0.11753429
   5         0.00000000
   6        -0.00000000
   7        -0.00000000
   8        -0.41538945
   9         0.86277349
  10         0.00000000
Sym=     6a  
Ene=     0.0104
Spin= Beta
Occup=    0.00000
   1         0.00657324
   2        -0.83893695
   3         0.00000000
   4         0.00000000
   5         0.54652555
   6         0.00253951
   7         0.06755127
   8        -0.00000000
   9        -0.00000000
  10         0.00458249
Sym=     7a  
Ene=     0.0132
Spin= Alpha
Occup=    0.00000
   1        -0.00387945
   2        -0.84137304
   3         0.00000000
   4         0.00000000
   5         0.55108663
   6         0.00231498
   7         0.05297902
   8        -0.00000000
   9        -0.00000000
  10        -0.05478856
Sym=     7a  
Ene=     0.1230
Spin= Beta
Occup=    0.00000
   1         0.00000000
   2        -0.00000000
   3        -0.59410316
   4        -0.82076674
   5         0.00000000
   6         0.00000000
   7         0.00000000
   8         0.28169445
   9         0.38916715
  10         0.00000000
Sym=     8a  
Ene=     0.1136
Spin= Alpha
Occup=    0.00000
   1        -0.00000000
   2         0.00000000
   3         0.58478243
   4         0.84627661
   5        -0.00000000
   6        -0.00000000
   7        -0.00000000
   8        -0.22614356
   9        -0.32726702
  10        -0.00000000
Sym=     8a  
Ene=     0.1230
Spin= Beta
Occup=    0.00000
   1         0.00000000
   2         0.00000000
   3        -0.82076674
   4         0.59410316
   5         0.00000000
   6        -0.00000000
   7        -0.00000000
   8         0.38916715
   9        -0.28169445
  10         0.00000000
Sym=     9a  
Ene=     0.1136
Spin= Alpha
Occup=    0.00000
   1         0.00000000
   2         0.00000000
   3        -0.84627661
   4         0.58478243
   5         0.00000000
   6        -0.00000000
   7        -0.00000000
   8         0.32726702
   9        -0.22614356
  10         0.00000000
Sym=     9a  
Ene=     0.2257
Spin= Beta
Occup=    0.00000
   1         0.06240440
   2         0.68301619
   3         0.00000000
   4        -0.00000000
   5         0.97517607
   6        -0.07882288
   7        -0.70451134
   8        -0.00000000
   9         0.00000000
  10         0.01634981
Sym=    10a  
Ene=     0.2154
Spin= Alpha
Occup=    0.00000
   1         0.07176627
   2         0.69061967
   3         0.00000000
   4        -0.00000000
   5         0.97236843
   6        -0.07840505
   7        -0.66824805
   8        -0.00000000
   9         0.00000000
  10         0.08324826
Sym=    10a  
Ene=     0.3051
Spin= Beta
Occup=    0.00000
   1         0.17970750
   2         0.11711950
   3         0.00000000
   4         0.00000000
   5        -0.02211636
   6        -0.00344807
   7         0.04904268
   8        -0.00000000
   9        -0.00000000
  10         1.01715534
