   This run of MOLCAS is using the pymolcas driver

                             OPE
                             OPE          NMOL  CASOP  ENMOLC A   SO
                 OPE        NMOLC        AS  OP EN  MO LC     AS  OP
                OPENM       OL CA        SO  PE NM  OL CA     SOP EN
                OP EN      MO   LC       AS  OP ENMOL  CASO   PENMOL
                OP  EN     MO   LC       AS  OP EN     MO     LC ASO
               OP   E  NMOL  C  AS       OP  EN MO     LC     AS  OP
               OP  E   NMO   LC AS        OPEN  MO     LCASOP EN   M
               O  PEN   MO  LCA  SO
            OPE   NMO   L   CAS    OP
        OPENMOL  CASOP     ENMOL   CASOPE
     OPENMOLCA   SOPENMOLCASOPEN   MOLCASOPE
    OPENMOLCAS   OP           EN   MOL    CAS
    OPENMOLCAS       OP  ENM        O     LCA
    OPENMOLCAS    OPEN  MOLCASO     P  E  NMO
    OPENMOLCAS     OP               E  N  MOL
    OPENMOLCA   SO           PENM   O  L  CAS    OPEN    MO    LCAS
    OPENMOLCA   SOP           ENM   O  L  CAS   OP  EN  MOLC  AS   O
    OPENMOLCA   SOPE           NM      O  LCA   S      OP  EN MO
    OPENMOLC                AS         O  PEN   M      OL  CA  SOPE
    OPENMO        LCASOPE  NMOL        C  ASO   P      ENMOLC     AS
    OPE     NMO      LCA  SO     P     E   NM   OL  CA SO  PE N   MO
          OPENMOLCA            SOPE   NMO        LCAS  O    P  ENMO
     OPENMOLCASOPENMOLCASOPENMOLCASOPENMOLCA
        OPENMOLCASOPENMOLCASOPENMOLCASOPE
            OPENMOLCASOPENMOLCASOPENM
               OPENMOLCASOPENMOLCA        version: f37762c57
                   OPENMOLCASO
                       OPE                tag:

 OpenMolcas is free software; you can redistribute it and/or modify it
 under the terms of the GNU Lesser General Public License version 2.1.
 OpenMolcas is distributed in the hope that it will be useful, but it
 is provided "as is" and without any express or implied warranties.
 For more details see the full text of the license in the file
 LICENSE or in <http://www.gnu.org/licenses/>.

                 Copyright (C) The OpenMolcas Authors
           For the author list and the recommended citation,
                   consult the file CONTRIBUTORS.md

           *************************************************
           * pymolcas version py2.28                       *
           *   build c4a6d18ded8cb6cad61d2372a9abd97c      *
           *   (after the EMIL interpreter by V. Veryazov) *
           *************************************************

configuration info
------------------
C Compiler ID: Intel
C flags: -std=gnu99 -gcc-sys
Fortran Compiler ID: IntelLLVM
Fortran flags: -standard-semantics -fltconsistency -fpp -i8 -heap-arrays
Definitions: _MOLCAS_;_I8_;_LINUX_
Parallel: OFF (GA=OFF)


   -------------------------------------------------------------------------------------------
  |
  |              Project: ozone_133.25
  |       Submitted from: /home/grierjones/DDCASPT2/ozone/multistate/ANO-RCC-VTZP/ozone_133.25
  |         Scratch area: /tmp/ozone_133.25
  |      Save outputs to: /home/grierjones/DDCASPT2/ozone/multistate/ANO-RCC-VTZP/ozone_133.25
  |               Molcas: /home/grierjones/Test/build
  |
  | Scratch area is empty
  |
  |       MOLCAS_DRIVER = /usr/local/pymolcas
  | MOLCAS_KEEP_WORKDIR = NO
  |  MOLCAS_NEW_WORKDIR = YES
  |       MOLCAS_NPROCS = 1
  |        MOLCAS_PRINT = NORMAL
  |       MOLCAS_SOURCE = /home/grierjones/Test
  |    MOLCAS_STRUCTURE = 0
  |
   -------------------------------------------------------------------------------------------

++ ---------   Input file   ---------

&GATEWAY
coord=ozone_133.25.xyz
Basis = ANO-RCC-VTZP
Group = nosymm
End of Input

&SEWARD
End of Input

&SCF
FileOrb
/home/grierjones/DDCASPT2/ozone/multistate/ANO-RCC-VTZP/ozone_133.00/ozone_133.00.ScfOrb

>>> COPY $WorkDir/ozone_133.25.scf.h5 $CurrDir/

&RASSCF
Title= RASSCF
FileOrb
/home/grierjones/DDCASPT2/ozone/multistate/ANO-RCC-VTZP/ozone_133.00/ozone_133.00.RasOrb
CIROOT
3 3 1
NACTEL
4 0 0
Inactive
10
RAS2
3
Symmetry
1
Spin
1
orblisting
all

>>> COPY $WorkDir/ozone_133.25.rasscf.h5 $CurrDir/

>>> COPY $WorkDir/GMJ_Fock_MO.csv $CurrDir/ozone_133.25.GMJ_Fock_MO.csv

&MOTRA
Frozen=0
LUMORB

>>> COPY $WorkDir/GMJ_one_int_indx.csv $CurrDir/ozone_133.25.GMJ_one_int_indx.csv

>>> COPY $WorkDir/GMJ_one_int.csv $CurrDir/ozone_133.25.GMJ_one_int.csv

>>> COPY $WorkDir/GMJ_two_int_indx.csv $CurrDir/ozone_133.25.GMJ_two_int_indx.csv

>>> COPY $WorkDir/GMJ_two_int.csv $CurrDir/ozone_133.25.GMJ_two_int.csv

&CASPT2
Frozen
0

MAXITER
50

>>> FOREACH k IN (1,2,3)

  >>> FOREACH i IN (B,E,F,G,H)

    >>> FOREACH j IN (P,M)

      >>> IF (-FILE GMJ_e2_${i}_${j}_${k}_.csv)

        >>> COPY $WorkDir/GMJ_RHS_${i}_${j}_${k}_.csv $CurrDir/GMJ_RHS_${i}_${j}_${k}_.csv

        >>> COPY $WorkDir/GMJ_IVECW_${i}_${j}_${k}_.csv $CurrDir/GMJ_IVECW_${i}_${j}_${k}_.csv

        >>> COPY $WorkDir/GMJ_IVECX_${i}_${j}_${k}_.csv $CurrDir/GMJ_IVECX_${i}_${j}_${k}_.csv

        >>> COPY $WorkDir/GMJ_IVECC2_${i}_${j}_${k}_.csv $CurrDir/GMJ_IVECC2_${i}_${j}_${k}_.csv

        >>> COPY $WorkDir/GMJ_e2_${i}_${j}_${k}_.csv $CurrDir/GMJ_e2_${i}_${j}_${k}_.csv

      >>> END IF

    >>> END FOREACH

  >>> END FOREACH

>>> END FOREACH

>>> FOREACH j IN (1,2,3)

  >>> FOREACH i IN (A,C,D)

    >>> IF (-FILE GMJ_e2_${i}_${j}_.csv)

      >>> COPY $WorkDir/GMJ_RHS_${i}_${j}_.csv $CurrDir/GMJ_RHS_${i}_${j}_.csv

      >>> COPY $WorkDir/GMJ_IVECW_${i}_${j}_.csv $CurrDir/GMJ_IVECW_${i}_${j}_.csv

      >>> COPY $WorkDir/GMJ_IVECX_${i}_${j}_.csv $CurrDir/GMJ_IVECX_${i}_${j}_.csv

      >>> COPY $WorkDir/GMJ_IVECC2_${i}_${j}_.csv $CurrDir/GMJ_IVECC2_${i}_${j}_.csv

      >>> COPY $WorkDir/GMJ_e2_${i}_${j}_.csv $CurrDir/GMJ_e2_${i}_${j}_.csv

    >>> END IF

  >>> END FOREACH

>>> END FOREACH

-- ----------------------------------

--- Start Module: gateway at Fri Apr 11 19:05:10 2025 ---
 
()()()()()()()()()()()()()()()()()()()()()()()()()()()()()()()()()()()()()()()()()()()()()()()()()()

                                              &GATEWAY

                                   only a single process is used
                       available to each process: 2.0 GB of memory, 1 thread?
()()()()()()()()()()()()()()()()()()()()()()()()()()()()()()()()()()()()()()()()()()()()()()()()()()
 
 
++    Symmetry information:
      ---------------------
 
                    Character Table for C1 
 
                             E  
                    a        1  x, y, xy, Rz, z, xz, Ry, yz, Rx, I
--
 
 
++    Basis set information:
      ----------------------
 
 
      Basis set label: O.ANO-RCC...4S3P2D1F.
 
      Electronic valence basis set:
      ------------------
      Associated Effective Charge   8.000000 au
      Associated Actual Charge      8.000000 au
      Nuclear Model: Point charge
 
      Shell  nPrim  nBasis  Cartesian Spherical Contaminant
         s      14       4        X                  
         p       9       3        X                  
         d       4       2                 X         
         f       3       1                 X         
--
 
 
++    Molecular structure info:
      -------------------------
 
                    ************************************************ 
                    **** Cartesian Coordinates / Bohr, Angstrom **** 
                    ************************************************ 
 
     Center  Label                x              y              z                     x              y              z
        1      O1               0.958172       2.216860       0.000000              0.507043       1.173112       0.000000
        2      O2               0.000000       0.000000       0.000000              0.000000       0.000000       0.000000
        3      O3               0.958172      -2.216860       0.000000              0.507043      -1.173112       0.000000
 
                    *************************************** 
                    *    InterNuclear Distances / Bohr    * 
                    *************************************** 
 
               1 O1            2 O2            3 O3    
    1 O1       0.000000
    2 O2       2.415070        0.000000
    3 O3       4.433721        2.415070        0.000000
 
                    ******************************************* 
                    *    InterNuclear Distances / Angstrom    * 
                    ******************************************* 
 
               1 O1            2 O2            3 O3    
    1 O1       0.000000
    2 O2       1.278000        0.000000
    3 O3       2.346224        1.278000        0.000000
 
                    ************************************** 
                    *    Valence Bond Angles / Degree    * 
                    ************************************** 
                          Atom centers                 Phi
                      1 O1       2 O2       3 O3       133.25
--
 
 
            Nuclear Potential Energy             67.43535710 au
 
--- Stop Module: gateway at Fri Apr 11 19:05:10 2025 /rc=_RC_ALL_IS_WELL_ ---
*** files: xmldump
    saved to directory /home/grierjones/DDCASPT2/ozone/multistate/ANO-RCC-VTZP/ozone_133.25

--- Start Module: seward at Fri Apr 11 19:05:10 2025 ---
 
()()()()()()()()()()()()()()()()()()()()()()()()()()()()()()()()()()()()()()()()()()()()()()()()()()

                                              &SEWARD

                                   only a single process is used
                       available to each process: 2.0 GB of memory, 1 thread?
()()()()()()()()()()()()()()()()()()()()()()()()()()()()()()()()()()()()()()()()()()()()()()()()()()
 
               SEWARD will generate:
                  Multipole Moment integrals up to order  2
                  Kinetic Energy integrals
                  Nuclear Attraction integrals (point charge)
                  One-Electron Hamiltonian integrals
                  Velocity integrals
                  Relativistic Douglas-Kroll-Hess integrals:
                    - Parametrization         : EXP
                    - DKH order of Hamiltonian: 2
                    - DKH order of Properties : 0
                         - multipole moment operators
                         - electric potential operators
                         - contact operators
                  Atomic mean-field integrals
                  Two-Electron Repulsion integrals
 
                   Integrals are discarded if absolute value <: 0.10E-13
                   Integral cutoff threshold is set to       <: 0.10E-15
 
            Nuclear Potential Energy             67.43535710 au
 
 
      Basis set specifications :
      Symmetry species         a  
      Basis functions           90
 
 
  Input file to MOLDEN was generated!
 
forrtl: warning (525): IEEE_DIVIDE_BY_ZERO is signaling
forrtl: warning (526): IEEE_INVALID is signaling
forrtl: warning (528): IEEE_UNDERFLOW is signaling
--- Stop Module: seward at Fri Apr 11 19:05:13 2025 /rc=_RC_ALL_IS_WELL_ ---
*** files: ozone_133.25.GssOrb ozone_133.25.guessorb.h5 ozone_133.25.guessorb.molden xmldump
    saved to directory /home/grierjones/DDCASPT2/ozone/multistate/ANO-RCC-VTZP/ozone_133.25
--- Module seward spent 2 seconds ---

*** symbolic link created: INPORB -> ozone_133.25.GssOrb
--- Start Module: scf at Fri Apr 11 19:05:13 2025 ---
 
()()()()()()()()()()()()()()()()()()()()()()()()()()()()()()()()()()()()()()()()()()()()()()()()()()

                                                &SCF

                                   only a single process is used
                       available to each process: 2.0 GB of memory, 1 thread?
()()()()()()()()()()()()()()()()()()()()()()()()()()()()()()()()()()()()()()()()()()()()()()()()()()
 
++    Input section:
      --------------
 
      Header of the integral files:
      
       Integrals generated by seward 4.2.0  , Fri Apr 11 19:05:10 2025
 
 
      Cartesian coordinates in Angstrom:
      -----------------------------------------------------
      No.  Label        X            Y            Z        
      -----------------------------------------------------
       1   O1         0.50704300   1.17311200   0.00000000
       2   O2         0.00000000   0.00000000   0.00000000
       3   O3         0.50704300  -1.17311200   0.00000000
      -----------------------------------------------------
      Nuclear repulsion energy =   67.43535710
--
 
++    Orbital specifications:
      -----------------------
 
      Symmetry species               1
                                     a
      Frozen orbitals                0
      Occupied orbitals             12
      Secondary orbitals            78
      Deleted orbitals               0
      Total number of orbitals      90
      Number of basis functions     90
--
 
      Molecular charge                           0.000
 
++    Optimization specifications:
      ----------------------------
 
      SCF Algorithm: Conventional
      Minimized density differences are used
      Number of density matrices in core                5
      Maximum number of NDDO SCF iterations           400
      Maximum number of HF SCF iterations             400
      Threshold for SCF energy change            0.10E-08
      Threshold for density matrix               0.10E-03
      Threshold for Fock matrix                  0.15E-03
      Threshold for linear dependence            0.10E-08
      Threshold at which DIIS is turned on       0.15E+00
      Threshold at which QNR/C2DIIS is turned on 0.75E-01
      Threshold for Norm(delta) (QNR/C2DIIS)     0.20E-04
      DIIS extrapolation of the SCF procedure
      All orbitals punched on: SCFORB
--
 
      Input vectors read from INPORB
      Orbital file label: * SCF orbitals
 
 
++ Convergence information
                                   SCF        iterations: Energy and convergence statistics
 
Iter     Tot. SCF        One-elec.       Two-elec.     Energy      Max Dij or  Max Fij      DNorm      TNorm      AccCon     Time
         Energy          Energy          Energy        Change      Delta Norm                                                in Sec.
   1  -224.498270152  -442.494941148   150.561313892   0.00E+00    0.12E-02*   0.68E-03*    0.75E+01   0.11E+03   None         0.
   2  -224.498275395  -442.494494403   150.560861903  -0.52E-05*   0.62E-03*   0.34E-03*    0.70E-02   0.11E+03   EDIIS        0.
   3  -224.498276418  -442.495225537   150.561592015  -0.10E-05*   0.39E-03*   0.31E-03*    0.10E-02   0.11E+03   c2DIIS       0.
   4  -224.498276768  -442.494414204   150.560780332  -0.35E-06*   0.25E-03*   0.11E-03     0.12E-02   0.11E+03   QNRc2DIIS    0.
   5  -224.498276778  -442.495649000   150.562015118  -0.10E-07*   0.13E-03*   0.13E-03     0.60E-03   0.11E+03   QNRc2DIIS    0.
   6  -224.498276855  -442.495059306   150.561425347  -0.77E-07*   0.71E-04*   0.11E-04     0.52E-04   0.11E+03   QNRc2DIIS    0.
   7  -224.498276859  -442.494994550   150.561360587  -0.40E-08*   0.49E-05    0.11E-05     0.36E-04   0.11E+03   QNRc2DIIS    0.
   8  -224.498276859  -442.495035158   150.561401195  -0.19E-10    0.19E-05    0.12E-05     0.43E-03   0.11E+03   QNRc2DIIS    0.
 
       Convergence after  8 Macro Iterations
--
 
 *****************************************************************************************************************************
 *                                                                                                                           *
 *                                             SCF/KS-DFT Program, Final results                                             *
 *                                                                                                                           *
 *                                                                                                                           *
 *                                                                                                                           *
 *                                                       Final Results                                                       *
 *                                                                                                                           *
 *****************************************************************************************************************************
 
::    Total SCF energy                               -224.4982768593
      One-electron energy                            -442.4950351585
      Two-electron energy                             150.5614011953
      Nuclear repulsion energy                         67.4353571039
      Kinetic energy (interpolated)                   225.0408985331
      Virial theorem                                    0.9975887864
      Total spin, S(S+1)                                0.0000000000
      Total spin, S                                     0.0000000000
      Max non-diagonal density matrix element           0.0000026889
      Max non-diagonal Fock matrix element              0.0000005894
 
 
      All orbitals with orbital energies smaller than  E(LUMO)+0.5 are printed
 
++    Molecular orbitals:
      -------------------
 
      Title: SCF orbitals

      Molecular orbitals for symmetry species 1: a  
 
          Orbital            1         2         3         4         5         6         7         8         9        10    
          Energy          -20.9220  -20.7346  -20.7345   -1.7352   -1.4522   -1.0838   -0.8321   -0.8037   -0.7739   -0.5865
          Occ. No.          2.0000    2.0000    2.0000    2.0000    2.0000    2.0000    2.0000    2.0000    2.0000    2.0000
 
        1 O1     1s         0.0023   -0.6525    0.7564   -0.0130    0.0121    0.0115   -0.0095   -0.0232   -0.0000    0.0075
        2 O1     2s         0.0029    0.0048   -0.0059    0.3385   -0.5649    0.6179   -0.2066   -0.4315   -0.0000    0.0730
        3 O1     3s         0.0017    0.0035   -0.0041   -0.0088    0.0199    0.0193   -0.0171   -0.0512   -0.0000    0.0177
        4 O1     4s         0.0003    0.0007   -0.0008   -0.0003    0.0040    0.0032   -0.0035   -0.0109   -0.0000    0.0041
        5 O1     2px       -0.0007   -0.0011    0.0011   -0.0398    0.0515    0.0928    0.2242   -0.2899    0.0000   -0.5936
        6 O1     3px       -0.0005   -0.0011    0.0009    0.0115   -0.0072   -0.0156   -0.0134    0.0256   -0.0000   -0.0052
        7 O1     4px       -0.0001    0.0004   -0.0006    0.0023    0.0002    0.0006   -0.0007    0.0015   -0.0000    0.0045
        8 O1     2py       -0.0018   -0.0020    0.0028   -0.1132    0.0790    0.1206   -0.2924   -0.3062   -0.0000    0.3940
        9 O1     3py       -0.0010   -0.0020    0.0027    0.0134   -0.0167   -0.0202    0.0274    0.0417    0.0000   -0.0053
       10 O1     4py        0.0004    0.0013   -0.0016    0.0011   -0.0037    0.0011    0.0039    0.0036   -0.0000   -0.0030
       11 O1     2pz        0.0000   -0.0000   -0.0000   -0.0000   -0.0000   -0.0000   -0.0000    0.0000    0.3874    0.0000
       12 O1     3pz        0.0000   -0.0000   -0.0000    0.0000    0.0000    0.0000    0.0000   -0.0000   -0.0169    0.0000
       13 O1     4pz       -0.0000   -0.0000   -0.0000    0.0000    0.0000   -0.0000    0.0000    0.0000   -0.0068    0.0000
       14 O1     3d2-       0.0002    0.0008   -0.0009    0.0125   -0.0128   -0.0114   -0.0048    0.0242   -0.0000    0.0042
       15 O1     4d2-       0.0001    0.0004   -0.0005    0.0011   -0.0015   -0.0007   -0.0003    0.0020   -0.0000    0.0011
       16 O1     3d1-      -0.0000   -0.0000   -0.0000    0.0000   -0.0000   -0.0000    0.0000   -0.0000   -0.0297   -0.0000
       17 O1     4d1-      -0.0000    0.0000    0.0000    0.0000    0.0000   -0.0000    0.0000    0.0000   -0.0049    0.0000
       18 O1     3d0       -0.0003   -0.0005    0.0006   -0.0105    0.0092    0.0048   -0.0082   -0.0145    0.0000    0.0052
       19 O1     4d0       -0.0001   -0.0004    0.0004   -0.0006    0.0010    0.0000   -0.0007   -0.0008    0.0000    0.0006
       20 O1     3d1+      -0.0000    0.0000    0.0000    0.0000    0.0000   -0.0000   -0.0000   -0.0000   -0.0126    0.0000
       21 O1     4d1+      -0.0000   -0.0000    0.0000   -0.0000   -0.0000   -0.0000    0.0000    0.0000   -0.0025   -0.0000
       22 O1     3d2+      -0.0005   -0.0008    0.0010   -0.0158    0.0097    0.0070   -0.0254   -0.0154   -0.0000    0.0177
       23 O1     4d2+      -0.0002   -0.0003    0.0005   -0.0022    0.0013    0.0010   -0.0026   -0.0010    0.0000    0.0027
       24 O1     4f3-       0.0001    0.0001   -0.0001    0.0028   -0.0015    0.0003    0.0075    0.0009   -0.0000   -0.0057
       25 O1     4f2-       0.0000    0.0000    0.0000   -0.0000    0.0000   -0.0000   -0.0000    0.0000    0.0048    0.0000
       26 O1     4f1-       0.0000    0.0001   -0.0002    0.0032   -0.0029   -0.0011    0.0021    0.0034   -0.0000   -0.0010
       27 O1     4f0       -0.0000    0.0000    0.0000    0.0000   -0.0000   -0.0000    0.0000    0.0000   -0.0038   -0.0000
       28 O1     4f1+       0.0000    0.0001   -0.0001    0.0012   -0.0012   -0.0007    0.0002    0.0014    0.0000   -0.0011
       29 O1     4f2+      -0.0000    0.0000    0.0000   -0.0000   -0.0000   -0.0000    0.0000   -0.0000   -0.0052   -0.0000
       30 O1     4f3+       0.0000    0.0002   -0.0002    0.0048   -0.0052   -0.0029   -0.0001    0.0070   -0.0000    0.0003
       31 O2     1s         0.9992   -0.0001   -0.0009   -0.0277    0.0000   -0.0166   -0.0073    0.0000    0.0000    0.0000
       32 O2     2s        -0.0059    0.0008    0.0113    0.6217   -0.0000   -0.6519   -0.0786    0.0000    0.0000    0.0000
       33 O2     3s        -0.0042    0.0005    0.0065   -0.0695    0.0000   -0.0169   -0.0135    0.0000    0.0000    0.0000
       34 O2     4s        -0.0009    0.0001    0.0011   -0.0126    0.0000   -0.0043   -0.0044   -0.0000    0.0000    0.0000
       35 O2     2px       -0.0007    0.0002    0.0031    0.0836   -0.0000    0.1994    0.6866    0.0000    0.0000   -0.0000
       36 O2     3px       -0.0015    0.0001    0.0020   -0.0353    0.0000   -0.0266   -0.0729   -0.0000    0.0000    0.0000
       37 O2     4px        0.0015   -0.0000   -0.0006   -0.0035    0.0000    0.0013   -0.0095   -0.0000    0.0000   -0.0000
       38 O2     2py       -0.0000   -0.0062    0.0005   -0.0000   -0.3331    0.0000   -0.0000    0.5489   -0.0000   -0.1429
       39 O2     3py        0.0000   -0.0040    0.0003    0.0000    0.0645   -0.0000    0.0000   -0.0570    0.0000   -0.0073
       40 O2     4py       -0.0000    0.0012   -0.0001   -0.0000   -0.0019   -0.0000    0.0000   -0.0093   -0.0000   -0.0002
       41 O2     2pz       -0.0000    0.0000    0.0000   -0.0000    0.0000    0.0000   -0.0000    0.0000    0.6732    0.0000
       42 O2     3pz       -0.0000    0.0000    0.0000    0.0000   -0.0000    0.0000    0.0000   -0.0000   -0.0463   -0.0000
       43 O2     4pz        0.0000    0.0000    0.0000   -0.0000   -0.0000    0.0000    0.0000   -0.0000   -0.0168   -0.0000
       44 O2     3d2-       0.0000   -0.0013    0.0001   -0.0000   -0.0355    0.0000   -0.0000    0.0248    0.0000   -0.0437
       45 O2     4d2-       0.0000   -0.0006    0.0000   -0.0000   -0.0038    0.0000   -0.0000    0.0022    0.0000   -0.0076
       46 O2     3d1-      -0.0000   -0.0000   -0.0000   -0.0000   -0.0000   -0.0000    0.0000    0.0000   -0.0000    0.0000
       47 O2     4d1-      -0.0000   -0.0000   -0.0000   -0.0000   -0.0000   -0.0000    0.0000    0.0000   -0.0000    0.0000
       48 O2     3d0        0.0004   -0.0001   -0.0011   -0.0148    0.0000   -0.0052   -0.0137   -0.0000   -0.0000    0.0000
       49 O2     4d0        0.0005   -0.0000   -0.0006    0.0009   -0.0000   -0.0002   -0.0008   -0.0000   -0.0000    0.0000
       50 O2     3d1+      -0.0000    0.0000    0.0000   -0.0000   -0.0000   -0.0000   -0.0000    0.0000    0.0277    0.0000
       51 O2     4d1+      -0.0000    0.0000    0.0000   -0.0000   -0.0000   -0.0000   -0.0000   -0.0000    0.0040    0.0000
       52 O2     3d2+       0.0006   -0.0001   -0.0012   -0.0172    0.0000   -0.0024    0.0171    0.0000   -0.0000    0.0000
       53 O2     4d2+       0.0003   -0.0000   -0.0006   -0.0016    0.0000   -0.0005    0.0013    0.0000   -0.0000    0.0000
       54 O2     4f3-      -0.0000    0.0001   -0.0000    0.0000    0.0039   -0.0000    0.0000   -0.0061    0.0000   -0.0081
       55 O2     4f2-      -0.0000    0.0000   -0.0000    0.0000   -0.0000    0.0000    0.0000    0.0000   -0.0000    0.0000
       56 O2     4f1-      -0.0000    0.0001   -0.0000    0.0000    0.0053   -0.0000    0.0000   -0.0044   -0.0000    0.0011
       57 O2     4f0        0.0000    0.0000    0.0000    0.0000    0.0000   -0.0000    0.0000   -0.0000   -0.0060    0.0000
       58 O2     4f1+       0.0001   -0.0000   -0.0001   -0.0024    0.0000   -0.0002   -0.0015   -0.0000   -0.0000   -0.0000
       59 O2     4f2+       0.0000    0.0000    0.0000    0.0000    0.0000    0.0000    0.0000   -0.0000   -0.0075   -0.0000
       60 O2     4f3+       0.0001   -0.0000   -0.0002   -0.0095    0.0000   -0.0012   -0.0068   -0.0000   -0.0000    0.0000
       61 O3     1s         0.0023    0.7564    0.6524   -0.0130   -0.0121    0.0115   -0.0095    0.0232   -0.0000   -0.0075
       62 O3     2s         0.0029   -0.0056   -0.0051    0.3385    0.5649    0.6179   -0.2066    0.4315   -0.0000   -0.0730
       63 O3     3s         0.0017   -0.0040   -0.0035   -0.0088   -0.0199    0.0193   -0.0171    0.0512   -0.0000   -0.0177
       64 O3     4s         0.0003   -0.0008   -0.0007   -0.0003   -0.0040    0.0032   -0.0035    0.0109   -0.0000   -0.0041
       65 O3     2px       -0.0007    0.0012    0.0009   -0.0398   -0.0515    0.0928    0.2242    0.2899   -0.0000    0.5936
       66 O3     3px       -0.0005    0.0012    0.0008    0.0115    0.0072   -0.0156   -0.0134   -0.0256   -0.0000    0.0052
       67 O3     4px       -0.0001   -0.0005   -0.0006    0.0023   -0.0002    0.0006   -0.0007   -0.0015   -0.0000   -0.0045
       68 O3     2py        0.0018   -0.0023   -0.0024    0.1132    0.0790   -0.1206    0.2924   -0.3062    0.0000    0.3940
       69 O3     3py        0.0010   -0.0024   -0.0024   -0.0134   -0.0167    0.0202   -0.0274    0.0417   -0.0000   -0.0053
       70 O3     4py       -0.0004    0.0016    0.0014   -0.0011   -0.0037   -0.0011   -0.0039    0.0036   -0.0000   -0.0030
       71 O3     2pz       -0.0000   -0.0000   -0.0000   -0.0000   -0.0000   -0.0000   -0.0000    0.0000    0.3874   -0.0000
       72 O3     3pz        0.0000   -0.0000   -0.0000   -0.0000   -0.0000   -0.0000    0.0000   -0.0000   -0.0169   -0.0000
       73 O3     4pz       -0.0000    0.0000    0.0000   -0.0000   -0.0000   -0.0000    0.0000   -0.0000   -0.0068   -0.0000
       74 O3     3d2-      -0.0002    0.0009    0.0008   -0.0125   -0.0128    0.0114    0.0048    0.0242   -0.0000    0.0042
       75 O3     4d2-      -0.0001    0.0005    0.0004   -0.0011   -0.0015    0.0007    0.0003    0.0020   -0.0000    0.0011
       76 O3     3d1-       0.0000   -0.0000   -0.0000   -0.0000   -0.0000   -0.0000   -0.0000    0.0000    0.0297    0.0000
       77 O3     4d1-       0.0000   -0.0000   -0.0000   -0.0000   -0.0000   -0.0000    0.0000   -0.0000    0.0049    0.0000
       78 O3     3d0       -0.0003    0.0005    0.0005   -0.0105   -0.0092    0.0048   -0.0082    0.0145   -0.0000   -0.0052
       79 O3     4d0       -0.0001    0.0004    0.0004   -0.0006   -0.0010    0.0000   -0.0007    0.0008    0.0000   -0.0006
       80 O3     3d1+       0.0000    0.0000    0.0000   -0.0000   -0.0000   -0.0000    0.0000   -0.0000   -0.0126    0.0000
       81 O3     4d1+       0.0000    0.0000    0.0000    0.0000    0.0000   -0.0000   -0.0000   -0.0000   -0.0025    0.0000
       82 O3     3d2+      -0.0005    0.0009    0.0008   -0.0158   -0.0097    0.0070   -0.0254    0.0154   -0.0000   -0.0177
       83 O3     4d2+      -0.0002    0.0004    0.0004   -0.0022   -0.0013    0.0010   -0.0026    0.0010    0.0000   -0.0027
       84 O3     4f3-      -0.0001    0.0001    0.0001   -0.0028   -0.0015   -0.0003   -0.0075    0.0009   -0.0000   -0.0057
       85 O3     4f2-       0.0000    0.0000    0.0000    0.0000    0.0000    0.0000    0.0000   -0.0000   -0.0048    0.0000
       86 O3     4f1-      -0.0000    0.0002    0.0001   -0.0032   -0.0029    0.0011   -0.0021    0.0034   -0.0000   -0.0010
       87 O3     4f0        0.0000   -0.0000    0.0000    0.0000    0.0000    0.0000    0.0000   -0.0000   -0.0038   -0.0000
       88 O3     4f1+       0.0000   -0.0001   -0.0001    0.0012    0.0012   -0.0007    0.0002   -0.0014    0.0000    0.0011
       89 O3     4f2+      -0.0000   -0.0000    0.0000   -0.0000   -0.0000   -0.0000    0.0000   -0.0000   -0.0052    0.0000
       90 O3     4f3+       0.0000   -0.0002   -0.0001    0.0048    0.0052   -0.0029   -0.0001   -0.0070    0.0000   -0.0003
 
          Orbital           11        12        13        14        15        16        17        18        19        20    
          Energy           -0.5288   -0.4988   -0.0435    0.1738    0.1837    0.2356    0.2457    0.3404    0.3516    0.3767
          Occ. No.          2.0000    2.0000    0.0000    0.0000    0.0000    0.0000    0.0000    0.0000    0.0000    0.0000
 
        1 O1     1s         0.0040    0.0000   -0.0000   -0.2052   -0.1208    0.0000   -0.0212    0.0731   -0.0195    0.0000
        2 O1     2s         0.0201    0.0000   -0.0000   -1.5037   -0.9316    0.0000   -0.0607    0.4251   -0.0546    0.0000
        3 O1     3s         0.0167    0.0000   -0.0000   -0.8783   -0.4819    0.0000   -0.1713    0.5582   -0.0327    0.0000
        4 O1     4s         0.0050    0.0000   -0.0000   -0.1976   -0.0976    0.0000   -0.0499    0.1555   -0.0014    0.0000
        5 O1     2px        0.6648   -0.0000    0.0000    0.3857    0.1702   -0.0000   -0.0936   -0.0662   -0.2131    0.0000
        6 O1     3px        0.0155   -0.0000    0.0000    0.3742    0.2498    0.0000    0.3063    0.1670   -0.7793    0.0000
        7 O1     4px       -0.0040    0.0000    0.0000    0.0417    0.0617    0.0000    0.1501    0.1109   -0.3103    0.0000
        8 O1     2py       -0.0243   -0.0000    0.0000    0.5760    0.9173   -0.0000   -0.3060   -0.1263   -0.2492   -0.0000
        9 O1     3py       -0.0154   -0.0000    0.0000    0.7324    0.7140   -0.0000   -0.1367   -0.7967   -0.1646   -0.0000
       10 O1     4py       -0.0016   -0.0000    0.0000    0.1092    0.0930   -0.0000   -0.0749   -0.1944   -0.0332   -0.0000
       11 O1     2pz       -0.0000   -0.7006    0.6692   -0.0000   -0.0000   -0.1430    0.0000    0.0000   -0.0000   -0.1622
       12 O1     3pz       -0.0000   -0.0314    0.1670    0.0000    0.0000    0.3427   -0.0000    0.0000   -0.0000   -0.9074
       13 O1     4pz        0.0000    0.0069    0.0262    0.0000    0.0000    0.1952   -0.0000    0.0000   -0.0000   -0.3653
       14 O1     3d2-      -0.0099    0.0000   -0.0000   -0.0693   -0.0397   -0.0000   -0.0101    0.0306    0.0018    0.0000
       15 O1     4d2-      -0.0011    0.0000   -0.0000   -0.0452   -0.0259   -0.0000   -0.0068    0.0206    0.0145    0.0000
       16 O1     3d1-       0.0000    0.0239    0.0098    0.0000    0.0000    0.0102   -0.0000    0.0000   -0.0000    0.0034
       17 O1     4d1-       0.0000    0.0058    0.0005    0.0000    0.0000    0.0022   -0.0000    0.0000   -0.0000    0.0103
       18 O1     3d0        0.0050   -0.0000    0.0000    0.0521    0.0393   -0.0000    0.0210   -0.0454   -0.0069   -0.0000
       19 O1     4d0        0.0003   -0.0000    0.0000    0.0334    0.0271   -0.0000    0.0107   -0.0278   -0.0107   -0.0000
       20 O1     3d1+       0.0000    0.0096    0.0050    0.0000    0.0000    0.0034    0.0000   -0.0000   -0.0000    0.0141
       21 O1     4d1+      -0.0000    0.0022    0.0002    0.0000    0.0000   -0.0002   -0.0000   -0.0000    0.0000    0.0119
       22 O1     3d2+       0.0046   -0.0000    0.0000    0.0595    0.0454    0.0000    0.0441   -0.1009    0.0037   -0.0000
       23 O1     4d2+      -0.0006   -0.0000    0.0000    0.0351    0.0348    0.0000    0.0191   -0.0638   -0.0007   -0.0000
       24 O1     4f3-       0.0007    0.0000   -0.0000   -0.0046   -0.0014    0.0000    0.0023    0.0102   -0.0028    0.0000
       25 O1     4f2-      -0.0000   -0.0036   -0.0001   -0.0000   -0.0000    0.0017    0.0000    0.0000   -0.0000   -0.0057
       26 O1     4f1-      -0.0015    0.0000   -0.0000   -0.0055   -0.0047    0.0000   -0.0012    0.0089    0.0053    0.0000
       27 O1     4f0       -0.0000    0.0016    0.0015   -0.0000   -0.0000   -0.0018   -0.0000    0.0000    0.0000    0.0059
       28 O1     4f1+       0.0005   -0.0000   -0.0000   -0.0015   -0.0025   -0.0000   -0.0011    0.0021    0.0044    0.0000
       29 O1     4f2+       0.0000    0.0039   -0.0005    0.0000    0.0000   -0.0014   -0.0000    0.0000    0.0000    0.0033
       30 O1     4f3+      -0.0035    0.0000   -0.0000   -0.0079   -0.0057    0.0000   -0.0003    0.0066    0.0091    0.0000
       31 O2     1s         0.0221   -0.0000    0.0000   -0.0000    0.3070   -0.0000    0.0022   -0.2144    0.0000   -0.0000
       32 O2     2s         0.2667   -0.0000    0.0000   -0.0000    2.2697   -0.0000   -0.1280   -1.2538    0.0000   -0.0000
       33 O2     3s         0.0545   -0.0000    0.0000   -0.0000    1.1893    0.0000    0.1013   -0.8269    0.0000   -0.0000
       34 O2     4s         0.0135   -0.0000    0.0000   -0.0000    0.2539    0.0000    0.0177   -0.1428    0.0000   -0.0000
       35 O2     2px       -0.5350    0.0000   -0.0000   -0.0000    0.7099   -0.0000   -0.2636   -0.1888    0.0000   -0.0000
       36 O2     3px       -0.0118   -0.0000   -0.0000   -0.0000    0.6301    0.0000    0.3081   -0.6239    0.0000   -0.0000
       37 O2     4px       -0.0023   -0.0000   -0.0000   -0.0000    0.1041    0.0000    0.1520   -0.0686    0.0000    0.0000
       38 O2     2py        0.0000    0.0000    0.0000    1.4443    0.0000   -0.0000   -0.0000   -0.0000   -0.1037    0.0000
       39 O2     3py        0.0000   -0.0000    0.0000    1.4375    0.0000   -0.0000   -0.0000    0.0000    0.4216    0.0000
       40 O2     4py        0.0000    0.0000    0.0000    0.1459    0.0000   -0.0000   -0.0000    0.0000    0.2017   -0.0000
       41 O2     2pz        0.0000   -0.0000   -0.8726    0.0000    0.0000   -0.0051   -0.0000    0.0000   -0.0000   -0.0000
       42 O2     3pz        0.0000    0.0000   -0.1891    0.0000   -0.0000    0.3402   -0.0000    0.0000    0.0000   -0.0000
       43 O2     4pz        0.0000    0.0000   -0.0211    0.0000   -0.0000    0.1930   -0.0000    0.0000    0.0000   -0.0000
       44 O2     3d2-       0.0000   -0.0000    0.0000    0.1279    0.0000   -0.0000   -0.0000    0.0000    0.0866   -0.0000
       45 O2     4d2-       0.0000   -0.0000    0.0000    0.0787    0.0000   -0.0000   -0.0000    0.0000    0.0629   -0.0000
       46 O2     3d1-      -0.0000   -0.0602    0.0000   -0.0000   -0.0000    0.0000   -0.0000   -0.0000    0.0000    0.1039
       47 O2     4d1-      -0.0000   -0.0141    0.0000   -0.0000   -0.0000    0.0000   -0.0000   -0.0000    0.0000    0.0625
       48 O2     3d0        0.0191    0.0000   -0.0000    0.0000   -0.0495   -0.0000   -0.0640    0.1510   -0.0000    0.0000
       49 O2     4d0        0.0023    0.0000   -0.0000    0.0000   -0.0356   -0.0000   -0.0314    0.0731   -0.0000    0.0000
       50 O2     3d1+       0.0000   -0.0000    0.0023   -0.0000   -0.0000   -0.0250    0.0000   -0.0000    0.0000    0.0000
       51 O2     4d1+      -0.0000   -0.0000    0.0008    0.0000   -0.0000   -0.0105    0.0000   -0.0000    0.0000   -0.0000
       52 O2     3d2+       0.0384    0.0000   -0.0000    0.0000   -0.0484   -0.0000   -0.0996    0.0900   -0.0000    0.0000
       53 O2     4d2+       0.0077    0.0000   -0.0000    0.0000   -0.0328   -0.0000   -0.0417    0.0229   -0.0000    0.0000
       54 O2     4f3-       0.0000   -0.0000   -0.0000   -0.0090   -0.0000    0.0000    0.0000    0.0000    0.0001   -0.0000
       55 O2     4f2-      -0.0000   -0.0074    0.0000   -0.0000    0.0000    0.0000   -0.0000   -0.0000    0.0000    0.0062
       56 O2     4f1-      -0.0000    0.0000   -0.0000   -0.0094   -0.0000    0.0000    0.0000   -0.0000   -0.0104    0.0000
       57 O2     4f0        0.0000    0.0000   -0.0020    0.0000   -0.0000   -0.0017    0.0000   -0.0000    0.0000    0.0000
       58 O2     4f1+      -0.0007    0.0000   -0.0000    0.0000   -0.0028   -0.0000   -0.0046    0.0083   -0.0000    0.0000
       59 O2     4f2+      -0.0000    0.0000    0.0010    0.0000   -0.0000   -0.0019    0.0000   -0.0000   -0.0000    0.0000
       60 O2     4f3+       0.0045    0.0000   -0.0000    0.0000   -0.0083   -0.0000   -0.0089    0.0137   -0.0000    0.0000
       61 O3     1s         0.0040   -0.0000    0.0000    0.2052   -0.1208   -0.0000   -0.0212    0.0731    0.0195    0.0000
       62 O3     2s         0.0201    0.0000    0.0000    1.5037   -0.9315   -0.0000   -0.0607    0.4251    0.0546    0.0000
       63 O3     3s         0.0167    0.0000    0.0000    0.8783   -0.4818   -0.0000   -0.1713    0.5582    0.0327    0.0000
       64 O3     4s         0.0050    0.0000   -0.0000    0.1976   -0.0976   -0.0000   -0.0499    0.1555    0.0014    0.0000
       65 O3     2px        0.6647   -0.0000    0.0000   -0.3857    0.1702   -0.0000   -0.0936   -0.0662    0.2131   -0.0000
       66 O3     3px        0.0155    0.0000    0.0000   -0.3742    0.2497    0.0000    0.3064    0.1670    0.7793   -0.0000
       67 O3     4px       -0.0040    0.0000    0.0000   -0.0417    0.0617    0.0000    0.1501    0.1109    0.3103   -0.0000
       68 O3     2py        0.0243    0.0000    0.0000    0.5760   -0.9172    0.0000    0.3060    0.1263   -0.2492    0.0000
       69 O3     3py        0.0154    0.0000    0.0000    0.7324   -0.7139    0.0000    0.1367    0.7967   -0.1646    0.0000
       70 O3     4py        0.0016    0.0000   -0.0000    0.1092   -0.0930    0.0000    0.0749    0.1944   -0.0332    0.0000
       71 O3     2pz        0.0000    0.7006    0.6692   -0.0000   -0.0000   -0.1430    0.0000   -0.0000    0.0000    0.1622
       72 O3     3pz        0.0000    0.0314    0.1670    0.0000   -0.0000    0.3427   -0.0000   -0.0000    0.0000    0.9074
       73 O3     4pz       -0.0000   -0.0069    0.0262    0.0000   -0.0000    0.1952   -0.0000   -0.0000    0.0000    0.3653
       74 O3     3d2-       0.0099    0.0000   -0.0000   -0.0693    0.0397    0.0000    0.0101   -0.0306    0.0018   -0.0000
       75 O3     4d2-       0.0011    0.0000   -0.0000   -0.0452    0.0259    0.0000    0.0068   -0.0206    0.0145   -0.0000
       76 O3     3d1-       0.0000    0.0239   -0.0098    0.0000    0.0000   -0.0102    0.0000   -0.0000   -0.0000    0.0034
       77 O3     4d1-       0.0000    0.0058   -0.0005    0.0000    0.0000   -0.0022    0.0000   -0.0000    0.0000    0.0103
       78 O3     3d0        0.0050   -0.0000    0.0000   -0.0521    0.0393    0.0000    0.0210   -0.0454    0.0069   -0.0000
       79 O3     4d0        0.0003   -0.0000   -0.0000   -0.0334    0.0271    0.0000    0.0107   -0.0278    0.0107   -0.0000
       80 O3     3d1+      -0.0000   -0.0096    0.0050   -0.0000   -0.0000    0.0034   -0.0000    0.0000    0.0000   -0.0141
       81 O3     4d1+      -0.0000   -0.0022    0.0002    0.0000    0.0000   -0.0002    0.0000    0.0000   -0.0000   -0.0119
       82 O3     3d2+       0.0046   -0.0000    0.0000   -0.0595    0.0454    0.0000    0.0441   -0.1009   -0.0037   -0.0000
       83 O3     4d2+      -0.0006   -0.0000    0.0000   -0.0351    0.0348    0.0000    0.0191   -0.0638    0.0007   -0.0000
       84 O3     4f3-      -0.0007    0.0000   -0.0000   -0.0046    0.0014   -0.0000   -0.0023   -0.0102   -0.0028   -0.0000
       85 O3     4f2-      -0.0000   -0.0036    0.0001    0.0000    0.0000   -0.0017    0.0000    0.0000   -0.0000   -0.0057
       86 O3     4f1-       0.0015   -0.0000    0.0000   -0.0055    0.0047   -0.0000    0.0012   -0.0089    0.0053   -0.0000
       87 O3     4f0       -0.0000   -0.0016    0.0015   -0.0000   -0.0000   -0.0018    0.0000    0.0000   -0.0000   -0.0059
       88 O3     4f1+       0.0005    0.0000    0.0000    0.0015   -0.0025   -0.0000   -0.0011    0.0021   -0.0044    0.0000
       89 O3     4f2+      -0.0000   -0.0039   -0.0005   -0.0000   -0.0000   -0.0014    0.0000    0.0000   -0.0000   -0.0033
       90 O3     4f3+      -0.0035   -0.0000    0.0000    0.0079   -0.0057   -0.0000   -0.0003    0.0066   -0.0091    0.0000
 
          Orbital           21    
          Energy            0.4323
          Occ. No.          0.0000
 
        1 O1     1s        -0.0151
        2 O1     2s        -0.0814
        3 O1     3s         0.2308
        4 O1     4s         0.1233
        5 O1     2px        0.2836
        6 O1     3px        0.6444
        7 O1     4px        0.1710
        8 O1     2py       -0.0525
        9 O1     3py        0.4547
       10 O1     4py        0.1449
       11 O1     2pz       -0.0000
       12 O1     3pz       -0.0000
       13 O1     4pz       -0.0000
       14 O1     3d2-      -0.1054
       15 O1     4d2-      -0.0709
       16 O1     3d1-       0.0000
       17 O1     4d1-       0.0000
       18 O1     3d0        0.0395
       19 O1     4d0        0.0259
       20 O1     3d1+       0.0000
       21 O1     4d1+      -0.0000
       22 O1     3d2+       0.0392
       23 O1     4d2+       0.0219
       24 O1     4f3-       0.0020
       25 O1     4f2-      -0.0000
       26 O1     4f1-      -0.0048
       27 O1     4f0        0.0000
       28 O1     4f1+      -0.0040
       29 O1     4f2+       0.0000
       30 O1     4f3+      -0.0114
       31 O2     1s         0.0982
       32 O2     2s         0.5323
       33 O2     3s         0.7680
       34 O2     4s         0.2233
       35 O2     2px       -0.4777
       36 O2     3px       -0.9628
       37 O2     4px       -0.3232
       38 O2     2py        0.0000
       39 O2     3py       -0.0000
       40 O2     4py       -0.0000
       41 O2     2pz        0.0000
       42 O2     3pz        0.0000
       43 O2     4pz        0.0000
       44 O2     3d2-      -0.0000
       45 O2     4d2-      -0.0000
       46 O2     3d1-       0.0000
       47 O2     4d1-       0.0000
       48 O2     3d0       -0.0335
       49 O2     4d0       -0.0037
       50 O2     3d1+       0.0000
       51 O2     4d1+       0.0000
       52 O2     3d2+      -0.0728
       53 O2     4d2+      -0.0344
       54 O2     4f3-       0.0000
       55 O2     4f2-       0.0000
       56 O2     4f1-       0.0000
       57 O2     4f0       -0.0000
       58 O2     4f1+       0.0031
       59 O2     4f2+      -0.0000
       60 O2     4f3+       0.0020
       61 O3     1s        -0.0151
       62 O3     2s        -0.0814
       63 O3     3s         0.2308
       64 O3     4s         0.1233
       65 O3     2px        0.2836
       66 O3     3px        0.6444
       67 O3     4px        0.1710
       68 O3     2py        0.0525
       69 O3     3py       -0.4547
       70 O3     4py       -0.1449
       71 O3     2pz       -0.0000
       72 O3     3pz       -0.0000
       73 O3     4pz       -0.0000
       74 O3     3d2-       0.1054
       75 O3     4d2-       0.0709
       76 O3     3d1-      -0.0000
       77 O3     4d1-      -0.0000
       78 O3     3d0        0.0395
       79 O3     4d0        0.0259
       80 O3     3d1+      -0.0000
       81 O3     4d1+      -0.0000
       82 O3     3d2+       0.0392
       83 O3     4d2+       0.0219
       84 O3     4f3-      -0.0020
       85 O3     4f2-       0.0000
       86 O3     4f1-       0.0048
       87 O3     4f0        0.0000
       88 O3     4f1+      -0.0040
       89 O3     4f2+       0.0000
       90 O3     4f3+      -0.0114
--
 
 
++    Molecular charges:
      ------------------
 
      Mulliken charges per centre and basis function type
      ---------------------------------------------------
 
                O1      O2      O3    
      1s       1.9978  1.9984  1.9978
      2s       1.9481  1.6936  1.9481
      2px      1.8519  1.6135  1.8519
      2pz      1.3827  1.1459  1.3827
      2py      0.9598  1.0345  0.9598
      3s      -0.0026 -0.0269 -0.0026
      3px     -0.0128 -0.0222 -0.0128
      3pz     -0.0091 -0.0143 -0.0091
      3py      0.0031  0.0043  0.0031
      4s       0.0042  0.0022  0.0042
      3d2+     0.0163  0.0366  0.0163
      3d1+     0.0024  0.0064  0.0024
      3d0      0.0057  0.0074  0.0057
      3d1-     0.0128  0.0499  0.0128
      3d2-     0.0128  0.0411  0.0128
      4px      0.0005  0.0014  0.0005
      4pz      0.0013  0.0017  0.0013
      4py      0.0028  0.0033  0.0028
      4d2+     0.0010  0.0059  0.0010
      4d1+     0.0005  0.0009  0.0005
      4d0      0.0000 -0.0002  0.0000
      4d1-     0.0017  0.0127  0.0017
      4d2-     0.0004  0.0052  0.0004
      4f3+     0.0026  0.0028  0.0026
      4f2+     0.0011  0.0018  0.0011
      4f1+     0.0003  0.0004  0.0003
      4f0      0.0009  0.0016  0.0009
      4f1-     0.0010  0.0013  0.0010
      4f2-     0.0010  0.0031  0.0010
      4f3-     0.0024  0.0065  0.0024
      Total    8.1906  7.6188  8.1906
 
      N-E     -0.1906  0.3812 -0.1906
 
      Total electronic charge=   24.000000
 
      Total            charge=   -0.000000
--
 
 
  Input file to MOLDEN was generated!
 
 
++    Static properties:
      ------------------
 
 
      LoProp Charges per center
 

                   O1       O2       O3    
      Nuclear      8.0000   8.0000   8.0000
      Electronic  -8.2018  -7.5964  -8.2018
 
      Total       -0.2018   0.4036  -0.2018
--
 
 
++    Natural Bond Order analysis
      ---------------------------
      Based on LoProp computed density
      -------------------------------------------------------------------------------------
      Atom A       Atom B       Bond Order | Atom A       Atom B       Bond Order
        O1           O2             1.997  |   O2           O3             1.997
      -------------------------------------------------------------------------------------
      NBO located     11.999 core electrons.
      NBO located      3.938 lone pair electrons.
      NBO located      7.986 electrons involved in    2 bonds.
      The remaining    0.077 electrons are to be considered as diffuse
--
 
 
++    Molecular properties:
      ---------------------
 
      Charge (e):
                      =   -0.0000
      Dipole Moment (Debye):
      Origin of the operator (Ang)=    0.0000    0.0000    0.0000
                   X= -4.8949E-01               Y=  4.4460E-06               Z= -1.7931E-14           Total=  4.8949E-01
      Quadrupole Moment (Debye*Ang):
      Origin of the operator (Ang)=    0.3380    0.0000    0.0000
                  XX= -1.6106E+01              XY=  7.6831E-07              XZ=  1.1657E-13              YY= -1.7126E+01
                  YZ=  8.6324E-14              ZZ= -1.4918E+01
      In traceless form (Debye*Ang)
                  XX= -8.4373E-02              XY=  1.1525E-06              XZ=  1.7485E-13              YY= -1.6139E+00
                  YZ=  1.2949E-13              ZZ=  1.6982E+00
--
 
 
  Input file to MOLDEN was generated!
 
 ###############################################################################
 ###############################################################################
 ###                                                                         ###
 ###                                                                         ###
 ###    RunFile label nBas                                                   ###
 ###    was used       78 times                                              ###
 ###                                                                         ###
 ###                                                                         ###
 ###############################################################################
 ###############################################################################
forrtl: warning (528): IEEE_UNDERFLOW is signaling
--- Stop Module: scf at Fri Apr 11 19:05:14 2025 /rc=_RC_ALL_IS_WELL_ ---
*** files: ozone_133.25.LprOrb ozone_133.25.LoProp.molden ozone_133.25.scf.molden ozone_133.25.ScfOrb ozone_133.25.scf.h5 xmldump
    saved to directory /home/grierjones/DDCASPT2/ozone/multistate/ANO-RCC-VTZP/ozone_133.25

>>> COPY /tmp/ozone_133.25/ozone_133.25.scf.h5 /home/grierjones/DDCASPT2/ozone/multistate/ANO-RCC-VTZP/ozone_133.25/

*** symbolic link created: INPORB -> ozone_133.25.ScfOrb
--- Start Module: rasscf at Fri Apr 11 19:05:14 2025 ---
 
()()()()()()()()()()()()()()()()()()()()()()()()()()()()()()()()()()()()()()()()()()()()()()()()()()

                                              &RASSCF

                                   only a single process is used
                       available to each process: 2.0 GB of memory, 1 thread?
()()()()()()()()()()()()()()()()()()()()()()()()()()()()()()()()()()()()()()()()()()()()()()()()()()
 
 
      Header of the ONEINT file:
      --------------------------
      
      Integrals generated by seward 4.2.0  , Fri Apr 11 19:05:10 2025
 
 
      OrdInt status: non-squared
 
 
      Cartesian coordinates in Angstrom:
      -----------------------------------------------------
      No.  Label        X            Y            Z        
      -----------------------------------------------------
       1   O1         0.50704300   1.17311200   0.00000000
       2   O2         0.00000000   0.00000000   0.00000000
       3   O3         0.50704300  -1.17311200   0.00000000
      -----------------------------------------------------
      Nuclear repulsion energy =   67.43535710
 
++    Wave function specifications:
      -----------------------------
 
      Number of closed shell electrons          20
      Number of electrons in active shells       4
      Max number of holes in RAS1 space          0
      Max nr of electrons in RAS3 space          0
      Number of inactive orbitals               10
      Number of active orbitals                  3
      Number of secondary orbitals              77
      Spin quantum number                      0.0
      State symmetry                             1
--
 
++    Orbital specifications:
      -----------------------
 
      Symmetry species                           1
                                                 a
      Frozen orbitals                            0
      Inactive orbitals                         10
      Active orbitals                            3
      RAS1 orbitals                              0
      RAS2 orbitals                              3
      RAS3 orbitals                              0
      Secondary orbitals                        77
      Deleted orbitals                           0
      Number of basis functions                 90
--
 
++    CI expansion specifications:
      ----------------------------
 
      Number of CSFs                             6
      Number of determinants                     6
      Number of root(s) required                 3
      Root chosen for geometry opt.              3
      CI roots used                              1     2     3
      weights                                0.333 0.333 0.333
      highest root included in the CI            3
      max. size of the explicit Hamiltonian      6
--
 
++    Optimization specifications:
      ----------------------------
 
      RASSCF algorithm: Conventional
      Maximum number of macro iterations       200
      Maximum number of SX iterations          100
      Threshold for RASSCF energy            0.100E-07
      Threshold for max MO rotation          0.100E+00
      Threshold for max BLB element          0.100E-03
      Level shift parameter                  0.500E+00
      Make Quasi-Newton update
--
 
      The MO-coefficients are taken from the file:
      /home/grierjones/DDCASPT2/ozone/multistate/ANO-RCC-VTZP/ozone_133.00/ozone_133.00.RasOrb                                        
      Title: RASSCF average (pseudo-natural) orbitals                                      
 
      Total molecular charge    0.00
 
      ************************************************************************************************************************
      *                                                                                                                      *
      *                                            Wave function control section                                             *
      *                                                                                                                      *
      ************************************************************************************************************************
 
 
                                         RASSCF iterations: Energy and convergence statistics
                                         ----------------------------------------------------
 
      Iter CI   SX   CI       RASSCF       Energy    max ROT     max BLB   max BLB  Level Ln srch  Step   QN   Walltime
          iter iter root      energy       change     param      element    value   shift minimum  type update hh:mm:ss
 Nr of preliminary CI iterations:   1
        1   1    4    0  -224.46493011    0.00E+00   0.82E-03   12  24 1 -0.12E-02*  0.28   0.00    SX    NO    0:00:00
        2   1    4    0  -224.46493539   -0.53E-05*  0.55E-03   12  24 1 -0.55E-03*  0.28   0.00    SX    NO    0:00:00
        3   1    4    0  -224.46493681   -0.14E-05*  0.41E-03   12  24 1 -0.32E-03*  0.28   0.00    SX    NO    0:00:00
        4   1    4    0  -224.46493739   -0.58E-06*  0.31E-03    8  18 1  0.18E-03*  0.28   0.00    SX    NO    0:00:00
        5   1    4    0  -224.46493764   -0.24E-06*  0.47E-03    8  11 1  0.14E-03*  0.28   2.50    LS   YES    0:00:00
        6   1    4    0  -224.46493779   -0.15E-06*  0.37E-03   10  37 1 -0.12E-03*  0.28   1.11    QN   YES    0:00:00
        7   1    4    0  -224.46493791   -0.11E-06* -0.14E-03   12  24 1  0.12E-03*  0.28   0.95    QN   YES    0:00:00
        8   1    3    0  -224.46493795   -0.39E-07* -0.57E-03   12  24 1  0.82E-04   0.28   2.15    QN   YES    0:00:00
        9   1    4    0  -224.46493798   -0.33E-07* -0.13E-03    9  24 1 -0.16E-03*  0.28   0.65    QN   YES    0:00:00
       10   1    4    0  -224.46493801   -0.28E-07*  0.80E-04    9  18 1 -0.69E-04   0.28   0.68    QN   YES    0:00:00
       11   1    3    0  -224.46493802   -0.86E-08   0.12E-03   10  11 1 -0.23E-04   0.28   2.50    LS   YES    0:00:00
      Convergence after 11 iterations
 
  Dmat in MO in SXCTL bf call to SXHAM                                                                                    
  mat. size =     3x    3
 
        1.1956473932905212
       -0.0031312513051436      1.8037882282928965
       -0.0001955338873850      0.0003111182235793      1.0005643784165801
       12   1    3    0  -224.46493802   -0.71E-08   0.12E-03   10  37 1  0.29E-04   0.28   2.50    LS   YES    0:00:00
 
      ************************************************************************************************************************
                                                      Wave function printout:
                       occupation of active orbitals, and spin coupling of open shells (u,d: Spin up or down)
      ************************************************************************************************************************
 
      Note: transformation to natural orbitals
      has been made, which may change the order of the CSFs.
 
      printout of CI-coefficients larger than  0.05 for root  1
      energy=    -224.479121
      conf/sym  111     Coeff  Weight
             1  220   0.82850 0.68641
             3  202   0.22613 0.05113
             5  ud2   0.20234 0.04094
             6  022  -0.46972 0.22064
 
      printout of CI-coefficients larger than  0.05 for root  2
      energy=    -224.464376
      conf/sym  111     Coeff  Weight
             1  220  -0.52402 0.27460
             3  202   0.38273 0.14648
             4  u2d   0.32890 0.10818
             5  ud2   0.29008 0.08415
             6  022  -0.62148 0.38624
 
      printout of CI-coefficients larger than  0.05 for root  3
      energy=    -224.451317
      conf/sym  111     Coeff  Weight
             1  220  -0.19320 0.03732
             2  2ud  -0.18648 0.03478
             3  202   0.11616 0.01349
             4  u2d  -0.92598 0.85745
             5  ud2   0.07300 0.00533
             6  022  -0.22722 0.05163
 
      Natural orbitals and occupation numbers for root  1
      sym 1:   1.504011   1.871342   0.624647
 
      Natural orbitals and occupation numbers for root  2
      sym 1:   0.623017   1.635816   1.741167
 
      Natural orbitals and occupation numbers for root  3
      sym 1:   0.492039   1.989184   1.518777
 
      ************************************************************************************************************************
      *                                                                                                                      *
      *                                                    Final results                                                     *
      *                                                                                                                      *
      ************************************************************************************************************************
 
 
++    Wave function specifications:
      -----------------------------
 
      Number of closed shell electrons          20
      Number of electrons in active shells       4
      Max number of holes in RAS1 space          0
      Max nr of electrons in RAS3 space          0
      Number of inactive orbitals               10
      Number of active orbitals                  3
      Number of secondary orbitals              77
      Spin quantum number                      0.0
      State symmetry                             1
--
 
++    Orbital specifications:
      -----------------------
 
      Symmetry species                           1
                                                 a
      Frozen orbitals                            0
      Inactive orbitals                         10
      Active orbitals                            3
      RAS1 orbitals                              0
      RAS2 orbitals                              3
      RAS3 orbitals                              0
      Secondary orbitals                        77
      Deleted orbitals                           0
      Number of basis functions                 90
--
 
++    CI expansion specifications:
      ----------------------------
 
      Number of CSFs                             6
      Number of determinants                     6
      Number of root(s) required                 3
      CI roots used                              1     2     3
      weights                                0.333 0.333 0.333
      highest root included in the CI            3
      Root passed to geometry opt.               3
--
 
++    Final optimization conditions:
      ------------------------------
 
      Average CI energy                            -224.46493802
      RASSCF energy for state  3                   -224.45131691
      Super-CI energy                                -0.00000000
      RASSCF energy change                           -0.00000001
      Max change in MO coefficients              -0.134E-03
      Max non-diagonal density matrix element     0.120E-03
      Maximum BLB matrix element                  0.293E-04
      (orbital pair  10,  37 in symmetry   1)
      Norm of electronic gradient            0.229E+00
--
 
 
      Final state energy(ies):
      ------------------------
 
::    RASSCF root number  1 Total energy:   -224.47912144
::    RASSCF root number  2 Total energy:   -224.46437572
::    RASSCF root number  3 Total energy:   -224.45131691
 
++    Molecular orbitals:
      -------------------
 
      Pseudonatural active orbitals and approximate occupation numbers
 
 
 
 
      Molecular orbitals for symmetry species 1: a  
 
 
      Orbital                1         2         3         4         5         6         7         8         9        10
      Energy          -20.8329  -20.7460  -20.7314   -1.7050   -1.4386   -1.0684   -0.7884   -0.7808   -0.7673   -0.5577
      Occ. No.          2.0000    2.0000    2.0000    2.0000    2.0000    2.0000    2.0000    2.0000    2.0000    2.0000
 
    1 O1     1s         0.0040    0.9989    0.0015   -0.0131    0.0107    0.0136   -0.0001   -0.0117    0.0216   -0.0001
    2 O1     2s         0.0030   -0.0076   -0.0003    0.3636   -0.5844    0.6267   -0.0019   -0.2132    0.3595   -0.0004
    3 O1     3s         0.0017   -0.0054   -0.0001   -0.0112    0.0193    0.0218   -0.0001   -0.0243    0.0482   -0.0000
    4 O1     4s         0.0003   -0.0010    0.0000   -0.0008    0.0041    0.0035   -0.0000   -0.0055    0.0104    0.0000
    5 O1     2px       -0.0006    0.0015   -0.0001   -0.0295    0.0276    0.0765    0.0108    0.1504    0.1349    0.0354
    6 O1     3px       -0.0005    0.0014   -0.0002    0.0110   -0.0056   -0.0151   -0.0006   -0.0096   -0.0248    0.0008
    7 O1     4px       -0.0000   -0.0008   -0.0001    0.0021    0.0004   -0.0001   -0.0001   -0.0020   -0.0012   -0.0003
    8 O1     2py       -0.0019    0.0034    0.0004   -0.1190    0.0826    0.1562   -0.0067   -0.3833    0.3766   -0.0149
    9 O1     3py       -0.0011    0.0033    0.0003    0.0149   -0.0159   -0.0242    0.0005    0.0325   -0.0356   -0.0003
   10 O1     4py        0.0005   -0.0021   -0.0000    0.0010   -0.0038    0.0010    0.0001    0.0062   -0.0040    0.0001
   11 O1     2pz        0.0000    0.0000   -0.0000    0.0002   -0.0008   -0.0007   -0.4027    0.0054   -0.0046   -0.7387
   12 O1     3pz       -0.0000    0.0000    0.0000   -0.0000    0.0000    0.0000    0.0277   -0.0006   -0.0003   -0.0099
   13 O1     4pz       -0.0000    0.0000   -0.0000   -0.0000    0.0000   -0.0000    0.0050   -0.0001    0.0000    0.0067
   14 O1     3d2-       0.0003   -0.0011   -0.0000    0.0122   -0.0116   -0.0120   -0.0003   -0.0034   -0.0227   -0.0005
   15 O1     4d2-       0.0001   -0.0007    0.0000    0.0010   -0.0014   -0.0008   -0.0000   -0.0010   -0.0018   -0.0001
   16 O1     3d1-      -0.0000    0.0000   -0.0000   -0.0000   -0.0000    0.0000    0.0258   -0.0007   -0.0001    0.0156
   17 O1     4d1-      -0.0000   -0.0000   -0.0000   -0.0000   -0.0000    0.0000    0.0033   -0.0001   -0.0000    0.0027
   18 O1     3d0       -0.0003    0.0010    0.0000   -0.0112    0.0083    0.0083   -0.0001   -0.0112    0.0151   -0.0001
   19 O1     4d0       -0.0002    0.0005    0.0000   -0.0009    0.0010    0.0007   -0.0000   -0.0009    0.0011   -0.0000
   20 O1     3d1+      -0.0000   -0.0000   -0.0000   -0.0000    0.0001   -0.0001    0.0104   -0.0003   -0.0001    0.0054
   21 O1     4d1+      -0.0000    0.0000   -0.0000   -0.0000    0.0000   -0.0000    0.0014   -0.0000   -0.0000    0.0005
   22 O1     3d2+      -0.0005    0.0010    0.0001   -0.0162    0.0102    0.0077   -0.0006   -0.0303    0.0145   -0.0005
   23 O1     4d2+      -0.0002    0.0006    0.0001   -0.0022    0.0014    0.0007   -0.0001   -0.0035    0.0011   -0.0001
   24 O1     4f3-       0.0001   -0.0001    0.0000    0.0024   -0.0014    0.0002    0.0002    0.0069   -0.0003    0.0002
   25 O1     4f2-       0.0000    0.0000    0.0000   -0.0000    0.0000    0.0000   -0.0042    0.0000    0.0001   -0.0025
   26 O1     4f1-       0.0001   -0.0002    0.0000    0.0039   -0.0033   -0.0018    0.0001    0.0036   -0.0040    0.0001
   27 O1     4f0       -0.0000   -0.0000   -0.0000   -0.0000    0.0000   -0.0000    0.0052   -0.0001   -0.0000    0.0036
   28 O1     4f1+       0.0000   -0.0001   -0.0000    0.0016   -0.0015   -0.0011   -0.0001   -0.0006   -0.0022   -0.0002
   29 O1     4f2+      -0.0000    0.0000    0.0000   -0.0000    0.0000    0.0000    0.0041   -0.0001    0.0000    0.0019
   30 O1     4f3+       0.0000   -0.0003    0.0000    0.0044   -0.0045   -0.0027   -0.0000    0.0011   -0.0057   -0.0000
   31 O2     1s         0.9992   -0.0023   -0.0018   -0.0281   -0.0001   -0.0151   -0.0002   -0.0134   -0.0011    0.0005
   32 O2     2s        -0.0055    0.0081    0.0082    0.6041    0.0169   -0.6602   -0.0030   -0.1789   -0.0094    0.0058
   33 O2     3s        -0.0042    0.0046    0.0047   -0.0614   -0.0005   -0.0254   -0.0004   -0.0291   -0.0025    0.0012
   34 O2     4s        -0.0008    0.0008    0.0008   -0.0123   -0.0001   -0.0047   -0.0001   -0.0074   -0.0008    0.0003
   35 O2     2px       -0.0008    0.0022    0.0022    0.0750   -0.0006    0.1433    0.0144    0.6953    0.1221   -0.0109
   36 O2     3px       -0.0014    0.0014    0.0014   -0.0330   -0.0005   -0.0162   -0.0014   -0.0511   -0.0100   -0.0003
   37 O2     4px        0.0014   -0.0004   -0.0004   -0.0037   -0.0001    0.0012   -0.0003   -0.0121   -0.0024    0.0000
   38 O2     2py       -0.0001    0.0044   -0.0044    0.0038   -0.3039   -0.0103   -0.0018    0.0954   -0.5372    0.0021
   39 O2     3py       -0.0001    0.0028   -0.0029   -0.0007    0.0602    0.0008    0.0003   -0.0098    0.0452    0.0004
   40 O2     4py        0.0001   -0.0008    0.0008   -0.0001   -0.0011    0.0001    0.0000   -0.0018    0.0096    0.0001
   41 O2     2pz        0.0000   -0.0000    0.0000    0.0003    0.0001    0.0003   -0.7010    0.0201    0.0082    0.0959
   42 O2     3pz       -0.0000   -0.0000    0.0000   -0.0000   -0.0000   -0.0000    0.0503   -0.0011   -0.0005    0.0029
   43 O2     4pz        0.0000    0.0000   -0.0000    0.0000   -0.0000    0.0000    0.0131   -0.0003   -0.0001   -0.0008
   44 O2     3d2-      -0.0000    0.0009   -0.0009    0.0004   -0.0334   -0.0003   -0.0002    0.0081   -0.0362    0.0018
   45 O2     4d2-      -0.0000    0.0004   -0.0004    0.0000   -0.0034    0.0001   -0.0000    0.0013   -0.0044    0.0004
   46 O2     3d1-      -0.0000   -0.0000   -0.0000   -0.0000   -0.0001    0.0001   -0.0013    0.0001   -0.0004   -0.0452
   47 O2     4d1-       0.0000   -0.0000   -0.0000   -0.0000   -0.0000    0.0000   -0.0001    0.0000   -0.0001   -0.0085
   48 O2     3d0        0.0007   -0.0008   -0.0008   -0.0159    0.0004   -0.0044   -0.0003   -0.0159   -0.0019    0.0004
   49 O2     4d0        0.0004   -0.0004   -0.0004    0.0001    0.0001   -0.0000   -0.0000   -0.0011   -0.0000    0.0000
   50 O2     3d1+       0.0000    0.0000   -0.0000    0.0000   -0.0000   -0.0000   -0.0224    0.0005    0.0002    0.0014
   51 O2     4d1+      -0.0000    0.0000    0.0000    0.0000   -0.0000   -0.0000   -0.0023    0.0001    0.0000    0.0003
   52 O2     3d2+       0.0006   -0.0009   -0.0009   -0.0172    0.0001    0.0008    0.0007    0.0167    0.0048    0.0005
   53 O2     4d2+       0.0003   -0.0004   -0.0004   -0.0014    0.0000    0.0008    0.0001    0.0026    0.0008    0.0001
   54 O2     4f3-       0.0000   -0.0000    0.0000    0.0000    0.0031    0.0001    0.0000   -0.0005    0.0030    0.0004
   55 O2     4f2-       0.0000    0.0000    0.0000    0.0000    0.0000   -0.0000   -0.0002   -0.0000   -0.0001   -0.0063
   56 O2     4f1-       0.0000   -0.0001    0.0001   -0.0002    0.0068    0.0002    0.0000   -0.0012    0.0063   -0.0000
   57 O2     4f0       -0.0000   -0.0000   -0.0000   -0.0000    0.0000    0.0000    0.0082   -0.0002   -0.0001   -0.0003
   58 O2     4f1+       0.0001   -0.0001   -0.0001   -0.0031    0.0000   -0.0005   -0.0001   -0.0042   -0.0007    0.0000
   59 O2     4f2+      -0.0000    0.0000   -0.0000   -0.0000   -0.0000   -0.0000    0.0066   -0.0002   -0.0001   -0.0003
   60 O2     4f3+       0.0001   -0.0002   -0.0002   -0.0087   -0.0000   -0.0006   -0.0002   -0.0071   -0.0011    0.0001
   61 O3     1s         0.0034   -0.0016    0.9989   -0.0128   -0.0113    0.0128   -0.0002   -0.0034   -0.0252    0.0002
   62 O3     2s         0.0028   -0.0003   -0.0077    0.3465    0.5828    0.6255   -0.0051   -0.0689   -0.4363    0.0010
   63 O3     3s         0.0016   -0.0001   -0.0055   -0.0100   -0.0188    0.0212   -0.0005   -0.0062   -0.0553    0.0006
   64 O3     4s         0.0003    0.0000   -0.0011   -0.0006   -0.0039    0.0034   -0.0001   -0.0016   -0.0119    0.0002
   65 O3     2px       -0.0005   -0.0001    0.0016   -0.0320   -0.0229    0.0773    0.0074    0.2017   -0.0375   -0.0145
   66 O3     3px       -0.0005   -0.0002    0.0015    0.0108    0.0063   -0.0144   -0.0001   -0.0199    0.0206   -0.0003
   67 O3     4px       -0.0000   -0.0001   -0.0008    0.0022   -0.0004   -0.0000   -0.0001   -0.0019    0.0001    0.0002
   68 O3     2py        0.0018   -0.0003   -0.0034    0.1129    0.0864   -0.1398    0.0100    0.2214    0.4843   -0.0167
   69 O3     3py        0.0010   -0.0003   -0.0034   -0.0139   -0.0162    0.0224   -0.0007   -0.0171   -0.0440    0.0003
   70 O3     4py       -0.0004    0.0000    0.0021   -0.0009   -0.0038   -0.0011   -0.0002   -0.0040   -0.0056    0.0002
   71 O3     2pz       -0.0000   -0.0000    0.0000   -0.0004    0.0006    0.0004   -0.3388    0.0074    0.0089    0.6632
   72 O3     3pz       -0.0000   -0.0000   -0.0000    0.0000    0.0000   -0.0000    0.0237   -0.0008   -0.0001    0.0069
   73 O3     4pz       -0.0000    0.0000    0.0000    0.0000   -0.0000    0.0000    0.0046   -0.0001   -0.0001   -0.0072
   74 O3     3d2-      -0.0002    0.0000    0.0012   -0.0118   -0.0117    0.0115    0.0002    0.0108   -0.0199   -0.0003
   75 O3     4d2-      -0.0001   -0.0000    0.0007   -0.0010   -0.0013    0.0008    0.0000    0.0013   -0.0014   -0.0001
   76 O3     3d1-      -0.0000   -0.0000   -0.0000   -0.0000   -0.0000    0.0000   -0.0251    0.0006    0.0004    0.0197
   77 O3     4d1-      -0.0000   -0.0000   -0.0000   -0.0000   -0.0000    0.0000   -0.0034    0.0001    0.0001    0.0035
   78 O3     3d0       -0.0003    0.0000    0.0009   -0.0109   -0.0091    0.0069   -0.0002   -0.0051   -0.0179    0.0002
   79 O3     4d0       -0.0001    0.0000    0.0005   -0.0008   -0.0012    0.0004   -0.0000   -0.0005   -0.0014    0.0000
   80 O3     3d1+      -0.0000    0.0000    0.0000   -0.0000    0.0000    0.0000    0.0101   -0.0002   -0.0002   -0.0071
   81 O3     4d1+       0.0000    0.0000   -0.0000   -0.0000   -0.0000    0.0000    0.0015   -0.0000   -0.0000   -0.0008
   82 O3     3d2+      -0.0004    0.0001    0.0011   -0.0155   -0.0103    0.0075   -0.0008   -0.0224   -0.0248    0.0009
   83 O3     4d2+      -0.0002    0.0001    0.0006   -0.0021   -0.0014    0.0007   -0.0001   -0.0027   -0.0024    0.0001
   84 O3     4f3-      -0.0001   -0.0000    0.0001   -0.0024   -0.0015   -0.0001   -0.0002   -0.0066   -0.0032    0.0002
   85 O3     4f2-      -0.0000    0.0000    0.0000   -0.0000   -0.0000    0.0000    0.0041   -0.0001   -0.0001   -0.0033
   86 O3     4f1-      -0.0001   -0.0000    0.0002   -0.0036   -0.0033    0.0014   -0.0001   -0.0017   -0.0046    0.0001
   87 O3     4f0        0.0000    0.0000    0.0000   -0.0000   -0.0000    0.0000    0.0045   -0.0001   -0.0001   -0.0033
   88 O3     4f1+       0.0000   -0.0000   -0.0001    0.0015    0.0015   -0.0009    0.0000   -0.0010    0.0017   -0.0000
   89 O3     4f2+       0.0000    0.0000    0.0000    0.0000    0.0000   -0.0000    0.0043   -0.0001   -0.0001   -0.0029
   90 O3     4f3+       0.0000    0.0000   -0.0003    0.0044    0.0047   -0.0027    0.0000   -0.0011    0.0061   -0.0000
 
 
      Orbital               11        12        13        14        15        16        17        18        19        20
      Energy            0.0000    0.0000    0.0000    0.1742    0.1875    0.2370    0.2530    0.3454    0.3526    0.3751
      Occ. No.          1.1956    1.8038    1.0006    0.0000    0.0000    0.0000    0.0000    0.0000    0.0000    0.0000
 
    1 O1     1s        -0.0027    0.0016    0.0000   -0.2133   -0.1096   -0.0001    0.0070   -0.0753   -0.0142   -0.0001
    2 O1     2s        -0.0045    0.0590    0.0007   -1.5618   -0.8453   -0.0008   -0.0351   -0.4308   -0.0291   -0.0005
    3 O1     3s        -0.0128    0.0008   -0.0002   -0.9087   -0.4308   -0.0002    0.0989   -0.5735    0.0022   -0.0003
    4 O1     4s        -0.0042   -0.0005   -0.0001   -0.2032   -0.0856   -0.0000    0.0321   -0.1581    0.0078   -0.0001
    5 O1     2px       -0.7972    0.5014    0.0047    0.3978    0.1512    0.0004    0.0866    0.0490   -0.2192   -0.0000
    6 O1     3px       -0.0075   -0.0008   -0.0006    0.4089    0.2531   -0.0009   -0.3413   -0.1576   -0.7900    0.0003
    7 O1     4px        0.0077   -0.0057   -0.0002    0.0520    0.0710   -0.0006   -0.1695   -0.1089   -0.3121   -0.0001
    8 O1     2py        0.0990   -0.2677   -0.0044    0.6247    0.8575    0.0011    0.3583    0.0959   -0.2249    0.0005
    9 O1     3py        0.0098   -0.0079    0.0002    0.7873    0.6649    0.0011    0.2394    0.8040   -0.1772    0.0011
   10 O1     4py        0.0008    0.0025    0.0001    0.1181    0.0836    0.0004    0.0954    0.1933   -0.0341    0.0003
   11 O1     2pz       -0.0215    0.0205    0.5935   -0.0000    0.0008    0.0570    0.0002   -0.0010   -0.0001   -0.1864
   12 O1     3pz        0.0005   -0.0001    0.0446    0.0005    0.0002   -0.4099    0.0019   -0.0000   -0.0000   -0.9151
   13 O1     4pz        0.0004   -0.0003    0.0032    0.0002    0.0001   -0.2111    0.0008    0.0000   -0.0001   -0.3611
   14 O1     3d2-       0.0135   -0.0126   -0.0002   -0.0740   -0.0360   -0.0000    0.0075   -0.0343    0.0030   -0.0000
   15 O1     4d2-       0.0018   -0.0025   -0.0000   -0.0483   -0.0239   -0.0000    0.0055   -0.0219    0.0150   -0.0000
   16 O1     3d1-       0.0006   -0.0007    0.0103   -0.0000    0.0000   -0.0064    0.0000    0.0000    0.0000    0.0059
   17 O1     4d1-       0.0001   -0.0001    0.0019   -0.0000   -0.0000    0.0006   -0.0000    0.0000   -0.0000    0.0113
   18 O1     3d0       -0.0040   -0.0004    0.0000    0.0546    0.0370   -0.0000   -0.0162    0.0532   -0.0101    0.0000
   19 O1     4d0       -0.0001   -0.0003    0.0000    0.0348    0.0258   -0.0000   -0.0072    0.0323   -0.0124    0.0000
   20 O1     3d1+       0.0001   -0.0003    0.0066    0.0000    0.0000   -0.0029    0.0000   -0.0001    0.0000    0.0145
   21 O1     4d1+       0.0000   -0.0000    0.0016    0.0000    0.0000    0.0005    0.0000   -0.0001    0.0000    0.0118
   22 O1     3d2+      -0.0019   -0.0125   -0.0002    0.0639    0.0422   -0.0001   -0.0358    0.1090   -0.0015    0.0001
   23 O1     4d2+       0.0004   -0.0020   -0.0000    0.0388    0.0330   -0.0000   -0.0127    0.0668   -0.0035    0.0001
   24 O1     4f3-      -0.0007    0.0038    0.0000   -0.0047    0.0001   -0.0000   -0.0026   -0.0114   -0.0029   -0.0000
   25 O1     4f2-       0.0000    0.0001   -0.0010    0.0000    0.0000   -0.0021    0.0000   -0.0000   -0.0000   -0.0060
   26 O1     4f1-       0.0007    0.0007    0.0000   -0.0059   -0.0052   -0.0000   -0.0003   -0.0084    0.0059   -0.0000
   27 O1     4f0        0.0004   -0.0002    0.0007   -0.0000    0.0000    0.0018   -0.0000   -0.0000   -0.0000    0.0055
   28 O1     4f1+       0.0033   -0.0019   -0.0001   -0.0019   -0.0027    0.0000    0.0004   -0.0022    0.0043    0.0000
   29 O1     4f2+      -0.0002    0.0000    0.0004    0.0000    0.0000    0.0022    0.0000    0.0000    0.0000    0.0039
   30 O1     4f3+       0.0015   -0.0006    0.0001   -0.0084   -0.0051   -0.0000    0.0006   -0.0070    0.0094   -0.0000
   31 O2     1s        -0.0226   -0.0048   -0.0002    0.0208    0.3085   -0.0000    0.0317    0.2214   -0.0097    0.0003
   32 O2     2s        -0.2564   -0.0592   -0.0027    0.1529    2.2814    0.0004    0.3577    1.2806   -0.0534    0.0015
   33 O2     3s        -0.0598   -0.0124   -0.0006    0.0843    1.2176   -0.0003    0.0413    0.8809   -0.0340    0.0012
   34 O2     4s        -0.0142   -0.0030   -0.0002    0.0184    0.2600   -0.0001    0.0097    0.1572   -0.0049    0.0003
   35 O2     2px        0.4802    0.1056    0.0041    0.0475    0.6974    0.0012    0.3698    0.1375    0.0011    0.0003
   36 O2     3px        0.0227    0.0049    0.0003    0.0373    0.6405   -0.0008   -0.1684    0.6038   -0.0142    0.0000
   37 O2     4px        0.0015    0.0002    0.0000    0.0048    0.1067   -0.0005   -0.1322    0.0718    0.0020   -0.0001
   38 O2     2py       -0.0018   -0.0810   -0.0010    1.4323   -0.0898    0.0006   -0.0060   -0.0310   -0.1166    0.0001
   39 O2     3py       -0.0037    0.0239    0.0003    1.4386   -0.1048    0.0012   -0.0115    0.0084    0.3685   -0.0003
   40 O2     4py       -0.0004    0.0039    0.0000    0.1436   -0.0126    0.0001   -0.0006    0.0075    0.1900   -0.0001
   41 O2     2pz       -0.0015    0.0051   -0.7833    0.0000   -0.0010    0.1059   -0.0009    0.0015   -0.0000    0.0100
   42 O2     3pz        0.0000    0.0007   -0.0773   -0.0001   -0.0004   -0.2537    0.0005    0.0011   -0.0003    0.0277
   43 O2     4pz        0.0000    0.0000   -0.0025    0.0000   -0.0001   -0.1702    0.0005    0.0002   -0.0001    0.0101
   44 O2     3d2-      -0.0072    0.0336    0.0003    0.1303   -0.0099    0.0002    0.0000    0.0059    0.0845   -0.0000
   45 O2     4d2-      -0.0012    0.0069    0.0001    0.0792   -0.0061    0.0001   -0.0001    0.0039    0.0615   -0.0000
   46 O2     3d1-      -0.0011    0.0016   -0.0057   -0.0000   -0.0000    0.0008    0.0000   -0.0000    0.0000    0.0971
   47 O2     4d1-      -0.0002    0.0003   -0.0014   -0.0000   -0.0000    0.0006   -0.0000   -0.0000    0.0000    0.0602
   48 O2     3d0       -0.0163   -0.0042   -0.0002   -0.0037   -0.0531    0.0002    0.0485   -0.1516    0.0071   -0.0001
   49 O2     4d0       -0.0018   -0.0005   -0.0000   -0.0024   -0.0365    0.0001    0.0233   -0.0725    0.0031   -0.0001
   50 O2     3d1+      -0.0001    0.0001    0.0006    0.0000    0.0000    0.0234   -0.0001   -0.0000    0.0001   -0.0004
   51 O2     4d1+      -0.0000    0.0000    0.0009    0.0000    0.0000    0.0106   -0.0000   -0.0000    0.0000    0.0000
   52 O2     3d2+      -0.0345   -0.0069   -0.0002   -0.0037   -0.0567    0.0003    0.0902   -0.1018    0.0047   -0.0000
   53 O2     4d2+      -0.0057   -0.0012   -0.0000   -0.0023   -0.0362    0.0001    0.0391   -0.0290    0.0011   -0.0000
   54 O2     4f3-      -0.0018    0.0094    0.0001   -0.0089    0.0006    0.0000    0.0002    0.0001    0.0006   -0.0000
   55 O2     4f2-      -0.0001    0.0002   -0.0004   -0.0000   -0.0000    0.0001    0.0000   -0.0000    0.0000    0.0056
   56 O2     4f1-      -0.0001    0.0009    0.0000   -0.0100    0.0008   -0.0000    0.0000   -0.0004   -0.0094    0.0000
   57 O2     4f0        0.0001    0.0000    0.0009    0.0000    0.0000    0.0014    0.0000   -0.0000    0.0000   -0.0002
   58 O2     4f1+      -0.0007   -0.0000   -0.0000   -0.0002   -0.0039    0.0000    0.0024   -0.0072    0.0002   -0.0000
   59 O2     4f2+       0.0000   -0.0000    0.0012    0.0000    0.0000    0.0016   -0.0000   -0.0000   -0.0000   -0.0002
   60 O2     4f3+      -0.0040   -0.0009   -0.0001   -0.0006   -0.0090    0.0000    0.0066   -0.0145    0.0004   -0.0000
   61 O3     1s        -0.0033   -0.0029   -0.0000    0.1969   -0.1376    0.0002    0.0044   -0.0762    0.0189   -0.0001
   62 O3     2s         0.0028   -0.0606   -0.0006    1.4371   -1.0464    0.0012   -0.0526   -0.4467    0.0539   -0.0006
   63 O3     3s        -0.0145   -0.0072   -0.0003    0.8502   -0.5526    0.0012    0.0855   -0.5724    0.0515   -0.0004
   64 O3     4s        -0.0047   -0.0016   -0.0001    0.1929   -0.1129    0.0003    0.0290   -0.1576    0.0088   -0.0001
   65 O3     2px       -0.5378   -0.7719   -0.0084   -0.3733    0.1962   -0.0002    0.0947    0.0875    0.2049    0.0003
   66 O3     3px       -0.0087   -0.0035   -0.0004   -0.3704    0.2953   -0.0015   -0.3127   -0.0650    0.8037    0.0002
   67 O3     4px        0.0036    0.0068    0.0001   -0.0429    0.0729   -0.0006   -0.1593   -0.0730    0.3238   -0.0001
[...]

>>> COPY /tmp/ozone_133.25/GMJ_IVECC2_E_P_2_.csv /home/grierjones/DDCASPT2/ozone/multistate/ANO-RCC-VTZP/ozone_133.25/GMJ_IVECC2_E_P_2_.csv

>>> COPY /tmp/ozone_133.25/GMJ_e2_E_P_2_.csv /home/grierjones/DDCASPT2/ozone/multistate/ANO-RCC-VTZP/ozone_133.25/GMJ_e2_E_P_2_.csv

>>> END FOREACH

>>> EXPORT j = M

>>> IF (-FILE GMJ_e2_${i}_${j}_${k}_.csv)

>>> COPY /tmp/ozone_133.25/GMJ_RHS_E_M_2_.csv /home/grierjones/DDCASPT2/ozone/multistate/ANO-RCC-VTZP/ozone_133.25/GMJ_RHS_E_M_2_.csv

>>> COPY /tmp/ozone_133.25/GMJ_IVECW_E_M_2_.csv /home/grierjones/DDCASPT2/ozone/multistate/ANO-RCC-VTZP/ozone_133.25/GMJ_IVECW_E_M_2_.csv

>>> COPY /tmp/ozone_133.25/GMJ_IVECX_E_M_2_.csv /home/grierjones/DDCASPT2/ozone/multistate/ANO-RCC-VTZP/ozone_133.25/GMJ_IVECX_E_M_2_.csv

>>> COPY /tmp/ozone_133.25/GMJ_IVECC2_E_M_2_.csv /home/grierjones/DDCASPT2/ozone/multistate/ANO-RCC-VTZP/ozone_133.25/GMJ_IVECC2_E_M_2_.csv

>>> COPY /tmp/ozone_133.25/GMJ_e2_E_M_2_.csv /home/grierjones/DDCASPT2/ozone/multistate/ANO-RCC-VTZP/ozone_133.25/GMJ_e2_E_M_2_.csv

>>> END FOREACH

>>> END FOREACH

>>> EXPORT i = F

>>> EXPORT j = P

>>> IF (-FILE GMJ_e2_${i}_${j}_${k}_.csv)

>>> COPY /tmp/ozone_133.25/GMJ_RHS_F_P_2_.csv /home/grierjones/DDCASPT2/ozone/multistate/ANO-RCC-VTZP/ozone_133.25/GMJ_RHS_F_P_2_.csv

>>> COPY /tmp/ozone_133.25/GMJ_IVECW_F_P_2_.csv /home/grierjones/DDCASPT2/ozone/multistate/ANO-RCC-VTZP/ozone_133.25/GMJ_IVECW_F_P_2_.csv

>>> COPY /tmp/ozone_133.25/GMJ_IVECX_F_P_2_.csv /home/grierjones/DDCASPT2/ozone/multistate/ANO-RCC-VTZP/ozone_133.25/GMJ_IVECX_F_P_2_.csv

>>> COPY /tmp/ozone_133.25/GMJ_IVECC2_F_P_2_.csv /home/grierjones/DDCASPT2/ozone/multistate/ANO-RCC-VTZP/ozone_133.25/GMJ_IVECC2_F_P_2_.csv

>>> COPY /tmp/ozone_133.25/GMJ_e2_F_P_2_.csv /home/grierjones/DDCASPT2/ozone/multistate/ANO-RCC-VTZP/ozone_133.25/GMJ_e2_F_P_2_.csv

>>> END FOREACH

>>> EXPORT j = M

>>> IF (-FILE GMJ_e2_${i}_${j}_${k}_.csv)

>>> COPY /tmp/ozone_133.25/GMJ_RHS_F_M_2_.csv /home/grierjones/DDCASPT2/ozone/multistate/ANO-RCC-VTZP/ozone_133.25/GMJ_RHS_F_M_2_.csv

>>> COPY /tmp/ozone_133.25/GMJ_IVECW_F_M_2_.csv /home/grierjones/DDCASPT2/ozone/multistate/ANO-RCC-VTZP/ozone_133.25/GMJ_IVECW_F_M_2_.csv

>>> COPY /tmp/ozone_133.25/GMJ_IVECX_F_M_2_.csv /home/grierjones/DDCASPT2/ozone/multistate/ANO-RCC-VTZP/ozone_133.25/GMJ_IVECX_F_M_2_.csv

>>> COPY /tmp/ozone_133.25/GMJ_IVECC2_F_M_2_.csv /home/grierjones/DDCASPT2/ozone/multistate/ANO-RCC-VTZP/ozone_133.25/GMJ_IVECC2_F_M_2_.csv

>>> COPY /tmp/ozone_133.25/GMJ_e2_F_M_2_.csv /home/grierjones/DDCASPT2/ozone/multistate/ANO-RCC-VTZP/ozone_133.25/GMJ_e2_F_M_2_.csv

>>> END FOREACH

>>> END FOREACH

>>> EXPORT i = G

>>> EXPORT j = P

>>> IF (-FILE GMJ_e2_${i}_${j}_${k}_.csv)

>>> COPY /tmp/ozone_133.25/GMJ_RHS_G_P_2_.csv /home/grierjones/DDCASPT2/ozone/multistate/ANO-RCC-VTZP/ozone_133.25/GMJ_RHS_G_P_2_.csv

>>> COPY /tmp/ozone_133.25/GMJ_IVECW_G_P_2_.csv /home/grierjones/DDCASPT2/ozone/multistate/ANO-RCC-VTZP/ozone_133.25/GMJ_IVECW_G_P_2_.csv

>>> COPY /tmp/ozone_133.25/GMJ_IVECX_G_P_2_.csv /home/grierjones/DDCASPT2/ozone/multistate/ANO-RCC-VTZP/ozone_133.25/GMJ_IVECX_G_P_2_.csv

>>> COPY /tmp/ozone_133.25/GMJ_IVECC2_G_P_2_.csv /home/grierjones/DDCASPT2/ozone/multistate/ANO-RCC-VTZP/ozone_133.25/GMJ_IVECC2_G_P_2_.csv

>>> COPY /tmp/ozone_133.25/GMJ_e2_G_P_2_.csv /home/grierjones/DDCASPT2/ozone/multistate/ANO-RCC-VTZP/ozone_133.25/GMJ_e2_G_P_2_.csv

>>> END FOREACH

>>> EXPORT j = M

>>> IF (-FILE GMJ_e2_${i}_${j}_${k}_.csv)

>>> COPY /tmp/ozone_133.25/GMJ_RHS_G_M_2_.csv /home/grierjones/DDCASPT2/ozone/multistate/ANO-RCC-VTZP/ozone_133.25/GMJ_RHS_G_M_2_.csv

>>> COPY /tmp/ozone_133.25/GMJ_IVECW_G_M_2_.csv /home/grierjones/DDCASPT2/ozone/multistate/ANO-RCC-VTZP/ozone_133.25/GMJ_IVECW_G_M_2_.csv

>>> COPY /tmp/ozone_133.25/GMJ_IVECX_G_M_2_.csv /home/grierjones/DDCASPT2/ozone/multistate/ANO-RCC-VTZP/ozone_133.25/GMJ_IVECX_G_M_2_.csv

>>> COPY /tmp/ozone_133.25/GMJ_IVECC2_G_M_2_.csv /home/grierjones/DDCASPT2/ozone/multistate/ANO-RCC-VTZP/ozone_133.25/GMJ_IVECC2_G_M_2_.csv

>>> COPY /tmp/ozone_133.25/GMJ_e2_G_M_2_.csv /home/grierjones/DDCASPT2/ozone/multistate/ANO-RCC-VTZP/ozone_133.25/GMJ_e2_G_M_2_.csv

>>> END FOREACH

>>> END FOREACH

>>> EXPORT i = H

>>> EXPORT j = P

>>> IF (-FILE GMJ_e2_${i}_${j}_${k}_.csv)

>>> COPY /tmp/ozone_133.25/GMJ_RHS_H_P_2_.csv /home/grierjones/DDCASPT2/ozone/multistate/ANO-RCC-VTZP/ozone_133.25/GMJ_RHS_H_P_2_.csv

>>> COPY /tmp/ozone_133.25/GMJ_IVECW_H_P_2_.csv /home/grierjones/DDCASPT2/ozone/multistate/ANO-RCC-VTZP/ozone_133.25/GMJ_IVECW_H_P_2_.csv

>>> COPY /tmp/ozone_133.25/GMJ_IVECX_H_P_2_.csv /home/grierjones/DDCASPT2/ozone/multistate/ANO-RCC-VTZP/ozone_133.25/GMJ_IVECX_H_P_2_.csv

>>> COPY /tmp/ozone_133.25/GMJ_IVECC2_H_P_2_.csv /home/grierjones/DDCASPT2/ozone/multistate/ANO-RCC-VTZP/ozone_133.25/GMJ_IVECC2_H_P_2_.csv

>>> COPY /tmp/ozone_133.25/GMJ_e2_H_P_2_.csv /home/grierjones/DDCASPT2/ozone/multistate/ANO-RCC-VTZP/ozone_133.25/GMJ_e2_H_P_2_.csv

>>> END FOREACH

>>> EXPORT j = M

>>> IF (-FILE GMJ_e2_${i}_${j}_${k}_.csv)

>>> COPY /tmp/ozone_133.25/GMJ_RHS_H_M_2_.csv /home/grierjones/DDCASPT2/ozone/multistate/ANO-RCC-VTZP/ozone_133.25/GMJ_RHS_H_M_2_.csv

>>> COPY /tmp/ozone_133.25/GMJ_IVECW_H_M_2_.csv /home/grierjones/DDCASPT2/ozone/multistate/ANO-RCC-VTZP/ozone_133.25/GMJ_IVECW_H_M_2_.csv

>>> COPY /tmp/ozone_133.25/GMJ_IVECX_H_M_2_.csv /home/grierjones/DDCASPT2/ozone/multistate/ANO-RCC-VTZP/ozone_133.25/GMJ_IVECX_H_M_2_.csv

>>> COPY /tmp/ozone_133.25/GMJ_IVECC2_H_M_2_.csv /home/grierjones/DDCASPT2/ozone/multistate/ANO-RCC-VTZP/ozone_133.25/GMJ_IVECC2_H_M_2_.csv

>>> COPY /tmp/ozone_133.25/GMJ_e2_H_M_2_.csv /home/grierjones/DDCASPT2/ozone/multistate/ANO-RCC-VTZP/ozone_133.25/GMJ_e2_H_M_2_.csv

>>> END FOREACH

>>> END FOREACH

>>> END FOREACH

>>> EXPORT k = 3

>>> EXPORT i = B

>>> EXPORT j = P

>>> IF (-FILE GMJ_e2_${i}_${j}_${k}_.csv)

>>> COPY /tmp/ozone_133.25/GMJ_RHS_B_P_3_.csv /home/grierjones/DDCASPT2/ozone/multistate/ANO-RCC-VTZP/ozone_133.25/GMJ_RHS_B_P_3_.csv

>>> COPY /tmp/ozone_133.25/GMJ_IVECW_B_P_3_.csv /home/grierjones/DDCASPT2/ozone/multistate/ANO-RCC-VTZP/ozone_133.25/GMJ_IVECW_B_P_3_.csv

>>> COPY /tmp/ozone_133.25/GMJ_IVECX_B_P_3_.csv /home/grierjones/DDCASPT2/ozone/multistate/ANO-RCC-VTZP/ozone_133.25/GMJ_IVECX_B_P_3_.csv

>>> COPY /tmp/ozone_133.25/GMJ_IVECC2_B_P_3_.csv /home/grierjones/DDCASPT2/ozone/multistate/ANO-RCC-VTZP/ozone_133.25/GMJ_IVECC2_B_P_3_.csv

>>> COPY /tmp/ozone_133.25/GMJ_e2_B_P_3_.csv /home/grierjones/DDCASPT2/ozone/multistate/ANO-RCC-VTZP/ozone_133.25/GMJ_e2_B_P_3_.csv

>>> END FOREACH

>>> EXPORT j = M

>>> IF (-FILE GMJ_e2_${i}_${j}_${k}_.csv)
(Skipped)

>>> END FOREACH

>>> END FOREACH

>>> EXPORT i = E

>>> EXPORT j = P

>>> IF (-FILE GMJ_e2_${i}_${j}_${k}_.csv)

>>> COPY /tmp/ozone_133.25/GMJ_RHS_E_P_3_.csv /home/grierjones/DDCASPT2/ozone/multistate/ANO-RCC-VTZP/ozone_133.25/GMJ_RHS_E_P_3_.csv

>>> COPY /tmp/ozone_133.25/GMJ_IVECW_E_P_3_.csv /home/grierjones/DDCASPT2/ozone/multistate/ANO-RCC-VTZP/ozone_133.25/GMJ_IVECW_E_P_3_.csv

>>> COPY /tmp/ozone_133.25/GMJ_IVECX_E_P_3_.csv /home/grierjones/DDCASPT2/ozone/multistate/ANO-RCC-VTZP/ozone_133.25/GMJ_IVECX_E_P_3_.csv

>>> COPY /tmp/ozone_133.25/GMJ_IVECC2_E_P_3_.csv /home/grierjones/DDCASPT2/ozone/multistate/ANO-RCC-VTZP/ozone_133.25/GMJ_IVECC2_E_P_3_.csv

>>> COPY /tmp/ozone_133.25/GMJ_e2_E_P_3_.csv /home/grierjones/DDCASPT2/ozone/multistate/ANO-RCC-VTZP/ozone_133.25/GMJ_e2_E_P_3_.csv

>>> END FOREACH

>>> EXPORT j = M

>>> IF (-FILE GMJ_e2_${i}_${j}_${k}_.csv)

>>> COPY /tmp/ozone_133.25/GMJ_RHS_E_M_3_.csv /home/grierjones/DDCASPT2/ozone/multistate/ANO-RCC-VTZP/ozone_133.25/GMJ_RHS_E_M_3_.csv

>>> COPY /tmp/ozone_133.25/GMJ_IVECW_E_M_3_.csv /home/grierjones/DDCASPT2/ozone/multistate/ANO-RCC-VTZP/ozone_133.25/GMJ_IVECW_E_M_3_.csv

>>> COPY /tmp/ozone_133.25/GMJ_IVECX_E_M_3_.csv /home/grierjones/DDCASPT2/ozone/multistate/ANO-RCC-VTZP/ozone_133.25/GMJ_IVECX_E_M_3_.csv

>>> COPY /tmp/ozone_133.25/GMJ_IVECC2_E_M_3_.csv /home/grierjones/DDCASPT2/ozone/multistate/ANO-RCC-VTZP/ozone_133.25/GMJ_IVECC2_E_M_3_.csv

>>> COPY /tmp/ozone_133.25/GMJ_e2_E_M_3_.csv /home/grierjones/DDCASPT2/ozone/multistate/ANO-RCC-VTZP/ozone_133.25/GMJ_e2_E_M_3_.csv

>>> END FOREACH

>>> END FOREACH

>>> EXPORT i = F

>>> EXPORT j = P

>>> IF (-FILE GMJ_e2_${i}_${j}_${k}_.csv)

>>> COPY /tmp/ozone_133.25/GMJ_RHS_F_P_3_.csv /home/grierjones/DDCASPT2/ozone/multistate/ANO-RCC-VTZP/ozone_133.25/GMJ_RHS_F_P_3_.csv

>>> COPY /tmp/ozone_133.25/GMJ_IVECW_F_P_3_.csv /home/grierjones/DDCASPT2/ozone/multistate/ANO-RCC-VTZP/ozone_133.25/GMJ_IVECW_F_P_3_.csv

>>> COPY /tmp/ozone_133.25/GMJ_IVECX_F_P_3_.csv /home/grierjones/DDCASPT2/ozone/multistate/ANO-RCC-VTZP/ozone_133.25/GMJ_IVECX_F_P_3_.csv

>>> COPY /tmp/ozone_133.25/GMJ_IVECC2_F_P_3_.csv /home/grierjones/DDCASPT2/ozone/multistate/ANO-RCC-VTZP/ozone_133.25/GMJ_IVECC2_F_P_3_.csv

>>> COPY /tmp/ozone_133.25/GMJ_e2_F_P_3_.csv /home/grierjones/DDCASPT2/ozone/multistate/ANO-RCC-VTZP/ozone_133.25/GMJ_e2_F_P_3_.csv

>>> END FOREACH

>>> EXPORT j = M

>>> IF (-FILE GMJ_e2_${i}_${j}_${k}_.csv)

>>> COPY /tmp/ozone_133.25/GMJ_RHS_F_M_3_.csv /home/grierjones/DDCASPT2/ozone/multistate/ANO-RCC-VTZP/ozone_133.25/GMJ_RHS_F_M_3_.csv

>>> COPY /tmp/ozone_133.25/GMJ_IVECW_F_M_3_.csv /home/grierjones/DDCASPT2/ozone/multistate/ANO-RCC-VTZP/ozone_133.25/GMJ_IVECW_F_M_3_.csv

>>> COPY /tmp/ozone_133.25/GMJ_IVECX_F_M_3_.csv /home/grierjones/DDCASPT2/ozone/multistate/ANO-RCC-VTZP/ozone_133.25/GMJ_IVECX_F_M_3_.csv

>>> COPY /tmp/ozone_133.25/GMJ_IVECC2_F_M_3_.csv /home/grierjones/DDCASPT2/ozone/multistate/ANO-RCC-VTZP/ozone_133.25/GMJ_IVECC2_F_M_3_.csv

>>> COPY /tmp/ozone_133.25/GMJ_e2_F_M_3_.csv /home/grierjones/DDCASPT2/ozone/multistate/ANO-RCC-VTZP/ozone_133.25/GMJ_e2_F_M_3_.csv

>>> END FOREACH

>>> END FOREACH

>>> EXPORT i = G

>>> EXPORT j = P

>>> IF (-FILE GMJ_e2_${i}_${j}_${k}_.csv)

>>> COPY /tmp/ozone_133.25/GMJ_RHS_G_P_3_.csv /home/grierjones/DDCASPT2/ozone/multistate/ANO-RCC-VTZP/ozone_133.25/GMJ_RHS_G_P_3_.csv

>>> COPY /tmp/ozone_133.25/GMJ_IVECW_G_P_3_.csv /home/grierjones/DDCASPT2/ozone/multistate/ANO-RCC-VTZP/ozone_133.25/GMJ_IVECW_G_P_3_.csv

>>> COPY /tmp/ozone_133.25/GMJ_IVECX_G_P_3_.csv /home/grierjones/DDCASPT2/ozone/multistate/ANO-RCC-VTZP/ozone_133.25/GMJ_IVECX_G_P_3_.csv

>>> COPY /tmp/ozone_133.25/GMJ_IVECC2_G_P_3_.csv /home/grierjones/DDCASPT2/ozone/multistate/ANO-RCC-VTZP/ozone_133.25/GMJ_IVECC2_G_P_3_.csv

>>> COPY /tmp/ozone_133.25/GMJ_e2_G_P_3_.csv /home/grierjones/DDCASPT2/ozone/multistate/ANO-RCC-VTZP/ozone_133.25/GMJ_e2_G_P_3_.csv

>>> END FOREACH

>>> EXPORT j = M

>>> IF (-FILE GMJ_e2_${i}_${j}_${k}_.csv)

>>> COPY /tmp/ozone_133.25/GMJ_RHS_G_M_3_.csv /home/grierjones/DDCASPT2/ozone/multistate/ANO-RCC-VTZP/ozone_133.25/GMJ_RHS_G_M_3_.csv

>>> COPY /tmp/ozone_133.25/GMJ_IVECW_G_M_3_.csv /home/grierjones/DDCASPT2/ozone/multistate/ANO-RCC-VTZP/ozone_133.25/GMJ_IVECW_G_M_3_.csv

>>> COPY /tmp/ozone_133.25/GMJ_IVECX_G_M_3_.csv /home/grierjones/DDCASPT2/ozone/multistate/ANO-RCC-VTZP/ozone_133.25/GMJ_IVECX_G_M_3_.csv

>>> COPY /tmp/ozone_133.25/GMJ_IVECC2_G_M_3_.csv /home/grierjones/DDCASPT2/ozone/multistate/ANO-RCC-VTZP/ozone_133.25/GMJ_IVECC2_G_M_3_.csv

>>> COPY /tmp/ozone_133.25/GMJ_e2_G_M_3_.csv /home/grierjones/DDCASPT2/ozone/multistate/ANO-RCC-VTZP/ozone_133.25/GMJ_e2_G_M_3_.csv

>>> END FOREACH

>>> END FOREACH

>>> EXPORT i = H

>>> EXPORT j = P

>>> IF (-FILE GMJ_e2_${i}_${j}_${k}_.csv)

>>> COPY /tmp/ozone_133.25/GMJ_RHS_H_P_3_.csv /home/grierjones/DDCASPT2/ozone/multistate/ANO-RCC-VTZP/ozone_133.25/GMJ_RHS_H_P_3_.csv

>>> COPY /tmp/ozone_133.25/GMJ_IVECW_H_P_3_.csv /home/grierjones/DDCASPT2/ozone/multistate/ANO-RCC-VTZP/ozone_133.25/GMJ_IVECW_H_P_3_.csv

>>> COPY /tmp/ozone_133.25/GMJ_IVECX_H_P_3_.csv /home/grierjones/DDCASPT2/ozone/multistate/ANO-RCC-VTZP/ozone_133.25/GMJ_IVECX_H_P_3_.csv

>>> COPY /tmp/ozone_133.25/GMJ_IVECC2_H_P_3_.csv /home/grierjones/DDCASPT2/ozone/multistate/ANO-RCC-VTZP/ozone_133.25/GMJ_IVECC2_H_P_3_.csv

>>> COPY /tmp/ozone_133.25/GMJ_e2_H_P_3_.csv /home/grierjones/DDCASPT2/ozone/multistate/ANO-RCC-VTZP/ozone_133.25/GMJ_e2_H_P_3_.csv

>>> END FOREACH

>>> EXPORT j = M

>>> IF (-FILE GMJ_e2_${i}_${j}_${k}_.csv)

>>> COPY /tmp/ozone_133.25/GMJ_RHS_H_M_3_.csv /home/grierjones/DDCASPT2/ozone/multistate/ANO-RCC-VTZP/ozone_133.25/GMJ_RHS_H_M_3_.csv

>>> COPY /tmp/ozone_133.25/GMJ_IVECW_H_M_3_.csv /home/grierjones/DDCASPT2/ozone/multistate/ANO-RCC-VTZP/ozone_133.25/GMJ_IVECW_H_M_3_.csv

>>> COPY /tmp/ozone_133.25/GMJ_IVECX_H_M_3_.csv /home/grierjones/DDCASPT2/ozone/multistate/ANO-RCC-VTZP/ozone_133.25/GMJ_IVECX_H_M_3_.csv

>>> COPY /tmp/ozone_133.25/GMJ_IVECC2_H_M_3_.csv /home/grierjones/DDCASPT2/ozone/multistate/ANO-RCC-VTZP/ozone_133.25/GMJ_IVECC2_H_M_3_.csv

>>> COPY /tmp/ozone_133.25/GMJ_e2_H_M_3_.csv /home/grierjones/DDCASPT2/ozone/multistate/ANO-RCC-VTZP/ozone_133.25/GMJ_e2_H_M_3_.csv

>>> END FOREACH

>>> END FOREACH

>>> END FOREACH

>>> EXPORT j = 1

>>> EXPORT i = A

>>> IF (-FILE GMJ_e2_${i}_${j}_.csv)

>>> COPY /tmp/ozone_133.25/GMJ_RHS_A_1_.csv /home/grierjones/DDCASPT2/ozone/multistate/ANO-RCC-VTZP/ozone_133.25/GMJ_RHS_A_1_.csv

>>> COPY /tmp/ozone_133.25/GMJ_IVECW_A_1_.csv /home/grierjones/DDCASPT2/ozone/multistate/ANO-RCC-VTZP/ozone_133.25/GMJ_IVECW_A_1_.csv

>>> COPY /tmp/ozone_133.25/GMJ_IVECX_A_1_.csv /home/grierjones/DDCASPT2/ozone/multistate/ANO-RCC-VTZP/ozone_133.25/GMJ_IVECX_A_1_.csv

>>> COPY /tmp/ozone_133.25/GMJ_IVECC2_A_1_.csv /home/grierjones/DDCASPT2/ozone/multistate/ANO-RCC-VTZP/ozone_133.25/GMJ_IVECC2_A_1_.csv

>>> COPY /tmp/ozone_133.25/GMJ_e2_A_1_.csv /home/grierjones/DDCASPT2/ozone/multistate/ANO-RCC-VTZP/ozone_133.25/GMJ_e2_A_1_.csv

>>> END FOREACH

>>> EXPORT i = C

>>> IF (-FILE GMJ_e2_${i}_${j}_.csv)

>>> COPY /tmp/ozone_133.25/GMJ_RHS_C_1_.csv /home/grierjones/DDCASPT2/ozone/multistate/ANO-RCC-VTZP/ozone_133.25/GMJ_RHS_C_1_.csv

>>> COPY /tmp/ozone_133.25/GMJ_IVECW_C_1_.csv /home/grierjones/DDCASPT2/ozone/multistate/ANO-RCC-VTZP/ozone_133.25/GMJ_IVECW_C_1_.csv

>>> COPY /tmp/ozone_133.25/GMJ_IVECX_C_1_.csv /home/grierjones/DDCASPT2/ozone/multistate/ANO-RCC-VTZP/ozone_133.25/GMJ_IVECX_C_1_.csv

>>> COPY /tmp/ozone_133.25/GMJ_IVECC2_C_1_.csv /home/grierjones/DDCASPT2/ozone/multistate/ANO-RCC-VTZP/ozone_133.25/GMJ_IVECC2_C_1_.csv

>>> COPY /tmp/ozone_133.25/GMJ_e2_C_1_.csv /home/grierjones/DDCASPT2/ozone/multistate/ANO-RCC-VTZP/ozone_133.25/GMJ_e2_C_1_.csv

>>> END FOREACH

>>> EXPORT i = D

>>> IF (-FILE GMJ_e2_${i}_${j}_.csv)

>>> COPY /tmp/ozone_133.25/GMJ_RHS_D_1_.csv /home/grierjones/DDCASPT2/ozone/multistate/ANO-RCC-VTZP/ozone_133.25/GMJ_RHS_D_1_.csv

>>> COPY /tmp/ozone_133.25/GMJ_IVECW_D_1_.csv /home/grierjones/DDCASPT2/ozone/multistate/ANO-RCC-VTZP/ozone_133.25/GMJ_IVECW_D_1_.csv

>>> COPY /tmp/ozone_133.25/GMJ_IVECX_D_1_.csv /home/grierjones/DDCASPT2/ozone/multistate/ANO-RCC-VTZP/ozone_133.25/GMJ_IVECX_D_1_.csv

>>> COPY /tmp/ozone_133.25/GMJ_IVECC2_D_1_.csv /home/grierjones/DDCASPT2/ozone/multistate/ANO-RCC-VTZP/ozone_133.25/GMJ_IVECC2_D_1_.csv

>>> COPY /tmp/ozone_133.25/GMJ_e2_D_1_.csv /home/grierjones/DDCASPT2/ozone/multistate/ANO-RCC-VTZP/ozone_133.25/GMJ_e2_D_1_.csv

>>> END FOREACH

>>> END FOREACH

>>> EXPORT j = 2

>>> EXPORT i = A

>>> IF (-FILE GMJ_e2_${i}_${j}_.csv)

>>> COPY /tmp/ozone_133.25/GMJ_RHS_A_2_.csv /home/grierjones/DDCASPT2/ozone/multistate/ANO-RCC-VTZP/ozone_133.25/GMJ_RHS_A_2_.csv

>>> COPY /tmp/ozone_133.25/GMJ_IVECW_A_2_.csv /home/grierjones/DDCASPT2/ozone/multistate/ANO-RCC-VTZP/ozone_133.25/GMJ_IVECW_A_2_.csv

>>> COPY /tmp/ozone_133.25/GMJ_IVECX_A_2_.csv /home/grierjones/DDCASPT2/ozone/multistate/ANO-RCC-VTZP/ozone_133.25/GMJ_IVECX_A_2_.csv

>>> COPY /tmp/ozone_133.25/GMJ_IVECC2_A_2_.csv /home/grierjones/DDCASPT2/ozone/multistate/ANO-RCC-VTZP/ozone_133.25/GMJ_IVECC2_A_2_.csv

>>> COPY /tmp/ozone_133.25/GMJ_e2_A_2_.csv /home/grierjones/DDCASPT2/ozone/multistate/ANO-RCC-VTZP/ozone_133.25/GMJ_e2_A_2_.csv

>>> END FOREACH

>>> EXPORT i = C

>>> IF (-FILE GMJ_e2_${i}_${j}_.csv)

>>> COPY /tmp/ozone_133.25/GMJ_RHS_C_2_.csv /home/grierjones/DDCASPT2/ozone/multistate/ANO-RCC-VTZP/ozone_133.25/GMJ_RHS_C_2_.csv

>>> COPY /tmp/ozone_133.25/GMJ_IVECW_C_2_.csv /home/grierjones/DDCASPT2/ozone/multistate/ANO-RCC-VTZP/ozone_133.25/GMJ_IVECW_C_2_.csv

>>> COPY /tmp/ozone_133.25/GMJ_IVECX_C_2_.csv /home/grierjones/DDCASPT2/ozone/multistate/ANO-RCC-VTZP/ozone_133.25/GMJ_IVECX_C_2_.csv

>>> COPY /tmp/ozone_133.25/GMJ_IVECC2_C_2_.csv /home/grierjones/DDCASPT2/ozone/multistate/ANO-RCC-VTZP/ozone_133.25/GMJ_IVECC2_C_2_.csv

>>> COPY /tmp/ozone_133.25/GMJ_e2_C_2_.csv /home/grierjones/DDCASPT2/ozone/multistate/ANO-RCC-VTZP/ozone_133.25/GMJ_e2_C_2_.csv

>>> END FOREACH

>>> EXPORT i = D

>>> IF (-FILE GMJ_e2_${i}_${j}_.csv)

>>> COPY /tmp/ozone_133.25/GMJ_RHS_D_2_.csv /home/grierjones/DDCASPT2/ozone/multistate/ANO-RCC-VTZP/ozone_133.25/GMJ_RHS_D_2_.csv

>>> COPY /tmp/ozone_133.25/GMJ_IVECW_D_2_.csv /home/grierjones/DDCASPT2/ozone/multistate/ANO-RCC-VTZP/ozone_133.25/GMJ_IVECW_D_2_.csv

>>> COPY /tmp/ozone_133.25/GMJ_IVECX_D_2_.csv /home/grierjones/DDCASPT2/ozone/multistate/ANO-RCC-VTZP/ozone_133.25/GMJ_IVECX_D_2_.csv

>>> COPY /tmp/ozone_133.25/GMJ_IVECC2_D_2_.csv /home/grierjones/DDCASPT2/ozone/multistate/ANO-RCC-VTZP/ozone_133.25/GMJ_IVECC2_D_2_.csv

>>> COPY /tmp/ozone_133.25/GMJ_e2_D_2_.csv /home/grierjones/DDCASPT2/ozone/multistate/ANO-RCC-VTZP/ozone_133.25/GMJ_e2_D_2_.csv

>>> END FOREACH

>>> END FOREACH

>>> EXPORT j = 3

>>> EXPORT i = A

>>> IF (-FILE GMJ_e2_${i}_${j}_.csv)

>>> COPY /tmp/ozone_133.25/GMJ_RHS_A_3_.csv /home/grierjones/DDCASPT2/ozone/multistate/ANO-RCC-VTZP/ozone_133.25/GMJ_RHS_A_3_.csv

>>> COPY /tmp/ozone_133.25/GMJ_IVECW_A_3_.csv /home/grierjones/DDCASPT2/ozone/multistate/ANO-RCC-VTZP/ozone_133.25/GMJ_IVECW_A_3_.csv

>>> COPY /tmp/ozone_133.25/GMJ_IVECX_A_3_.csv /home/grierjones/DDCASPT2/ozone/multistate/ANO-RCC-VTZP/ozone_133.25/GMJ_IVECX_A_3_.csv

>>> COPY /tmp/ozone_133.25/GMJ_IVECC2_A_3_.csv /home/grierjones/DDCASPT2/ozone/multistate/ANO-RCC-VTZP/ozone_133.25/GMJ_IVECC2_A_3_.csv

>>> COPY /tmp/ozone_133.25/GMJ_e2_A_3_.csv /home/grierjones/DDCASPT2/ozone/multistate/ANO-RCC-VTZP/ozone_133.25/GMJ_e2_A_3_.csv

>>> END FOREACH

>>> EXPORT i = C

>>> IF (-FILE GMJ_e2_${i}_${j}_.csv)

>>> COPY /tmp/ozone_133.25/GMJ_RHS_C_3_.csv /home/grierjones/DDCASPT2/ozone/multistate/ANO-RCC-VTZP/ozone_133.25/GMJ_RHS_C_3_.csv

>>> COPY /tmp/ozone_133.25/GMJ_IVECW_C_3_.csv /home/grierjones/DDCASPT2/ozone/multistate/ANO-RCC-VTZP/ozone_133.25/GMJ_IVECW_C_3_.csv

>>> COPY /tmp/ozone_133.25/GMJ_IVECX_C_3_.csv /home/grierjones/DDCASPT2/ozone/multistate/ANO-RCC-VTZP/ozone_133.25/GMJ_IVECX_C_3_.csv

>>> COPY /tmp/ozone_133.25/GMJ_IVECC2_C_3_.csv /home/grierjones/DDCASPT2/ozone/multistate/ANO-RCC-VTZP/ozone_133.25/GMJ_IVECC2_C_3_.csv

>>> COPY /tmp/ozone_133.25/GMJ_e2_C_3_.csv /home/grierjones/DDCASPT2/ozone/multistate/ANO-RCC-VTZP/ozone_133.25/GMJ_e2_C_3_.csv

>>> END FOREACH

>>> EXPORT i = D

>>> IF (-FILE GMJ_e2_${i}_${j}_.csv)

>>> COPY /tmp/ozone_133.25/GMJ_RHS_D_3_.csv /home/grierjones/DDCASPT2/ozone/multistate/ANO-RCC-VTZP/ozone_133.25/GMJ_RHS_D_3_.csv

>>> COPY /tmp/ozone_133.25/GMJ_IVECW_D_3_.csv /home/grierjones/DDCASPT2/ozone/multistate/ANO-RCC-VTZP/ozone_133.25/GMJ_IVECW_D_3_.csv

>>> COPY /tmp/ozone_133.25/GMJ_IVECX_D_3_.csv /home/grierjones/DDCASPT2/ozone/multistate/ANO-RCC-VTZP/ozone_133.25/GMJ_IVECX_D_3_.csv

>>> COPY /tmp/ozone_133.25/GMJ_IVECC2_D_3_.csv /home/grierjones/DDCASPT2/ozone/multistate/ANO-RCC-VTZP/ozone_133.25/GMJ_IVECC2_D_3_.csv

>>> COPY /tmp/ozone_133.25/GMJ_e2_D_3_.csv /home/grierjones/DDCASPT2/ozone/multistate/ANO-RCC-VTZP/ozone_133.25/GMJ_e2_D_3_.csv

>>> END FOREACH

>>> END FOREACH

.########################.
.# Non-zero return code #.
.########################.

    Timing: Wall=24.38 User=15.89 System=8.48
********************************************
*** WorkDir at /tmp/ozone_133.25 cleaned ***
********************************************
