[Molden Format]
[N_Atoms]
                     2
[Atoms] (AU)
F1          1      9           0.00000000      0.00000000      0.00000000
F2          2      9           0.00000000      0.00000000      3.21253441
[Charge] (Mulliken)
  6.181721801112872E-013
 -6.359357485052897E-013
[GTO] (AU)
   1
   s  14
  1.031094600E+05  1.713099991E-04
  1.528100700E+04  7.123999962E-04
  3.441539200E+03  2.990479984E-03
  9.670948300E+02  1.164036994E-02
  3.140353400E+02  3.968642979E-02
  1.134423000E+02  1.128546094E-01
  4.464472700E+01  2.473650687E-01
  1.894287400E+01  3.672702681E-01
  8.532743000E+00  2.896286985E-01
  3.919401000E+00  7.786681959E-02
  1.568157000E+00  4.562139976E-03
  6.232900000E-01  2.468879987E-03
  2.408610000E-01  1.106309994E-03
  8.430100000E-02  1.739699991E-04
   s  14
  1.031094600E+05 -4.044999995E-05
  1.528100700E+04 -1.682299998E-04
  3.441539200E+03 -7.084299991E-04
  9.670948300E+02 -2.767999996E-03
  3.140353400E+02 -9.611379987E-03
  1.134423000E+02 -2.833957996E-02
  4.464472700E+01 -6.839343991E-02
  1.894287400E+01 -1.237379298E-01
  8.532743000E+00 -1.512859698E-01
  3.919401000E+00 -9.099909988E-03
  1.568157000E+00  3.716257695E-01
  6.232900000E-01  5.500214393E-01
  2.408610000E-01  2.092318697E-01
  8.430100000E-02  8.074639989E-03
   p   9
  2.453302900E+02  1.024860004E-03
  5.691900500E+01  8.344290032E-03
  1.760456800E+01  4.078927016E-02
  6.274995000E+00  1.351370605E-01
  2.447030000E+00  2.798830811E-01
  9.950600000E-01  3.597966414E-01
  4.039730000E-01  3.055347412E-01
  1.548100000E-01  1.354703905E-01
  5.418400000E-02  2.804449011E-02
 
   2
   s  14
  1.031094600E+05  1.713099991E-04
  1.528100700E+04  7.123999962E-04
  3.441539200E+03  2.990479984E-03
  9.670948300E+02  1.164036994E-02
  3.140353400E+02  3.968642979E-02
  1.134423000E+02  1.128546094E-01
  4.464472700E+01  2.473650687E-01
  1.894287400E+01  3.672702681E-01
  8.532743000E+00  2.896286985E-01
  3.919401000E+00  7.786681959E-02
  1.568157000E+00  4.562139976E-03
  6.232900000E-01  2.468879987E-03
  2.408610000E-01  1.106309994E-03
  8.430100000E-02  1.739699991E-04
   s  14
  1.031094600E+05 -4.044999995E-05
  1.528100700E+04 -1.682299998E-04
  3.441539200E+03 -7.084299991E-04
  9.670948300E+02 -2.767999996E-03
  3.140353400E+02 -9.611379987E-03
  1.134423000E+02 -2.833957996E-02
  4.464472700E+01 -6.839343991E-02
  1.894287400E+01 -1.237379298E-01
  8.532743000E+00 -1.512859698E-01
  3.919401000E+00 -9.099909988E-03
  1.568157000E+00  3.716257695E-01
  6.232900000E-01  5.500214393E-01
  2.408610000E-01  2.092318697E-01
  8.430100000E-02  8.074639989E-03
   p   9
  2.453302900E+02  1.024860004E-03
  5.691900500E+01  8.344290032E-03
  1.760456800E+01  4.078927016E-02
  6.274995000E+00  1.351370605E-01
  2.447030000E+00  2.798830811E-01
  9.950600000E-01  3.597966414E-01
  4.039730000E-01  3.055347412E-01
  1.548100000E-01  1.354703905E-01
  5.418400000E-02  2.804449011E-02
 
[MO]
Sym=     1a  
Ene=   -26.5040
Spin= Alpha
Occup=    2.00000
   1         0.70709269
   2        -0.00251119
   3        -0.00000000
   4         0.00000000
   5         0.00026196
   6         0.70709267
   7        -0.00251119
   8         0.00000000
   9         0.00000000
  10        -0.00026196
Sym=     2a  
Ene=   -26.5040
Spin= Alpha
Occup=    2.00000
   1        -0.70711366
   2         0.00234001
   3        -0.00000000
   4         0.00000000
   5        -0.00031383
   6         0.70711368
   7        -0.00234001
   8         0.00000000
   9         0.00000000
  10        -0.00031383
Sym=     3a  
Ene=    -1.7045
Spin= Alpha
Occup=    2.00000
   1        -0.00046267
   2         0.67445289
   3         0.00000000
   4        -0.00000000
   5         0.04643111
   6        -0.00046267
   7         0.67445289
   8         0.00000000
   9         0.00000000
  10        -0.04643111
Sym=     4a  
Ene=    -1.5849
Spin= Alpha
Occup=    2.00000
   1        -0.00438003
   2        -0.72750392
   3        -0.00000000
   4        -0.00000000
   5         0.03797312
   6         0.00438003
   7         0.72750392
   8         0.00000000
   9         0.00000000
  10         0.03797312
Sym=     5a  
Ene=    -0.7923
Spin= Alpha
Occup=    2.00000
   1        -0.00000000
   2        -0.00000000
   3        -0.04143114
   4         0.68111983
   5         0.00000000
   6        -0.00000000
   7         0.00000000
   8        -0.04143114
   9         0.68111983
  10        -0.00000000
Sym=     6a  
Ene=    -0.7894
Spin= Alpha
Occup=    2.00000
   1         0.00000000
   2         0.00000000
   3         0.68111983
   4         0.04143114
   5        -0.00000000
   6         0.00000000
   7         0.00000000
   8         0.68111983
   9         0.04143114
  10         0.00000000
Sym=     7a  
Ene=    -0.7298
Spin= Alpha
Occup=    2.00000
   1         0.00000000
   2         0.00000000
   3         0.04460992
   4        -0.73337837
   5        -0.00000000
   6         0.00000000
   7         0.00000000
   8        -0.04460992
   9         0.73337837
  10         0.00000000
Sym=     8a  
Ene=    -0.6853
Spin= Alpha
Occup=    2.00000
   1         0.00875582
   2         0.13975987
   3        -0.00000000
   4         0.00000000
   5        -0.66213544
   6         0.00875582
   7         0.13975987
   8        -0.00000000
   9        -0.00000000
  10         0.66213544
Sym=     9a  
Ene=    -0.7225
Spin= Alpha
Occup=    1.97074
   1         0.00000000
   2         0.00000000
   3        -0.73337837
   4        -0.04460992
   5         0.00000000
   6        -0.00000000
   7        -0.00000000
   8         0.73337837
   9         0.04460992
  10         0.00000000
Sym=    10a  
Ene=     0.0003
Spin= Alpha
Occup=    0.02926
   1         0.01075538
   2         0.16129273
   3         0.00000000
   4         0.00000000
   5         0.77993157
   6        -0.01075538
   7        -0.16129273
   8        -0.00000000
   9        -0.00000000
  10         0.77993157
