[Molden Format]
[N_Atoms]
                     2
[Atoms] (AU)
F1          1      9           0.00000000      0.00000000      0.00000000
F2          2      9           0.00000000      0.00000000      3.21253441
[Charge] (Mulliken)
  5.080380560684716E-013
 -5.169198402654729E-013
[GTO] (AU)
   1
   s  14
  1.031094600E+05  1.713099991E-04
  1.528100700E+04  7.123999962E-04
  3.441539200E+03  2.990479984E-03
  9.670948300E+02  1.164036994E-02
  3.140353400E+02  3.968642979E-02
  1.134423000E+02  1.128546094E-01
  4.464472700E+01  2.473650687E-01
  1.894287400E+01  3.672702681E-01
  8.532743000E+00  2.896286985E-01
  3.919401000E+00  7.786681959E-02
  1.568157000E+00  4.562139976E-03
  6.232900000E-01  2.468879987E-03
  2.408610000E-01  1.106309994E-03
  8.430100000E-02  1.739699991E-04
   s  14
  1.031094600E+05 -4.044999995E-05
  1.528100700E+04 -1.682299998E-04
  3.441539200E+03 -7.084299991E-04
  9.670948300E+02 -2.767999996E-03
  3.140353400E+02 -9.611379987E-03
  1.134423000E+02 -2.833957996E-02
  4.464472700E+01 -6.839343991E-02
  1.894287400E+01 -1.237379298E-01
  8.532743000E+00 -1.512859698E-01
  3.919401000E+00 -9.099909988E-03
  1.568157000E+00  3.716257695E-01
  6.232900000E-01  5.500214393E-01
  2.408610000E-01  2.092318697E-01
  8.430100000E-02  8.074639989E-03
   p   9
  2.453302900E+02  1.024860004E-03
  5.691900500E+01  8.344290032E-03
  1.760456800E+01  4.078927016E-02
  6.274995000E+00  1.351370605E-01
  2.447030000E+00  2.798830811E-01
  9.950600000E-01  3.597966414E-01
  4.039730000E-01  3.055347412E-01
  1.548100000E-01  1.354703905E-01
  5.418400000E-02  2.804449011E-02
 
   2
   s  14
  1.031094600E+05  1.713099991E-04
  1.528100700E+04  7.123999962E-04
  3.441539200E+03  2.990479984E-03
  9.670948300E+02  1.164036994E-02
  3.140353400E+02  3.968642979E-02
  1.134423000E+02  1.128546094E-01
  4.464472700E+01  2.473650687E-01
  1.894287400E+01  3.672702681E-01
  8.532743000E+00  2.896286985E-01
  3.919401000E+00  7.786681959E-02
  1.568157000E+00  4.562139976E-03
  6.232900000E-01  2.468879987E-03
  2.408610000E-01  1.106309994E-03
  8.430100000E-02  1.739699991E-04
   s  14
  1.031094600E+05 -4.044999995E-05
  1.528100700E+04 -1.682299998E-04
  3.441539200E+03 -7.084299991E-04
  9.670948300E+02 -2.767999996E-03
  3.140353400E+02 -9.611379987E-03
  1.134423000E+02 -2.833957996E-02
  4.464472700E+01 -6.839343991E-02
  1.894287400E+01 -1.237379298E-01
  8.532743000E+00 -1.512859698E-01
  3.919401000E+00 -9.099909988E-03
  1.568157000E+00  3.716257695E-01
  6.232900000E-01  5.500214393E-01
  2.408610000E-01  2.092318697E-01
  8.430100000E-02  8.074639989E-03
   p   9
  2.453302900E+02  1.024860004E-03
  5.691900500E+01  8.344290032E-03
  1.760456800E+01  4.078927016E-02
  6.274995000E+00  1.351370605E-01
  2.447030000E+00  2.798830811E-01
  9.950600000E-01  3.597966414E-01
  4.039730000E-01  3.055347412E-01
  1.548100000E-01  1.354703905E-01
  5.418400000E-02  2.804449011E-02
 
[MO]
Sym=     1a  
Ene=   -26.5060
Spin= Alpha
Occup=    1.00000
   1         0.70709265
   2        -0.00251308
   3         0.00000000
   4         0.00000000
   5         0.00026525
   6         0.70709263
   7        -0.00251308
   8        -0.00000000
   9        -0.00000000
  10        -0.00026525
Sym=     1a  
Ene=   -26.5060
Spin= Beta
Occup=    1.00000
   1         0.70709265
   2        -0.00251308
   3         0.00000000
   4         0.00000000
   5         0.00026525
   6         0.70709263
   7        -0.00251308
   8        -0.00000000
   9        -0.00000000
  10        -0.00026525
Sym=     2a  
Ene=   -26.5050
Spin= Alpha
Occup=    1.00000
   1        -0.70711379
   2         0.00233984
   3         0.00000000
   4         0.00000000
   5        -0.00032404
   6         0.70711380
   7        -0.00233984
   8        -0.00000000
   9         0.00000000
  10        -0.00032404
Sym=     2a  
Ene=   -26.5050
Spin= Beta
Occup=    1.00000
   1        -0.70711379
   2         0.00233984
   3         0.00000000
   4         0.00000000
   5        -0.00032404
   6         0.70711380
   7        -0.00233984
   8        -0.00000000
   9         0.00000000
  10        -0.00032404
Sym=     3a  
Ene=    -1.7051
Spin= Alpha
Occup=    1.00000
   1        -0.00046215
   2         0.67444164
   3         0.00000000
   4        -0.00000000
   5         0.04648440
   6        -0.00046215
   7         0.67444164
   8         0.00000000
   9         0.00000000
  10        -0.04648440
Sym=     3a  
Ene=    -1.7051
Spin= Beta
Occup=    1.00000
   1        -0.00046215
   2         0.67444164
   3         0.00000000
   4        -0.00000000
   5         0.04648440
   6        -0.00046215
   7         0.67444164
   8         0.00000000
   9         0.00000000
  10        -0.04648440
Sym=     4a  
Ene=    -1.5853
Spin= Alpha
Occup=    1.00000
   1        -0.00439325
   2        -0.72767399
   3         0.00000000
   4        -0.00000000
   5         0.03714874
   6         0.00439325
   7         0.72767399
   8        -0.00000000
   9         0.00000000
  10         0.03714874
Sym=     4a  
Ene=    -1.5853
Spin= Beta
Occup=    1.00000
   1        -0.00439325
   2        -0.72767399
   3         0.00000000
   4        -0.00000000
   5         0.03714874
   6         0.00439325
   7         0.72767399
   8        -0.00000000
   9         0.00000000
  10         0.03714874
Sym=     5a  
Ene=    -0.7927
Spin= Alpha
Occup=    1.00000
   1         0.00000000
   2        -0.00000000
   3         0.68223597
   4        -0.01395893
   5        -0.00000000
   6         0.00000000
   7         0.00000000
   8         0.68223597
   9        -0.01395893
  10         0.00000000
Sym=     5a  
Ene=    -0.7927
Spin= Beta
Occup=    1.00000
   1         0.00000000
   2        -0.00000000
   3         0.68223597
   4        -0.01395893
   5        -0.00000000
   6         0.00000000
   7         0.00000000
   8         0.68223597
   9        -0.01395893
  10         0.00000000
Sym=     6a  
Ene=    -0.7927
Spin= Alpha
Occup=    1.00000
   1        -0.00000000
   2        -0.00000000
   3         0.01395893
   4         0.68223597
   5        -0.00000000
   6         0.00000000
   7         0.00000000
   8         0.01395893
   9         0.68223597
  10        -0.00000000
Sym=     6a  
Ene=    -0.7927
Spin= Beta
Occup=    1.00000
   1        -0.00000000
   2        -0.00000000
   3         0.01395893
   4         0.68223597
   5        -0.00000000
   6         0.00000000
   7         0.00000000
   8         0.01395893
   9         0.68223597
  10        -0.00000000
Sym=     7a  
Ene=    -0.7303
Spin= Alpha
Occup=    1.00000
   1        -0.00000000
   2        -0.00000000
   3        -0.71650192
   4         0.16266187
   5         0.00000000
   6        -0.00000000
   7        -0.00000000
   8         0.71650192
   9        -0.16266187
  10        -0.00000000
Sym=     7a  
Ene=    -0.7303
Spin= Beta
Occup=    1.00000
   1        -0.00000000
   2        -0.00000000
   3        -0.71650192
   4         0.16266187
   5         0.00000000
   6        -0.00000000
   7        -0.00000000
   8         0.71650192
   9        -0.16266187
  10        -0.00000000
Sym=     8a  
Ene=    -0.7303
Spin= Alpha
Occup=    1.00000
   1        -0.00000000
   2        -0.00000000
   3        -0.16266187
   4        -0.71650192
   5         0.00000000
   6        -0.00000000
   7        -0.00000000
   8         0.16266187
   9         0.71650192
  10        -0.00000000
Sym=     8a  
Ene=    -0.7303
Spin= Beta
Occup=    1.00000
   1        -0.00000000
   2        -0.00000000
   3        -0.16266187
   4        -0.71650192
   5         0.00000000
   6        -0.00000000
   7        -0.00000000
   8         0.16266187
   9         0.71650192
  10        -0.00000000
Sym=     9a  
Ene=    -0.6830
Spin= Alpha
Occup=    1.00000
   1         0.00875939
   2         0.13981414
   3        -0.00000000
   4        -0.00000000
   5        -0.66213170
   6         0.00875939
   7         0.13981414
   8         0.00000000
   9        -0.00000000
  10         0.66213170
Sym=     9a  
Ene=    -0.6830
Spin= Beta
Occup=    1.00000
   1         0.00875939
   2         0.13981414
   3        -0.00000000
   4        -0.00000000
   5        -0.66213170
   6         0.00875939
   7         0.13981414
   8         0.00000000
   9        -0.00000000
  10         0.66213170
Sym=    10a  
Ene=    -0.1065
Spin= Alpha
Occup=    0.00000
   1         0.01074157
   2         0.16052372
   3         0.00000000
   4         0.00000000
   5         0.77997127
   6        -0.01074157
   7        -0.16052372
   8        -0.00000000
   9         0.00000000
  10         0.77997127
Sym=    10a  
Ene=    -0.1065
Spin= Beta
Occup=    0.00000
   1         0.01074157
   2         0.16052372
   3         0.00000000
   4         0.00000000
   5         0.77997127
   6        -0.01074157
   7        -0.16052372
   8        -0.00000000
   9         0.00000000
  10         0.77997127
