[Molden Format]
[N_Atoms]
                     2
[Atoms] (AU)
F1          1      9           0.00000000      0.00000000      0.00000000
F2          2      9           0.00000000      0.00000000      3.21253441
[Charge] (Mulliken)
  0.999999999689120     
   1.00000000031086     
[GTO] (AU)
   1
   s  14
  1.031094600E+05  1.713099991E-04
  1.528100700E+04  7.123999962E-04
  3.441539200E+03  2.990479984E-03
  9.670948300E+02  1.164036994E-02
  3.140353400E+02  3.968642979E-02
  1.134423000E+02  1.128546094E-01
  4.464472700E+01  2.473650687E-01
  1.894287400E+01  3.672702681E-01
  8.532743000E+00  2.896286985E-01
  3.919401000E+00  7.786681959E-02
  1.568157000E+00  4.562139976E-03
  6.232900000E-01  2.468879987E-03
  2.408610000E-01  1.106309994E-03
  8.430100000E-02  1.739699991E-04
   s  14
  1.031094600E+05 -4.044999995E-05
  1.528100700E+04 -1.682299998E-04
  3.441539200E+03 -7.084299991E-04
  9.670948300E+02 -2.767999996E-03
  3.140353400E+02 -9.611379987E-03
  1.134423000E+02 -2.833957996E-02
  4.464472700E+01 -6.839343991E-02
  1.894287400E+01 -1.237379298E-01
  8.532743000E+00 -1.512859698E-01
  3.919401000E+00 -9.099909988E-03
  1.568157000E+00  3.716257695E-01
  6.232900000E-01  5.500214393E-01
  2.408610000E-01  2.092318697E-01
  8.430100000E-02  8.074639989E-03
   p   9
  2.453302900E+02  1.024860004E-03
  5.691900500E+01  8.344290032E-03
  1.760456800E+01  4.078927016E-02
  6.274995000E+00  1.351370605E-01
  2.447030000E+00  2.798830811E-01
  9.950600000E-01  3.597966414E-01
  4.039730000E-01  3.055347412E-01
  1.548100000E-01  1.354703905E-01
  5.418400000E-02  2.804449011E-02
 
   2
   s  14
  1.031094600E+05  1.713099991E-04
  1.528100700E+04  7.123999962E-04
  3.441539200E+03  2.990479984E-03
  9.670948300E+02  1.164036994E-02
  3.140353400E+02  3.968642979E-02
  1.134423000E+02  1.128546094E-01
  4.464472700E+01  2.473650687E-01
  1.894287400E+01  3.672702681E-01
  8.532743000E+00  2.896286985E-01
  3.919401000E+00  7.786681959E-02
  1.568157000E+00  4.562139976E-03
  6.232900000E-01  2.468879987E-03
  2.408610000E-01  1.106309994E-03
  8.430100000E-02  1.739699991E-04
   s  14
  1.031094600E+05 -4.044999995E-05
  1.528100700E+04 -1.682299998E-04
  3.441539200E+03 -7.084299991E-04
  9.670948300E+02 -2.767999996E-03
  3.140353400E+02 -9.611379987E-03
  1.134423000E+02 -2.833957996E-02
  4.464472700E+01 -6.839343991E-02
  1.894287400E+01 -1.237379298E-01
  8.532743000E+00 -1.512859698E-01
  3.919401000E+00 -9.099909988E-03
  1.568157000E+00  3.716257695E-01
  6.232900000E-01  5.500214393E-01
  2.408610000E-01  2.092318697E-01
  8.430100000E-02  8.074639989E-03
   p   9
  2.453302900E+02  1.024860004E-03
  5.691900500E+01  8.344290032E-03
  1.760456800E+01  4.078927016E-02
  6.274995000E+00  1.351370605E-01
  2.447030000E+00  2.798830811E-01
  9.950600000E-01  3.597966414E-01
  4.039730000E-01  3.055347412E-01
  1.548100000E-01  1.354703905E-01
  5.418400000E-02  2.804449011E-02
 
[MO]
Sym=     1a  
Ene=   -28.0650
Spin= Alpha
Occup=    2.00000
   1         0.70708983
   2        -0.00359703
   3        -0.00000000
   4         0.00000000
   5         0.00032935
   6         0.70709151
   7        -0.00359704
   8         0.00000000
   9         0.00000000
  10        -0.00032935
Sym=     2a  
Ene=   -28.0640
Spin= Alpha
Occup=    2.00000
   1        -0.70710345
   2         0.00358232
   3        -0.00000000
   4         0.00000000
   5        -0.00017015
   6         0.70710178
   7        -0.00358231
   8         0.00000000
   9         0.00000000
  10        -0.00017015
Sym=     3a  
Ene=    -2.8066
Spin= Alpha
Occup=    2.00000
   1         0.00036191
   2         0.66967567
   3         0.00000000
   4        -0.00000000
   5         0.06741069
   6         0.00036191
   7         0.66967567
   8         0.00000000
   9         0.00000000
  10        -0.06741069
Sym=     4a  
Ene=    -2.6884
Spin= Alpha
Occup=    2.00000
   1        -0.00619483
   2        -0.73589059
   3        -0.00000000
   4        -0.00000000
   5        -0.00905610
   6         0.00619483
   7         0.73589059
   8         0.00000000
   9         0.00000000
  10        -0.00905610
Sym=     5a  
Ene=    -1.7785
Spin= Alpha
Occup=    2.00000
   1         0.00892141
   2         0.16108193
   3         0.00000000
   4        -0.00000000
   5        -0.66032943
   6         0.00892141
   7         0.16108193
   8         0.00000000
   9        -0.00000000
  10         0.66032943
Sym=     6a  
Ene=    -1.7764
Spin= Alpha
Occup=    2.00000
   1        -0.00000000
   2        -0.00000000
   3         0.68162619
   4         0.03203916
   5         0.00000000
   6        -0.00000000
   7        -0.00000000
   8         0.68162619
   9         0.03203916
  10        -0.00000000
Sym=     7a  
Ene=    -1.7764
Spin= Alpha
Occup=    2.00000
   1         0.00000000
   2         0.00000000
   3        -0.03203916
   4         0.68162619
   5        -0.00000000
   6         0.00000000
   7         0.00000000
   8        -0.03203916
   9         0.68162619
  10         0.00000000
Sym=     8a  
Ene=    -1.5966
Spin= Alpha
Occup=    1.00000
   1         0.00000000
   2         0.00000000
   3        -0.04460992
   4         0.73337837
   5        -0.00000000
   6         0.00000000
   7         0.00000000
   8         0.04460992
   9        -0.73337837
  10         0.00000000
Sym=     9a  
Ene=    -0.0000
Spin= Alpha
Occup=    1.00000
   1        -0.00000000
   2        -0.00000000
   3         0.73337837
   4         0.04460992
   5         0.00000000
   6         0.00000000
   7         0.00000000
   8        -0.73337837
   9        -0.04460992
  10        -0.00000000
Sym=    10a  
Ene=    -1.2617
Spin= Alpha
Occup=    0.00000
   1         0.01058863
   2         0.11719637
   3        -0.00000000
   4        -0.00000000
   5         0.78080297
   6        -0.01058863
   7        -0.11719637
   8        -0.00000000
   9         0.00000000
  10         0.78080297
