[Molden Format]
[N_Atoms]
                     2
[Atoms] (AU)
BE1         1      4           0.00000000      0.00000000      0.00000000
LI2         2      3           0.00000000      0.00000000      1.70075351
[Charge] (Mulliken)
 -1.923781064563812E-002
  1.923781064561769E-002
[GTO] (AU)
   1
   s  14
  2.262859900E+04  8.443999941E-05
  3.372318100E+03  4.601499968E-04
  7.603504000E+02  2.285389984E-03
  2.117404800E+02  9.648129932E-03
  6.722346800E+01  3.494469975E-02
  2.337217700E+01  1.061099893E-01
  8.721373000E+00  2.458240383E-01
  3.468091000E+00  3.862428773E-01
  1.452144000E+00  3.105526078E-01
  6.086150000E-01  6.415933955E-02
  2.576860000E-01 -2.265049984E-03
  1.041760000E-01 -5.217499963E-04
  4.242700000E-02 -8.757499938E-04
  1.484900000E-02  1.242199991E-04
   s  14
  2.262859900E+04 -1.586999994E-05
  3.372318100E+03 -8.656999968E-05
  7.603504000E+02 -4.302199984E-04
  2.117404800E+02 -1.825079993E-03
  6.722346800E+01 -6.682749976E-03
  2.337217700E+01 -2.095119992E-02
  8.721373000E+00 -5.200308981E-02
  3.468091000E+00 -9.849176964E-02
  1.452144000E+00 -1.355800695E-01
  6.086150000E-01 -6.429875976E-02
  2.576860000E-01  3.125414989E-01
  1.041760000E-01  6.270468577E-01
  4.242700000E-02  2.110231492E-01
  1.484900000E-02 -4.104669985E-03
   p   9
  3.371018400E+01  1.069960000E-03
  8.057649500E+00  6.828550001E-03
  2.836471400E+00  2.119065000E-02
  1.099965700E+00  5.843696001E-02
  4.433964000E-01  2.020920800E-01
  1.822264000E-01  4.582953101E-01
  7.572410000E-02  3.691239601E-01
  3.168540000E-02  6.611471001E-02
  1.108990000E-02  1.405160000E-03
 
   2
   s  14
  9.497934400E+03  9.668999974E-05
  1.416811200E+03  6.087099984E-04
  3.214599400E+02  3.101519992E-03
  9.112416300E+01  1.266904997E-02
  2.999989100E+01  4.248012989E-02
  1.101763100E+01  1.150183297E-01
  4.372801000E+00  2.398650094E-01
  1.831256000E+00  3.584300090E-01
  8.022610000E-01  3.048527792E-01
  3.626480000E-01  8.824261976E-02
  1.139950000E-01 -8.445899977E-04
  5.123700000E-02 -7.943959979E-03
  2.246800000E-02 -3.764419990E-03
  7.860000000E-03 -8.868999976E-05
   s  14
  9.497934400E+03 -1.244999993E-05
  1.416811200E+03 -7.838999954E-05
  3.214599400E+02 -4.007099976E-04
  9.112416300E+01 -1.645249990E-03
  2.999989100E+01 -5.634599967E-03
  1.101763100E+01 -1.590780991E-02
  4.372801000E+00 -3.612581979E-02
  1.831256000E+00 -6.459927962E-02
  8.022610000E-01 -1.008321794E-01
  3.626480000E-01 -9.757613942E-02
  1.139950000E-01  2.301215886E-01
  5.123700000E-02  6.102389764E-01
  2.246800000E-02  2.849406083E-01
  7.860000000E-03  4.026899976E-03
   p   9
  1.311950400E+01  1.524940000E-03
  3.077424200E+00  8.314830000E-03
  1.098800500E+00  1.933203000E-02
  4.357784000E-01  4.934293000E-02
  1.802432000E-01  1.623554000E-01
  7.613330000E-02  3.847505400E-01
  3.254650000E-02  4.336100400E-01
  1.401820000E-02  1.287005900E-01
  4.906400000E-03 -1.018520000E-03
 
[MO]
Sym=     1a  
Ene=    -5.0842
Spin= Alpha
Occup=    1.00000
   1         0.99340310
   2        -0.00964851
   3        -0.00000000
   4         0.00000000
   5         0.00771450
   6         0.04166117
   7         0.00588223
   8        -0.00000000
   9         0.00000000
  10        -0.00920242
Sym=     1a  
Ene=    -5.0819
Spin= Beta
Occup=    1.00000
   1         0.99332488
   2        -0.01017978
   3        -0.00000000
   4         0.00000000
   5         0.00804827
   6         0.04173600
   7         0.00603445
   8         0.00000000
   9         0.00000000
  10        -0.00952590
Sym=     2a  
Ene=    -2.9343
Spin= Alpha
Occup=    1.00000
   1        -0.13583554
   2        -0.02962653
   3         0.00000000
   4        -0.00000000
   5         0.01324899
   6         1.00644058
   7         0.02359403
   8        -0.00000000
   9         0.00000000
  10        -0.02559101
Sym=     2a  
Ene=    -2.9285
Spin= Beta
Occup=    1.00000
   1        -0.13581645
   2        -0.02872165
   3        -0.00000000
   4         0.00000000
   5         0.01404196
   6         1.00586668
   7         0.02241585
   8         0.00000000
   9        -0.00000000
  10        -0.02623388
Sym=     3a  
Ene=    -0.4071
Spin= Alpha
Occup=    1.00000
   1         0.01939326
   2         0.96052854
   3         0.00000000
   4        -0.00000000
   5        -0.18261118
   6        -0.19519446
   7         0.09447462
   8        -0.00000000
   9         0.00000000
  10         0.06745592
Sym=     3a  
Ene=    -0.3721
Spin= Beta
Occup=    1.00000
   1        -0.00264948
   2         0.90330127
   3        -0.00000000
   4         0.00000000
   5        -0.08472598
   6        -0.21696442
   7         0.10601189
   8         0.00000000
   9        -0.00000000
  10        -0.07579120
Sym=     4a  
Ene=    -0.2128
Spin= Alpha
Occup=    1.00000
   1         0.00876123
   2        -0.30043719
   3        -0.00000000
   4         0.00000000
   5         0.29710353
   6        -0.03345002
   7         0.70815978
   8        -0.00000000
   9         0.00000000
  10         0.53234373
Sym=     4a  
Ene=    -0.0700
Spin= Beta
Occup=    0.00000
   1         0.00000000
   2         0.00000000
   3        -0.01625574
   4         0.75022498
   5        -0.00000000
   6         0.00000000
   7        -0.00000000
   8        -0.00669621
   9         0.30903923
  10        -0.00000000
Sym=     5a  
Ene=    -0.0799
Spin= Alpha
Occup=    0.00000
   1        -0.00000000
   2         0.00000000
   3        -0.02913319
   4         0.68714494
   5        -0.00000000
   6        -0.00000000
   7        -0.00000000
   8        -0.01604830
   9         0.37852047
  10        -0.00000000
Sym=     5a  
Ene=    -0.0700
Spin= Beta
Occup=    0.00000
   1        -0.00000000
   2        -0.00000000
   3         0.75022498
   4         0.01625574
   5         0.00000000
   6        -0.00000000
   7         0.00000000
   8         0.30903923
   9         0.00669621
  10         0.00000000
Sym=     6a  
Ene=    -0.0799
Spin= Alpha
Occup=    0.00000
   1         0.00000000
   2        -0.00000000
   3         0.68714494
   4         0.02913319
   5         0.00000000
   6         0.00000000
   7         0.00000000
   8         0.37852047
   9         0.01604830
  10         0.00000000
Sym=     6a  
Ene=     0.0393
Spin= Beta
Occup=    0.00000
   1         0.00328105
   2        -0.29323350
   3        -0.00000000
   4         0.00000000
   5         0.26820333
   6        -0.02306425
   7         0.74720986
   8         0.00000000
   9        -0.00000000
  10         0.52964541
Sym=     7a  
Ene=     0.1335
Spin= Alpha
Occup=    0.00000
   1         0.00000000
   2         0.00000000
   3         0.29724484
   4        -1.27246670
   5        -0.00000000
   6        -0.00000000
   7        -0.00000000
   8        -0.32465865
   9         1.38982170
  10         0.00000000
Sym=     7a  
Ene=     0.1588
Spin= Beta
Occup=    0.00000
   1        -0.00000000
   2        -0.00000000
   3         0.29931170
   4        -1.23606376
   5         0.00000000
   6         0.00000000
   7         0.00000000
   8        -0.33983001
   9         1.40339174
  10        -0.00000000
Sym=     8a  
Ene=     0.1335
Spin= Alpha
Occup=    0.00000
   1        -0.00000000
   2        -0.00000000
   3        -1.27246670
   4        -0.29724484
   5         0.00000000
   6         0.00000000
   7         0.00000000
   8         1.38982170
   9         0.32465865
  10        -0.00000000
Sym=     8a  
Ene=     0.1588
Spin= Beta
Occup=    0.00000
   1         0.00000000
   2         0.00000000
   3        -1.23606376
   4        -0.29931170
   5        -0.00000000
   6        -0.00000000
   7        -0.00000000
   8         1.40339174
   9         0.33983001
  10         0.00000000
Sym=     9a  
Ene=     0.1504
Spin= Alpha
Occup=    0.00000
   1         0.40185003
   2         1.59406172
   3        -0.00000000
   4         0.00000000
   5        -0.92053630
   6        -0.10123959
   7        -1.29524234
   8         0.00000000
   9        -0.00000000
  10         1.57171198
Sym=     9a  
Ene=     0.1842
Spin= Beta
Occup=    0.00000
   1         0.43350727
   2         1.84929251
   3         0.00000000
   4        -0.00000000
   5        -0.83814625
   6        -0.20633307
   7        -1.46093272
   8        -0.00000000
   9         0.00000000
  10         1.59908535
Sym=    10a  
Ene=     0.3072
Spin= Alpha
Occup=    0.00000
   1        -0.34528557
   2        -1.97797562
   3        -0.00000000
   4         0.00000000
   5        -0.94741402
   6         0.94553605
   7         1.89030995
   8        -0.00000000
   9         0.00000000
  10        -0.37617189
Sym=    10a  
Ene=     0.3176
Spin= Beta
Occup=    0.00000
   1        -0.30556943
   2        -1.77327897
   3         0.00000000
   4        -0.00000000
   5        -1.04161903
   6         0.92437948
   7         1.74857287
   8        -0.00000000
   9         0.00000000
  10        -0.23736492
