   This run of MOLCAS is using the pymolcas driver

                             OPE
                             OPE          NMOL  CASOP  ENMOLC A   SO
                 OPE        NMOLC        AS  OP EN  MO LC     AS  OP
                OPENM       OL CA        SO  PE NM  OL CA     SOP EN
                OP EN      MO   LC       AS  OP ENMOL  CASO   PENMOL
                OP  EN     MO   LC       AS  OP EN     MO     LC ASO
               OP   E  NMOL  C  AS       OP  EN MO     LC     AS  OP
               OP  E   NMO   LC AS        OPEN  MO     LCASOP EN   M
               O  PEN   MO  LCA  SO
            OPE   NMO   L   CAS    OP
        OPENMOL  CASOP     ENMOL   CASOPE
     OPENMOLCA   SOPENMOLCASOPEN   MOLCASOPE
    OPENMOLCAS   OP           EN   MOL    CAS
    OPENMOLCAS       OP  ENM        O     LCA
    OPENMOLCAS    OPEN  MOLCASO     P  E  NMO
    OPENMOLCAS     OP               E  N  MOL
    OPENMOLCA   SO           PENM   O  L  CAS    OPEN    MO    LCAS
    OPENMOLCA   SOP           ENM   O  L  CAS   OP  EN  MOLC  AS   O
    OPENMOLCA   SOPE           NM      O  LCA   S      OP  EN MO
    OPENMOLC                AS         O  PEN   M      OL  CA  SOPE
    OPENMO        LCASOPE  NMOL        C  ASO   P      ENMOLC     AS
    OPE     NMO      LCA  SO     P     E   NM   OL  CA SO  PE N   MO
          OPENMOLCA            SOPE   NMO        LCAS  O    P  ENMO
     OPENMOLCASOPENMOLCASOPENMOLCASOPENMOLCA
        OPENMOLCASOPENMOLCASOPENMOLCASOPE
            OPENMOLCASOPENMOLCASOPENM
               OPENMOLCASOPENMOLCA        version: ea724fe96-dirty
                   OPENMOLCASO
                       OPE                tag:

 OpenMolcas is free software; you can redistribute it and/or modify it
 under the terms of the GNU Lesser General Public License version 2.1.
 OpenMolcas is distributed in the hope that it will be useful, but it
 is provided "as is" and without any express or implied warranties.
 For more details see the full text of the license in the file
 LICENSE or in <http://www.gnu.org/licenses/>.

                 Copyright (C) The OpenMolcas Authors
           For the author list and the recommended citation,
                   consult the file CONTRIBUTORS.md

           *************************************************
           * pymolcas version py2.28                       *
           *   build c4a6d18ded8cb6cad61d2372a9abd97c      *
           *   (after the EMIL interpreter by V. Veryazov) *
           *************************************************

configuration info
------------------
C Compiler ID: Intel
C flags: -std=gnu99
Fortran Compiler ID: Intel
Fortran flags: -fpp -i8 -r8 -heap-arrays
Definitions: _MOLCAS_;_I8_;_LINUX_
Parallel: OFF (GA=OFF)


   --------------------------------------------------------------------------------
  |
  |              Project: H8_2.27
  |       Submitted from: /home/grierjones/DDCASPT2/hydrogen_comps/H8_chain/H8_2.27
  |         Scratch area: /tmp/H8_2.27
  |      Save outputs to: /home/grierjones/DDCASPT2/hydrogen_comps/H8_chain/H8_2.27
  |               Molcas: /home/grierjones/Test/build
  |
  | Scratch area is empty
  |
  |       MOLCAS_DRIVER = /usr/local/pymolcas
  | MOLCAS_KEEP_WORKDIR = NO
  |  MOLCAS_NEW_WORKDIR = YES
  |       MOLCAS_NPROCS = 1
  |        MOLCAS_PRINT = NORMAL
  |       MOLCAS_SOURCE = /home/grierjones/Test/build
  |    MOLCAS_STRUCTURE = 0
  |
   --------------------------------------------------------------------------------

++ ---------   Input file   ---------

&GATEWAY
coord=H8_2.27.xyz
Basis = ANO-RCC-VDZP
Group = nosymm
Expert
End of Input

&SEWARD
End of Input

&SCF

>>> COPY $WorkDir/H8_2.27.scf.h5 $CurrDir/

&RASSCF
Title= RASSCF
FileOrb
/home/grierjones/DDCASPT2/hydrogen_comps/H8_chain/H8_2.25/H8_2.25.RasOrb
NACTEL
8 0 0
Inactive
0
RAS2
8
Symmetry
1
Spin
1
orblisting
all
ITERation
300 200

>>> COPY $WorkDir/H8_2.27.rasscf.h5 $CurrDir/

>>> COPY $WorkDir/GMJ_Fock_MO.csv $CurrDir/H8_2.27.GMJ_Fock_MO.csv

>>> COPY $WorkDir/GMJ_PT2_Fock_MO.csv $CurrDir/H8_2.27.GMJ_PT2_Fock_MO.csv

&MOTRA
Frozen=0
LUMORB

>>> COPY $WorkDir/GMJ_one_int_indx.csv $CurrDir/H8_2.27.GMJ_one_int_indx.csv

>>> COPY $WorkDir/GMJ_one_int.csv $CurrDir/H8_2.27.GMJ_one_int.csv

>>> COPY $WorkDir/GMJ_two_int_indx.csv $CurrDir/H8_2.27.GMJ_two_int_indx.csv

>>> COPY $WorkDir/GMJ_two_int.csv $CurrDir/H8_2.27.GMJ_two_int.csv

&CASPT2
Frozen
0
MAXITER
50

>>> FOREACH i IN (B,E,F,G,H)

  >>> FOREACH j IN (P,M)

    >>> IF (-FILE GMJ_e2_${i}_${j}.csv)

      >>> COPY $WorkDir/GMJ_RHS_${i}_${j}.csv $CurrDir/GMJ_RHS_${i}_${j}.csv

      >>> COPY $WorkDir/GMJ_IVECW_${i}_${j}.csv $CurrDir/GMJ_IVECW_${i}_${j}.csv

      >>> COPY $WorkDir/GMJ_IVECX_${i}_${j}.csv $CurrDir/GMJ_IVECX_${i}_${j}.csv

      >>> COPY $WorkDir/GMJ_IVECC2_${i}_${j}.csv $CurrDir/GMJ_IVECC2_${i}_${j}.csv

      >>> COPY $WorkDir/GMJ_e2_${i}_${j}.csv $CurrDir/GMJ_e2_${i}_${j}.csv

    >>> END IF

  >>> END FOREACH

>>> END FOREACH

>>> FOREACH i IN (A,C,D)

  >>> IF (-FILE GMJ_e2_$i.csv)

    >>> COPY $WorkDir/GMJ_RHS_$i.csv $CurrDir/GMJ_RHS_$i.csv

    >>> COPY $WorkDir/GMJ_IVECW_$i.csv $CurrDir/GMJ_IVECW_$i.csv

    >>> COPY $WorkDir/GMJ_IVECX_$i.csv $CurrDir/GMJ_IVECX_$i.csv

    >>> COPY $WorkDir/GMJ_IVECC2_$i.csv $CurrDir/GMJ_IVECC2_$i.csv

    >>> COPY $WorkDir/GMJ_e2_$i.csv $CurrDir/GMJ_e2_$i.csv

  >>> END IF

>>> END FOREACH

-- ----------------------------------

--- Start Module: gateway at Mon Nov 18 14:43:51 2024 ---
 
()()()()()()()()()()()()()()()()()()()()()()()()()()()()()()()()()()()()()()()()()()()()()()()()()()

                                              &GATEWAY

                                   only a single process is used
                       available to each process: 2.0 GB of memory, 1 thread?
()()()()()()()()()()()()()()()()()()()()()()()()()()()()()()()()()()()()()()()()()()()()()()()()()()
 
 ###############################################################################
 ###############################################################################
 ###                                                                         ###
 ###                                                                         ###
 ###                                                                         ###
 ###    WARNING: EXPERT option is ON!                                        ###
 ###                                                                         ###
 ###                                                                         ###
 ###############################################################################
 ###############################################################################
 
++    Symmetry information:
      ---------------------
 
                    Character Table for C1 
 
                             E  
                    a        1  x, y, xy, Rz, z, xz, Ry, yz, Rx, I
--
 
 
++    Basis set information:
      ----------------------
 
 
      Basis set label: H.ANO-RCC...2S1P.
 
      Electronic valence basis set:
      ------------------
      Associated Effective Charge   1.000000 au
      Associated Actual Charge      1.000000 au
      Nuclear Model: Point charge
 
      Shell  nPrim  nBasis  Cartesian Spherical Contaminant
         s       8       2        X                  
         p       4       1        X                  
--
 
 
++    Molecular structure info:
      -------------------------
 
                    ************************************************ 
                    **** Cartesian Coordinates / Bohr, Angstrom **** 
                    ************************************************ 
 
     Center  Label                x              y              z                     x              y              z
        1      H1               0.000000       0.000000       0.000000              0.000000       0.000000       0.000000
        2      H2               0.000000       0.000000       4.294832              0.000000       0.000000       2.272727
        3      H3               0.000000       0.000000       8.589665              0.000000       0.000000       4.545455
        4      H4               0.000000       0.000000      12.884497              0.000000       0.000000       6.818182
        5      H5               0.000000       0.000000      17.179328              0.000000       0.000000       9.090909
        6      H6               0.000000       0.000000      21.474160              0.000000       0.000000      11.363636
        7      H7               0.000000       0.000000      25.768993              0.000000       0.000000      13.636364
        8      H8               0.000000       0.000000      30.063825              0.000000       0.000000      15.909091
 
                    *************************************** 
                    *    InterNuclear Distances / Bohr    * 
                    *************************************** 
 
               1 H1            2 H2            3 H3            4 H4            5 H5            6 H6    
    1 H1       0.000000
    2 H2       4.294832        0.000000
    3 H3       8.589665        4.294833        0.000000
    4 H4      12.884497        8.589665        4.294832        0.000000
    5 H5      17.179328       12.884497        8.589663        4.294832        0.000000
    6 H6      21.474160       17.179328       12.884495        8.589663        4.294832        0.000000
    7 H7      25.768993       21.474162       17.179328       12.884497        8.589665        4.294833
    8 H8      30.063825       25.768993       21.474160       17.179328       12.884497        8.589665
 
               7 H7            8 H8    
    7 H7       0.000000
    8 H8       4.294832        0.000000
 
                    ******************************************* 
                    *    InterNuclear Distances / Angstrom    * 
                    ******************************************* 
 
               1 H1            2 H2            3 H3            4 H4            5 H5            6 H6    
    1 H1       0.000000
    2 H2       2.272727        0.000000
    3 H3       4.545455        2.272728        0.000000
    4 H4       6.818182        4.545455        2.272727        0.000000
    5 H5       9.090909        6.818182        4.545454        2.272727        0.000000
    6 H6      11.363636        9.090909        6.818181        4.545454        2.272727        0.000000
    7 H7      13.636364       11.363637        9.090909        6.818182        4.545455        2.272728
    8 H8      15.909091       13.636364       11.363636        9.090909        6.818182        4.545455
 
               7 H7            8 H8    
    7 H7       0.000000
    8 H8       2.272727        0.000000
--
 
 
            Nuclear Potential Energy              3.19985897 au
 
 ###############################################################################
 ###############################################################################
 ###                                                                         ###
 ###                                                                         ###
 ###    There were warnings during the execution                             ###
 ###    Please, check the output with care!                                  ###
 ###                                                                         ###
 ###                                                                         ###
 ###############################################################################
 ###############################################################################
--- Stop Module: gateway at Mon Nov 18 14:43:51 2024 /rc=_RC_ALL_IS_WELL_ ---
*** files: xmldump
    saved to directory /home/grierjones/DDCASPT2/hydrogen_comps/H8_chain/H8_2.27

--- Start Module: seward at Mon Nov 18 14:43:51 2024 ---
 
()()()()()()()()()()()()()()()()()()()()()()()()()()()()()()()()()()()()()()()()()()()()()()()()()()

                                              &SEWARD

                                   only a single process is used
                       available to each process: 2.0 GB of memory, 1 thread?
()()()()()()()()()()()()()()()()()()()()()()()()()()()()()()()()()()()()()()()()()()()()()()()()()()
 
 ###############################################################################
 ###############################################################################
 ###                                                                         ###
 ###                                                                         ###
 ###                                                                         ###
 ###    WARNING: EXPERT option is ON!                                        ###
 ###                                                                         ###
 ###                                                                         ###
 ###############################################################################
 ###############################################################################
               SEWARD will generate:
                  Multipole Moment integrals up to order  2
                  Kinetic Energy integrals
                  Nuclear Attraction integrals (point charge)
                  One-Electron Hamiltonian integrals
                  Velocity integrals
                  Relativistic Douglas-Kroll-Hess integrals:
                    - Parametrization         : EXP
                    - DKH order of Hamiltonian: 2
                    - DKH order of Properties : 0
                         - multipole moment operators
                         - electric potential operators
                         - contact operators
                  Atomic mean-field integrals
                  Two-Electron Repulsion integrals
 
                   Integrals are discarded if absolute value <: 0.10E-13
                   Integral cutoff threshold is set to       <: 0.10E-15
 
            Nuclear Potential Energy              3.19985897 au
 
 
      Basis set specifications :
      Symmetry species         a  
      Basis functions           40
 
 
  Input file to MOLDEN was generated!
 
 ###############################################################################
 ###############################################################################
 ###                                                                         ###
 ###                                                                         ###
 ###    There were warnings during the execution                             ###
 ###    Please, check the output with care!                                  ###
 ###                                                                         ###
 ###                                                                         ###
 ###############################################################################
 ###############################################################################
--- Stop Module: seward at Mon Nov 18 14:43:51 2024 /rc=_RC_ALL_IS_WELL_ ---
*** files: H8_2.27.GssOrb H8_2.27.guessorb.h5 H8_2.27.guessorb.molden xmldump
    saved to directory /home/grierjones/DDCASPT2/hydrogen_comps/H8_chain/H8_2.27

*** symbolic link created: INPORB -> H8_2.27.GssOrb
--- Start Module: scf at Mon Nov 18 14:43:51 2024 ---
 
()()()()()()()()()()()()()()()()()()()()()()()()()()()()()()()()()()()()()()()()()()()()()()()()()()

                                                &SCF

                                   only a single process is used
                       available to each process: 2.0 GB of memory, 1 thread?
()()()()()()()()()()()()()()()()()()()()()()()()()()()()()()()()()()()()()()()()()()()()()()()()()()
 
++    Input section:
      --------------
 
      Header of the integral files:
      
       Integrals generated by seward 4.2.0  , Mon Nov 18 14:43:51 2024
 
 
      Cartesian coordinates in Angstrom:
      -----------------------------------------------------
      No.  Label        X            Y            Z        
      -----------------------------------------------------
       1   H1         0.00000000   0.00000000   0.00000000
       2   H2         0.00000000   0.00000000   2.27272700
       3   H3         0.00000000   0.00000000   4.54545500
       4   H4         0.00000000   0.00000000   6.81818200
       5   H5         0.00000000   0.00000000   9.09090900
       6   H6         0.00000000   0.00000000  11.36363600
       7   H7         0.00000000   0.00000000  13.63636400
       8   H8         0.00000000   0.00000000  15.90909100
      -----------------------------------------------------
      Nuclear repulsion energy =    3.19985897
--
 
++    Orbital specifications:
      -----------------------
 
      Symmetry species               1
                                     a
      Frozen orbitals                0
      Occupied orbitals              4
      Secondary orbitals            36
      Deleted orbitals               0
      Total number of orbitals      40
      Number of basis functions     40
--
 
      Molecular charge                           0.000
 
++    Optimization specifications:
      ----------------------------
 
      SCF Algorithm: Conventional
      Minimized density differences are used
      Number of density matrices in core                5
      Maximum number of NDDO SCF iterations           400
      Maximum number of HF SCF iterations             400
      Threshold for SCF energy change            0.10E-08
      Threshold for density matrix               0.10E-03
      Threshold for Fock matrix                  0.15E-03
      Threshold for linear dependence            0.10E-08
      Threshold at which DIIS is turned on       0.15E+00
      Threshold at which QNR/C2DIIS is turned on 0.75E-01
      Threshold for Norm(delta) (QNR/C2DIIS)     0.20E-04
      DIIS extrapolation of the SCF procedure
      All orbitals punched on: SCFORB
--
 
      Input vectors read from INPORB
      Orbital file label: *Guess orbitals
 
 
++ Convergence information
                                   SCF        iterations: Energy and convergence statistics
 
Iter     Tot. SCF        One-elec.       Two-elec.     Energy      Max Dij or  Max Fij      DNorm      TNorm      AccCon     Time
         Energy          Energy          Energy        Change      Delta Norm                                                in Sec.
   1    -3.348547604   -10.590023506     4.041616933   0.00E+00    0.36E+00*   0.12E+00*    0.43E+01   0.81E+01   None         0.
   2    -3.551155686   -10.557145843     3.806131187  -0.20E+00*   0.13E+00*   0.22E-01*    0.13E+01   0.79E+01   EDIIS        0.
   3    -3.561743005   -10.496991734     3.735389759  -0.11E-01*   0.74E-01*   0.88E-02*    0.28E+00   0.78E+01   EDIIS        0.
   4    -3.563779598   -10.498737124     3.735098556  -0.20E-02*   0.42E-01*   0.65E-02*    0.14E+00   0.78E+01   c2DIIS       0.
   5    -3.564629344   -10.489620824     3.725132511  -0.85E-03*   0.14E-01*   0.24E-02*    0.30E-01   0.78E+01   QNRc2DIIS    0.
   6    -3.564765556   -10.493432287     3.728807762  -0.14E-03*   0.15E-01*   0.12E-02*    0.86E-02   0.78E+01   QNRc2DIIS    0.
   7    -3.564830793   -10.492220897     3.727531134  -0.65E-04*   0.22E-02*   0.29E-03*    0.46E-02   0.78E+01   QNRc2DIIS    0.
   8    -3.564832086   -10.491386618     3.726695562  -0.13E-05*   0.49E-03*   0.13E-03     0.16E-02   0.78E+01   QNRc2DIIS    0.
   9    -3.564832303   -10.491449398     3.726758125  -0.22E-06*   0.55E-04*   0.78E-05     0.24E-03   0.78E+01   QNRc2DIIS    0.
  10    -3.564832305   -10.491440949     3.726749674  -0.16E-08*   0.15E-04    0.19E-05     0.93E-04   0.78E+01   QNRc2DIIS    0.
  11    -3.564832305   -10.491441959     3.726750684  -0.10E-09    0.37E-05    0.50E-06     0.80E-05   0.78E+01   QNRc2DIIS    0.
 
       Convergence after 11 Macro Iterations
--
 
 *****************************************************************************************************************************
 *                                                                                                                           *
 *                                             SCF/KS-DFT Program, Final results                                             *
 *                                                                                                                           *
 *                                                                                                                           *
 *                                                                                                                           *
 *                                                       Final Results                                                       *
 *                                                                                                                           *
 *****************************************************************************************************************************
 
::    Total SCF energy                                 -3.5648323052
      One-electron energy                             -10.4914419589
      Two-electron energy                               3.7267506840
      Nuclear repulsion energy                          3.1998589697
      Kinetic energy (interpolated)                     2.6586771934
      Virial theorem                                    1.3408293094
      Total spin, S(S+1)                                0.0000000000
      Total spin, S                                     0.0000000000
      Max non-diagonal density matrix element           0.0000038749
      Max non-diagonal Fock matrix element              0.0000002830
 
 
      All orbitals with orbital energies smaller than  E(LUMO)+0.5 are printed
 
++    Molecular orbitals:
      -------------------
 
      Title: SCF orbitals

      Molecular orbitals for symmetry species 1: a  
 
          Orbital            1         2         3         4         5         6         7         8         9        10    
          Energy           -0.4151   -0.3970   -0.3692   -0.3377   -0.1422   -0.0982   -0.0522   -0.0163    0.3218    0.3381
          Occ. No.          2.0000    2.0000    2.0000    2.0000    0.0000    0.0000    0.0000    0.0000    0.0000    0.0000
 
        1 H1     1s         0.1607   -0.3027    0.3850   -0.3174    0.3844   -0.5182    0.4561   -0.2626   -0.1177    0.1684
        2 H1     2s         0.0248   -0.0497    0.0698   -0.0641    0.1239   -0.1825    0.1716   -0.1017    0.2433   -0.4168
        3 H1     2px       -0.0000    0.0000   -0.0000    0.0000   -0.0000    0.0000   -0.0000    0.0000   -0.0000    0.0000
        4 H1     2py       -0.0000    0.0000    0.0000    0.0000   -0.0000   -0.0000    0.0000   -0.0000    0.0000   -0.0000
        5 H1     2pz        0.0073   -0.0121    0.0126   -0.0082   -0.0027    0.0104   -0.0174    0.0149   -0.0210    0.0304
        6 H2     1s         0.2259   -0.3769    0.3889   -0.2433   -0.1933    0.4673   -0.6047    0.4306   -0.1810    0.2148
        7 H2     2s         0.0302   -0.0674    0.0955   -0.0778   -0.0557    0.1671   -0.2302    0.1631    0.2064   -0.2690
        8 H2     2px       -0.0000    0.0000    0.0000    0.0000   -0.0000    0.0000   -0.0000    0.0000   -0.0000    0.0000
        9 H2     2py        0.0000   -0.0000    0.0000    0.0000    0.0000   -0.0000    0.0000    0.0000    0.0000   -0.0000
       10 H2     2pz       -0.0004    0.0047   -0.0119    0.0135   -0.0187    0.0178   -0.0027   -0.0077    0.0039   -0.0123
       11 H3     1s         0.3435   -0.2891   -0.1391    0.4094   -0.4660    0.1244    0.4933   -0.5863   -0.1936    0.1496
       12 H3     2s         0.0547   -0.0410   -0.0466    0.1069   -0.1545    0.0386    0.1875   -0.2185    0.2589   -0.2258
       13 H3     2px        0.0000   -0.0000    0.0000    0.0000   -0.0000    0.0000   -0.0000   -0.0000   -0.0000    0.0000
       14 H3     2py       -0.0000    0.0000    0.0000   -0.0000    0.0000    0.0000    0.0000    0.0000   -0.0000    0.0000
       15 H3     2pz        0.0067    0.0000   -0.0116    0.0115    0.0139   -0.0220    0.0074    0.0116   -0.0060   -0.0043
       16 H4     1s         0.3692   -0.1893   -0.2807    0.3731    0.3877   -0.4335   -0.2342    0.6504   -0.2094    0.0489
       17 H4     2s         0.0543   -0.0459   -0.0496    0.1032    0.1247   -0.1620   -0.0856    0.2429    0.2712   -0.0772
       18 H4     2px        0.0000    0.0000    0.0000    0.0000   -0.0000   -0.0000   -0.0000   -0.0000    0.0000   -0.0000
       19 H4     2py        0.0000    0.0000   -0.0000    0.0000   -0.0000   -0.0000    0.0000   -0.0000   -0.0000   -0.0000
       20 H4     2pz       -0.0040    0.0096   -0.0007   -0.0142    0.0192    0.0052   -0.0221    0.0025    0.0029   -0.0113
       21 H5     1s         0.3692    0.1893   -0.2807   -0.3731    0.3877    0.4335   -0.2342   -0.6504   -0.2094   -0.0489
       22 H5     2s         0.0543    0.0459   -0.0496   -0.1032    0.1247    0.1620   -0.0856   -0.2429    0.2712    0.0772
       23 H5     2px        0.0000    0.0000   -0.0000    0.0000    0.0000   -0.0000    0.0000    0.0000    0.0000   -0.0000
       24 H5     2py        0.0000    0.0000    0.0000   -0.0000   -0.0000    0.0000    0.0000   -0.0000   -0.0000   -0.0000
       25 H5     2pz        0.0040    0.0096    0.0007   -0.0142   -0.0192    0.0052    0.0221    0.0025   -0.0029   -0.0113
       26 H6     1s         0.3435    0.2891   -0.1391   -0.4094   -0.4660   -0.1244    0.4933    0.5863   -0.1936   -0.1496
       27 H6     2s         0.0547    0.0410   -0.0466   -0.1069   -0.1545   -0.0386    0.1875    0.2185    0.2589    0.2258
       28 H6     2px        0.0000   -0.0000   -0.0000   -0.0000    0.0000    0.0000   -0.0000   -0.0000   -0.0000   -0.0000
       29 H6     2py       -0.0000   -0.0000   -0.0000   -0.0000    0.0000    0.0000   -0.0000    0.0000   -0.0000    0.0000
       30 H6     2pz       -0.0067    0.0000    0.0116    0.0115   -0.0139   -0.0220   -0.0074    0.0116    0.0060   -0.0043
       31 H7     1s         0.2259    0.3769    0.3889    0.2433   -0.1933   -0.4673   -0.6047   -0.4306   -0.1810   -0.2148
       32 H7     2s         0.0302    0.0674    0.0955    0.0778   -0.0557   -0.1671   -0.2302   -0.1631    0.2064    0.2690
       33 H7     2px       -0.0000    0.0000    0.0000    0.0000    0.0000    0.0000   -0.0000    0.0000    0.0000   -0.0000
       34 H7     2py       -0.0000   -0.0000    0.0000    0.0000    0.0000    0.0000    0.0000   -0.0000    0.0000    0.0000
       35 H7     2pz        0.0004    0.0047    0.0119    0.0135    0.0187    0.0178    0.0027   -0.0077   -0.0039   -0.0123
       36 H8     1s         0.1607    0.3027    0.3850    0.3174    0.3844    0.5182    0.4561    0.2626   -0.1177   -0.1684
       37 H8     2s         0.0248    0.0497    0.0698    0.0641    0.1239    0.1825    0.1716    0.1017    0.2433    0.4168
       38 H8     2px        0.0000   -0.0000   -0.0000    0.0000    0.0000    0.0000   -0.0000   -0.0000   -0.0000   -0.0000
       39 H8     2py        0.0000   -0.0000   -0.0000    0.0000   -0.0000   -0.0000    0.0000    0.0000   -0.0000    0.0000
       40 H8     2pz       -0.0073   -0.0121   -0.0126   -0.0082    0.0027    0.0104    0.0174    0.0149    0.0210    0.0304
--
 
 
++    Molecular charges:
      ------------------
 
      Mulliken charges per centre and basis function type
      ---------------------------------------------------
 
                H1      H2      H3      H4      H5      H6      H7      H8    
      1s       0.8802  0.9479  0.9195  0.9255  0.9255  0.9195  0.9479  0.8802
      2s       0.0731  0.0829  0.0703  0.0729  0.0729  0.0703  0.0829  0.0731
      2px      0.0000  0.0000  0.0000  0.0000  0.0000  0.0000  0.0000  0.0000
      2pz      0.0061  0.0074  0.0072  0.0071  0.0071  0.0072  0.0074  0.0061
      2py      0.0000  0.0000  0.0000  0.0000  0.0000  0.0000  0.0000  0.0000
      Total    0.9594  1.0382  0.9970  1.0055  1.0055  0.9970  1.0382  0.9594
 
      N-E      0.0406 -0.0382  0.0030 -0.0055 -0.0055  0.0030 -0.0382  0.0406
 
      Total electronic charge=    8.000000
 
      Total            charge=   -0.000000
--
 
 
  Input file to MOLDEN was generated!
 
 
++    Static properties:
      ------------------
 
 
      LoProp Charges per center
 

                   H1       H2       H3       H4       H5       H6       H7       H8    
      Nuclear      1.0000   1.0000   1.0000   1.0000   1.0000   1.0000   1.0000   1.0000
      Electronic  -0.9769  -1.0192  -0.9986  -1.0054  -1.0054  -0.9986  -1.0192  -0.9769
 
      Total        0.0231  -0.0192   0.0014  -0.0054  -0.0054   0.0014  -0.0192   0.0231
--
 
 
++    Natural Bond Order analysis
      ---------------------------
      Based on LoProp computed density
      -------------------------------------------------------------------------------------
      Atom A       Atom B       Bond Order
      -------------------------------------------------------------------------------------
      NBO located      0.961 non-bonded electrons on atom H1        
      NBO located      1.007 non-bonded electrons on atom H3        
      NBO located      1.014 non-bonded electrons on atom H4        
      NBO located      1.014 non-bonded electrons on atom H5        
      NBO located      1.007 non-bonded electrons on atom H6        
      NBO located      0.961 non-bonded electrons on atom H8        
      The remaining    2.037 electrons are to be considered as diffuse
--
 
 
++    Molecular properties:
      ---------------------
 
      Charge (e):
                      =   -0.0000
      Dipole Moment (Debye):
      Origin of the operator (Ang)=    0.0000    0.0000    0.0000
                   X=  9.6238E-14               Y=  2.8035E-14               Z= -6.9351E-12           Total=  6.9358E-12
      Quadrupole Moment (Debye*Ang):
      Origin of the operator (Ang)=    0.0000    0.0000    7.9545
                  XX= -1.8021E+01              XY= -1.5045E-28              XZ= -7.3170E-13              YY= -1.8021E+01
                  YZ= -2.0168E-13              ZZ=  7.7602E-01
      In traceless form (Debye*Ang)
                  XX= -9.3986E+00              XY= -2.2567E-28              XZ= -1.0976E-12              YY= -9.3986E+00
                  YZ= -3.0253E-13              ZZ=  1.8797E+01
--
 
 
  Input file to MOLDEN was generated!
 
 ###############################################################################
 ###############################################################################
 ###                                                                         ###
 ###                                                                         ###
 ###    RunFile label nBas                                                   ###
 ###    was used       78 times                                              ###
 ###                                                                         ###
 ###                                                                         ###
 ###############################################################################
 ###############################################################################
--- Stop Module: scf at Mon Nov 18 14:43:52 2024 /rc=_RC_ALL_IS_WELL_ ---
*** files: H8_2.27.LprOrb H8_2.27.LoProp.molden H8_2.27.scf.molden H8_2.27.ScfOrb H8_2.27.scf.h5 xmldump
    saved to directory /home/grierjones/DDCASPT2/hydrogen_comps/H8_chain/H8_2.27

>>> COPY /tmp/H8_2.27/H8_2.27.scf.h5 /home/grierjones/DDCASPT2/hydrogen_comps/H8_chain/H8_2.27/

*** symbolic link created: INPORB -> H8_2.27.ScfOrb
--- Start Module: rasscf at Mon Nov 18 14:43:52 2024 ---
 
()()()()()()()()()()()()()()()()()()()()()()()()()()()()()()()()()()()()()()()()()()()()()()()()()()

                                              &RASSCF

                                   only a single process is used
                       available to each process: 2.0 GB of memory, 1 thread?
()()()()()()()()()()()()()()()()()()()()()()()()()()()()()()()()()()()()()()()()()()()()()()()()()()
 
 
 *************** WARNING ****************
 ###############################################################################
 ###############################################################################
 ###                                                                         ###
 ###                                                                         ###
 ###    Too many macro-iterations.                                           ###
 ###                                                                         ###
 ###                                                                         ###
 ###############################################################################
 ###############################################################################
 Too many macro-iterations requested.
 Reset to maximum, new MAXIT=     200
 ****************************************
 
 *************** WARNING ****************
 ###############################################################################
 ###############################################################################
 ###                                                                         ###
 ###                                                                         ###
 ###    Too many SX-iterations.                                              ###
 ###                                                                         ###
 ###                                                                         ###
 ###############################################################################
 ###############################################################################
 Too many SX-iterations requested.
 Reset to maximum, new ITMAX=     100
 ****************************************
 
      Header of the ONEINT file:
      --------------------------
      
      Integrals generated by seward 4.2.0  , Mon Nov 18 14:43:51 2024
 
 
      OrdInt status: non-squared
 
 
      Cartesian coordinates in Angstrom:
      -----------------------------------------------------
      No.  Label        X            Y            Z        
      -----------------------------------------------------
       1   H1         0.00000000   0.00000000   0.00000000
       2   H2         0.00000000   0.00000000   2.27272700
       3   H3         0.00000000   0.00000000   4.54545500
       4   H4         0.00000000   0.00000000   6.81818200
       5   H5         0.00000000   0.00000000   9.09090900
       6   H6         0.00000000   0.00000000  11.36363600
       7   H7         0.00000000   0.00000000  13.63636400
       8   H8         0.00000000   0.00000000  15.90909100
      -----------------------------------------------------
      Nuclear repulsion energy =    3.19985897
 
++    Wave function specifications:
      -----------------------------
 
      Number of closed shell electrons           0
      Number of electrons in active shells       8
      Max number of holes in RAS1 space          0
      Max nr of electrons in RAS3 space          0
      Number of inactive orbitals                0
      Number of active orbitals                  8
      Number of secondary orbitals              32
      Spin quantum number                      0.0
      State symmetry                             1
--
 
++    Orbital specifications:
      -----------------------
 
      Symmetry species                           1
                                                 a
      Frozen orbitals                            0
      Inactive orbitals                          0
      Active orbitals                            8
      RAS1 orbitals                              0
      RAS2 orbitals                              8
      RAS3 orbitals                              0
      Secondary orbitals                        32
      Deleted orbitals                           0
      Number of basis functions                 40
--
 
++    CI expansion specifications:
      ----------------------------
 
      Number of CSFs                          1764
      Number of determinants                  2485
      Number of root(s) required                 1
      Root chosen for geometry opt.              1
      CI root used                               1
         
      highest root included in the CI            1
      max. size of the explicit Hamiltonian    200
--
 
++    Optimization specifications:
      ----------------------------
 
      RASSCF algorithm: Conventional
      Maximum number of macro iterations       200
      Maximum number of SX iterations          100
      Threshold for RASSCF energy            0.100E-07
      Threshold for max MO rotation          0.100E+00
      Threshold for max BLB element          0.100E-03
      Level shift parameter                  0.500E+00
      Make Quasi-Newton update
--
 
      The MO-coefficients are taken from the file:
      /home/grierjones/DDCASPT2/hydrogen_comps/H8_chain/H8_2.25/H8_2.25.RasOrb                                                        
      Title: RASSCF average (pseudo-natural) orbitals                                      
 
      Total molecular charge    0.00
 
      ************************************************************************************************************************
      *                                                                                                                      *
      *                                            Wave function control section                                             *
      *                                                                                                                      *
      ************************************************************************************************************************
 
 
                                         RASSCF iterations: Energy and convergence statistics
                                         ----------------------------------------------------
 
      Iter CI   SX   CI       RASSCF       Energy    max ROT     max BLB   max BLB  Level Ln srch  Step   QN   Walltime
          iter iter root      energy       change     param      element    value   shift minimum  type update hh:mm:ss
 Nr of preliminary CI iterations:   8
        1   1    4    1    -4.01889582    0.00E+00   0.54E-02    7  13 1 -0.33E-02*  0.02   0.00    SX    NO    0:00:00
        2   7    4    1    -4.01962062   -0.72E-03* -0.31E-02    7  13 1  0.19E-02*  0.02   0.00    SX    NO    0:00:00
        3   1    4    1    -4.01964571   -0.25E-04*  0.48E-03    4  14 1 -0.44E-03*  0.02   0.00    SX    NO    0:00:00
        4  40    4    1    -4.01970669   -0.61E-04* -0.21E-02    7  13 1  0.13E-02*  0.01   0.00    SX    NO    0:00:00
        5  10    4    1    -4.01971927   -0.13E-04* -0.22E-03    1  15 1  0.15E-03*  0.01   1.05    QN   YES    0:00:00
        6   8    3    1    -4.01972004   -0.77E-06* -0.31E-03    7  13 1  0.91E-04   0.01   1.04    QN   YES    0:00:00
        7  10    3    1    -4.01972008   -0.38E-07* -0.15E-03    7  13 1 -0.76E-04   0.01   0.64    QN   YES    0:00:00
        8   4    3    1    -4.01972012   -0.41E-07* -0.14E-04    4  14 1  0.11E-04   0.01   0.91    QN   YES    0:00:00
        9   1    2    1    -4.01972012   -0.74E-09   0.24E-05    4  12 1 -0.23E-05   0.01   1.01    QN   YES    0:00:00
      Convergence after  9 iterations
 
  Dmat in MO in SXCTL bf call to SXHAM                                                                                    
  mat. size =     8x    8
 
        1.4917647587148593
        0.0000000000000642      1.4408365004884098
        0.0001274587217793      0.0000000000000801      1.3536327531963506
        0.0000000000000123      0.0001757017969486      0.0000000000000819      1.2347005316742508
        0.0001861444246485      0.0000000000000052      0.0000793191258312     -0.0000000000000618      0.5560537612393002
        0.0000000000000587      0.0002882647858564      0.0000000000000106      0.0001242498717012     -0.0000000000000823
        0.6492063877807550
       -0.0001226890755905     -0.0000000000000718     -0.0001494778673325      0.0000000000000119      0.0003252291619684
        0.0000000000000862      0.7728386362578593
        0.0000000000000095      0.0000008986443858     -0.0000000000000446      0.0000211232672517     -0.0000000000000607
       -0.0000975748070369      0.0000000000000110      0.5009666706482191
       10   1    2    1    -4.01972012   -0.24E-10   0.24E-05    8  40 1  0.28E-06   0.01   1.01    QN   YES    0:00:00
 
      ************************************************************************************************************************
                                                      Wave function printout:
                       occupation of active orbitals, and spin coupling of open shells (u,d: Spin up or down)
      ************************************************************************************************************************
 
      Note: transformation to natural orbitals
      has been made, which may change the order of the CSFs.
 
      printout of CI-coefficients larger than  0.05 for root  1
      energy=      -4.019720
      conf/sym  11111111     Coeff  Weight
             1  22220000  -0.44603 0.19894
            20  22200200   0.05923 0.00351
            23  22200020   0.22454 0.05042
            32  22ud0ud0   0.23148 0.05358
            34  22udu00d  -0.05217 0.00272
            40  2u2d0200   0.07151 0.00511
            41  2u2du0d0  -0.18366 0.03373
            45  2u2d0u0d   0.07389 0.00546
            49  u22dud00  -0.09926 0.00985
            56  u22d00ud   0.19872 0.03949
            58  22022000   0.05631 0.00317
            60  22020200   0.14098 0.01987
            61  2202u0d0  -0.07123 0.00507
            63  22020020   0.06169 0.00381
            69  2ud2ud00  -0.18515 0.03428
            72  2ud20ud0   0.05215 0.00272
            76  2ud200ud   0.09962 0.00993
            78  u2d22000   0.05385 0.00290
            81  u2d2u0d0  -0.07707 0.00594
            85  u2d20u0d   0.14624 0.02139
            88  20222000   0.11019 0.01214
            90  20220200   0.05910 0.00349
            95  20220u0d   0.05427 0.00295
           102  ud220ud0   0.05691 0.00324
           104  ud22u00d  -0.14099 0.01988
           108  02222000   0.05030 0.00253
           117  02220002   0.10619 0.01128
           120  22uu0dd0   0.06606 0.00436
           125  2u2ud0d0  -0.06588 0.00434
           135  u22u00dd  -0.07722 0.00596
           559  22000220  -0.12307 0.01515
           578  2ud0ud20   0.13088 0.01713
           607  u2d00u2d   0.11181 0.01250
           617  20202020  -0.08947 0.00800
           646  ud20u02d  -0.08792 0.00773
           673  02200022  -0.08150 0.00664
           676  2u0du2d0   0.10608 0.01125
           704  u20d02ud   0.09123 0.00832
           715  20ud2ud0  -0.08395 0.00705
           743  udududud  -0.07985 0.00638
           745  ududuudd  -0.09624 0.00926
           772  02ud0ud2  -0.07243 0.00525
           783  uuddudud  -0.11852 0.01405
           802  u02d20ud   0.07355 0.00541
           831  0u2du0d2   0.07328 0.00537
           834  20022200  -0.07534 0.00568
           861  ud02u20d  -0.06765 0.00458
           890  02020202  -0.06061 0.00367
           900  u0d22u0d   0.07132 0.00509
           929  0ud2ud02   0.07012 0.00492
           948  00222002  -0.05265 0.00277
          1595  20002220   0.07417 0.00550
          1608  ud00u22d  -0.08411 0.00707
          1624  02000222   0.05602 0.00314
          1627  u0d02u2d   0.06876 0.00473
          1643  0ud0ud22  -0.07567 0.00573
          1656  u00d22ud   0.07319 0.00536
          1671  0u0du2d2  -0.05852 0.00342
          1680  00ud2ud2   0.05993 0.00359
          1764  00002222  -0.06753 0.00456
 
      Natural orbitals and occupation numbers for root  1
      sym 1:   1.491765   1.440837   1.353633   1.234700   0.556053   0.649206   0.772839   0.500967
 
      ************************************************************************************************************************
      *                                                                                                                      *
      *                                                    Final results                                                     *
      *                                                                                                                      *
      ************************************************************************************************************************
 
 
++    Wave function specifications:
      -----------------------------
 
      Number of closed shell electrons           0
      Number of electrons in active shells       8
      Max number of holes in RAS1 space          0
      Max nr of electrons in RAS3 space          0
      Number of inactive orbitals                0
      Number of active orbitals                  8
      Number of secondary orbitals              32
      Spin quantum number                      0.0
      State symmetry                             1
--
 
++    Orbital specifications:
      -----------------------
 
      Symmetry species                           1
                                                 a
      Frozen orbitals                            0
      Inactive orbitals                          0
      Active orbitals                            8
      RAS1 orbitals                              0
      RAS2 orbitals                              8
      RAS3 orbitals                              0
      Secondary orbitals                        32
      Deleted orbitals                           0
      Number of basis functions                 40
--
 
++    CI expansion specifications:
      ----------------------------
 
      Number of CSFs                          1764
      Number of determinants                  2485
      Number of root(s) required                 1
      CI root used                               1
      highest root included in the CI            1
      Root passed to geometry opt.               1
--
 
++    Final optimization conditions:
      ------------------------------
 
      Average CI energy                              -4.01972012
      RASSCF energy for state  1                     -4.01972012
      Super-CI energy                                -0.00000000
      RASSCF energy change                            0.00000000
      Max change in MO coefficients              -0.160E-05
      Max non-diagonal density matrix element     0.237E-05
      Maximum BLB matrix element                  0.282E-06
      (orbital pair   8,  40 in symmetry   1)
      Norm of electronic gradient            0.843E-06
--
 
 
      Final state energy(ies):
      ------------------------
 
::    RASSCF root number  1 Total energy:     -4.01972012
 
++    Molecular orbitals:
      -------------------
 
      Pseudonatural active orbitals and approximate occupation numbers
 
 
 
 
      Molecular orbitals for symmetry species 1: a  
 
 
      Orbital                1         2         3         4         5         6         7         8         9        10
      Energy            0.0000    0.0000    0.0000    0.0000    0.0000    0.0000    0.0000    0.0000    0.3320    0.3485
      Occ. No.          1.4918    1.4408    1.3536    1.2347    0.5561    0.6492    0.7728    0.5010    0.0000    0.0000
 
    1 H1     1s         0.1869   -0.3362    0.4018   -0.3268    0.4340   -0.4868   -0.3686   -0.2524   -0.0860   -0.1107
    2 H1     2s         0.0131   -0.0247    0.0316   -0.0277    0.0538   -0.0557   -0.0390   -0.0332    0.2426    0.4237
    3 H1     2px       -0.0000    0.0000   -0.0000    0.0000   -0.0000   -0.0000   -0.0000    0.0000   -0.0000   -0.0000
    4 H1     2py        0.0000    0.0000   -0.0000   -0.0000    0.0000   -0.0000   -0.0000   -0.0000    0.0000    0.0000
    5 H1     2pz        0.0021   -0.0031    0.0027   -0.0015    0.0029   -0.0023   -0.0012   -0.0021   -0.0176   -0.0267
    6 H2     1s         0.2587   -0.4063    0.3810   -0.2103   -0.5569    0.4398    0.1824    0.3910   -0.1585   -0.1968
    7 H2     2s         0.0155   -0.0329    0.0450   -0.0372   -0.0903    0.0556    0.0095    0.0708    0.2084    0.2710
    8 H2     2px       -0.0000    0.0000   -0.0000   -0.0000   -0.0000    0.0000    0.0000    0.0000   -0.0000   -0.0000
    9 H2     2py       -0.0000   -0.0000    0.0000    0.0000   -0.0000   -0.0000   -0.0000    0.0000    0.0000    0.0000
   10 H2     2pz        0.0012    0.0001   -0.0031    0.0041    0.0008    0.0003    0.0019   -0.0005    0.0005    0.0084
   11 H3     1s         0.3510   -0.2909   -0.1421    0.4375    0.4303    0.1356    0.4776   -0.5173   -0.1645   -0.1130
   12 H3     2s         0.0238   -0.0160   -0.0243    0.0530    0.0778    0.0115    0.0613   -0.0927    0.2626    0.2315
   13 H3     2px        0.0000   -0.0000    0.0000    0.0000   -0.0000   -0.0000    0.0000   -0.0000   -0.0000   -0.0000
   14 H3     2py        0.0000   -0.0000    0.0000   -0.0000    0.0000   -0.0000    0.0000   -0.0000   -0.0000   -0.0000
   15 H3     2pz        0.0006    0.0018   -0.0038    0.0023    0.0011   -0.0005   -0.0008   -0.0018   -0.0029    0.0060
   16 H4     1s         0.3800   -0.1667   -0.3200    0.3771   -0.2052   -0.4272   -0.3918    0.5689   -0.1786   -0.0515
   17 H4     2s         0.0242   -0.0192   -0.0238    0.0498   -0.0290   -0.0709   -0.0449    0.1041    0.2773    0.0780
   18 H4     2px       -0.0000    0.0000   -0.0000   -0.0000    0.0000    0.0000    0.0000    0.0000    0.0000    0.0000
   19 H4     2py       -0.0000   -0.0000    0.0000   -0.0000   -0.0000   -0.0000    0.0000   -0.0000    0.0000   -0.0000
   20 H4     2pz        0.0005    0.0028   -0.0016   -0.0036    0.0008    0.0009   -0.0011   -0.0014   -0.0001    0.0099
   21 H5     1s         0.3800    0.1667   -0.3200   -0.3771   -0.2052    0.4272   -0.3918   -0.5689   -0.1786    0.0515
   22 H5     2s         0.0242    0.0192   -0.0238   -0.0498   -0.0290    0.0709   -0.0449   -0.1041    0.2773   -0.0780
   23 H5     2px       -0.0000   -0.0000   -0.0000   -0.0000   -0.0000   -0.0000   -0.0000   -0.0000    0.0000   -0.0000
   24 H5     2py       -0.0000   -0.0000    0.0000    0.0000    0.0000    0.0000    0.0000    0.0000    0.0000   -0.0000
   25 H5     2pz       -0.0005    0.0028    0.0016   -0.0036   -0.0008    0.0009    0.0011   -0.0014    0.0001    0.0099
   26 H6     1s         0.3510    0.2909   -0.1421   -0.4375    0.4303   -0.1356    0.4776    0.5173   -0.1645    0.1130
   27 H6     2s         0.0238    0.0160   -0.0243   -0.0530    0.0778   -0.0115    0.0613    0.0927    0.2626   -0.2315
   28 H6     2px        0.0000   -0.0000    0.0000   -0.0000    0.0000    0.0000   -0.0000   -0.0000   -0.0000    0.0000
   29 H6     2py        0.0000    0.0000   -0.0000   -0.0000   -0.0000   -0.0000    0.0000   -0.0000   -0.0000    0.0000
   30 H6     2pz       -0.0006    0.0018    0.0038    0.0023   -0.0011   -0.0005    0.0008   -0.0018    0.0029    0.0060
   31 H7     1s         0.2587    0.4063    0.3810    0.2103   -0.5569   -0.4398    0.1824   -0.3910   -0.1585    0.1968
   32 H7     2s         0.0155    0.0329    0.0450    0.0372   -0.0903   -0.0556    0.0095   -0.0708    0.2084   -0.2710
   33 H7     2px        0.0000    0.0000    0.0000   -0.0000   -0.0000   -0.0000    0.0000   -0.0000   -0.0000    0.0000
   34 H7     2py        0.0000   -0.0000    0.0000    0.0000   -0.0000    0.0000    0.0000    0.0000   -0.0000    0.0000
   35 H7     2pz       -0.0012    0.0001    0.0031    0.0041   -0.0008    0.0003   -0.0019   -0.0005   -0.0005    0.0084
   36 H8     1s         0.1869    0.3362    0.4018    0.3268    0.4340    0.4868   -0.3686    0.2524   -0.0860    0.1107
   37 H8     2s         0.0131    0.0247    0.0316    0.0277    0.0538    0.0557   -0.0390    0.0332    0.2426   -0.4237
   38 H8     2px        0.0000   -0.0000   -0.0000    0.0000   -0.0000    0.0000   -0.0000   -0.0000   -0.0000    0.0000
   39 H8     2py        0.0000    0.0000    0.0000    0.0000   -0.0000   -0.0000    0.0000   -0.0000   -0.0000    0.0000
   40 H8     2pz       -0.0021   -0.0031   -0.0027   -0.0015   -0.0029   -0.0023    0.0012   -0.0021    0.0176   -0.0267
 
 
      Orbital               11        12        13        14        15        16        17        18        19        20
      Energy            0.3810    0.4349    0.5121    0.6123    0.6869    0.7391    0.7427    0.8111    0.8111    0.8344
      Occ. No.          0.0000    0.0000    0.0000    0.0000    0.0000    0.0000    0.0000    0.0000    0.0000    0.0000
 
    1 H1     1s         0.0565    0.0500    0.1575    0.2148    0.1429   -0.1808   -0.1681   -0.0000    0.0000   -0.0000
    2 H1     2s        -0.5285    0.5737    0.5540    0.4557    0.2384   -0.1942   -0.1692    0.0000   -0.0000   -0.0000
    3 H1     2px        0.0000   -0.0000   -0.0000   -0.0000    0.0000   -0.0000   -0.0000    0.0773   -0.1267   -0.1781
    4 H1     2py       -0.0000   -0.0000   -0.0000   -0.0000   -0.0000    0.0000   -0.0000    0.1267    0.0773   -0.2208
    5 H1     2pz        0.0268   -0.0266   -0.0386   -0.0750   -0.0679    0.3390    0.3390    0.0000    0.0000   -0.0000
    6 H2     1s         0.1147   -0.0289   -0.0561   -0.1880   -0.1976    0.1699    0.1570   -0.0000   -0.0000   -0.0000
    7 H2     2s        -0.1314   -0.1747   -0.5367   -0.7892   -0.5815    0.4347    0.3851    0.0000   -0.0000    0.0000
    8 H2     2px        0.0000   -0.0000    0.0000    0.0000    0.0000    0.0000    0.0000    0.1465   -0.2401   -0.2752
    9 H2     2py        0.0000    0.0000   -0.0000   -0.0000    0.0000   -0.0000   -0.0000    0.2401    0.1465   -0.3412
   10 H2     2pz       -0.0168    0.0084   -0.0209   -0.0425   -0.0433   -0.3495   -0.3590    0.0000   -0.0000   -0.0000
   11 H3     1s        -0.0638    0.1009   -0.0053    0.0348    0.1949   -0.1443   -0.1578   -0.0000   -0.0000   -0.0000
   12 H3     2s         0.1098   -0.4605   -0.4028    0.2035    0.6201   -0.4110   -0.4131   -0.0000    0.0000   -0.0000
   13 H3     2px        0.0000    0.0000    0.0000   -0.0000   -0.0000    0.0000    0.0000    0.1986   -0.3255   -0.2431
   14 H3     2py        0.0000   -0.0000    0.0000   -0.0000   -0.0000    0.0000   -0.0000    0.3255    0.1986   -0.3014
   15 H3     2pz       -0.0122    0.0035    0.0243    0.1344    0.2303    0.2419    0.2458    0.0000    0.0000   -0.0000
   16 H4     1s        -0.1326    0.0582    0.0114    0.1338   -0.0845    0.0582    0.1443    0.0000    0.0000    0.0000
   17 H4     2s         0.3471   -0.2476    0.4561    0.6737   -0.2611    0.1615    0.3553    0.0000    0.0000   -0.0000
   18 H4     2px        0.0000    0.0000    0.0000    0.0000   -0.0000    0.0000   -0.0000    0.2262   -0.3707   -0.0966
   19 H4     2py        0.0000    0.0000    0.0000   -0.0000    0.0000   -0.0000   -0.0000    0.3707    0.2262   -0.1198
   20 H4     2pz       -0.0035   -0.0063    0.0155   -0.0751   -0.3737   -0.1440   -0.0838   -0.0000   -0.0000    0.0000
   21 H5     1s        -0.1326   -0.0582    0.0114   -0.1338   -0.0845    0.0582   -0.1443    0.0000    0.0000   -0.0000
   22 H5     2s         0.3471    0.2476    0.4561   -0.6737   -0.2611    0.1615   -0.3553   -0.0000   -0.0000    0.0000
   23 H5     2px       -0.0000   -0.0000   -0.0000    0.0000    0.0000   -0.0000    0.0000    0.2262   -0.3707    0.0966
   24 H5     2py        0.0000    0.0000    0.0000   -0.0000   -0.0000    0.0000   -0.0000    0.3707    0.2262    0.1198
   25 H5     2pz        0.0035   -0.0063   -0.0155   -0.0751    0.3737    0.1440   -0.0838   -0.0000    0.0000   -0.0000
   26 H6     1s        -0.0638   -0.1009   -0.0053   -0.0348    0.1949   -0.1443    0.1578    0.0000   -0.0000   -0.0000
   27 H6     2s         0.1098    0.4605   -0.4028   -0.2035    0.6201   -0.4110    0.4131    0.0000    0.0000    0.0000
   28 H6     2px        0.0000   -0.0000   -0.0000    0.0000    0.0000   -0.0000    0.0000    0.1986   -0.3255    0.2431
   29 H6     2py       -0.0000   -0.0000    0.0000    0.0000    0.0000    0.0000   -0.0000    0.3255    0.1986    0.3014
   30 H6     2pz        0.0122    0.0035   -0.0243    0.1344   -0.2303   -0.2419    0.2458    0.0000    0.0000   -0.0000
   31 H7     1s         0.1147    0.0289   -0.0561    0.1880   -0.1976    0.1699   -0.1570   -0.0000   -0.0000   -0.0000
   32 H7     2s        -0.1314    0.1747   -0.5367    0.7892   -0.5815    0.4347   -0.3851    0.0000    0.0000    0.0000
   33 H7     2px        0.0000   -0.0000    0.0000   -0.0000    0.0000   -0.0000    0.0000    0.1465   -0.2401    0.2752
   34 H7     2py        0.0000    0.0000    0.0000   -0.0000    0.0000   -0.0000    0.0000    0.2401    0.1465    0.3412
   35 H7     2pz        0.0168    0.0084    0.0209   -0.0425    0.0433    0.3495   -0.3590   -0.0000   -0.0000    0.0000
   36 H8     1s         0.0565   -0.0500    0.1575   -0.2148    0.1429   -0.1808    0.1681    0.0000    0.0000   -0.0000
   37 H8     2s        -0.5285   -0.5737    0.5540   -0.4557    0.2384   -0.1942    0.1692   -0.0000   -0.0000   -0.0000
   38 H8     2px       -0.0000    0.0000   -0.0000    0.0000    0.0000   -0.0000    0.0000    0.0773   -0.1267    0.1781
   39 H8     2py        0.0000   -0.0000    0.0000   -0.0000    0.0000   -0.0000    0.0000    0.1267    0.0773    0.2208
   40 H8     2pz       -0.0268   -0.0266    0.0386   -0.0750    0.0679   -0.3390    0.3390   -0.0000    0.0000   -0.0000
 
 
      Orbital               21        22        23        24        25        26        27        28        29        30
      Energy            0.8344    0.8716    0.8716    0.9195    0.9195    0.9750    0.9750    1.0301    1.0301    1.0780
      Occ. No.          0.0000    0.0000    0.0000    0.0000    0.0000    0.0000    0.0000    0.0000    0.0000    0.0000
 
    1 H1     1s         0.0000    0.0000   -0.0000    0.0000    0.0000   -0.0000    0.0000   -0.0000    0.0000   -0.0000
    2 H1     2s        -0.0000    0.0000   -0.0000    0.0000   -0.0000    0.0000    0.0000    0.0000    0.0000   -0.0000
    3 H1     2px        0.2208    0.1848   -0.3452    0.1177   -0.4406    0.1202    0.4548   -0.0923    0.4182    0.3260
    4 H1     2py       -0.1781    0.3452    0.1848    0.4406    0.1177    0.4548   -0.1202   -0.4182   -0.0923    0.0141
    5 H1     2pz       -0.0000    0.0000    0.0000    0.0000   -0.0000   -0.0000    0.0000   -0.0000    0.0000   -0.0000
    6 H2     1s        -0.0000    0.0000    0.0000    0.0000    0.0000    0.0000    0.0000   -0.0000   -0.0000    0.0000
    7 H2     2s         0.0000   -0.0000   -0.0000   -0.0000   -0.0000   -0.0000   -0.0000   -0.0000   -0.0000    0.0000
    8 H2     2px        0.3412    0.1870   -0.3494    0.0426   -0.1596   -0.0407   -0.1542    0.0912   -0.4130   -0.4941
    9 H2     2py       -0.2752    0.3494    0.1870    0.1596    0.0426   -0.1542    0.0407    0.4130    0.0912   -0.0213
   10 H2     2pz       -0.0000    0.0000    0.0000    0.0000    0.0000    0.0000   -0.0000   -0.0000   -0.0000    0.0000
   11 H3     1s        -0.0000    0.0000   -0.0000    0.0000   -0.0000   -0.0000    0.0000    0.0000    0.0000   -0.0000
   12 H3     2s         0.0000   -0.0000   -0.0000   -0.0000   -0.0000   -0.0000    0.0000    0.0000    0.0000   -0.0000
   13 H3     2px        0.3014    0.0007   -0.0013   -0.1038    0.3886   -0.1064   -0.4027    0.0010   -0.0044    0.4322
   14 H3     2py       -0.2431    0.0013    0.0007   -0.3886   -0.1038   -0.4027    0.1064    0.0044    0.0010    0.0186
   15 H3     2pz       -0.0000   -0.0000    0.0000    0.0000   -0.0000    0.0000    0.0000    0.0000    0.0000   -0.0000
   16 H4     1s        -0.0000   -0.0000    0.0000   -0.0000   -0.0000   -0.0000   -0.0000   -0.0000   -0.0000    0.0000
   17 H4     2s        -0.0000    0.0000    0.0000   -0.0000    0.0000    0.0000   -0.0000   -0.0000   -0.0000    0.0000
   18 H4     2px        0.1198   -0.1851    0.3458   -0.0778    0.2910    0.0787    0.2978   -0.0916    0.4150   -0.1710
   19 H4     2py       -0.0966   -0.3458   -0.1851   -0.2910   -0.0778    0.2978   -0.0787   -0.4150   -0.0916   -0.0074
   20 H4     2pz        0.0000    0.0000   -0.0000   -0.0000   -0.0000   -0.0000    0.0000    0.0000    0.0000   -0.0000
   21 H5     1s         0.0000   -0.0000   -0.0000    0.0000    0.0000   -0.0000    0.0000    0.0000    0.0000    0.0000
   22 H5     2s         0.0000   -0.0000   -0.0000    0.0000   -0.0000   -0.0000    0.0000    0.0000    0.0000   -0.0000
   23 H5     2px       -0.1198   -0.1851    0.3458    0.0778   -0.2910    0.0787    0.2978    0.0916   -0.4150   -0.1710
   24 H5     2py        0.0966   -0.3458   -0.1851    0.2910    0.0778    0.2978   -0.0787    0.4150    0.0916   -0.0074
   25 H5     2pz       -0.0000   -0.0000    0.0000    0.0000    0.0000    0.0000   -0.0000   -0.0000   -0.0000    0.0000
   26 H6     1s        -0.0000   -0.0000    0.0000   -0.0000   -0.0000    0.0000    0.0000    0.0000   -0.0000    0.0000
   27 H6     2s        -0.0000    0.0000    0.0000   -0.0000    0.0000   -0.0000   -0.0000   -0.0000   -0.0000   -0.0000
   28 H6     2px       -0.3014    0.0007   -0.0013    0.1038   -0.3886   -0.1064   -0.4027   -0.0010    0.0044    0.4322
   29 H6     2py        0.2431    0.0013    0.0007    0.3886    0.1038   -0.4027    0.1064   -0.0044   -0.0010    0.0186
   30 H6     2pz        0.0000    0.0000   -0.0000    0.0000   -0.0000   -0.0000    0.0000    0.0000    0.0000   -0.0000
   31 H7     1s        -0.0000   -0.0000    0.0000    0.0000    0.0000   -0.0000    0.0000    0.0000   -0.0000    0.0000
   32 H7     2s         0.0000    0.0000   -0.0000    0.0000    0.0000    0.0000   -0.0000   -0.0000    0.0000    0.0000
   33 H7     2px       -0.3412    0.1870   -0.3494   -0.0426    0.1596   -0.0407   -0.1542   -0.0912    0.4130   -0.4941
   34 H7     2py        0.2752    0.3494    0.1870   -0.1596   -0.0426   -0.1542    0.0407   -0.4130   -0.0912   -0.0213
   35 H7     2pz       -0.0000    0.0000    0.0000   -0.0000   -0.0000    0.0000    0.0000   -0.0000   -0.0000   -0.0000
   36 H8     1s         0.0000    0.0000    0.0000   -0.0000    0.0000   -0.0000    0.0000   -0.0000   -0.0000   -0.0000
   37 H8     2s        -0.0000   -0.0000    0.0000   -0.0000    0.0000    0.0000    0.0000    0.0000   -0.0000   -0.0000
   38 H8     2px       -0.2208    0.1848   -0.3452   -0.1177    0.4406    0.1202    0.4548    0.0923   -0.4182    0.3260
   39 H8     2py        0.1781    0.3452    0.1848   -0.4406   -0.1177    0.4548   -0.1202    0.4182    0.0923    0.0141
   40 H8     2pz        0.0000   -0.0000    0.0000    0.0000    0.0000   -0.0000   -0.0000    0.0000    0.0000    0.0000
 
 
      Orbital               31        32        33        34        35        36        37        38        39        40
      Energy            1.0780    1.1108    1.1108    1.1407    1.1597    1.1859    1.2463    1.3558    1.4668    1.5507
      Occ. No.          0.0000    0.0000    0.0000    0.0000    0.0000    0.0000    0.0000    0.0000    0.0000    0.0000
 
    1 H1     1s         0.0000   -0.0000    0.0000   -0.1930    0.1158    0.2025   -0.1783    0.1562   -0.1234    0.0702
    2 H1     2s         0.0000   -0.0000    0.0000   -0.3458    0.2322    0.3461   -0.3023    0.2139   -0.1341    0.0649
    3 H1     2px        0.0141   -0.0384   -0.1724    0.0000    0.0000   -0.0000   -0.0000    0.0000    0.0000   -0.0000
    4 H1     2py       -0.3260    0.1724   -0.0384   -0.0000   -0.0000    0.0000    0.0000   -0.0000    0.0000    0.0000
    5 H1     2pz        0.0000   -0.0000    0.0000   -0.2841    0.3492    0.2940   -0.5048    0.4661   -0.3577    0.1949
    6 H2     1s        -0.0000    0.0000   -0.0000    0.5055   -0.2076   -0.5430    0.2871   -0.1300    0.0125    0.0259
    7 H2     2s        -0.0000    0.0000   -0.0000    0.8938   -0.3087   -0.9177    0.3900   -0.1624    0.0474   -0.0087
    8 H2     2px       -0.0213    0.0715    0.3206   -0.0000    0.0000   -0.0000   -0.0000    0.0000   -0.0000    0.0000
    9 H2     2py        0.4941   -0.3206    0.0715    0.0000   -0.0000   -0.0000    0.0000    0.0000    0.0000   -0.0000
   10 H2     2pz       -0.0000    0.0000   -0.0000    0.2994    0.0070   -0.2548   -0.2291    0.5227   -0.5983    0.3957
   11 H3     1s         0.0000   -0.0000    0.0000   -0.5986   -0.1113    0.7470    0.0351   -0.1057    0.0329    0.0352
   12 H3     2s         0.0000   -0.0000    0.0000   -1.0452   -0.2275    1.2840    0.0032   -0.0499   -0.0004    0.0278
   13 H3     2px        0.0186   -0.0960   -0.4305    0.0000   -0.0000    0.0000    0.0000    0.0000    0.0000   -0.0000
   14 H3     2py       -0.4322    0.4305   -0.0960   -0.0000    0.0000    0.0000   -0.0000   -0.0000    0.0000   -0.0000
   15 H3     2pz       -0.0000    0.0000    0.0000    0.0603   -0.5276   -0.0161    0.4866    0.0021   -0.5185    0.5320
   16 H4     1s        -0.0000    0.0000   -0.0000    0.2715    0.5515   -0.7676   -0.1254   -0.1002    0.1000    0.0053
   17 H4     2s        -0.0000    0.0000   -0.0000    0.4694    0.9271   -1.3615   -0.1299   -0.0993    0.0634   -0.0043
   18 H4     2px       -0.0074    0.1090    0.4887   -0.0000    0.0000   -0.0000   -0.0000   -0.0000    0.0000    0.0000
   19 H4     2py        0.1710   -0.4887    0.1090    0.0000   -0.0000    0.0000    0.0000    0.0000   -0.0000   -0.0000
   20 H4     2pz        0.0000   -0.0000   -0.0000   -0.4473    0.3421    0.0721    0.3295   -0.4902   -0.2131    0.6117
   21 H5     1s         0.0000    0.0000    0.0000    0.2715   -0.5515    0.7676   -0.1254    0.1002    0.1000   -0.0053
   22 H5     2s         0.0000    0.0000    0.0000    0.4694   -0.9271    1.3615   -0.1299    0.0993    0.0634    0.0043
   23 H5     2px       -0.0074   -0.1090   -0.4887    0.0000    0.0000    0.0000    0.0000    0.0000   -0.0000   -0.0000
   24 H5     2py        0.1710    0.4887   -0.1090   -0.0000    0.0000   -0.0000   -0.0000    0.0000    0.0000    0.0000
   25 H5     2pz       -0.0000    0.0000    0.0000    0.4473    0.3421    0.0721   -0.3295   -0.4902    0.2131    0.6117
   26 H6     1s         0.0000   -0.0000   -0.0000   -0.5986    0.1113   -0.7470    0.0351    0.1057    0.0329   -0.0352
   27 H6     2s         0.0000   -0.0000   -0.0000   -1.0452    0.2275   -1.2840    0.0032    0.0499   -0.0004   -0.0278
   28 H6     2px        0.0186    0.0960    0.4305   -0.0000   -0.0000   -0.0000   -0.0000    0.0000    0.0000    0.0000
   29 H6     2py       -0.4322   -0.4305    0.0960    0.0000   -0.0000    0.0000    0.0000   -0.0000    0.0000    0.0000
   30 H6     2pz        0.0000    0.0000   -0.0000   -0.0603   -0.5276   -0.0161   -0.4866    0.0021    0.5185    0.5320
   31 H7     1s        -0.0000    0.0000    0.0000    0.5055    0.2076    0.5430    0.2871    0.1300    0.0125   -0.0259
   32 H7     2s        -0.0000    0.0000    0.0000    0.8938    0.3087    0.9177    0.3900    0.1624    0.0474    0.0087
   33 H7     2px       -0.0213   -0.0715   -0.3206    0.0000    0.0000    0.0000    0.0000    0.0000   -0.0000   -0.0000
   34 H7     2py        0.4941    0.3206   -0.0715    0.0000    0.0000   -0.0000   -0.0000    0.0000    0.0000    0.0000
   35 H7     2pz        0.0000   -0.0000   -0.0000   -0.2994    0.0070   -0.2548    0.2291    0.5227    0.5983    0.3957
   36 H8     1s        -0.0000   -0.0000   -0.0000   -0.1930   -0.1158   -0.2025   -0.1783   -0.1562   -0.1234   -0.0702
   37 H8     2s         0.0000   -0.0000   -0.0000   -0.3458   -0.2322   -0.3461   -0.3023   -0.2139   -0.1341   -0.0649
   38 H8     2px        0.0141    0.0384    0.1724   -0.0000   -0.0000   -0.0000   -0.0000   -0.0000   -0.0000   -0.0000
   39 H8     2py       -0.3260   -0.1724    0.0384   -0.0000   -0.0000    0.0000   -0.0000   -0.0000   -0.0000   -0.0000
   40 H8     2pz       -0.0000    0.0000    0.0000    0.2841    0.3492    0.2940    0.5048    0.4661    0.3577    0.1949
--
 
      Von Neumann Entropy (Root  1) =  3.53774
 

      Mulliken population analysis for root number:  1
      -----------------------------------------------
 
 
++    Molecular charges:
      ------------------
 
      Mulliken charges per centre and basis function type
      ---------------------------------------------------
 
                H1      H2      H3      H4      H5      H6      H7      H8    
      1s       0.9876  1.0019  1.0016  1.0011  1.0011  1.0016  1.0019  0.9876
      2s       0.0074  0.0013 -0.0032 -0.0024 -0.0024 -0.0032  0.0013  0.0074
      2px      0.0000  0.0000  0.0000  0.0000  0.0000  0.0000  0.0000  0.0000
      2pz      0.0005  0.0015  0.0013  0.0013  0.0013  0.0013  0.0015  0.0005
      2py      0.0000  0.0000  0.0000  0.0000  0.0000  0.0000  0.0000  0.0000
      Total    0.9955  1.0047  0.9998  1.0000  1.0000  0.9998  1.0047  0.9955
 
      N-E      0.0045 -0.0047  0.0002 -0.0000 -0.0000  0.0002 -0.0047  0.0045
 
      Total electronic charge=    8.000000
 
      Total            charge=   -0.000000
--
 
 

      Expectation values of various properties for root number:  1
      -----------------------------------------------------------
 
 
++    Molecular properties:
      ---------------------
 
      Charge (e):
                      =   -0.0000
      Dipole Moment (Debye):
      Origin of the operator (Ang)=    0.0000    0.0000    0.0000
                   X= -4.3277E-13               Y= -4.6056E-13               Z= -9.0301E-13           Total=  1.1022E-12
      Quadrupole Moment (Debye*Ang):
      Origin of the operator (Ang)=    0.0000    0.0000    7.9545
                  XX= -1.2282E+01              XY= -3.1661E-26              XZ= -4.2664E-12              YY= -1.2282E+01
                  YZ= -2.7076E-12              ZZ= -1.0695E+01
      In traceless form (Debye*Ang)
                  XX= -7.9372E-01              XY= -4.7491E-26              XZ= -6.3996E-12              YY= -7.9372E-01
                  YZ= -4.0614E-12              ZZ=  1.5874E+00
--
 

      LoProp population analysis for root number:  1
      -----------------------------------------------
 
 
++    LoProp analysis:
      ----------------
 
 
 
  Input file to MOLDEN was generated!
 
 
++    Static properties:
      ------------------
 
 
      LoProp Charges per center
 

                   H1       H2       H3       H4       H5       H6       H7       H8    
      Nuclear      1.0000   1.0000   1.0000   1.0000   1.0000   1.0000   1.0000   1.0000
      Electronic  -1.0001  -1.0000  -0.9999  -1.0000  -1.0000  -0.9999  -1.0000  -1.0001
 
      Total       -0.0001   0.0000   0.0001  -0.0000  -0.0000   0.0001   0.0000  -0.0001
--
 
 
      Natural Bond Order analysis for root number:  1
 
++    Natural Bond Order analysis
      ---------------------------
      Based on LoProp computed density
      -------------------------------------------------------------------------------------
      Atom A       Atom B       Bond Order
      -------------------------------------------------------------------------------------
      The remaining    8.000 electrons are to be considered as diffuse
--
 
--
 
 
  Input file to MOLDEN was generated!
 
      Average orbitals are written to the RASORB file
      Natural orbitals for root   1 are written to the RASORB.1 file
      Spin density orbitals for root   1 are written to the SPDORB.1 file
 
--- Stop Module: rasscf at Mon Nov 18 14:43:52 2024 /rc=_RC_ALL_IS_WELL_ ---
*** files: H8_2.27.LprOrb H8_2.27.rasscf.molden H8_2.27.LoProp.molden H8_2.27.RasOrb H8_2.27.RasOrb.1 H8_2.27.rasscf.h5 H8_2.27.SpdOrb.1 xmldump
    saved to directory /home/grierjones/DDCASPT2/hydrogen_comps/H8_chain/H8_2.27

>>> COPY /tmp/H8_2.27/H8_2.27.rasscf.h5 /home/grierjones/DDCASPT2/hydrogen_comps/H8_chain/H8_2.27/

>>> COPY /tmp/H8_2.27/GMJ_Fock_MO.csv /home/grierjones/DDCASPT2/hydrogen_comps/H8_chain/H8_2.27/H8_2.27.GMJ_Fock_MO.csv

>>> COPY /tmp/H8_2.27/GMJ_PT2_Fock_MO.csv /home/grierjones/DDCASPT2/hydrogen_comps/H8_chain/H8_2.27/H8_2.27.GMJ_PT2_Fock_MO.csv

*** symbolic link created: INPORB -> H8_2.27.RasOrb
--- Start Module: motra at Mon Nov 18 14:43:52 2024 ---
 
()()()()()()()()()()()()()()()()()()()()()()()()()()()()()()()()()()()()()()()()()()()()()()()()()()

                                               &MOTRA

                                   only a single process is used
                       available to each process: 2.0 GB of memory, 1 thread?
()()()()()()()()()()()()()()()()()()()()()()()()()()()()()()()()()()()()()()()()()()()()()()()()()()
 
 
      *** WARNING: Default frozen orbitals is overwritten by user input.
      *** Default values:   0
 
      Header of the integral files:
      
       Integrals generated by seward 4.2.0  , Mon Nov 18 14:43:51 2024
 
 
      Header of MO coefficients source file:
      * RASSCF average (pseudo-natural) orbitals                                      
 
 
      Cartesian coordinates in Angstrom:
      -----------------------------------------------------
      No.  Label        X            Y            Z        
      -----------------------------------------------------
       1   H1         0.00000000   0.00000000   0.00000000
       2   H2         0.00000000   0.00000000   2.27272700
       3   H3         0.00000000   0.00000000   4.54545500
       4   H4         0.00000000   0.00000000   6.81818200
       5   H5         0.00000000   0.00000000   9.09090900
       6   H6         0.00000000   0.00000000  11.36363600
       7   H7         0.00000000   0.00000000  13.63636400
       8   H8         0.00000000   0.00000000  15.90909100
      -----------------------------------------------------
      Nuclear repulsion energy =    3.19985897
 
      Orbital specifications:
      -----------------------
 
      Symmetry species:              1
      Number of basis functions:    40
      Frozen orbitals:               0
      Deleted orbitals:              0
      Number of orbitals used:      40

       SYMMETRY  BASIS FUNCTIONS       ORBITALS      INTEGRALS   CPU(SEC)  I/O(SEC)
 
        1 1 1 1   40  40  40  40    40  40  40  40      336610       0.00      0.00

       TOTAL CPU TIME(SEC)    0.14TOTAL I/O TIME(SEC)    0.44
 
--- Stop Module: motra at Mon Nov 18 14:43:53 2024 /rc=_RC_ALL_IS_WELL_ ---
*** files: xmldump
    saved to directory /home/grierjones/DDCASPT2/hydrogen_comps/H8_chain/H8_2.27

>>> COPY /tmp/H8_2.27/GMJ_one_int_indx.csv /home/grierjones/DDCASPT2/hydrogen_comps/H8_chain/H8_2.27/H8_2.27.GMJ_one_int_indx.csv

>>> COPY /tmp/H8_2.27/GMJ_one_int.csv /home/grierjones/DDCASPT2/hydrogen_comps/H8_chain/H8_2.27/H8_2.27.GMJ_one_int.csv

>>> COPY /tmp/H8_2.27/GMJ_two_int_indx.csv /home/grierjones/DDCASPT2/hydrogen_comps/H8_chain/H8_2.27/H8_2.27.GMJ_two_int_indx.csv

>>> COPY /tmp/H8_2.27/GMJ_two_int.csv /home/grierjones/DDCASPT2/hydrogen_comps/H8_chain/H8_2.27/H8_2.27.GMJ_two_int.csv

*** symbolic link created: INPORB -> H8_2.27.RasOrb
--- Start Module: caspt2 at Mon Nov 18 14:43:53 2024 ---
 
()()()()()()()()()()()()()()()()()()()()()()()()()()()()()()()()()()()()()()()()()()()()()()()()()()

                                              &CASPT2

                                   only a single process is used
                       available to each process: 2.0 GB of memory, 1 thread?
()()()()()()()()()()()()()()()()()()()()()()()()()()()()()()()()()()()()()()()()()()()()()()()()()()
 
 Cholesky algorithm in CASPT2 =    1
 
 ###############################################################################
 ###############################################################################
 ###                                                                         ###
 ###                                                                         ###
 ###    User changed nr of frozen orbitals.                                  ###
 ###                                                                         ###
 ###                                                                         ###
 ###############################################################################
 ###############################################################################
 
++    Wave function specifications:
      -----------------------------
 
      Number of closed shell electrons           0
      Number of electrons in active shells       8
      Max number of holes in RAS1 space          0
      Max number of electrons in RAS3 space      0
      Number of inactive orbitals                0
      Number of active orbitals                  8
      Number of secondary orbitals              32
      Spin quantum number                      0.0
      State symmetry                             1
      Number of CSFs                          1764
      Number of root(s) available                1
      Root passed to geometry opt.               1
      A file JOBMIX will be created.
      This is a CASSCF or RASSCF reference function
--
 
++    Orbital specifications:
      -----------------------
 
      Symmetry species                           1
                                                 a
      Frozen orbitals                            0
      Inactive orbitals                          0
      Active orbitals                            8
      Secondary orbitals                        32
      Deleted orbitals                           0
      Number of basis functions                 40
--
 
      Type of Fock operator: STANDARD
      Type of 0-order Hamiltonian: STANDARD WITH DEFAULT IPEA
        "IP-EA" denominator shift =      0.25
      The input orbitals and the CI vector will be transformed.
 
--------------------------------------------------------------------------------
 Estimated memory requirements:
  POLY3 :                   450746
  RHS:                      417296
  SIGMA :                   326032
  PRPCTL:                        0
 Available workspace:    230388092
 
++ CASPT2 computation for group   1
 
********************************************************************************
 Multi-State initialization phase begins for group   1
--------------------------------------------------------------------------------
********************************************************************************
 Compute H0 matrices for state    1
--------------------------------------------------------------------------------
--------------------------------------------------------------------------------
 H0 matrices have been computed.
 
********************************************************************************
  CASPT2 EQUATION SOLUTION
--------------------------------------------------------------------------------
 
  Total nr of CASPT2 parameters:
   Before reduction:       49280
   After  reduction:       48960
 
 The contributions to the second order correlation energy in atomic units.
-----------------------------------------------------------------------------------------------------------------------------
  IT.      VJTU        VJTI        ATVX        AIVX        VJAI        BVAT        BJAT        BJAI        TOTAL       RNORM  
-----------------------------------------------------------------------------------------------------------------------------
   1     0.000000    0.000000   -0.001863    0.000000    0.000000   -0.004551    0.000000    0.000000   -0.006414    0.000929
   2     0.000000    0.000000   -0.001882    0.000000    0.000000   -0.004557    0.000000    0.000000   -0.006439    0.000147
   3     0.000000    0.000000   -0.001884    0.000000    0.000000   -0.004557    0.000000    0.000000   -0.006441    0.000035
   4     0.000000    0.000000   -0.001883    0.000000    0.000000   -0.004557    0.000000    0.000000   -0.006440    0.000005
-------------------------------------------------------------------------------------------------------------------
 
  FINAL CASPT2 RESULT:
 
  Correlation energy /Case, /Symm, and sums:
 VJTU      0.00000000  0.00000000
 VJTIP     0.00000000  0.00000000
 VJTIM     0.00000000  0.00000000
 ATVX     -0.00188297 -0.00188297
 AIVX      0.00000000  0.00000000
 VJAIP     0.00000000  0.00000000
 VJAIM     0.00000000  0.00000000
 BVATP    -0.00423345 -0.00423345
 BVATM    -0.00032383 -0.00032383
 BJATP     0.00000000  0.00000000
 BJATM     0.00000000  0.00000000
 BJAIP     0.00000000  0.00000000
 BJAIM     0.00000000  0.00000000
 Summed:  -0.00644026 -0.00644026
 
      Reference energy:          -4.0197201215
      E2 (Non-variational):      -0.0064402632
      E2 (Variational):          -0.0064402779
      Total energy:              -4.0261603994
      Residual norm:              0.0000009277
      Reference weight:           0.99591
 
      Contributions to the CASPT2 correlation energy
      Active & Virtual Only:         -0.0064402632
      One Inactive Excited:           0.0000000000
      Two Inactive Excited:           0.0000000000
 
 
++ Denominators, etc.
----------------------------------------------------------------------------------------------------
 Report on small energy denominators, large coefficients, and large energy contributions.
CASE  SYMM ACTIVE-MIX  NON-ACTIVE INDICES          DENOMINATOR     RHS VALUE       COEFFICIENT     CONTRIBUTION
--
 
   (Skipping property calculation,
    use PROP keyword to activate)
--
 
  Total CASPT2 energies:
::    CASPT2 Root  1     Total energy:     -4.02616040
 
  A NEW JOBIPH FILE NAMED 'JOBMIX' IS PREPARED.
********************************************************************************
--- Stop Module: caspt2 at Mon Nov 18 14:43:53 2024 /rc=_RC_ALL_IS_WELL_ ---
*** files: xmldump
    saved to directory /home/grierjones/DDCASPT2/hydrogen_comps/H8_chain/H8_2.27

>>> EXPORT i = B

>>> EXPORT j = P

>>> IF (-FILE GMJ_e2_${i}_${j}.csv)
(Skipped)

>>> END FOREACH

>>> EXPORT j = M

>>> IF (-FILE GMJ_e2_${i}_${j}.csv)
(Skipped)

>>> END FOREACH

>>> END FOREACH

>>> EXPORT i = E

>>> EXPORT j = P

>>> IF (-FILE GMJ_e2_${i}_${j}.csv)
(Skipped)

>>> END FOREACH

>>> EXPORT j = M

>>> IF (-FILE GMJ_e2_${i}_${j}.csv)
(Skipped)

>>> END FOREACH

>>> END FOREACH

>>> EXPORT i = F

>>> EXPORT j = P

>>> IF (-FILE GMJ_e2_${i}_${j}.csv)

>>> COPY /tmp/H8_2.27/GMJ_RHS_F_P.csv /home/grierjones/DDCASPT2/hydrogen_comps/H8_chain/H8_2.27/GMJ_RHS_F_P.csv

>>> COPY /tmp/H8_2.27/GMJ_IVECW_F_P.csv /home/grierjones/DDCASPT2/hydrogen_comps/H8_chain/H8_2.27/GMJ_IVECW_F_P.csv

>>> COPY /tmp/H8_2.27/GMJ_IVECX_F_P.csv /home/grierjones/DDCASPT2/hydrogen_comps/H8_chain/H8_2.27/GMJ_IVECX_F_P.csv

>>> COPY /tmp/H8_2.27/GMJ_IVECC2_F_P.csv /home/grierjones/DDCASPT2/hydrogen_comps/H8_chain/H8_2.27/GMJ_IVECC2_F_P.csv

>>> COPY /tmp/H8_2.27/GMJ_e2_F_P.csv /home/grierjones/DDCASPT2/hydrogen_comps/H8_chain/H8_2.27/GMJ_e2_F_P.csv

>>> END FOREACH

>>> EXPORT j = M

>>> IF (-FILE GMJ_e2_${i}_${j}.csv)

>>> COPY /tmp/H8_2.27/GMJ_RHS_F_M.csv /home/grierjones/DDCASPT2/hydrogen_comps/H8_chain/H8_2.27/GMJ_RHS_F_M.csv

>>> COPY /tmp/H8_2.27/GMJ_IVECW_F_M.csv /home/grierjones/DDCASPT2/hydrogen_comps/H8_chain/H8_2.27/GMJ_IVECW_F_M.csv

>>> COPY /tmp/H8_2.27/GMJ_IVECX_F_M.csv /home/grierjones/DDCASPT2/hydrogen_comps/H8_chain/H8_2.27/GMJ_IVECX_F_M.csv

>>> COPY /tmp/H8_2.27/GMJ_IVECC2_F_M.csv /home/grierjones/DDCASPT2/hydrogen_comps/H8_chain/H8_2.27/GMJ_IVECC2_F_M.csv

>>> COPY /tmp/H8_2.27/GMJ_e2_F_M.csv /home/grierjones/DDCASPT2/hydrogen_comps/H8_chain/H8_2.27/GMJ_e2_F_M.csv

>>> END FOREACH

>>> END FOREACH

>>> EXPORT i = G

>>> EXPORT j = P

>>> IF (-FILE GMJ_e2_${i}_${j}.csv)
(Skipped)

>>> END FOREACH

>>> EXPORT j = M

>>> IF (-FILE GMJ_e2_${i}_${j}.csv)
(Skipped)

>>> END FOREACH

>>> END FOREACH

>>> EXPORT i = H

>>> EXPORT j = P

>>> IF (-FILE GMJ_e2_${i}_${j}.csv)
(Skipped)

>>> END FOREACH

>>> EXPORT j = M

>>> IF (-FILE GMJ_e2_${i}_${j}.csv)
(Skipped)

>>> END FOREACH

>>> END FOREACH

>>> EXPORT i = A

>>> IF (-FILE GMJ_e2_$i.csv)
(Skipped)

>>> END FOREACH

>>> EXPORT i = C

>>> IF (-FILE GMJ_e2_$i.csv)

>>> COPY /tmp/H8_2.27/GMJ_RHS_C.csv /home/grierjones/DDCASPT2/hydrogen_comps/H8_chain/H8_2.27/GMJ_RHS_C.csv

>>> COPY /tmp/H8_2.27/GMJ_IVECW_C.csv /home/grierjones/DDCASPT2/hydrogen_comps/H8_chain/H8_2.27/GMJ_IVECW_C.csv

>>> COPY /tmp/H8_2.27/GMJ_IVECX_C.csv /home/grierjones/DDCASPT2/hydrogen_comps/H8_chain/H8_2.27/GMJ_IVECX_C.csv

>>> COPY /tmp/H8_2.27/GMJ_IVECC2_C.csv /home/grierjones/DDCASPT2/hydrogen_comps/H8_chain/H8_2.27/GMJ_IVECC2_C.csv

>>> COPY /tmp/H8_2.27/GMJ_e2_C.csv /home/grierjones/DDCASPT2/hydrogen_comps/H8_chain/H8_2.27/GMJ_e2_C.csv

>>> END FOREACH

>>> EXPORT i = D

>>> IF (-FILE GMJ_e2_$i.csv)
(Skipped)

>>> END FOREACH

.########################.
.# Non-zero return code #.
.########################.

    Timing: Wall=2.44 User=1.68 System=0.75
***************************************
*** WorkDir at /tmp/H8_2.27 cleaned ***
***************************************
